<event>
12    4  0.4398275E-008  0.1722486E+04  0.7818608E-02  0.8748642E-01
         -2   -1    0    0    0  501 -0.00000000000E+00  0.00000000000E+00  0.92664946495E+03  0.92664946495E+03  0.00000000000E+00 0.  1.
          1   -1    0    0  501    0  0.00000000000E+00 -0.00000000000E+00 -0.80045354624E+03  0.80045354624E+03  0.00000000000E+00 0. -1.
        -24    2    1    2    0    0  0.57155110367E+03 -0.22611429686E+03  0.15063370079E+03  0.63831014630E+03  0.83372607618E+02 0.  0.
        254    2    1    2    0    0 -0.57155110367E+03  0.22611429686E+03 -0.24437782080E+02  0.10887928649E+04  0.89837317306E+03 0.  0.
         23    2    4    4    0    0 -0.56633444791E+02  0.49125507809E+03 -0.51183551025E+01  0.50242111832E+03  0.88667264272E+02 0.  0.
         23    2    4    4    0    0 -0.51491765888E+03 -0.26514078123E+03 -0.19319426978E+02  0.58637174657E+03  0.89547504805E+02 0.  0.
          1    1    3    3  502    0  0.26944203999E+03 -0.12442280939E+03  0.11199872203E+03  0.31721248737E+03  0.00000000000E+00 0. -1.
         -2    1    3    3    0  502  0.30210906368E+03 -0.10169148748E+03  0.38634978759E+02  0.32109765893E+03  0.00000000000E+00 0.  1.
         11    1    5    5    0    0  0.17089072934E+02  0.12675367036E+03 -0.23688572785E+02  0.13007566200E+03  0.00000000000E+00 0.  1.
        -11    1    5    5    0    0 -0.73722517725E+02  0.36450140773E+03  0.18570217682E+02  0.37234545632E+03  0.00000000000E+00 0. -1.
          4    1    6    6  503    0 -0.34995268397E+03 -0.13245733231E+03 -0.55839391669E+01  0.37422320382E+03  0.00000000000E+00 0. -1.
         -4    1    6    6    0  503 -0.16496497491E+03 -0.13268344892E+03 -0.13735487811E+02  0.21214854275E+03  0.00000000000E+00 0.  1.
<mgrwt>
<rscale>  0 0.17224864E+04</rscale>
<asrwt>0</asrwt>
<pdfrwt beam="1">  1        1 0.12314670E+00 0.17224864E+04</pdfrwt>
<pdfrwt beam="2">  1       -2 0.14256146E+00 0.17224864E+04</pdfrwt>
<totfact> 0.62941832E+00</totfact>
</mgrwt>
</event>
<event>
12    4  0.4398275E-008  0.1397991E+04  0.7818608E-02  0.8955274E-01
          1   -1    0    0  501    0  0.00000000000E+00  0.00000000000E+00  0.66226841819E+03  0.66226841819E+03  0.00000000000E+00 0. -1.
         -2   -1    0    0    0  501 -0.00000000000E+00 -0.00000000000E+00 -0.73775903089E+03  0.73775903089E+03  0.00000000000E+00 0.  1.
        -24    2    1    2    0    0  0.40562372582E+03 -0.63688009361E+02 -0.48109363779E+01  0.41853432430E+03  0.81000407584E+02 0.  0.
        254    2    1    2    0    0 -0.40562372582E+03  0.63688009361E+02 -0.70679676325E+02  0.98149312478E+03  0.88867675105E+03 0.  0.
         23    2    4    4    0    0  0.56320631697E+02  0.39083591292E+03 -0.39188336713E+02  0.40713728544E+03  0.91106086967E+02 0.  0.
         23    2    4    4    0    0 -0.46194435751E+03 -0.32714790356E+03 -0.31491339613E+02  0.57435583933E+03  0.92057511720E+02 0.  0.
          3    1    3    3  502    0  0.16542442386E+03 -0.98847969208E+01 -0.38376503477E+02  0.17010498299E+03  0.00000000000E+00 0. -1.
         -4    1    3    3    0  502  0.24019930195E+03 -0.53803212440E+02  0.33565567099E+02  0.24842934131E+03  0.00000000000E+00 0.  1.
         11    1    5    5    0    0  0.11412228022E+02  0.13294788069E+03 -0.56260087825E+02  0.14481220739E+03  0.00000000000E+00 0.  1.
        -11    1    5    5    0    0  0.44908403675E+02  0.25788803223E+03  0.17071751113E+02  0.26232507805E+03  0.00000000000E+00 0. -1.
          1    1    6    6  503    0 -0.87442147215E+02 -0.59026019264E+02 -0.42242220877E+02  0.11364244491E+03  0.00000000000E+00 0. -1.
         -1    1    6    6    0  503 -0.37450221030E+03 -0.26812188429E+03  0.10750881264E+02  0.46071339443E+03  0.00000000000E+00 0.  1.
<mgrwt>
<rscale>  0 0.13979907E+04</rscale>
<asrwt>0</asrwt>
<pdfrwt beam="1">  1        1 0.10188745E+00 0.13979907E+04</pdfrwt>
<pdfrwt beam="2">  1       -2 0.11350139E+00 0.13979907E+04</pdfrwt>
<totfact> 0.15393775E+01</totfact>
</mgrwt>
</event>
<event>
12    4  0.4398275E-008  0.1487639E+04  0.7818608E-02  0.8892714E-01
          1   -1    0    0  501    0  0.00000000000E+00  0.00000000000E+00  0.99625885182E+03  0.99625885182E+03  0.00000000000E+00 0. -1.
         -2   -1    0    0    0  501 -0.00000000000E+00 -0.00000000000E+00 -0.55534532887E+03  0.55534532887E+03  0.00000000000E+00 0.  1.
        -24    2    1    2    0    0  0.25556915679E+03  0.17132488839E+03 -0.22541562642E+03  0.39025703757E+03  0.82586557365E+02 0.  0.
        254    2    1    2    0    0 -0.25556915679E+03 -0.17132488839E+03  0.66632914937E+03  0.11613471431E+04  0.90003602163E+03 0.  0.
         23    2    4    4    0    0 -0.16748197164E+03 -0.52063255343E+03  0.26642114372E+03  0.61509744428E+03  0.90863488919E+02 0.  0.
         23    2    4    4    0    0 -0.88087185147E+02  0.34930766504E+03  0.39990800565E+03  0.54624969884E+03  0.93204739427E+02 0.  0.
          1    1    3    3  502    0  0.66631880891E+02  0.70651169585E+02 -0.11110165059E+03  0.14756345102E+03  0.00000000000E+00 0. -1.
         -2    1    3    3    0  502  0.18893727590E+03  0.10067371880E+03 -0.11431397584E+03  0.24269358655E+03  0.00000000000E+00 0.  1.
         11    1    5    5    0    0 -0.52330759013E+02 -0.24821461854E+03  0.82186171623E+02  0.26665253046E+03  0.00000000000E+00 0.  1.
        -11    1    5    5    0    0 -0.11515121263E+03 -0.27241793489E+03  0.18423497210E+03  0.34844491382E+03  0.00000000000E+00 0. -1.
          4    1    6    6  503    0 -0.13582111496E+02  0.19712048876E+02  0.70064589966E+02  0.74041106087E+02  0.00000000000E+00 0.  1.
         -4    1    6    6    0  503 -0.74505073651E+02  0.32959561617E+03  0.32984341568E+03  0.47220859275E+03  0.00000000000E+00 0. -1.
<mgrwt>
<rscale>  0 0.14876393E+04</rscale>
<asrwt>0</asrwt>
<pdfrwt beam="1">  1        1 0.15327059E+00 0.14876393E+04</pdfrwt>
<pdfrwt beam="2">  1       -2 0.85437743E-01 0.14876393E+04</pdfrwt>
<totfact> 0.15400343E+01</totfact>
</mgrwt>
</event>
<event>
12    4  0.4398275E-008  0.1713760E+04  0.7818608E-02  0.8753555E-01
         -2   -1    0    0    0  501 -0.00000000000E+00  0.00000000000E+00  0.65489177696E+03  0.65489177696E+03  0.00000000000E+00 0.  1.
          1   -1    0    0  501    0  0.00000000000E+00 -0.00000000000E+00 -0.11211678601E+04  0.11211678601E+04  0.00000000000E+00 0. -1.
        -24    2    1    2    0    0  0.11463149139E+03  0.28986803693E+03  0.38532319819E+03  0.50192682898E+03  0.79326647074E+02 0.  0.
        254    2    1    2    0    0 -0.11463149139E+03 -0.28986803693E+03 -0.85159928136E+03  0.12741328081E+04  0.89500235701E+03 0.  0.
         23    2    4    4    0    0 -0.42499167549E+03 -0.39393589409E+03 -0.40551099198E+03  0.71316682739E+03  0.91456799549E+02 0.  0.
         23    2    4    4    0    0  0.31036018410E+03  0.10406785716E+03 -0.44608828939E+03  0.56096598073E+03  0.92382394597E+02 0.  0.
          3    1    3    3  502    0  0.56028404202E+02  0.79519988707E+02  0.76748306832E+02  0.12390687343E+03  0.00000000000E+00 0. -1.
         -4    1    3    3    0  502  0.58603087187E+02  0.21034804823E+03  0.30857489136E+03  0.37801995555E+03  0.00000000000E+00 0.  1.
         11    1    5    5    0    0 -0.42910167368E+03 -0.39088375717E+03 -0.39697118547E+03  0.70321012512E+03  0.00000000000E+00 0. -1.
        -11    1    5    5    0    0  0.41099981902E+01 -0.30521369205E+01 -0.85398065102E+01  0.99567022722E+01  0.00000000000E+00 0.  1.
          4    1    6    6  503    0  0.17475055545E+03  0.90936353774E+02 -0.31734237022E+03  0.37351486852E+03  0.00000000000E+00 0. -1.
         -4    1    6    6    0  503  0.13560962866E+03  0.13131503388E+02 -0.12874591917E+03  0.18745111221E+03  0.00000000000E+00 0.  1.
<mgrwt>
<rscale>  0 0.17137603E+04</rscale>
<asrwt>0</asrwt>
<pdfrwt beam="1">  1        1 0.17248736E+00 0.17137603E+04</pdfrwt>
<pdfrwt beam="2">  1       -2 0.10075258E+00 0.17137603E+04</pdfrwt>
<totfact> 0.82669781E+00</totfact>
</mgrwt>
</event>
<event>
12    4  0.4398275E-008  0.1635461E+04  0.7818608E-02  0.8799054E-01
         -2   -1    0    0    0  501 -0.00000000000E+00  0.00000000000E+00  0.20183593908E+03  0.20183593908E+03  0.00000000000E+00 0.  1.
          1   -1    0    0  501    0  0.00000000000E+00 -0.00000000000E+00 -0.33130053132E+04  0.33130053132E+04  0.00000000000E+00 0. -1.
        -24    2    1    2    0    0  0.41748486000E+03  0.33303539527E+03 -0.14666595958E+04  0.15628787712E+04  0.79331586775E+02 0.  0.
        254    2    1    2    0    0 -0.41748486000E+03 -0.33303539527E+03 -0.16445097784E+04  0.19519624811E+04  0.90583604131E+03 0.  0.
         23    2    4    4    0    0 -0.42974716037E+03 -0.51350058341E+03 -0.16073653103E+04  0.17434409321E+04  0.87164053546E+02 0.  0.
         23    2    4    4    0    0  0.12262300371E+02  0.18046518814E+03 -0.37144468109E+02  0.20852154898E+03  0.96868347457E+02 0.  0.
          3    1    3    3  502    0  0.35878140729E+03  0.31306211543E+03 -0.13342081027E+04  0.14166309497E+04  0.00000000000E+00 0. -1.
         -4    1    3    3    0  502  0.58703452712E+02  0.19973279844E+02 -0.13245149314E+03  0.14624782153E+03  0.00000000000E+00 0.  1.
         11    1    5    5    0    0 -0.66813313291E+01 -0.38489958307E+02 -0.99743547987E+02  0.10712092440E+03  0.00000000000E+00 0.  1.
        -11    1    5    5    0    0 -0.42306582904E+03 -0.47501062510E+03 -0.15076217623E+04  0.16363200077E+04  0.00000000000E+00 0. -1.
          1    1    6    6  503    0  0.40747596537E+02  0.99662325215E+02  0.14254073188E+02  0.10860996406E+03  0.00000000000E+00 0. -1.
         -1    1    6    6    0  503 -0.28485296166E+02  0.80802862922E+02 -0.51398541297E+02  0.99911584922E+02  0.00000000000E+00 0.  1.
<mgrwt>
<rscale>  0 0.16354614E+04</rscale>
<asrwt>0</asrwt>
<pdfrwt beam="1">  1        1 0.50969314E+00 0.16354614E+04</pdfrwt>
<pdfrwt beam="2">  1       -2 0.31051682E-01 0.16354614E+04</pdfrwt>
<totfact> 0.28399657E+00</totfact>
</mgrwt>
</event>
<event>
12    4  0.4398275E-008  0.2081340E+04  0.7818608E-02  0.8569508E-01
         -2   -1    0    0    0  501 -0.00000000000E+00  0.00000000000E+00  0.16346280264E+04  0.16346280264E+04  0.00000000000E+00 0.  1.
          1   -1    0    0  501    0  0.00000000000E+00 -0.00000000000E+00 -0.66253264948E+03  0.66253264948E+03  0.00000000000E+00 0. -1.
        -24    2    1    2    0    0  0.71285816079E+03  0.40109706926E+03  0.16730433892E+03  0.83993309685E+03  0.91930674902E+02 0.  0.
        254    2    1    2    0    0 -0.71285816079E+03 -0.40109706926E+03  0.80479103800E+03  0.14572275790E+04  0.89820820852E+03 0.  0.
         23    2    4    4    0    0 -0.42378270792E+03  0.22923310784E+03  0.48070137773E+03  0.68676073089E+03  0.91798070087E+02 0.  0.
         23    2    4    4    0    0 -0.28907545287E+03 -0.63033017710E+03  0.32408966026E+03  0.77046684814E+03  0.87774179447E+02 0.  0.
          3    1    3    3  502    0  0.23542068216E+03  0.94779613720E+02  0.79360678572E+02  0.26590259508E+03  0.00000000000E+00 0. -1.
         -4    1    3    3    0  502  0.47743747863E+03  0.30631745554E+03  0.87943660344E+02  0.57403050177E+03  0.00000000000E+00 0.  1.
         11    1    5    5    0    0 -0.14084100002E+02 -0.88268586387E+01  0.17208567777E+02  0.23925093756E+02  0.00000000000E+00 0.  1.
        -11    1    5    5    0    0 -0.40969860792E+03  0.23805996648E+03  0.46349280996E+03  0.66283563713E+03  0.00000000000E+00 0. -1.
          2    1    6    6  503    0 -0.41955216778E+02 -0.16403719679E+03  0.10382510246E+03  0.19861544261E+03  0.00000000000E+00 0.  1.
         -2    1    6    6    0  503 -0.24712023610E+03 -0.46629298031E+03  0.22026455780E+03  0.57185140552E+03  0.00000000000E+00 0. -1.
<mgrwt>
<rscale>  0 0.20813404E+04</rscale>
<asrwt>0</asrwt>
<pdfrwt beam="1">  1        1 0.10192810E+00 0.20813404E+04</pdfrwt>
<pdfrwt beam="2">  1       -2 0.25148123E+00 0.20813404E+04</pdfrwt>
<totfact> 0.15028391E+00</totfact>
</mgrwt>
</event>
<event>
12    4  0.4398275E-008  0.2053527E+04  0.7818608E-02  0.8581996E-01
         -2   -1    0    0    0  501 -0.00000000000E+00  0.00000000000E+00  0.70506563795E+03  0.70506563795E+03  0.00000000000E+00 0.  1.
          1   -1    0    0  501    0  0.00000000000E+00 -0.00000000000E+00 -0.14952409885E+04  0.14952409885E+04  0.00000000000E+00 0. -1.
        -24    2    1    2    0    0 -0.72809915614E+03  0.39437894792E+03 -0.30239197051E+03  0.88518529539E+03  0.80305464380E+02 0.  0.
        254    2    1    2    0    0  0.72809915614E+03 -0.39437894792E+03 -0.48778338006E+03  0.13151213311E+04  0.89774626363E+03 0.  0.
         23    2    4    4    0    0  0.39653247800E+03 -0.42109148606E+03 -0.69817331782E+03  0.91116156979E+03  0.90627693404E+02 0.  0.
         23    2    4    4    0    0  0.33156667815E+03  0.26712538132E+02  0.21038993775E+03  0.40395976130E+03  0.90937017147E+02 0.  0.
          1    1    3    3  502    0 -0.11206525437E+03  0.87716936558E+02 -0.32270505716E+02  0.14592555546E+03  0.00000000000E+00 0. -1.
         -2    1    3    3    0  502 -0.61603390177E+03  0.30666201137E+03 -0.27012146480E+03  0.73925973994E+03  0.00000000000E+00 0.  1.
         11    1    5    5    0    0  0.82715659994E+02 -0.40541654525E+02 -0.11591282702E+03  0.14805839938E+03  0.00000000000E+00 0. -1.
        -11    1    5    5    0    0  0.31381681800E+03 -0.38054983153E+03 -0.58226049079E+03  0.76310317040E+03  0.00000000000E+00 0.  1.
          3    1    6    6  503    0  0.42108410797E+02  0.29668845726E+02  0.55237782692E+02  0.75528612480E+02  0.00000000000E+00 0. -1.
         -3    1    6    6    0  503  0.28945826735E+03 -0.29563075936E+01  0.15515215506E+03  0.32843114881E+03  0.00000000000E+00 0.  1.
<mgrwt>
<rscale>  0 0.20535268E+04</rscale>
<asrwt>0</asrwt>
<pdfrwt beam="1">  1        1 0.23003707E+00 0.20535268E+04</pdfrwt>
<pdfrwt beam="2">  1       -2 0.10847164E+00 0.20535268E+04</pdfrwt>
<totfact> 0.36311494E+00</totfact>
</mgrwt>
</event>
<event>
12    4  0.4398275E-008  0.1546958E+04  0.7818608E-02  0.8853813E-01
          1   -1    0    0  501    0  0.00000000000E+00  0.00000000000E+00  0.19294594569E+04  0.19294594569E+04  0.00000000000E+00 0. -1.
         -2   -1    0    0    0  501 -0.00000000000E+00 -0.00000000000E+00 -0.31007100352E+03  0.31007100352E+03  0.00000000000E+00 0.  1.
        -24    2    1    2    0    0  0.27685506394E+03  0.40142447747E+03  0.31099741055E+03  0.58388305420E+03  0.80060565066E+02 0.  0.
        254    2    1    2    0    0 -0.27685506394E+03 -0.40142447747E+03  0.13083910428E+04  0.16556474062E+04  0.88965772926E+03 0.  0.
         23    2    4    4    0    0 -0.12581509892E+03 -0.36949074302E+01  0.11961157152E+04  0.12061572533E+04  0.90991339992E+02 0.  0.
         23    2    4    4    0    0 -0.15103996502E+03 -0.39772957004E+03  0.11227532761E+03  0.44949015296E+03  0.91835540498E+02 0.  0.
          3    1    3    3  502    0  0.14437628550E+03  0.20391773897E+03  0.20637875528E+03  0.32406657759E+03  0.00000000000E+00 0. -1.
         -4    1    3    3    0  502  0.13247877844E+03  0.19750673849E+03  0.10461865527E+03  0.25981647661E+03  0.00000000000E+00 0.  1.
         11    1    5    5    0    0 -0.95913549081E+02 -0.14974890370E+02  0.11111091885E+04  0.11153417794E+04  0.00000000000E+00 0. -1.
        -11    1    5    5    0    0 -0.29901549842E+02  0.11279982940E+02  0.85006526745E+02  0.90815473832E+02  0.00000000000E+00 0.  1.
          3    1    6    6  503    0 -0.79206471449E+02 -0.31315276965E+03  0.68470977514E+02  0.33019175795E+03  0.00000000000E+00 0. -1.
         -3    1    6    6    0  503 -0.71833493573E+02 -0.84576800387E+02  0.43804350099E+02  0.11929839500E+03  0.00000000000E+00 0.  1.
<mgrwt>
<rscale>  0 0.15469576E+04</rscale>
<asrwt>0</asrwt>
<pdfrwt beam="1">  1        1 0.29683991E+00 0.15469576E+04</pdfrwt>
<pdfrwt beam="2">  1       -2 0.47703233E-01 0.15469576E+04</pdfrwt>
<totfact> 0.11725795E+01</totfact>
</mgrwt>
</event>
<event>
12    4  0.4398275E-008  0.2067243E+04  0.7818608E-02  0.8575812E-01
         -2   -1    0    0    0  501 -0.00000000000E+00  0.00000000000E+00  0.64229040163E+03  0.64229040163E+03  0.00000000000E+00 0.  1.
          1   -1    0    0  501    0  0.00000000000E+00 -0.00000000000E+00 -0.16633802581E+04  0.16633802581E+04  0.00000000000E+00 0. -1.
        -24    2    1    2    0    0  0.35321623241E+03  0.19752102266E+02  0.42984824538E+03  0.56217113748E+03  0.78198602149E+02 0.  0.
        254    2    1    2    0    0 -0.35321623241E+03 -0.19752102266E+02 -0.14509381019E+04  0.17434995223E+04  0.89967625083E+03 0.  0.
         23    2    4    4    0    0  0.19462711849E+03 -0.27188861069E+03 -0.40625563711E+03  0.53391197448E+03  0.90637861481E+02 0.  0.
         23    2    4    4    0    0 -0.54784335090E+03  0.25213650842E+03 -0.10446824648E+04  0.12095875478E+04  0.89640546615E+02 0.  0.
          3    1    3    3  502    0  0.26868086028E+03 -0.13413649365E+02  0.29130659957E+03  0.39652095232E+03  0.00000000000E+00 0. -1.
         -4    1    3    3    0  502  0.84535372130E+02  0.33165751630E+02  0.13854164581E+03  0.16565018517E+03  0.00000000000E+00 0.  1.
         11    1    5    5    0    0  0.18339728536E+03 -0.27044324749E+03 -0.40771107361E+03  0.52249634825E+03  0.00000000000E+00 0. -1.
        -11    1    5    5    0    0  0.11229833121E+02 -0.14453631942E+01  0.14554364983E+01  0.11415626224E+02  0.00000000000E+00 0.  1.
          4    1    6    6  503    0 -0.47206399769E+03  0.22527411924E+03 -0.95706190520E+03  0.10906696737E+04  0.00000000000E+00 0. -1.
         -4    1    6    6    0  503 -0.75779353211E+02  0.26862389177E+02 -0.87620559587E+02  0.11891787413E+03  0.00000000000E+00 0.  1.
<mgrwt>
<rscale>  0 0.20672428E+04</rscale>
<asrwt>0</asrwt>
<pdfrwt beam="1">  1        1 0.25590465E+00 0.20672428E+04</pdfrwt>
<pdfrwt beam="2">  1       -2 0.98813910E-01 0.20672428E+04</pdfrwt>
<totfact> 0.34735668E+00</totfact>
</mgrwt>
</event>
<event>
12    4  0.4398275E-008  0.1864668E+04  0.7818608E-02  0.8672646E-01
         -2   -1    0    0    0  501 -0.00000000000E+00  0.00000000000E+00  0.13350982474E+04  0.13350982474E+04  0.00000000000E+00 0.  1.
          1   -1    0    0  501    0  0.00000000000E+00 -0.00000000000E+00 -0.65107323221E+03  0.65107323221E+03  0.00000000000E+00 0. -1.
        -24    2    1    2    0    0 -0.37045294612E+03 -0.56617480144E+03  0.10335207265E+03  0.68887750247E+03  0.77982507061E+02 0.  0.
        254    2    1    2    0    0  0.37045294612E+03  0.56617480144E+03  0.58067294250E+03  0.12972939771E+04  0.94233821201E+03 0.  0.
         23    2    4    4    0    0  0.42042625388E+03  0.98667337387E+01 -0.69101730038E+02  0.43559263443E+03  0.90057241187E+02 0.  0.
         23    2    4    4    0    0 -0.49973307765E+02  0.55630806770E+03  0.64977467254E+03  0.86170134267E+03  0.91356889230E+02 0.  0.
          3    1    3    3  502    0 -0.22087708802E+03 -0.40383820308E+03  0.66144892583E+02  0.46502379412E+03  0.00000000000E+00 0. -1.
         -2    1    3    3    0  502 -0.14957585810E+03 -0.16233659836E+03  0.37207180064E+02  0.22385370835E+03  0.00000000000E+00 0.  1.
         11    1    5    5    0    0  0.19041896490E+03 -0.35377538471E+01  0.13268540515E+02  0.19091346748E+03  0.00000000000E+00 0. -1.
        -11    1    5    5    0    0  0.23000728898E+03  0.13404487586E+02 -0.82370270553E+02  0.24467916695E+03  0.00000000000E+00 0.  1.
          2    1    6    6  503    0  0.71992669458E+01  0.35636103206E+03  0.44088362253E+03  0.56694213394E+03  0.00000000000E+00 0.  1.
         -2    1    6    6    0  503 -0.57172574711E+02  0.19994703565E+03  0.20889105001E+03  0.29475920874E+03  0.00000000000E+00 0. -1.
<mgrwt>
<rscale>  0 0.18646680E+04</rscale>
<asrwt>0</asrwt>
<pdfrwt beam="1">  1        1 0.10016511E+00 0.18646680E+04</pdfrwt>
<pdfrwt beam="2">  1       -2 0.20539973E+00 0.18646680E+04</pdfrwt>
<totfact> 0.30593401E+00</totfact>
</mgrwt>
</event>
<event>
12    4  0.4398275E-008  0.1759422E+04  0.7818608E-02  0.8728181E-01
          1   -1    0    0  501    0  0.00000000000E+00  0.00000000000E+00  0.24144677228E+04  0.24144677228E+04  0.00000000000E+00 0. -1.
         -2   -1    0    0    0  501 -0.00000000000E+00 -0.00000000000E+00 -0.32052266939E+03  0.32052266939E+03  0.00000000000E+00 0.  1.
        -24    2    1    2    0    0  0.41074917947E+03 -0.26899450756E+02  0.15392403225E+04  0.15952848369E+04  0.78958668683E+02 0.  0.
        254    2    1    2    0    0 -0.41074917947E+03  0.26899450756E+02  0.55470473086E+03  0.11397055553E+04  0.90652796175E+03 0.  0.
         23    2    4    4    0    0 -0.49648617636E+03 -0.25762974236E+03  0.80486394693E+02  0.57223424130E+03  0.90013108607E+02 0.  0.
         23    2    4    4    0    0  0.85736996885E+02  0.28452919311E+03  0.47421833617E+03  0.56747131400E+03  0.93983868207E+02 0.  0.
          1    1    3    3  502    0  0.31354341657E+03  0.13574102707E+02  0.11542703767E+04  0.11961746666E+04  0.00000000000E+00 0. -1.
         -4    1    3    3    0  502  0.97205762899E+02 -0.40473553463E+02  0.38496994579E+03  0.39911017029E+03  0.00000000000E+00 0.  1.
         11    1    5    5    0    0 -0.40228521140E+03 -0.17508700387E+03  0.39771488195E+02  0.44053447256E+03  0.00000000000E+00 0. -1.
        -11    1    5    5    0    0 -0.94200964955E+02 -0.82542738484E+02  0.40714906498E+02  0.13169976874E+03  0.00000000000E+00 0.  1.
          4    1    6    6  503    0  0.27848299543E+02  0.94308397573E+02  0.83228097543E+02  0.12882747324E+03  0.00000000000E+00 0.  1.
         -4    1    6    6    0  503  0.57888697342E+02  0.19022079554E+03  0.39099023863E+03  0.43864384076E+03  0.00000000000E+00 0. -1.
<mgrwt>
<rscale>  0 0.17594222E+04</rscale>
<asrwt>0</asrwt>
<pdfrwt beam="1">  1        1 0.37145656E+00 0.17594222E+04</pdfrwt>
<pdfrwt beam="2">  1       -2 0.49311182E-01 0.17594222E+04</pdfrwt>
<totfact> 0.50310621E+00</totfact>
</mgrwt>
</event>
<event>
12    4  0.4398275E-008  0.2660018E+04  0.7818608E-02  0.8348095E-01
         -2   -1    0    0    0  501 -0.00000000000E+00  0.00000000000E+00  0.65771260853E+03  0.65771260853E+03  0.00000000000E+00 0.  1.
          1   -1    0    0  501    0  0.00000000000E+00 -0.00000000000E+00 -0.26895098517E+04  0.26895098517E+04  0.00000000000E+00 0. -1.
        -24    2    1    2    0    0  0.46494644800E+03  0.10053769812E+04 -0.13960591400E+04  0.17838832285E+04  0.79373652416E+02 0.  0.
        254    2    1    2    0    0 -0.46494644800E+03 -0.10053769812E+04 -0.63573810313E+03  0.15633392317E+04  0.90161440967E+03 0.  0.
         23    2    4    4    0    0 -0.40163714576E+02  0.15194696382E+03 -0.20209731519E+02  0.18247737761E+03  0.90490642106E+02 0.  0.
         23    2    4    4    0    0 -0.42478273343E+03 -0.11573239450E+04 -0.61552837161E+03  0.13808618541E+04  0.89806455595E+02 0.  0.
          3    1    3    3  502    0  0.28616386686E+03  0.67480218385E+03 -0.96924929788E+03  0.12151921443E+04  0.00000000000E+00 0. -1.
         -4    1    3    3    0  502  0.17878258114E+03  0.33057479735E+03 -0.42680984212E+03  0.56869108424E+03  0.00000000000E+00 0.  1.
         11    1    5    5    0    0  0.11074299001E+02  0.10650120840E+03 -0.34534954674E+02  0.11250693571E+03  0.00000000000E+00 0.  1.
        -11    1    5    5    0    0 -0.51238013576E+02  0.45445755419E+02  0.14325223155E+02  0.69970441897E+02  0.00000000000E+00 0. -1.
          3    1    6    6  503    0 -0.32343636738E+03 -0.88525227431E+03 -0.51229510273E+03  0.10727203481E+04  0.00000000000E+00 0.  1.
         -3    1    6    6    0  503 -0.10134636605E+03 -0.27207167071E+03 -0.10323326888E+03  0.30814150600E+03  0.00000000000E+00 0. -1.
<mgrwt>
<rscale>  0 0.26600185E+04</rscale>
<asrwt>0</asrwt>
<pdfrwt beam="1">  1        1 0.41377075E+00 0.26600185E+04</pdfrwt>
<pdfrwt beam="2">  1       -2 0.10118656E+00 0.26600185E+04</pdfrwt>
<totfact> 0.61756588E-01</totfact>
</mgrwt>
</event>
<event>
12    4  0.4398275E-008  0.2979049E+04  0.7818608E-02  0.8249739E-01
         -2   -1    0    0    0  501 -0.00000000000E+00  0.00000000000E+00  0.89471101105E+03  0.89471101105E+03  0.00000000000E+00 0.  1.
          1   -1    0    0  501    0  0.00000000000E+00 -0.00000000000E+00 -0.24797762681E+04  0.24797762681E+04  0.00000000000E+00 0. -1.
        -24    2    1    2    0    0  0.77117097667E+03 -0.71331014072E+03 -0.16941799704E+04  0.19950120857E+04  0.79444430917E+02 0.  0.
        254    2    1    2    0    0 -0.77117097667E+03  0.71331014072E+03  0.10911471339E+03  0.13794751935E+04  0.88742873330E+03 0.  0.
         23    2    4    4    0    0 -0.34905174324E+03  0.80873890753E+03 -0.99026420409E+02  0.89108531097E+03  0.91274637585E+02 0.  0.
         23    2    4    4    0    0 -0.42211923343E+03 -0.95428766817E+02  0.20814113380E+03  0.48838988253E+03  0.88941829350E+02 0.  0.
          3    1    3    3  502    0  0.48327921753E+03 -0.45280549311E+03 -0.11389802292E+04  0.13175232746E+04  0.00000000000E+00 0. -1.
         -4    1    3    3    0  502  0.28789175913E+03 -0.26050464760E+03 -0.55519974126E+03  0.67748881105E+03  0.00000000000E+00 0.  1.
         11    1    5    5    0    0 -0.28720262772E+02  0.22279370588E+02 -0.53392502631E+01  0.36738691333E+02  0.00000000000E+00 0.  1.
        -11    1    5    5    0    0 -0.32033148046E+03  0.78645953695E+03 -0.93687170146E+02  0.85434661963E+03  0.00000000000E+00 0. -1.
          3    1    6    6  503    0 -0.37576194861E+03 -0.11269535513E+03  0.18248181592E+03  0.43266256856E+03  0.00000000000E+00 0. -1.
         -3    1    6    6    0  503 -0.46357284822E+02  0.17266588316E+02  0.25659317883E+02  0.55727313970E+02  0.00000000000E+00 0.  1.
<mgrwt>
<rscale>  0 0.29790489E+04</rscale>
<asrwt>0</asrwt>
<pdfrwt beam="1">  1        1 0.38150404E+00 0.29790489E+04</pdfrwt>
<pdfrwt beam="2">  1       -2 0.13764785E+00 0.29790489E+04</pdfrwt>
<totfact> 0.39374301E-01</totfact>
</mgrwt>
</event>
<event>
12    4  0.4398275E-008  0.1040782E+04  0.7818608E-02  0.9264913E-01
         -2   -1    0    0    0  501 -0.00000000000E+00  0.00000000000E+00  0.18935722371E+03  0.18935722371E+03  0.00000000000E+00 0.  1.
          1   -1    0    0  501    0  0.00000000000E+00 -0.00000000000E+00 -0.14301375267E+04  0.14301375267E+04  0.00000000000E+00 0. -1.
        -24    2    1    2    0    0  0.24739088991E+02 -0.47034002077E+02 -0.29439188893E+03  0.31055854723E+03  0.83401481491E+02 0.  0.
        254    2    1    2    0    0 -0.24739088991E+02  0.47034002077E+02 -0.94638841409E+03  0.13089362032E+04  0.90268418279E+03 0.  0.
         23    2    4    4    0    0 -0.28257364825E+03 -0.30839870892E+03 -0.62285749991E+03  0.75584099496E+03  0.91577912773E+02 0.  0.
         23    2    4    4    0    0  0.25783455926E+03  0.35543271100E+03 -0.32353091417E+03  0.55309520825E+03  0.91820395126E+02 0.  0.
          3    1    3    3  502    0  0.10489377761E+02 -0.57714850993E+02 -0.28388394069E+03  0.28988122197E+03  0.00000000000E+00 0. -1.
         -4    1    3    3    0  502  0.14249711230E+02  0.10680848917E+02 -0.10507948246E+02  0.20677325264E+02  0.00000000000E+00 0.  1.
         11    1    5    5    0    0 -0.22000166704E+02 -0.72630409139E+02 -0.13013416471E+03  0.15064555915E+03  0.00000000000E+00 0. -1.
        -11    1    5    5    0    0 -0.26057348155E+03 -0.23576829979E+03 -0.49272333521E+03  0.60519543581E+03  0.00000000000E+00 0.  1.
          3    1    6    6  503    0  0.59162065152E+02  0.67295661686E+02 -0.24859780438E+02  0.92988519281E+02  0.00000000000E+00 0. -1.
         -3    1    6    6    0  503  0.19867249411E+03  0.28813704931E+03 -0.29867113374E+03  0.46010668897E+03  0.00000000000E+00 0.  1.
<mgrwt>
<rscale>  0 0.10407822E+04</rscale>
<asrwt>0</asrwt>
<pdfrwt beam="1">  1        1 0.22002117E+00 0.10407822E+04</pdfrwt>
<pdfrwt beam="2">  1       -2 0.29131880E-01 0.10407822E+04</pdfrwt>
<totfact> 0.69540764E+01</totfact>
</mgrwt>
</event>
<event>
12    4  0.4398275E-008  0.1271055E+04  0.7818608E-02  0.9052839E-01
         -2   -1    0    0    0  501 -0.00000000000E+00  0.00000000000E+00  0.12949451147E+04  0.12949451147E+04  0.00000000000E+00 0.  1.
          1   -1    0    0  501    0  0.00000000000E+00 -0.00000000000E+00 -0.31190116895E+03  0.31190116895E+03  0.00000000000E+00 0. -1.
        -24    2    1    2    0    0 -0.19542057912E+03 -0.11406392720E+03 -0.18969921242E+02  0.23949511831E+03  0.76146382387E+02 0.  0.
        254    2    1    2    0    0  0.19542057912E+03  0.11406392720E+03  0.10020138670E+04  0.13673511654E+04  0.90245090586E+03 0.  0.
         23    2    4    4    0    0 -0.12001729576E+03 -0.25735701983E+03  0.75696593389E+03  0.81376558507E+03  0.92629452368E+02 0.  0.
         23    2    4    4    0    0  0.31543787488E+03  0.37142094703E+03  0.24504793313E+03  0.55358558029E+03  0.94625220613E+02 0.  0.
          1    1    3    3  502    0 -0.16791595199E+03 -0.11596413515E+03  0.32381417515E+01  0.20409295219E+03  0.00000000000E+00 0. -1.
         -2    1    3    3    0  502 -0.27504627135E+02  0.19002079482E+01 -0.22208062993E+02  0.35402166120E+02  0.00000000000E+00 0.  1.
         11    1    5    5    0    0 -0.25332606460E+02 -0.15920782301E+03  0.44468610983E+03  0.47300592822E+03  0.00000000000E+00 0. -1.
        -11    1    5    5    0    0 -0.94684689297E+02 -0.98149196821E+02  0.31227982406E+03  0.34075965686E+03  0.00000000000E+00 0.  1.
          1    1    6    6  503    0  0.72839217198E+02  0.15489020880E+03  0.80530839276E+02  0.18916063126E+03  0.00000000000E+00 0. -1.
         -1    1    6    6    0  503  0.24259865768E+03  0.21653073822E+03  0.16451709386E+03  0.36442494903E+03  0.00000000000E+00 0.  1.
<mgrwt>
<rscale>  0 0.12710545E+04</rscale>
<asrwt>0</asrwt>
<pdfrwt beam="1">  1        1 0.47984796E-01 0.12710545E+04</pdfrwt>
<pdfrwt beam="2">  1       -2 0.19922232E+00 0.12710545E+04</pdfrwt>
<totfact> 0.96311674E+00</totfact>
</mgrwt>
</event>
<event>
12    4  0.4398275E-008  0.1885384E+04  0.7818608E-02  0.8662166E-01
          1   -1    0    0  501    0  0.00000000000E+00  0.00000000000E+00  0.20891820523E+04  0.20891820523E+04  0.00000000000E+00 0. -1.
         -2   -1    0    0    0  501 -0.00000000000E+00 -0.00000000000E+00 -0.42536671996E+03  0.42536671996E+03  0.00000000000E+00 0.  1.
        -24    2    1    2    0    0 -0.36140400247E+03 -0.33806023191E+03 -0.64853667940E+02  0.50555332654E+03  0.80502138633E+02 0.  0.
        254    2    1    2    0    0  0.36140400247E+03  0.33806023191E+03  0.17286690003E+04  0.20089954457E+04  0.89602936059E+03 0.  0.
         23    2    4    4    0    0  0.62866013768E+02  0.43011903508E+01  0.14888354687E+04  0.14931008486E+04  0.93533178741E+02 0.  0.
         23    2    4    4    0    0  0.29853798870E+03  0.33375904156E+03  0.23983353160E+03  0.51589459707E+03  0.90039346347E+02 0.  0.
          1    1    3    3  502    0 -0.12405647357E+03 -0.12913871146E+03  0.14160510496E+02  0.17963110947E+03  0.00000000000E+00 0. -1.
         -2    1    3    3    0  502 -0.23734752890E+03 -0.20892152046E+03 -0.79014178436E+02  0.32592221707E+03  0.00000000000E+00 0.  1.
         11    1    5    5    0    0 -0.67068239162E+01  0.30865338975E+02  0.24340411464E+03  0.24544492999E+03  0.00000000000E+00 0. -1.
        -11    1    5    5    0    0  0.69572837685E+02 -0.26564148624E+02  0.12454313540E+04  0.12476559187E+04  0.00000000000E+00 0.  1.
          1    1    6    6  503    0  0.12930099600E+02  0.73782630757E+01 -0.74527142093E+01  0.16648399045E+02  0.00000000000E+00 0. -1.
         -1    1    6    6    0  503  0.28560788910E+03  0.32638077849E+03  0.24728624581E+03  0.49924619803E+03  0.00000000000E+00 0.  1.
<mgrwt>
<rscale>  0 0.18853843E+04</rscale>
<asrwt>0</asrwt>
<pdfrwt beam="1">  1        1 0.32141262E+00 0.18853843E+04</pdfrwt>
<pdfrwt beam="2">  1       -2 0.65441035E-01 0.18853843E+04</pdfrwt>
<totfact> 0.45884248E+00</totfact>
</mgrwt>
</event>
<event>
12    4  0.4398275E-008  0.1177783E+04  0.7818608E-02  0.9132528E-01
         -2   -1    0    0    0  501 -0.00000000000E+00  0.00000000000E+00  0.64910154174E+03  0.64910154174E+03  0.00000000000E+00 0.  1.
          1   -1    0    0  501    0  0.00000000000E+00 -0.00000000000E+00 -0.53426692969E+03  0.53426692969E+03  0.00000000000E+00 0. -1.
        -24    2    1    2    0    0  0.23219021803E+03  0.14841446045E+02  0.13509552130E+02  0.24608253580E+03  0.79003421157E+02 0.  0.
        254    2    1    2    0    0 -0.23219021803E+03 -0.14841446045E+02  0.10132505992E+03  0.93728593563E+03  0.90227800122E+03 0.  0.
         23    2    4    4    0    0  0.94044420030E+02  0.26003028181E+03  0.33397709568E+03  0.44308195500E+03  0.91218517904E+02 0.  0.
         23    2    4    4    0    0 -0.32623463806E+03 -0.27487172786E+03 -0.23265203576E+03  0.49420398063E+03  0.90150423620E+02 0.  0.
          3    1    3    3  502    0  0.78752989353E+01 -0.57082303918E+01 -0.16181661842E+02  0.18879894266E+02  0.00000000000E+00 0. -1.
         -4    1    3    3    0  502  0.22431491910E+03  0.20549676437E+02  0.29691213972E+02  0.22720264153E+03  0.00000000000E+00 0.  1.
         11    1    5    5    0    0  0.15627805586E+02  0.10486719333E+03  0.70176260326E+02  0.12714583775E+03  0.00000000000E+00 0. -1.
        -11    1    5    5    0    0  0.78416614445E+02  0.15516308849E+03  0.26380083535E+03  0.31593611725E+03  0.00000000000E+00 0.  1.
          3    1    6    6  503    0 -0.87354267676E+02 -0.12340479117E+03 -0.58992901115E+02  0.16229501825E+03  0.00000000000E+00 0. -1.
         -3    1    6    6    0  503 -0.23888037039E+03 -0.15146693669E+03 -0.17365913464E+03  0.33190896238E+03  0.00000000000E+00 0.  1.
<mgrwt>
<rscale>  0 0.11777835E+04</rscale>
<asrwt>0</asrwt>
<pdfrwt beam="1">  1        1 0.82194912E-01 0.11777835E+04</pdfrwt>
<pdfrwt beam="2">  1       -2 0.99861776E-01 0.11777835E+04</pdfrwt>
<totfact> 0.29042594E+01</totfact>
</mgrwt>
</event>
<event>
12    4  0.4398275E-008  0.1646557E+04  0.7818608E-02  0.8792446E-01
         -2   -1    0    0    0  501 -0.00000000000E+00  0.00000000000E+00  0.98860325658E+03  0.98860325658E+03  0.00000000000E+00 0.  1.
          1   -1    0    0  501    0  0.00000000000E+00 -0.00000000000E+00 -0.68560072561E+03  0.68560072561E+03  0.00000000000E+00 0. -1.
        -24    2    1    2    0    0  0.14639307064E+03  0.24114786334E+03 -0.40850450902E+03  0.50338565916E+03  0.83294446594E+02 0.  0.
        254    2    1    2    0    0 -0.14639307064E+03 -0.24114786334E+03  0.71150703998E+03  0.11708183230E+04  0.88599664473E+03 0.  0.
         23    2    4    4    0    0 -0.38959101576E+03 -0.18332509058E+03  0.33189478992E+02  0.44166320676E+03  0.92604526312E+02 0.  0.
         23    2    4    4    0    0  0.24319794512E+03 -0.57822772759E+02  0.67831756099E+03  0.72915511627E+03  0.95203762915E+02 0.  0.
          3    1    3    3  502    0  0.10579485297E+03  0.13096816290E+03 -0.29730875620E+03  0.34166900228E+03  0.00000000000E+00 0. -1.
         -4    1    3    3    0  502  0.40598217677E+02  0.11017970043E+03 -0.11119575282E+03  0.16171665688E+03  0.00000000000E+00 0.  1.
         11    1    5    5    0    0 -0.15636847177E+03 -0.97177909208E+02  0.54836760486E+02  0.19209819182E+03  0.00000000000E+00 0. -1.
        -11    1    5    5    0    0 -0.23322254400E+03 -0.86147181368E+02 -0.21647281495E+02  0.24956501494E+03  0.00000000000E+00 0.  1.
          3    1    6    6  503    0  0.12680192535E+03  0.14812307991E+02  0.27623404531E+03  0.30430803560E+03  0.00000000000E+00 0. -1.
         -3    1    6    6    0  503  0.11639601977E+03 -0.72635080749E+02  0.40208351568E+03  0.42484708067E+03  0.00000000000E+00 0.  1.
<mgrwt>
<rscale>  0 0.16465565E+04</rscale>
<asrwt>0</asrwt>
<pdfrwt beam="1">  1        1 0.10547704E+00 0.16465565E+04</pdfrwt>
<pdfrwt beam="2">  1       -2 0.15209281E+00 0.16465565E+04</pdfrwt>
<totfact> 0.67915330E+00</totfact>
</mgrwt>
</event>
<event>
12    4  0.4398275E-008  0.2513058E+04  0.7818608E-02  0.8398348E-01
          1   -1    0    0  501    0  0.00000000000E+00  0.00000000000E+00  0.77163964761E+03  0.77163964761E+03  0.00000000000E+00 0. -1.
         -2   -1    0    0    0  501 -0.00000000000E+00 -0.00000000000E+00 -0.20461168197E+04  0.20461168197E+04  0.00000000000E+00 0.  1.
        -24    2    1    2    0    0 -0.40882014156E+03 -0.92919662279E+03 -0.10138116674E+03  0.10233871646E+04  0.80640410662E+02 0.  0.
        254    2    1    2    0    0  0.40882014156E+03  0.92919662279E+03 -0.11730960054E+04  0.17943693027E+04  0.90170210417E+03 0.  0.
         23    2    4    4    0    0  0.11012932895E+02  0.92403579990E+02  0.13553761499E+03  0.18802981709E+03  0.91241770870E+02 0.  0.
         23    2    4    4    0    0  0.39780720866E+03  0.83679304280E+03 -0.13086336203E+04  0.16063394856E+04  0.96599269722E+02 0.  0.
          1    1    3    3  502    0 -0.17527153808E+03 -0.42478560645E+03 -0.70142007278E+01  0.45957820066E+03  0.00000000000E+00 0. -1.
         -2    1    3    3    0  502 -0.23354860348E+03 -0.50441101633E+03 -0.94366966012E+02  0.56380896398E+03  0.00000000000E+00 0.  1.
         11    1    5    5    0    0  0.41681274665E+02  0.85683301421E+02  0.11930785614E+03  0.15268700448E+03  0.00000000000E+00 0.  1.
        -11    1    5    5    0    0 -0.30668341770E+02  0.67202785697E+01  0.16229758855E+02  0.35342812615E+02  0.00000000000E+00 0. -1.
          1    1    6    6  503    0  0.17564419089E+02  0.15570244672E+02 -0.58413713643E+02  0.62953183229E+02  0.00000000000E+00 0. -1.
         -1    1    6    6    0  503  0.38024278957E+03  0.82122279812E+03 -0.12502199067E+04  0.15433863024E+04  0.00000000000E+00 0.  1.
<mgrwt>
<rscale>  0 0.25130578E+04</rscale>
<asrwt>0</asrwt>
<pdfrwt beam="1">  1        1 0.11871379E+00 0.25130578E+04</pdfrwt>
<pdfrwt beam="2">  1       -2 0.31478720E+00 0.25130578E+04</pdfrwt>
<totfact> 0.46997069E-01</totfact>
</mgrwt>
</event>
<event>
12    4  0.4398275E-008  0.1222568E+04  0.7818608E-02  0.9093329E-01
          1   -1    0    0  501    0  0.00000000000E+00  0.00000000000E+00  0.96094503663E+03  0.96094503663E+03  0.00000000000E+00 0. -1.
         -2   -1    0    0    0  501 -0.00000000000E+00 -0.00000000000E+00 -0.38885457882E+03  0.38885457882E+03  0.00000000000E+00 0.  1.
        -24    2    1    2    0    0 -0.81488946436E+02  0.22947815707E+03  0.27320257614E+03  0.37383084188E+03  0.76217962197E+02 0.  0.
        254    2    1    2    0    0  0.81488946436E+02 -0.22947815707E+03  0.29888788167E+03  0.97596877358E+03  0.89659378105E+03 0.  0.
         23    2    4    4    0    0 -0.25185909854E+03  0.16846467590E+03  0.31802820460E+03  0.44867299473E+03  0.91390178537E+02 0.  0.
         23    2    4    4    0    0  0.33334804498E+03 -0.39794283298E+03 -0.19140322923E+02  0.52729577885E+03  0.90526620536E+02 0.  0.
          1    1    3    3  502    0 -0.55563099789E+02  0.22087189280E+03  0.24703334758E+03  0.33600167545E+03  0.00000000000E+00 0. -1.
         -2    1    3    3    0  502 -0.25925846647E+02  0.86062642746E+01  0.26169228561E+02  0.37829166427E+02  0.00000000000E+00 0.  1.
         11    1    5    5    0    0 -0.44462021800E+02  0.60570507265E+02  0.39014146286E+02  0.84662632509E+02  0.00000000000E+00 0. -1.
        -11    1    5    5    0    0 -0.20739707674E+03  0.10789416864E+03  0.27901405831E+03  0.36401036222E+03  0.00000000000E+00 0.  1.
          4    1    6    6  503    0  0.95531792827E+02 -0.17411151304E+03  0.13670202730E+02  0.19906786998E+03  0.00000000000E+00 0. -1.
         -4    1    6    6    0  503  0.23781625215E+03 -0.22383131993E+03 -0.32810525653E+02  0.32822790887E+03  0.00000000000E+00 0.  1.
<mgrwt>
<rscale>  0 0.12225676E+04</rscale>
<asrwt>0</asrwt>
<pdfrwt beam="1">  1        1 0.14783770E+00 0.12225676E+04</pdfrwt>
<pdfrwt beam="2">  1       -2 0.59823782E-01 0.12225676E+04</pdfrwt>
<totfact> 0.36671919E+01</totfact>
</mgrwt>
</event>
<event>
12    4  0.4398275E-008  0.1839955E+04  0.7818608E-02  0.8685336E-01
          1   -1    0    0  501    0  0.00000000000E+00  0.00000000000E+00  0.11798935714E+04  0.11798935714E+04  0.00000000000E+00 0. -1.
         -2   -1    0    0    0  501 -0.00000000000E+00 -0.00000000000E+00 -0.71731737617E+03  0.71731737617E+03  0.00000000000E+00 0.  1.
        -24    2    1    2    0    0 -0.29535339306E+02  0.75604469022E+02  0.88862834077E+03  0.89583743848E+03  0.79221311211E+02 0.  0.
        254    2    1    2    0    0  0.29535339306E+02 -0.75604469022E+02 -0.42605214557E+03  0.10013735091E+04  0.90257415313E+03 0.  0.
         23    2    4    4    0    0  0.39129799737E+03  0.73429399881E+02  0.96742317703E+01  0.40816016770E+03  0.89415503277E+02 0.  0.
         23    2    4    4    0    0 -0.36176265806E+03 -0.14903386890E+03 -0.43572637734E+03  0.59321334136E+03  0.94664024845E+02 0.  0.
          1    1    3    3  502    0 -0.26501016535E+02  0.42502733445E+02  0.79330443650E+03  0.79488408916E+03  0.00000000000E+00 0. -1.
         -2    1    3    3    0  502 -0.30343227712E+01  0.33101735577E+02  0.95323904273E+02  0.10095334932E+03  0.00000000000E+00 0.  1.
         11    1    5    5    0    0  0.22084415617E+03  0.67126437941E+02  0.41844165378E+02  0.23458268086E+03  0.00000000000E+00 0. -1.
        -11    1    5    5    0    0  0.17045384120E+03  0.63029619406E+01 -0.32169933608E+02  0.17357748684E+03  0.00000000000E+00 0.  1.
          3    1    6    6  503    0 -0.30349367516E+03 -0.16025701146E+03 -0.37199039812E+03  0.50612999998E+03  0.00000000000E+00 0. -1.
         -3    1    6    6    0  503 -0.58268982907E+02  0.11223142562E+02 -0.63735979219E+02  0.87083341374E+02  0.00000000000E+00 0.  1.
<mgrwt>
<rscale>  0 0.18399545E+04</rscale>
<asrwt>0</asrwt>
<pdfrwt beam="1">  1        1 0.18152209E+00 0.18399545E+04</pdfrwt>
<pdfrwt beam="2">  1       -2 0.11035652E+00 0.18399545E+04</pdfrwt>
<totfact> 0.59443658E+00</totfact>
</mgrwt>
</event>
<event>
12    4  0.4398275E-008  0.1371061E+04  0.7818608E-02  0.8975036E-01
         -2   -1    0    0    0  501 -0.00000000000E+00  0.00000000000E+00  0.19845700077E+03  0.19845700077E+03  0.00000000000E+00 0.  1.
          1   -1    0    0  501    0  0.00000000000E+00 -0.00000000000E+00 -0.23680309416E+04  0.23680309416E+04  0.00000000000E+00 0. -1.
        -24    2    1    2    0    0  0.35203435277E+03  0.10954929665E+03 -0.37360593427E+03  0.53080810536E+03  0.79035540584E+02 0.  0.
        254    2    1    2    0    0 -0.35203435277E+03 -0.10954929665E+03 -0.17959680066E+04  0.20356798370E+04  0.88462539205E+03 0.  0.
         23    2    4    4    0    0 -0.57211725491E+01 -0.24765272405E+01 -0.16195959741E+04  0.16223045936E+04  0.93499786914E+02 0.  0.
         23    2    4    4    0    0 -0.34631318022E+03 -0.10707276941E+03 -0.17637203248E+03  0.41337524339E+03  0.91512847568E+02 0.  0.
          1    1    3    3  502    0  0.13865075242E+03  0.32102382364E+02 -0.93577499630E+02  0.17032716324E+03  0.00000000000E+00 0. -1.
         -2    1    3    3    0  502  0.21338360035E+03  0.77446914282E+02 -0.28002843464E+03  0.36048094212E+03  0.00000000000E+00 0.  1.
         11    1    5    5    0    0 -0.41289884654E+00  0.26899024302E+02 -0.14395046382E+04  0.14397559972E+04  0.00000000000E+00 0.  1.
        -11    1    5    5    0    0 -0.53082737026E+01 -0.29375551543E+02 -0.18009133586E+03  0.18254859640E+03  0.00000000000E+00 0. -1.
          4    1    6    6  503    0 -0.30939371019E+03 -0.61931523031E+02 -0.15012848343E+03  0.34942601933E+03  0.00000000000E+00 0.  1.
         -4    1    6    6    0  503 -0.36919470029E+02 -0.45141246374E+02 -0.26243549047E+02  0.63949224061E+02  0.00000000000E+00 0. -1.
<mgrwt>
<rscale>  0 0.13710614E+04</rscale>
<asrwt>0</asrwt>
<pdfrwt beam="1">  1        1 0.36431246E+00 0.13710614E+04</pdfrwt>
<pdfrwt beam="2">  1       -2 0.30531846E-01 0.13710614E+04</pdfrwt>
<totfact> 0.14270983E+01</totfact>
</mgrwt>
</event>
<event>
12    4  0.4398275E-008  0.1283716E+04  0.7818608E-02  0.9042579E-01
         -2   -1    0    0    0  501 -0.00000000000E+00  0.00000000000E+00  0.24443327532E+03  0.24443327532E+03  0.00000000000E+00 0.  1.
          1   -1    0    0  501    0  0.00000000000E+00 -0.00000000000E+00 -0.16854555305E+04  0.16854555305E+04  0.00000000000E+00 0. -1.
        -24    2    1    2    0    0  0.30097352574E+02  0.12347735834E+03 -0.63103836684E+03  0.64865754830E+03  0.79966779902E+02 0.  0.
        254    2    1    2    0    0 -0.30097352574E+02 -0.12347735834E+03 -0.80998388836E+03  0.12812312575E+04  0.98454412153E+03 0.  0.
         23    2    4    4    0    0 -0.17224281275E+03 -0.11715767529E+03  0.17198808867E+03  0.28491760955E+03  0.90579435662E+02 0.  0.
         23    2    4    4    0    0  0.14214546017E+03 -0.63196830441E+01 -0.98197197703E+03  0.99631364799E+03  0.90147940985E+02 0.  0.
          3    1    3    3  502    0  0.16528266783E+02  0.12842802963E+03 -0.60662853597E+03  0.62029438419E+03  0.00000000000E+00 0. -1.
         -4    1    3    3    0  502  0.13569085791E+02 -0.49506712948E+01 -0.24409830865E+02  0.28363164110E+02  0.00000000000E+00 0.  1.
         11    1    5    5    0    0 -0.26226817282E+02 -0.66845216840E+02  0.66669248595E+02  0.97984272551E+02  0.00000000000E+00 0. -1.
        -11    1    5    5    0    0 -0.14601599547E+03 -0.50312458455E+02  0.10531884007E+03  0.18693333700E+03  0.00000000000E+00 0.  1.
          4    1    6    6  503    0  0.11424447584E+03 -0.22903337362E+02 -0.90914668079E+03  0.91658281149E+03  0.00000000000E+00 0.  1.
         -4    1    6    6    0  503  0.27900984338E+02  0.16583654318E+02 -0.72825296235E+02  0.79730836502E+02  0.00000000000E+00 0. -1.
<mgrwt>
<rscale>  0 0.12837156E+04</rscale>
<asrwt>0</asrwt>
<pdfrwt beam="1">  1        1 0.25930085E+00 0.12837156E+04</pdfrwt>
<pdfrwt beam="2">  1       -2 0.37605119E-01 0.12837156E+04</pdfrwt>
<totfact> 0.28090117E+01</totfact>
</mgrwt>
</event>
<event>
12    4  0.4398275E-008  0.1541283E+04  0.7818608E-02  0.8857455E-01
          1   -1    0    0  501    0  0.00000000000E+00  0.00000000000E+00  0.12246326311E+04  0.12246326311E+04  0.00000000000E+00 0. -1.
         -2   -1    0    0    0  501 -0.00000000000E+00 -0.00000000000E+00 -0.48495227097E+03  0.48495227097E+03  0.00000000000E+00 0.  1.
        -24    2    1    2    0    0 -0.39498206751E+03 -0.11976957887E-01 -0.82420080240E+02  0.41414078208E+03  0.93320329817E+02 0.  0.
        254    2    1    2    0    0  0.39498206751E+03  0.11976957887E-01  0.82210044037E+03  0.12954441200E+04  0.91995407502E+03 0.  0.
         23    2    4    4    0    0  0.27261634080E+03  0.41721926207E+03  0.63781400676E+03  0.81453560198E+03  0.90939308058E+02 0.  0.
         23    2    4    4    0    0  0.12236572671E+03 -0.41720728512E+03  0.18428643361E+03  0.48090851801E+03  0.90973750349E+02 0.  0.
          3    1    3    3  502    0 -0.67838233526E+00 -0.66279873618E+01 -0.11738458949E+02  0.13497475229E+02  0.00000000000E+00 0. -1.
         -4    1    3    3    0  502 -0.39430368518E+03  0.66160104040E+01 -0.70681621291E+02  0.40064330685E+03  0.00000000000E+00 0.  1.
         11    1    5    5    0    0  0.18839614424E+03  0.28143845437E+03  0.49783012936E+03  0.60210924961E+03  0.00000000000E+00 0.  1.
        -11    1    5    5    0    0  0.84220196564E+02  0.13578080770E+03  0.13998387740E+03  0.21242635237E+03  0.00000000000E+00 0. -1.
          2    1    6    6  503    0 -0.39011843553E+01 -0.12519141681E+03  0.65194494827E+02  0.14120351355E+03  0.00000000000E+00 0. -1.
         -2    1    6    6    0  503  0.12626691107E+03 -0.29201586831E+03  0.11909193878E+03  0.33970500446E+03  0.00000000000E+00 0.  1.
<mgrwt>
<rscale>  0 0.15412831E+04</rscale>
<asrwt>0</asrwt>
<pdfrwt beam="1">  1        1 0.18840502E+00 0.15412831E+04</pdfrwt>
<pdfrwt beam="2">  1       -2 0.74608042E-01 0.15412831E+04</pdfrwt>
<totfact> 0.14005784E+01</totfact>
</mgrwt>
</event>
<event>
12    4  0.4398275E-008  0.1434921E+04  0.7818608E-02  0.8928922E-01
         -2   -1    0    0    0  501 -0.00000000000E+00  0.00000000000E+00  0.94818481522E+03  0.94818481522E+03  0.00000000000E+00 0.  1.
          1   -1    0    0  501    0  0.00000000000E+00 -0.00000000000E+00 -0.54287894837E+03  0.54287894837E+03  0.00000000000E+00 0. -1.
        -24    2    1    2    0    0  0.34531878355E+03  0.24816368687E+03  0.13860261886E+03  0.45403438396E+03  0.78142549958E+02 0.  0.
        254    2    1    2    0    0 -0.34531878355E+03 -0.24816368687E+03  0.26670324799E+03  0.10370293796E+04  0.90745194582E+03 0.  0.
         23    2    4    4    0    0  0.13053043393E+03 -0.29231462136E+03 -0.17846333967E+03  0.37782408505E+03  0.91737907089E+02 0.  0.
         23    2    4    4    0    0 -0.47584921748E+03  0.44150934498E+02  0.44516658766E+03  0.65920529457E+03  0.89423413211E+02 0.  0.
          1    1    3    3  502    0  0.28712317240E+03  0.17383017809E+03  0.12722472034E+03  0.35894675985E+03  0.00000000000E+00 0. -1.
         -2    1    3    3    0  502  0.58195611156E+02  0.74333508774E+02  0.11377898517E+02  0.95087624111E+02  0.00000000000E+00 0.  1.
         11    1    5    5    0    0  0.10559846327E+03 -0.25718165372E+03 -0.11442494368E+03  0.30064348686E+03  0.00000000000E+00 0.  1.
        -11    1    5    5    0    0  0.24931970658E+02 -0.35132967640E+02 -0.64038395993E+02  0.77180598193E+02  0.00000000000E+00 0. -1.
          3    1    6    6  503    0 -0.54321988570E+02 -0.22977118044E+02  0.62674269842E+02  0.86063293546E+02  0.00000000000E+00 0. -1.
         -3    1    6    6    0  503 -0.42152722891E+03  0.67128052542E+02  0.38249231781E+03  0.57314200102E+03  0.00000000000E+00 0.  1.
<mgrwt>
<rscale>  0 0.14349210E+04</rscale>
<asrwt>0</asrwt>
<pdfrwt beam="1">  1        1 0.83519838E-01 0.14349210E+04</pdfrwt>
<pdfrwt beam="2">  1       -2 0.14587459E+00 0.14349210E+04</pdfrwt>
<totfact> 0.10832586E+01</totfact>
</mgrwt>
</event>
<event>
12    4  0.4398275E-008  0.1862406E+04  0.7818608E-02  0.8673799E-01
         -2   -1    0    0    0  501 -0.00000000000E+00  0.00000000000E+00  0.10562879721E+04  0.10562879721E+04  0.00000000000E+00 0.  1.
          1   -1    0    0  501    0  0.00000000000E+00 -0.00000000000E+00 -0.82093054815E+03  0.82093054815E+03  0.00000000000E+00 0. -1.
        -24    2    1    2    0    0  0.36297409715E+03 -0.16753084535E+02 -0.52630525712E+03  0.64429700899E+03  0.78041982845E+02 0.  0.
        254    2    1    2    0    0 -0.36297409715E+03  0.16753084535E+02  0.76166268105E+03  0.12329215112E+04  0.89885179653E+03 0.  0.
         23    2    4    4    0    0 -0.16357194510E+03 -0.40859087597E+03  0.54733094891E+03  0.70850001604E+03  0.93267464578E+02 0.  0.
         23    2    4    4    0    0 -0.19940215205E+03  0.42534396050E+03  0.21433173214E+03  0.52442149519E+03  0.91657570543E+02 0.  0.
          3    1    3    3  502    0  0.59391725796E+02 -0.13149205687E+02 -0.14241067394E+03  0.15485825375E+03  0.00000000000E+00 0. -1.
         -4    1    3    3    0  502  0.30358237135E+03 -0.36038788478E+01 -0.38389458318E+03  0.48943875524E+03  0.00000000000E+00 0.  1.
         11    1    5    5    0    0 -0.15544050758E+03 -0.40476107902E+03  0.50670068749E+03  0.66688744867E+03  0.00000000000E+00 0. -1.
        -11    1    5    5    0    0 -0.81314375151E+01 -0.38297969520E+01  0.40630261413E+02  0.41612567371E+02  0.00000000000E+00 0.  1.
          3    1    6    6  503    0 -0.14046695036E+03  0.37556207274E+03  0.17072651055E+03  0.43580428638E+03  0.00000000000E+00 0. -1.
         -3    1    6    6    0  503 -0.58935201690E+02  0.49781887768E+02  0.43605221590E+02  0.88617208813E+02  0.00000000000E+00 0.  1.
<mgrwt>
<rscale>  0 0.18624060E+04</rscale>
<asrwt>0</asrwt>
<pdfrwt beam="1">  1        1 0.12629701E+00 0.18624060E+04</pdfrwt>
<pdfrwt beam="2">  1       -2 0.16250584E+00 0.18624060E+04</pdfrwt>
<totfact> 0.42080081E+00</totfact>
</mgrwt>
</event>
<event>
12    4  0.4398275E-008  0.1287731E+04  0.7818608E-02  0.9039351E-01
         -2   -1    0    0    0  501 -0.00000000000E+00  0.00000000000E+00  0.46135740573E+03  0.46135740573E+03  0.00000000000E+00 0.  1.
          1   -1    0    0  501    0  0.00000000000E+00 -0.00000000000E+00 -0.89857225344E+03  0.89857225344E+03  0.00000000000E+00 0. -1.
        -24    2    1    2    0    0  0.22591184409E+03  0.25861092231E+03 -0.19646449518E+03  0.40317298148E+03  0.77681302069E+02 0.  0.
        254    2    1    2    0    0 -0.22591184409E+03 -0.25861092231E+03 -0.24075035253E+03  0.95675667769E+03  0.85994583412E+03 0.  0.
         23    2    4    4    0    0 -0.21037433861E+03 -0.13012254916E+03  0.29666345292E+03  0.39675667789E+03  0.90649969707E+02 0.  0.
         23    2    4    4    0    0 -0.15537505480E+02 -0.12848837315E+03 -0.53741380545E+03  0.55999999980E+03  0.89642207597E+02 0.  0.
          3    1    3    3  502    0  0.22364121168E+03  0.23008087933E+03 -0.19276666528E+03  0.37431482717E+03  0.00000000000E+00 0. -1.
         -4    1    3    3    0  502  0.22706324041E+01  0.28530042988E+02 -0.36978299008E+01  0.28858154314E+02  0.00000000000E+00 0.  1.
         11    1    5    5    0    0 -0.12187540292E+03 -0.12236727868E+03  0.17262198322E+03  0.24418377059E+03  0.00000000000E+00 0.  1.
        -11    1    5    5    0    0 -0.88498935683E+02 -0.77552704886E+01  0.12404146970E+03  0.15257290730E+03  0.00000000000E+00 0. -1.
          1    1    6    6  503    0 -0.13563095333E+02 -0.10143044466E+03 -0.23427867725E+03  0.25565326376E+03  0.00000000000E+00 0. -1.
         -1    1    6    6    0  503 -0.19744101476E+01 -0.27057928484E+02 -0.30313512820E+03  0.30434673604E+03  0.00000000000E+00 0.  1.
<mgrwt>
<rscale>  0 0.12877313E+04</rscale>
<asrwt>0</asrwt>
<pdfrwt beam="1">  1        1 0.13824188E+00 0.12877313E+04</pdfrwt>
<pdfrwt beam="2">  1       -2 0.70978063E-01 0.12877313E+04</pdfrwt>
<totfact> 0.28362304E+01</totfact>
</mgrwt>
</event>
<event>
12    4  0.4398275E-008  0.1634784E+04  0.7818608E-02  0.8799459E-01
          3   -1    0    0  501    0  0.00000000000E+00  0.00000000000E+00  0.88946709896E+03  0.88946709896E+03  0.00000000000E+00 0. -1.
         -4   -1    0    0    0  501 -0.00000000000E+00 -0.00000000000E+00 -0.75115769074E+03  0.75115769074E+03  0.00000000000E+00 0.  1.
        -24    2    1    2    0    0 -0.22000446080E+03 -0.48866603427E+02  0.58708697272E+03  0.63395383014E+03  0.80227411227E+02 0.  0.
        254    2    1    2    0    0  0.22000446080E+03  0.48866603427E+02 -0.44877756450E+03  0.10066709596E+04  0.87246501976E+03 0.  0.
         23    2    4    4    0    0  0.36880870264E+03  0.14570978642E+03  0.10298224155E+03  0.42005371624E+03  0.92674599809E+02 0.  0.
         23    2    4    4    0    0 -0.14880424185E+03 -0.96843182994E+02 -0.55175980605E+03  0.58661724331E+03  0.90330515803E+02 0.  0.
          3    1    3    3  502    0 -0.87426637360E+02 -0.25179128909E+02  0.13951991775E+03  0.16656293976E+03  0.00000000000E+00 0. -1.
         -4    1    3    3    0  502 -0.13257782344E+03 -0.23687474518E+02  0.44756705497E+03  0.46739089038E+03  0.00000000000E+00 0.  1.
         11    1    5    5    0    0  0.14941613473E+03  0.27084303667E+02  0.74135016810E+02  0.16898148283E+03  0.00000000000E+00 0. -1.
        -11    1    5    5    0    0  0.21939256791E+03  0.11862548275E+03  0.28847224742E+02  0.25107223341E+03  0.00000000000E+00 0.  1.
          3    1    6    6  503    0 -0.21192640374E+02  0.71830200528E+01 -0.20204509412E+02  0.30148731046E+02  0.00000000000E+00 0. -1.
         -3    1    6    6    0  503 -0.12761160148E+03 -0.10402620305E+03 -0.53155529664E+03  0.55646851226E+03  0.00000000000E+00 0.  1.
<mgrwt>
<rscale>  0 0.16347845E+04</rscale>
<asrwt>0</asrwt>
<pdfrwt beam="1">  1        3 0.13684109E+00 0.16347845E+04</pdfrwt>
<pdfrwt beam="2">  1       -4 0.11556272E+00 0.16347845E+04</pdfrwt>
<totfact> 0.52086650E-01</totfact>
</mgrwt>
</event>
<event>
12    4  0.4398275E-008  0.1167110E+04  0.7818608E-02  0.9142142E-01
         -2   -1    0    0    0  501 -0.00000000000E+00  0.00000000000E+00  0.23349112000E+03  0.23349112000E+03  0.00000000000E+00 0.  1.
          1   -1    0    0  501    0  0.00000000000E+00 -0.00000000000E+00 -0.14584557480E+04  0.14584557480E+04  0.00000000000E+00 0. -1.
        -24    2    1    2    0    0 -0.34850280004E+02  0.21925221850E+03 -0.31685185418E+03  0.39347366349E+03  0.71696227436E+02 0.  0.
        254    2    1    2    0    0  0.34850280004E+02 -0.21925221850E+03 -0.90811277385E+03  0.12984732045E+04  0.90115358045E+03 0.  0.
         23    2    4    4    0    0 -0.19606728198E+03  0.15276793810E+03 -0.79343293189E+03  0.83640898370E+03  0.90905162849E+02 0.  0.
         23    2    4    4    0    0  0.23091756199E+03 -0.37202015660E+03 -0.11467984196E+03  0.46206422084E+03  0.92897581704E+02 0.  0.
          1    1    3    3  502    0 -0.17744077837E+02  0.21490120685E+03 -0.29183927837E+03  0.36286022847E+03  0.00000000000E+00 0. -1.
         -2    1    3    3    0  502 -0.17106202167E+02  0.43510116419E+01 -0.25012575810E+02  0.30613435017E+02  0.00000000000E+00 0.  1.
         11    1    5    5    0    0 -0.20006078188E+03  0.14441749765E+03 -0.69420957616E+03  0.73675482062E+03  0.00000000000E+00 0.  1.
        -11    1    5    5    0    0  0.39934998967E+01  0.83504404498E+01 -0.99223355732E+02  0.99654163083E+02  0.00000000000E+00 0. -1.
          2    1    6    6  503    0  0.96663761963E+02 -0.82108463168E+02 -0.16915786724E+02  0.12795243820E+03  0.00000000000E+00 0. -1.
         -2    1    6    6    0  503  0.13425380002E+03 -0.28991169343E+03 -0.97764055236E+02  0.33411178265E+03  0.00000000000E+00 0.  1.
<mgrwt>
<rscale>  0 0.11671100E+04</rscale>
<asrwt>0</asrwt>
<pdfrwt beam="1">  1        1 0.22437780E+00 0.11671100E+04</pdfrwt>
<pdfrwt beam="2">  1       -2 0.35921711E-01 0.11671100E+04</pdfrwt>
<totfact> 0.44343664E+01</totfact>
</mgrwt>
</event>
<event>
12    4  0.4398275E-008  0.1705823E+04  0.7818608E-02  0.8758050E-01
         -2   -1    0    0    0  501 -0.00000000000E+00  0.00000000000E+00  0.84451916111E+03  0.84451916111E+03  0.00000000000E+00 0.  1.
          1   -1    0    0  501    0  0.00000000000E+00 -0.00000000000E+00 -0.86138731502E+03  0.86138731502E+03  0.00000000000E+00 0. -1.
        -24    2    1    2    0    0  0.56573412086E+03  0.23006160845E+03 -0.24951215037E+02  0.61638873233E+03  0.79555433664E+02 0.  0.
        254    2    1    2    0    0 -0.56573412086E+03 -0.23006160845E+03  0.80830611259E+01  0.10895177438E+04  0.90221956252E+03 0.  0.
         23    2    4    4    0    0  0.10066315387E+01 -0.37589039508E+03  0.23769731101E+03  0.45420542640E+03  0.92238578088E+02 0.  0.
         23    2    4    4    0    0 -0.56674075240E+03  0.14582878663E+03 -0.22961424988E+03  0.63531231740E+03  0.91858159447E+02 0.  0.
          3    1    3    3  502    0  0.38846699779E+02  0.19397303345E+02 -0.22583869818E+02  0.48942339919E+02  0.00000000000E+00 0. -1.
         -4    1    3    3    0  502  0.52688742108E+03  0.21066430511E+03 -0.23673452194E+01  0.56744639241E+03  0.00000000000E+00 0.  1.
         11    1    5    5    0    0 -0.32174192259E+02 -0.53143046420E+02  0.30158773006E+02  0.69057321260E+02  0.00000000000E+00 0. -1.
        -11    1    5    5    0    0  0.33180823798E+02 -0.32274734866E+03  0.20753853800E+03  0.38514810514E+03  0.00000000000E+00 0.  1.
          2    1    6    6  503    0 -0.37027635207E+02  0.11755998182E+02  0.76686982601E+01  0.39598714566E+02  0.00000000000E+00 0. -1.
         -2    1    6    6    0  503 -0.52971311719E+03  0.13407278845E+03 -0.23728294814E+03  0.59571360284E+03  0.00000000000E+00 0.  1.
<mgrwt>
<rscale>  0 0.17058231E+04</rscale>
<asrwt>0</asrwt>
<pdfrwt beam="1">  1        1 0.13252112E+00 0.17058231E+04</pdfrwt>
<pdfrwt beam="2">  1       -2 0.12992603E+00 0.17058231E+04</pdfrwt>
<totfact> 0.70996755E+00</totfact>
</mgrwt>
</event>
<event>
12    4  0.4398275E-008  0.1780334E+04  0.7818608E-02  0.8716828E-01
         -2   -1    0    0    0  501 -0.00000000000E+00  0.00000000000E+00  0.34561616008E+03  0.34561616008E+03  0.00000000000E+00 0.  1.
          1   -1    0    0  501    0  0.00000000000E+00 -0.00000000000E+00 -0.22927089168E+04  0.22927089168E+04  0.00000000000E+00 0. -1.
        -24    2    1    2    0    0  0.25873536046E+03 -0.43256809618E+03 -0.13131117930E+04  0.14087627853E+04  0.79314939496E+02 0.  0.
        254    2    1    2    0    0 -0.25873536046E+03  0.43256809618E+03 -0.63398096369E+03  0.12295622916E+04  0.92511211321E+03 0.  0.
         23    2    4    4    0    0 -0.38915163284E+03  0.46322632583E+03 -0.40668719165E+02  0.61322028305E+03  0.91474305352E+02 0.  0.
         23    2    4    4    0    0  0.13041627238E+03 -0.30658229652E+02 -0.59331224452E+03  0.61634200855E+03  0.99547580851E+02 0.  0.
          1    1    3    3  502    0  0.76980806071E+02 -0.16129939355E+03 -0.56227060660E+03  0.58999302869E+03  0.00000000000E+00 0. -1.
         -2    1    3    3    0  502  0.18175455439E+03 -0.27126870263E+03 -0.75084118641E+03  0.81876975657E+03  0.00000000000E+00 0.  1.
         11    1    5    5    0    0 -0.36608177444E+03  0.39085729412E+03 -0.28374404586E+02  0.53627455355E+03  0.00000000000E+00 0.  1.
        -11    1    5    5    0    0 -0.23069858390E+02  0.72369031715E+02 -0.12294314579E+02  0.76945729502E+02  0.00000000000E+00 0. -1.
          2    1    6    6  503    0  0.18684692962E+02  0.16281499279E+02 -0.24817068111E+02  0.35072665133E+02  0.00000000000E+00 0. -1.
         -2    1    6    6    0  503  0.11173157941E+03 -0.46939728931E+02 -0.56849517641E+03  0.58126934341E+03  0.00000000000E+00 0.  1.
<mgrwt>
<rscale>  0 0.17803340E+04</rscale>
<asrwt>0</asrwt>
<pdfrwt beam="1">  1        1 0.35272445E+00 0.17803340E+04</pdfrwt>
<pdfrwt beam="2">  1       -2 0.53171716E-01 0.17803340E+04</pdfrwt>
<totfact> 0.52148297E+00</totfact>
</mgrwt>
</event>
<event>
12    4  0.4398275E-008  0.1451941E+04  0.7818608E-02  0.8917056E-01
          1   -1    0    0  501    0  0.00000000000E+00  0.00000000000E+00  0.19542038065E+04  0.19542038065E+04  0.00000000000E+00 0. -1.
         -2   -1    0    0    0  501 -0.00000000000E+00 -0.00000000000E+00 -0.26969185169E+03  0.26969185169E+03  0.00000000000E+00 0.  1.
        -24    2    1    2    0    0  0.38664896193E+03  0.17224232157E+03  0.67888129403E+03  0.80509777281E+03  0.90209618704E+02 0.  0.
        254    2    1    2    0    0 -0.38664896193E+03 -0.17224232157E+03  0.10056306608E+04  0.14187978854E+04  0.90693416329E+03 0.  0.
         23    2    4    4    0    0 -0.42031557526E+03 -0.35337504816E+03  0.20650754146E+03  0.59386492415E+03  0.92147034580E+02 0.  0.
         23    2    4    4    0    0  0.33666613333E+02  0.18113272660E+03  0.79912311933E+03  0.82493296123E+03  0.89297957351E+02 0.  0.
          1    1    3    3  502    0  0.18882836520E+03  0.12739421641E+03  0.39901033798E+03  0.45945041919E+03  0.00000000000E+00 0. -1.
         -2    1    3    3    0  502  0.19782059673E+03  0.44848105155E+02  0.27987095604E+03  0.34564735362E+03  0.00000000000E+00 0.  1.
         11    1    5    5    0    0 -0.31134082475E+03 -0.28328934132E+03  0.19463640906E+03  0.46375563802E+03  0.00000000000E+00 0. -1.
        -11    1    5    5    0    0 -0.10897475051E+03 -0.70085706849E+02  0.11871132399E+02  0.13010928614E+03  0.00000000000E+00 0.  1.
          4    1    6    6  503    0 -0.24776355615E+02  0.55969527005E+02  0.16623888175E+03  0.17714915059E+03  0.00000000000E+00 0.  1.
         -4    1    6    6    0  503  0.58442968948E+02  0.12516319959E+03  0.63288423758E+03  0.64778381064E+03  0.00000000000E+00 0. -1.
<mgrwt>
<rscale>  0 0.14519406E+04</rscale>
<asrwt>0</asrwt>
<pdfrwt beam="1">  1        1 0.30064673E+00 0.14519406E+04</pdfrwt>
<pdfrwt beam="2">  1       -2 0.41491055E-01 0.14519406E+04</pdfrwt>
<totfact> 0.15027636E+01</totfact>
</mgrwt>
</event>
<event>
12    4  0.4398275E-008  0.2880644E+04  0.7818608E-02  0.8278660E-01
         -2   -1    0    0    0  501 -0.00000000000E+00  0.00000000000E+00  0.11155492919E+04  0.11155492919E+04  0.00000000000E+00 0.  1.
          1   -1    0    0  501    0  0.00000000000E+00 -0.00000000000E+00 -0.18596465233E+04  0.18596465233E+04  0.00000000000E+00 0. -1.
        -24    2    1    2    0    0  0.78503381831E+03 -0.19780840957E+03  0.71193303423E+03  0.10796067205E+04  0.57408735124E+02 0.  0.
        254    2    1    2    0    0 -0.78503381831E+03  0.19780840957E+03 -0.14560302656E+04  0.18955890948E+04  0.90433822166E+03 0.  0.
         23    2    4    4    0    0 -0.58400047340E+03 -0.77234649524E+02 -0.26395954340E+03  0.65191760813E+03  0.91105341318E+02 0.  0.
         23    2    4    4    0    0 -0.20103334491E+03  0.27504305910E+03 -0.11920707222E+04  0.12436714867E+04  0.98097247044E+02 0.  0.
          3    1    3    3  502    0  0.21272060375E+03 -0.32469607950E+02  0.20904702365E+03  0.30000831454E+03  0.00000000000E+00 0. -1.
         -4    1    3    3    0  502  0.57231321456E+03 -0.16533880162E+03  0.50288601059E+03  0.77959840593E+03  0.00000000000E+00 0.  1.
         11    1    5    5    0    0 -0.26020890735E+03 -0.16872239894E+02 -0.16262632852E+03  0.30731200867E+03  0.00000000000E+00 0.  1.
        -11    1    5    5    0    0 -0.32379156605E+03 -0.60362409630E+02 -0.10133321488E+03  0.34460559945E+03  0.00000000000E+00 0. -1.
          3    1    6    6  503    0 -0.16248822015E+03  0.25762607076E+03 -0.94113699874E+03  0.98919788941E+03  0.00000000000E+00 0. -1.
         -3    1    6    6    0  503 -0.38545124753E+02  0.17416988340E+02 -0.25093372346E+03  0.25447359725E+03  0.00000000000E+00 0.  1.
<mgrwt>
<rscale>  0 0.28806439E+04</rscale>
<asrwt>0</asrwt>
<pdfrwt beam="1">  1        1 0.28609946E+00 0.28806439E+04</pdfrwt>
<pdfrwt beam="2">  1       -2 0.17162297E+00 0.28806439E+04</pdfrwt>
<totfact> 0.58203211E-01</totfact>
</mgrwt>
</event>
<event>
12    4  0.4398275E-008  0.3310208E+04  0.7818608E-02  0.8160303E-01
         -2   -1    0    0    0  501 -0.00000000000E+00  0.00000000000E+00  0.24531256633E+04  0.24531256633E+04  0.00000000000E+00 0.  1.
          1   -1    0    0  501    0  0.00000000000E+00 -0.00000000000E+00 -0.11166852880E+04  0.11166852880E+04  0.00000000000E+00 0. -1.
        -24    2    1    2    0    0  0.14469577429E+04  0.83248925462E+02  0.10799263468E+04  0.18091852724E+04  0.79330587725E+02 0.  0.
        254    2    1    2    0    0 -0.14469577429E+04 -0.83248925462E+02  0.25651402849E+03  0.17606256789E+04  0.96611916518E+03 0.  0.
         23    2    4    4    0    0 -0.13863013944E+04  0.21036535662E+03  0.96204942963E+02  0.14084638174E+04  0.91813911193E+02 0.  0.
         23    2    4    4    0    0 -0.60656348414E+02 -0.29361428208E+03  0.16030908553E+03  0.35216186157E+03  0.91817398111E+02 0.  0.
          1    1    3    3  502    0  0.37370204446E+03 -0.16433053507E+01  0.24643884371E+03  0.44764720727E+03  0.00000000000E+00 0. -1.
         -2    1    3    3    0  502  0.10732556984E+04  0.84892230813E+02  0.83348750309E+03  0.13615380651E+04  0.00000000000E+00 0.  1.
         11    1    5    5    0    0 -0.82541884741E+03  0.16883992654E+03  0.44759350235E+02  0.84369816516E+03  0.00000000000E+00 0.  1.
        -11    1    5    5    0    0 -0.56088254704E+03  0.41525430081E+02  0.51445592728E+02  0.56476565222E+03  0.00000000000E+00 0. -1.
          4    1    6    6  503    0  0.11723553774E+02 -0.89876835035E+00  0.33570714464E+01  0.12227813636E+02  0.00000000000E+00 0. -1.
         -4    1    6    6    0  503 -0.72379902188E+02 -0.29271551373E+03  0.15695201408E+03  0.33993404793E+03  0.00000000000E+00 0.  1.
<mgrwt>
<rscale>  0 0.33102081E+04</rscale>
<asrwt>0</asrwt>
<pdfrwt beam="1">  1        1 0.17179774E+00 0.33102081E+04</pdfrwt>
<pdfrwt beam="2">  1       -2 0.37740395E+00 0.33102081E+04</pdfrwt>
<totfact> 0.93189736E-02</totfact>
</mgrwt>
</event>
<event>
12    4  0.4398275E-008  0.2191498E+04  0.7818608E-02  0.8521975E-01
          1   -1    0    0  501    0  0.00000000000E+00  0.00000000000E+00  0.71444562190E+03  0.71444562190E+03  0.00000000000E+00 0. -1.
         -2   -1    0    0    0  501 -0.00000000000E+00 -0.00000000000E+00 -0.16805557329E+04  0.16805557329E+04  0.00000000000E+00 0.  1.
        -24    2    1    2    0    0 -0.90089176092E+03  0.91156022886E+02 -0.43113323401E+03  0.10067406034E+04  0.87951074853E+02 0.  0.
        254    2    1    2    0    0  0.90089176092E+03 -0.91156022886E+02 -0.53497687698E+03  0.13882607514E+04  0.90617452497E+03 0.  0.
         23    2    4    4    0    0  0.63615940850E+03 -0.65987993095E+02 -0.78213066349E+03  0.10142760310E+04  0.89298847030E+02 0.  0.
         23    2    4    4    0    0  0.26473235242E+03 -0.25168029791E+02  0.24715378651E+03  0.37398472042E+03  0.89793812612E+02 0.  0.
          3    1    3    3  502    0 -0.38324800812E+03  0.71013181028E+02 -0.21781726458E+03  0.44650449982E+03  0.00000000000E+00 0. -1.
         -4    1    3    3    0  502 -0.51764375280E+03  0.20142841858E+02 -0.21331596943E+03  0.56023610353E+03  0.00000000000E+00 0.  1.
         11    1    5    5    0    0  0.23164735804E+03 -0.57384582053E+02 -0.24767244614E+03  0.34394058982E+03  0.00000000000E+00 0. -1.
        -11    1    5    5    0    0  0.40451205046E+03 -0.86034110420E+01 -0.53445821735E+03  0.67033544121E+03  0.00000000000E+00 0.  1.
          2    1    6    6  503    0  0.17311282100E+03 -0.15352788901E+02  0.10042094257E+03  0.20071901412E+03  0.00000000000E+00 0.  1.
         -2    1    6    6    0  503  0.91619531412E+02 -0.98152408897E+01  0.14673284394E+03  0.17326570630E+03  0.00000000000E+00 0. -1.
<mgrwt>
<rscale>  0 0.21914978E+04</rscale>
<asrwt>0</asrwt>
<pdfrwt beam="1">  1        1 0.10991471E+00 0.21914978E+04</pdfrwt>
<pdfrwt beam="2">  1       -2 0.25854704E+00 0.21914978E+04</pdfrwt>
<totfact> 0.12021213E+00</totfact>
</mgrwt>
</event>
<event>
12    4  0.4398275E-008  0.1170820E+04  0.7818608E-02  0.9138788E-01
         -2   -1    0    0    0  501 -0.00000000000E+00  0.00000000000E+00  0.43113526467E+03  0.43113526467E+03  0.00000000000E+00 0.  1.
          1   -1    0    0  501    0  0.00000000000E+00 -0.00000000000E+00 -0.79488953846E+03  0.79488953846E+03  0.00000000000E+00 0. -1.
        -24    2    1    2    0    0 -0.20449687235E+03 -0.42906989627E+02 -0.17955089500E+03  0.28757748306E+03  0.82476083235E+02 0.  0.
        254    2    1    2    0    0  0.20449687235E+03  0.42906989627E+02 -0.18420337878E+03  0.93844732007E+03  0.89615428763E+03 0.  0.
         23    2    4    4    0    0  0.11744350949E+03 -0.13976955169E+03 -0.50749838667E+03  0.54652568116E+03  0.88358373640E+02 0.  0.
         23    2    4    4    0    0  0.87053362865E+02  0.18267654131E+03  0.32329500789E+03  0.39192163891E+03  0.90188148821E+02 0.  0.
          1    1    3    3  502    0 -0.17194114251E+03 -0.58044035670E+02 -0.11845312163E+03  0.21671180999E+03  0.00000000000E+00 0. -1.
         -2    1    3    3    0  502 -0.32555729840E+02  0.15137046044E+02 -0.61097773375E+02  0.70865673070E+02  0.00000000000E+00 0.  1.
         11    1    5    5    0    0  0.53871071371E+02 -0.33655641058E+02 -0.83886517128E+02  0.10522234678E+03  0.00000000000E+00 0.  1.
        -11    1    5    5    0    0  0.63572438117E+02 -0.10611391063E+03 -0.42361186955E+03  0.44130333438E+03  0.00000000000E+00 0. -1.
          1    1    6    6  503    0  0.98272252146E+02  0.11729677689E+03  0.19898739404E+03  0.25102181658E+03  0.00000000000E+00 0. -1.
         -1    1    6    6    0  503 -0.11218889281E+02  0.65379764421E+02  0.12430761385E+03  0.14089982233E+03  0.00000000000E+00 0.  1.
<mgrwt>
<rscale>  0 0.11708201E+04</rscale>
<asrwt>0</asrwt>
<pdfrwt beam="1">  1        1 0.12229070E+00 0.11708201E+04</pdfrwt>
<pdfrwt beam="2">  1       -2 0.66328502E-01 0.11708201E+04</pdfrwt>
<totfact> 0.40573559E+01</totfact>
</mgrwt>
</event>
<event>
12    4  0.4398275E-008  0.2635840E+04  0.7818608E-02  0.8356128E-01
         -2   -1    0    0    0  501 -0.00000000000E+00  0.00000000000E+00  0.76691641727E+03  0.76691641727E+03  0.00000000000E+00 0.  1.
          1   -1    0    0  501    0  0.00000000000E+00 -0.00000000000E+00 -0.22648013167E+04  0.22648013167E+04  0.00000000000E+00 0. -1.
        -24    2    1    2    0    0 -0.79462675863E+03 -0.84756789719E+03 -0.62686451591E+03  0.13238932995E+04  0.99656014714E+02 0.  0.
        254    2    1    2    0    0  0.79462675863E+03  0.84756789719E+03 -0.87102038349E+03  0.17078244344E+04  0.89899097023E+03 0.  0.
         23    2    4    4    0    0  0.76850025206E+03  0.61581150482E+03 -0.10163818326E+04  0.14183602663E+04  0.94325863181E+02 0.  0.
         23    2    4    4    0    0  0.26126506564E+02  0.23175639237E+03  0.14536144916E+03  0.28946416811E+03  0.90917181931E+02 0.  0.
          1    1    3    3  502    0 -0.43420658444E+03 -0.45108328514E+03 -0.39323479415E+03  0.73935450998E+03  0.00000000000E+00 0. -1.
         -2    1    3    3    0  502 -0.36042017419E+03 -0.39648461205E+03 -0.23362972176E+03  0.58453878952E+03  0.00000000000E+00 0.  1.
         11    1    5    5    0    0  0.32526185369E+03  0.31750644920E+03 -0.48947852722E+03  0.66797817881E+03  0.00000000000E+00 0.  1.
        -11    1    5    5    0    0  0.44323839838E+03  0.29830505562E+03 -0.52690330543E+03  0.75038208752E+03  0.00000000000E+00 0. -1.
          1    1    6    6  503    0  0.62453121779E+01  0.32897849725E+02 -0.11501053541E+02  0.35405461066E+02  0.00000000000E+00 0.  1.
         -1    1    6    6    0  503  0.19881194386E+02  0.19885854264E+03  0.15686250270E+03  0.25405870705E+03  0.00000000000E+00 0. -1.
<mgrwt>
<rscale>  0 0.26358401E+04</rscale>
<asrwt>0</asrwt>
<pdfrwt beam="1">  1        1 0.34843097E+00 0.26358401E+04</pdfrwt>
<pdfrwt beam="2">  1       -2 0.11798714E+00 0.26358401E+04</pdfrwt>
<totfact> 0.84078476E-01</totfact>
</mgrwt>
</event>
<event>
12    4  0.4398275E-008  0.1363222E+04  0.7818608E-02  0.8980879E-01
         -2   -1    0    0    0  501 -0.00000000000E+00  0.00000000000E+00  0.16889183545E+03  0.16889183545E+03  0.00000000000E+00 0.  1.
          1   -1    0    0  501    0  0.00000000000E+00 -0.00000000000E+00 -0.27508331701E+04  0.27508331701E+04  0.00000000000E+00 0. -1.
        -24    2    1    2    0    0  0.12062449405E+02 -0.35999324472E+03 -0.10329778634E+04  0.10968554552E+04  0.79422819513E+02 0.  0.
        254    2    1    2    0    0 -0.12062449405E+02  0.35999324472E+03 -0.15489634712E+04  0.18228695504E+04  0.89096853122E+03 0.  0.
         23    2    4    4    0    0  0.29993171770E+03 -0.23977536779E+02 -0.17346231187E+03  0.35826229714E+03  0.87913266130E+02 0.  0.
         23    2    4    4    0    0 -0.31199416711E+03  0.38397078150E+03 -0.13755011594E+04  0.14646072533E+04  0.91088119501E+02 0.  0.
          3    1    3    3  502    0  0.31228614098E+02 -0.33508702321E+03 -0.92141613575E+03  0.98095169845E+03  0.00000000000E+00 0. -1.
         -4    1    3    3    0  502 -0.19166164693E+02 -0.24906221513E+02 -0.11156172767E+03  0.11590375671E+03  0.00000000000E+00 0.  1.
         11    1    5    5    0    0  0.26565671087E+03 -0.48601680637E+02 -0.13878397278E+03  0.30363893442E+03  0.00000000000E+00 0. -1.
        -11    1    5    5    0    0  0.34275006832E+02  0.24624143858E+02 -0.34678339082E+02  0.54623362727E+02  0.00000000000E+00 0.  1.
          3    1    6    6  503    0 -0.30337039783E+03  0.38881876648E+03 -0.13479326613E+04  0.14353174181E+04  0.00000000000E+00 0. -1.
         -3    1    6    6    0  503 -0.86237692799E+01 -0.48479849757E+01 -0.27568498092E+02  0.29289835130E+02  0.00000000000E+00 0.  1.
<mgrwt>
<rscale>  0 0.13632216E+04</rscale>
<asrwt>0</asrwt>
<pdfrwt beam="1">  1        1 0.42320508E+00 0.13632216E+04</pdfrwt>
<pdfrwt beam="2">  1       -2 0.25983361E-01 0.13632216E+04</pdfrwt>
<totfact> 0.10434524E+01</totfact>
</mgrwt>
</event>
<event>
12    4  0.4398275E-008  0.1814061E+04  0.7818608E-02  0.8698857E-01
          1   -1    0    0  501    0  0.00000000000E+00  0.00000000000E+00  0.50490901453E+03  0.50490901453E+03  0.00000000000E+00 0. -1.
         -2   -1    0    0    0  501 -0.00000000000E+00 -0.00000000000E+00 -0.16294114776E+04  0.16294114776E+04  0.00000000000E+00 0.  1.
        -24    2    1    2    0    0  0.10869423173E+03 -0.45836625619E+03  0.14690702012E+03  0.49989930644E+03  0.80022391816E+02 0.  0.
        254    2    1    2    0    0 -0.10869423173E+03  0.45836625619E+03 -0.12714094832E+04  0.16344211856E+04  0.91265353635E+03 0.  0.
         23    2    4    4    0    0  0.28915244671E+03 -0.64493133865E+02 -0.18164736560E+03  0.35859448042E+03  0.88463179941E+02 0.  0.
         23    2    4    4    0    0 -0.39784667845E+03  0.52285939006E+03 -0.10897621176E+04  0.12758267052E+04  0.92132445865E+02 0.  0.
          1    1    3    3  502    0  0.96908426867E+02 -0.42285557050E+03  0.11044632700E+03  0.44765664057E+03  0.00000000000E+00 0. -1.
         -2    1    3    3    0  502  0.11785804865E+02 -0.35510685695E+02  0.36460693113E+02  0.52242665869E+02  0.00000000000E+00 0.  1.
         11    1    5    5    0    0  0.24046195271E+03 -0.47590110858E+02 -0.10601310971E+03  0.26706843464E+03  0.00000000000E+00 0.  1.
        -11    1    5    5    0    0  0.48690494009E+02 -0.16903023007E+02 -0.75634255883E+02  0.91526045782E+02  0.00000000000E+00 0. -1.
          1    1    6    6  503    0 -0.21330690167E+03  0.35341492547E+03 -0.68938556364E+03  0.80352622807E+03  0.00000000000E+00 0. -1.
         -1    1    6    6    0  503 -0.18453977678E+03  0.16944446459E+03 -0.40037655392E+03  0.47230047715E+03  0.00000000000E+00 0.  1.
<mgrwt>
<rscale>  0 0.18140612E+04</rscale>
<asrwt>0</asrwt>
<pdfrwt beam="1">  1        1 0.77678310E-01 0.18140612E+04</pdfrwt>
<pdfrwt beam="2">  1       -2 0.25067869E+00 0.18140612E+04</pdfrwt>
<totfact> 0.22952268E+00</totfact>
</mgrwt>
</event>
<event>
12    4  0.4398275E-008  0.1641314E+04  0.7818608E-02  0.8795561E-01
          1   -1    0    0  501    0  0.00000000000E+00  0.00000000000E+00  0.60013786533E+03  0.60013786533E+03  0.00000000000E+00 0. -1.
         -2   -1    0    0    0  501 -0.00000000000E+00 -0.00000000000E+00 -0.11222058665E+04  0.11222058665E+04  0.00000000000E+00 0.  1.
        -24    2    1    2    0    0 -0.11782398221E+03 -0.56163813042E+03 -0.19232425249E+03  0.61061861585E+03  0.80911035090E+02 0.  0.
        254    2    1    2    0    0  0.11782398221E+03  0.56163813042E+03 -0.32974374871E+03  0.11117251160E+04  0.89324235984E+03 0.  0.
         23    2    4    4    0    0  0.33685566947E+03 -0.90128930595E+02 -0.17768863371E+03  0.40141835755E+03  0.89266348860E+02 0.  0.
         23    2    4    4    0    0 -0.21903168726E+03  0.65176706102E+03 -0.15205511500E+03  0.71030675846E+03  0.92950262293E+02 0.  0.
          1    1    3    3  502    0 -0.11699433563E+03 -0.56364771091E+03 -0.18766786835E+03  0.60547968207E+03  0.00000000000E+00 0. -1.
         -2    1    3    3    0  502 -0.82964658103E+00  0.20095804862E+01 -0.46563841433E+01  0.51389337873E+01  0.00000000000E+00 0.  1.
         11    1    5    5    0    0  0.11775999338E+03 -0.74228337057E+02 -0.84150440657E+02  0.16266087030E+03  0.00000000000E+00 0.  1.
        -11    1    5    5    0    0  0.21909567609E+03 -0.15900593538E+02 -0.93538193051E+02  0.23875748725E+03  0.00000000000E+00 0. -1.
          3    1    6    6  503    0 -0.16752883111E+03  0.42588658409E+03 -0.62399126703E+02  0.46188628771E+03  0.00000000000E+00 0. -1.
         -3    1    6    6    0  503 -0.51502856150E+02  0.22588047693E+03 -0.89655988299E+02  0.24842047075E+03  0.00000000000E+00 0.  1.
<mgrwt>
<rscale>  0 0.16413144E+04</rscale>
<asrwt>0</asrwt>
<pdfrwt beam="1">  1        1 0.92328903E-01 0.16413144E+04</pdfrwt>
<pdfrwt beam="2">  1       -2 0.17264706E+00 0.16413144E+04</pdfrwt>
<totfact> 0.58440955E+00</totfact>
</mgrwt>
</event>
<event>
12    4  0.4398275E-008  0.1485329E+04  0.7818608E-02  0.8894268E-01
          1   -1    0    0  501    0  0.00000000000E+00  0.00000000000E+00  0.52860063735E+03  0.52860063735E+03  0.00000000000E+00 0. -1.
         -2   -1    0    0    0  501 -0.00000000000E+00 -0.00000000000E+00 -0.10434157821E+04  0.10434157821E+04  0.00000000000E+00 0.  1.
        -24    2    1    2    0    0  0.69752948635E+02  0.71141755975E+02 -0.65084275733E+03  0.66318860074E+03  0.79348611236E+02 0.  0.
        254    2    1    2    0    0 -0.69752948635E+02 -0.71141755975E+02  0.13602761259E+03  0.90882781870E+03  0.89304975750E+03 0.  0.
         23    2    4    4    0    0 -0.26559684326E+03  0.13116566005E+03 -0.26747739560E+03  0.40975738777E+03  0.92794645053E+02 0.  0.
         23    2    4    4    0    0  0.19584389463E+03 -0.20230741602E+03  0.40350500819E+03  0.49907043093E+03  0.83497794916E+02 0.  0.
          3    1    3    3  502    0  0.39032175992E+02 -0.54289841592E+01 -0.12967167477E+03  0.13552759081E+03  0.00000000000E+00 0. -1.
         -4    1    3    3    0  502  0.30720772643E+02  0.76570740135E+02 -0.52117108255E+03  0.52766100994E+03  0.00000000000E+00 0.  1.
         11    1    5    5    0    0 -0.25824434703E+03  0.11647599974E+03 -0.21752978982E+03  0.35717784190E+03  0.00000000000E+00 0.  1.
        -11    1    5    5    0    0 -0.73524962357E+01  0.14689660303E+02 -0.49947605777E+02  0.52579545867E+02  0.00000000000E+00 0. -1.
          2    1    6    6  503    0 -0.51818953784E+01 -0.23465531750E+02  0.42530738649E+02  0.48850250256E+02  0.00000000000E+00 0. -1.
         -2    1    6    6    0  503  0.20102579000E+03 -0.17884188427E+03  0.36097426954E+03  0.45022018067E+03  0.00000000000E+00 0.  1.
<mgrwt>
<rscale>  0 0.14853286E+04</rscale>
<asrwt>0</asrwt>
<pdfrwt beam="1">  1        1 0.81323176E-01 0.14853286E+04</pdfrwt>
<pdfrwt beam="2">  1       -2 0.16052550E+00 0.14853286E+04</pdfrwt>
<totfact> 0.86678832E+00</totfact>
</mgrwt>
</event>
<event>
12    4  0.4398275E-008  0.1409166E+04  0.7818608E-02  0.8947210E-01
         -2   -1    0    0    0  501 -0.00000000000E+00  0.00000000000E+00  0.25954621650E+04  0.25954621650E+04  0.00000000000E+00 0.  1.
          1   -1    0    0  501    0  0.00000000000E+00 -0.00000000000E+00 -0.19127115807E+03  0.19127115807E+03  0.00000000000E+00 0. -1.
        -24    2    1    2    0    0 -0.28907611385E+03  0.16257425808E+03  0.10753572568E+04  0.11280917800E+04  0.78755605801E+02 0.  0.
        254    2    1    2    0    0  0.28907611385E+03 -0.16257425808E+03  0.13288337501E+04  0.16586415431E+04  0.93557321671E+03 0.  0.
         23    2    4    4    0    0  0.34696461034E+03  0.61372882079E+02  0.13607196652E+04  0.14085516227E+04  0.91151495955E+02 0.  0.
         23    2    4    4    0    0 -0.57888496496E+02 -0.22394714016E+03 -0.31885915033E+02  0.25008992032E+03  0.89581566499E+02 0.  0.
          3    1    3    3  502    0 -0.96673124716E+02  0.26352496358E+02  0.23924417004E+03  0.25937987587E+03  0.00000000000E+00 0. -1.
         -4    1    3    3    0  502 -0.19240298913E+03  0.13622176172E+03  0.83611308677E+03  0.86871190418E+03  0.00000000000E+00 0.  1.
         11    1    5    5    0    0  0.11899854379E+03  0.40775137862E+02  0.64395411322E+03  0.65612511400E+03  0.00000000000E+00 0. -1.
        -11    1    5    5    0    0  0.22796606655E+03  0.20597744217E+02  0.71676555196E+03  0.75242650873E+03  0.00000000000E+00 0.  1.
          2    1    6    6  503    0  0.11333989450E+02 -0.12039795353E+03 -0.33638573123E+02  0.12552163213E+03  0.00000000000E+00 0. -1.
         -2    1    6    6    0  503 -0.69222485946E+02 -0.10354918663E+03  0.17526580900E+01  0.12456828819E+03  0.00000000000E+00 0.  1.
<mgrwt>
<rscale>  0 0.14091658E+04</rscale>
<asrwt>0</asrwt>
<pdfrwt beam="1">  1        1 0.29426334E-01 0.14091658E+04</pdfrwt>
<pdfrwt beam="2">  1       -2 0.39930185E+00 0.14091658E+04</pdfrwt>
<totfact> 0.10169596E+00</totfact>
</mgrwt>
</event>
<event>
12    4  0.4398275E-008  0.2507300E+04  0.7818608E-02  0.8400389E-01
          1   -1    0    0  501    0  0.00000000000E+00  0.00000000000E+00  0.18665900479E+04  0.18665900479E+04  0.00000000000E+00 0. -1.
         -2   -1    0    0    0  501 -0.00000000000E+00 -0.00000000000E+00 -0.84198374111E+03  0.84198374111E+03  0.00000000000E+00 0.  1.
        -24    2    1    2    0    0  0.35868799536E+03 -0.19453806132E+02  0.15611129918E+04  0.16038764451E+04  0.79437708548E+02 0.  0.
        254    2    1    2    0    0 -0.35868799536E+03  0.19453806132E+02 -0.53650668498E+03  0.11046973439E+04  0.89637116752E+03 0.  0.
         23    2    4    4    0    0 -0.13401725782E+03  0.16748463764E+03 -0.72694477209E+03  0.76358056322E+03  0.92708390270E+02 0.  0.
         23    2    4    4    0    0 -0.22467073754E+03 -0.14803083151E+03  0.19043808710E+03  0.34111678066E+03  0.87772009479E+02 0.  0.
          3    1    3    3  502    0  0.19814693462E+03  0.27504459194E+02  0.80518663611E+03  0.82966512639E+03  0.00000000000E+00 0. -1.
         -4    1    3    3    0  502  0.16054106074E+03 -0.46958265326E+02  0.75592635565E+03  0.77421131871E+03  0.00000000000E+00 0.  1.
         11    1    5    5    0    0 -0.14250659355E+03  0.16087668888E+03 -0.71835041792E+03  0.74981115033E+03  0.00000000000E+00 0.  1.
        -11    1    5    5    0    0  0.84893357234E+01  0.66079487680E+01 -0.85943541637E+01  0.13769412894E+02  0.00000000000E+00 0. -1.
          2    1    6    6  503    0 -0.80809101765E+02 -0.62962326394E+01  0.55146706128E+02  0.98035262382E+02  0.00000000000E+00 0. -1.
         -2    1    6    6    0  503 -0.14386163577E+03 -0.14173459887E+03  0.13529138097E+03  0.24308151828E+03  0.00000000000E+00 0.  1.
<mgrwt>
<rscale>  0 0.25073001E+04</rscale>
<asrwt>0</asrwt>
<pdfrwt beam="1">  1        1 0.28716770E+00 0.25073001E+04</pdfrwt>
<pdfrwt beam="2">  1       -2 0.12953596E+00 0.25073001E+04</pdfrwt>
<totfact> 0.12549846E+00</totfact>
</mgrwt>
</event>
<event>
12    4  0.4398275E-008  0.2331818E+04  0.7818608E-02  0.8465480E-01
         -2   -1    0    0    0  501 -0.00000000000E+00  0.00000000000E+00  0.39705626786E+03  0.39705626786E+03  0.00000000000E+00 0.  1.
          1   -1    0    0  501    0  0.00000000000E+00 -0.00000000000E+00 -0.34235557899E+04  0.34235557899E+04  0.00000000000E+00 0. -1.
        -24    2    1    2    0    0  0.77458872486E+03  0.46753985272E+02 -0.27048034332E+03  0.82566149274E+03  0.79897788740E+02 0.  0.
        254    2    1    2    0    0 -0.77458872486E+03 -0.46753985272E+02 -0.27560191787E+04  0.29949505650E+04  0.87858610596E+03 0.  0.
         23    2    4    4    0    0  0.17180838931E+03  0.12482677529E+02 -0.73681567665E+03  0.76228554876E+03  0.92238693720E+02 0.  0.
         23    2    4    4    0    0 -0.94639711417E+03 -0.59236662800E+02 -0.20192035021E+04  0.22326650162E+04  0.91835788769E+02 0.  0.
          1    1    3    3  502    0  0.86329929201E+02 -0.18814339443E+02 -0.22688639564E+02  0.91222861223E+02  0.00000000000E+00 0. -1.
         -2    1    3    3    0  502  0.68825879566E+03  0.65568324714E+02 -0.24779170376E+03  0.73443863152E+03  0.00000000000E+00 0.  1.
         11    1    5    5    0    0  0.15116988842E+03  0.29110850794E+02 -0.70114226321E+03  0.71784416836E+03  0.00000000000E+00 0.  1.
        -11    1    5    5    0    0  0.20638500888E+02 -0.16628173265E+02 -0.35673413444E+02  0.44441380399E+02  0.00000000000E+00 0. -1.
          2    1    6    6  503    0 -0.65193787480E+02 -0.23369949990E+02 -0.11708194230E+03  0.13603148791E+03  0.00000000000E+00 0. -1.
         -2    1    6    6    0  503 -0.88120332669E+03 -0.35866712810E+02 -0.19021215598E+04  0.20966335283E+04  0.00000000000E+00 0.  1.
<mgrwt>
<rscale>  0 0.23318184E+04</rscale>
<asrwt>0</asrwt>
<pdfrwt beam="1">  1        1 0.52670089E+00 0.23318184E+04</pdfrwt>
<pdfrwt beam="2">  1       -2 0.61085579E-01 0.23318184E+04</pdfrwt>
<totfact> 0.56761980E-01</totfact>
</mgrwt>
</event>
<event>
12    4  0.4398275E-008  0.2561870E+04  0.7818608E-02  0.8381270E-01
         -2   -1    0    0    0  501 -0.00000000000E+00  0.00000000000E+00  0.20252311190E+04  0.20252311190E+04  0.00000000000E+00 0.  1.
          1   -1    0    0  501    0  0.00000000000E+00 -0.00000000000E+00 -0.81017618464E+03  0.81017618464E+03  0.00000000000E+00 0. -1.
        -24    2    1    2    0    0 -0.64687240211E+03  0.38109427369E+03  0.14707629356E+04  0.16531603630E+04  0.78222905463E+02 0.  0.
        254    2    1    2    0    0  0.64687240211E+03 -0.38109427369E+03 -0.25570800116E+03  0.11822469407E+04  0.87672372899E+03 0.  0.
         23    2    4    4    0    0  0.77377493767E+03 -0.40930503348E+02 -0.15678822684E+03  0.79576748600E+03  0.90886651570E+02 0.  0.
         23    2    4    4    0    0 -0.12690253556E+03 -0.34016377034E+03 -0.98919774327E+02  0.38647945474E+03  0.88122658842E+02 0.  0.
          3    1    3    3  502    0 -0.28275641115E+03  0.13343603353E+03  0.66797169064E+03  0.73752460474E+03  0.00000000000E+00 0. -1.
         -2    1    3    3    0  502 -0.36411599096E+03  0.24765824016E+03  0.80279124492E+03  0.91563575821E+03  0.00000000000E+00 0.  1.
         11    1    5    5    0    0  0.67781797641E+03 -0.60046583282E+02 -0.11856916528E+03  0.69072530594E+03  0.00000000000E+00 0.  1.
        -11    1    5    5    0    0  0.95956961256E+02  0.19116079934E+02 -0.38219061557E+02  0.10504218006E+03  0.00000000000E+00 0. -1.
          3    1    6    6  503    0 -0.39007486992E+02 -0.27217305787E+02 -0.34269931740E+01  0.47687630031E+02  0.00000000000E+00 0. -1.
         -3    1    6    6    0  503 -0.87895048564E+02 -0.31294646455E+03 -0.95492781153E+02  0.33879182471E+03  0.00000000000E+00 0.  1.
<mgrwt>
<rscale>  0 0.25618696E+04</rscale>
<asrwt>0</asrwt>
<pdfrwt beam="1">  1        1 0.12464249E+00 0.25618696E+04</pdfrwt>
<pdfrwt beam="2">  1       -2 0.31157402E+00 0.25618696E+04</pdfrwt>
<totfact> 0.45306757E-01</totfact>
</mgrwt>
</event>
<event>
12    4  0.4398275E-008  0.1489962E+04  0.7818608E-02  0.8891156E-01
         -2   -1    0    0    0  501 -0.00000000000E+00  0.00000000000E+00  0.12896676477E+04  0.12896676477E+04  0.00000000000E+00 0.  1.
          1   -1    0    0  501    0  0.00000000000E+00 -0.00000000000E+00 -0.43034094815E+03  0.43034094815E+03  0.00000000000E+00 0. -1.
        -24    2    1    2    0    0  0.40048633875E+03  0.18331122908E+03  0.83451984028E+02  0.45546485999E+03  0.80571029662E+02 0.  0.
        254    2    1    2    0    0 -0.40048633875E+03 -0.18331122908E+03  0.77587471547E+03  0.12645437358E+04  0.89615677839E+03 0.  0.
         23    2    4    4    0    0 -0.57179995152E+03 -0.40162427333E+03  0.51027511664E+03  0.86950113704E+03  0.85990064302E+02 0.  0.
         23    2    4    4    0    0  0.17131361277E+03  0.21831304425E+03  0.26559959883E+03  0.39504259878E+03  0.92231061678E+02 0.  0.
          3    1    3    3  502    0  0.31563185980E+03  0.15952819133E+03  0.36287918142E+02  0.35551304864E+03  0.00000000000E+00 0. -1.
         -4    1    3    3    0  502  0.84854478945E+02  0.23783037749E+02  0.47164065886E+02  0.99951811352E+02  0.00000000000E+00 0.  1.
         11    1    5    5    0    0 -0.52990808492E+03 -0.39149522746E+03  0.49383256868E+03  0.82337215005E+03  0.00000000000E+00 0. -1.
        -11    1    5    5    0    0 -0.41891866593E+02 -0.10129045875E+02  0.16442547968E+02  0.46128986989E+02  0.00000000000E+00 0.  1.
          2    1    6    6  503    0  0.17085397162E+03  0.16780298730E+03  0.23733650812E+03  0.33716100049E+03  0.00000000000E+00 0. -1.
         -2    1    6    6    0  503  0.45964114915E+00  0.50510056956E+02  0.28263090705E+02  0.57881598284E+02  0.00000000000E+00 0.  1.
<mgrwt>
<rscale>  0 0.14899621E+04</rscale>
<asrwt>0</asrwt>
<pdfrwt beam="1">  1        1 0.66206300E-01 0.14899621E+04</pdfrwt>
<pdfrwt beam="2">  1       -2 0.19841041E+00 0.14899621E+04</pdfrwt>
<totfact> 0.62659792E+00</totfact>
</mgrwt>
</event>
<event>
12    4  0.4398275E-008  0.1496999E+04  0.7818608E-02  0.8886451E-01
         -2   -1    0    0    0  501 -0.00000000000E+00  0.00000000000E+00  0.48596326165E+03  0.48596326165E+03  0.00000000000E+00 0.  1.
          1   -1    0    0  501    0  0.00000000000E+00 -0.00000000000E+00 -0.11528687655E+04  0.11528687655E+04  0.00000000000E+00 0. -1.
        -24    2    1    2    0    0 -0.34635237246E+03 -0.27915801451E+03  0.52100933658E+02  0.45513714362E+03  0.80908276731E+02 0.  0.
        254    2    1    2    0    0  0.34635237246E+03  0.27915801451E+03 -0.71900643749E+03  0.11836948835E+04  0.82841665671E+03 0.  0.
         23    2    4    4    0    0  0.33955650356E+03 -0.11214892562E+03 -0.10015047238E+02  0.36884935661E+03  0.89852913530E+02 0.  0.
         23    2    4    4    0    0  0.67958688997E+01  0.39130694013E+03 -0.70899139025E+03  0.81484552690E+03  0.90206075379E+02 0.  0.
          1    1    3    3  502    0 -0.11407879211E+03 -0.11548355502E+03 -0.15474035543E+02  0.16306399991E+03  0.00000000000E+00 0. -1.
         -2    1    3    3    0  502 -0.23227358035E+03 -0.16367445949E+03  0.67574969201E+02  0.29207314372E+03  0.00000000000E+00 0.  1.
         11    1    5    5    0    0  0.33656606017E+03 -0.11819287495E+03 -0.19457537338E+02  0.35724622364E+03  0.00000000000E+00 0.  1.
        -11    1    5    5    0    0  0.29904433911E+01  0.60439493373E+01  0.94424900995E+01  0.11603132963E+02  0.00000000000E+00 0. -1.
          1    1    6    6  503    0  0.30461595556E+02  0.75096138498E+02 -0.10457506284E+03  0.13229997199E+03  0.00000000000E+00 0. -1.
         -1    1    6    6    0  503 -0.23665726657E+02  0.31621080163E+03 -0.60441632742E+03  0.68254555491E+03  0.00000000000E+00 0.  1.
<mgrwt>
<rscale>  0 0.14969995E+04</rscale>
<asrwt>0</asrwt>
<pdfrwt beam="1">  1        1 0.17736442E+00 0.14969995E+04</pdfrwt>
<pdfrwt beam="2">  1       -2 0.74763580E-01 0.14969995E+04</pdfrwt>
<totfact> 0.15794982E+01</totfact>
</mgrwt>
</event>
<event>
12    4  0.4398275E-008  0.1812580E+04  0.7818608E-02  0.8699638E-01
          1   -1    0    0  501    0  0.00000000000E+00  0.00000000000E+00  0.85597634965E+03  0.85597634965E+03  0.00000000000E+00 0. -1.
         -2   -1    0    0    0  501 -0.00000000000E+00 -0.00000000000E+00 -0.95956060098E+03  0.95956060098E+03  0.00000000000E+00 0.  1.
        -24    2    1    2    0    0 -0.55845848176E+03  0.21505169240E+03 -0.36462075598E+03  0.70541127724E+03  0.80831108520E+02 0.  0.
        254    2    1    2    0    0  0.55845848176E+03 -0.21505169240E+03  0.26103650466E+03  0.11101256734E+04  0.89783954452E+03 0.  0.
         23    2    4    4    0    0  0.60090751620E+03 -0.33750633527E+03  0.47647123420E+03  0.84290934717E+03  0.92037824513E+02 0.  0.
         23    2    4    4    0    0 -0.42449034444E+02  0.12245464287E+03 -0.21543472955E+03  0.26721632622E+03  0.90528350375E+02 0.  0.
          1    1    3    3  502    0 -0.15838925454E+03  0.75954606560E+02 -0.14787233097E+03  0.22961377240E+03  0.00000000000E+00 0. -1.
         -2    1    3    3    0  502 -0.40006922722E+03  0.13909708584E+03 -0.21674842501E+03  0.47579750483E+03  0.00000000000E+00 0.  1.
         11    1    5    5    0    0  0.57360674317E+03 -0.34173874241E+03  0.45809797734E+03  0.80973070877E+03  0.00000000000E+00 0.  1.
        -11    1    5    5    0    0  0.27300773029E+02  0.42324071413E+01  0.18373256859E+02  0.33178638396E+02  0.00000000000E+00 0. -1.
          3    1    6    6  503    0 -0.26159557053E+02  0.10412377137E+03 -0.21755392180E+03  0.24260212505E+03  0.00000000000E+00 0.  1.
         -3    1    6    6    0  503 -0.16289477391E+02  0.18330871497E+02  0.21191922546E+01  0.24614201172E+02  0.00000000000E+00 0. -1.
<mgrwt>
<rscale>  0 0.18125796E+04</rscale>
<asrwt>0</asrwt>
<pdfrwt beam="1">  1        1 0.13168867E+00 0.18125796E+04</pdfrwt>
<pdfrwt beam="2">  1       -2 0.14762471E+00 0.18125796E+04</pdfrwt>
<totfact> 0.51089002E+00</totfact>
</mgrwt>
</event>
<event>
12    4  0.4398275E-008  0.1674691E+04  0.7818608E-02  0.8775932E-01
          1   -1    0    0  501    0  0.00000000000E+00  0.00000000000E+00  0.42340828111E+03  0.42340828111E+03  0.00000000000E+00 0. -1.
         -2   -1    0    0    0  501 -0.00000000000E+00 -0.00000000000E+00 -0.16559606318E+04  0.16559606318E+04  0.00000000000E+00 0.  1.
        -24    2    1    2    0    0  0.20173555469E+03 -0.46434285472E+03 -0.86589323990E+03  0.10060683841E+04  0.78044665085E+02 0.  0.
        254    2    1    2    0    0 -0.20173555469E+03  0.46434285472E+03 -0.36665911076E+03  0.10733005288E+04  0.87248128972E+03 0.  0.
         23    2    4    4    0    0 -0.16420635329E+03  0.31680954317E+03 -0.64633890943E+03  0.74386275847E+03  0.90806412196E+02 0.  0.
         23    2    4    4    0    0 -0.37529201399E+02  0.14753331156E+03  0.27967979867E+03  0.32943777035E+03  0.84462629460E+02 0.  0.
          3    1    3    3  502    0  0.61265440004E+02 -0.93949647791E+02 -0.14285455529E+03  0.18162437729E+03  0.00000000000E+00 0. -1.
         -4    1    3    3    0  502  0.14047011468E+03 -0.37039320693E+03 -0.72303868461E+03  0.82444400677E+03  0.00000000000E+00 0.  1.
         11    1    5    5    0    0 -0.42033426544E+02  0.43680698032E+02 -0.58435937179E+02  0.84199590745E+02  0.00000000000E+00 0.  1.
        -11    1    5    5    0    0 -0.12217292675E+03  0.27312884513E+03 -0.58790297225E+03  0.65966316773E+03  0.00000000000E+00 0. -1.
          1    1    6    6  503    0 -0.54624400900E+02  0.14678541660E+03  0.24531723504E+03  0.29105038998E+03  0.00000000000E+00 0. -1.
         -1    1    6    6    0  503  0.17095199502E+02  0.74789496076E+00  0.34362563629E+02  0.38387380375E+02  0.00000000000E+00 0.  1.
<mgrwt>
<rscale>  0 0.16746910E+04</rscale>
<asrwt>0</asrwt>
<pdfrwt beam="1">  1        1 0.65139737E-01 0.16746910E+04</pdfrwt>
<pdfrwt beam="2">  1       -2 0.25476317E+00 0.16746910E+04</pdfrwt>
<totfact> 0.27859980E+00</totfact>
</mgrwt>
</event>
<event>
12    4  0.4398275E-008  0.2313306E+04  0.7818608E-02  0.8472693E-01
         -4   -1    0    0    0  501 -0.00000000000E+00  0.00000000000E+00  0.65410633230E+03  0.65410633230E+03  0.00000000000E+00 0.  1.
          3   -1    0    0  501    0  0.00000000000E+00 -0.00000000000E+00 -0.20453033859E+04  0.20453033859E+04  0.00000000000E+00 0. -1.
        -24    2    1    2    0    0  0.49071761066E+03  0.54042730990E+02  0.39871788024E+03  0.63969892139E+03  0.80711658498E+02 0.  0.
        254    2    1    2    0    0 -0.49071761066E+03 -0.54042730990E+02 -0.17899149338E+04  0.20597107968E+04  0.89156531220E+03 0.  0.
         23    2    4    4    0    0 -0.61145810574E+03 -0.28587567238E+03 -0.90477114408E+03  0.11324207263E+04  0.90332513451E+02 0.  0.
         23    2    4    4    0    0  0.12074049508E+03  0.23183294139E+03 -0.88514378974E+03  0.92729007052E+03  0.89791795304E+02 0.  0.
          1    1    3    3  502    0 -0.61758551585E+00 -0.41383881480E+01  0.88329080197E+01  0.97738391852E+01  0.00000000000E+00 0. -1.
         -2    1    3    3    0  502  0.49133519618E+03  0.58181119138E+02  0.38988497222E+03  0.62992508220E+03  0.00000000000E+00 0.  1.
         11    1    5    5    0    0 -0.36712853845E+03 -0.14961053458E+03 -0.46322192192E+03  0.60970585100E+03  0.00000000000E+00 0.  1.
        -11    1    5    5    0    0 -0.24432956729E+03 -0.13626513780E+03 -0.44154922216E+03  0.52271487526E+03  0.00000000000E+00 0. -1.
          4    1    6    6  503    0  0.39154810590E+02  0.12867337195E+03 -0.32140560151E+03  0.34841282485E+03  0.00000000000E+00 0. -1.
         -4    1    6    6    0  503  0.81585684494E+02  0.10315956945E+03 -0.56373818823E+03  0.57887724567E+03  0.00000000000E+00 0.  1.
<mgrwt>
<rscale>  0 0.23133058E+04</rscale>
<asrwt>0</asrwt>
<pdfrwt beam="1">  1        3 0.31466205E+00 0.23133058E+04</pdfrwt>
<pdfrwt beam="2">  1       -4 0.10063175E+00 0.23133058E+04</pdfrwt>
<totfact> 0.54194592E-02</totfact>
</mgrwt>
</event>
<event>
12    4  0.4398275E-008  0.1384748E+04  0.7818608E-02  0.8964933E-01
         -2   -1    0    0    0  501 -0.00000000000E+00  0.00000000000E+00  0.52094732976E+03  0.52094732976E+03  0.00000000000E+00 0.  1.
          1   -1    0    0  501    0  0.00000000000E+00 -0.00000000000E+00 -0.92021137046E+03  0.92021137046E+03  0.00000000000E+00 0. -1.
        -24    2    1    2    0    0  0.42479087636E+02  0.11559796833E+03  0.27193329214E+03  0.31209159484E+03  0.91027935432E+02 0.  0.
        254    2    1    2    0    0 -0.42479087636E+02 -0.11559796833E+03 -0.67119733283E+03  0.11290671054E+04  0.89951059231E+03 0.  0.
         23    2    4    4    0    0 -0.30261577843E+03  0.17399998713E+02  0.72470895959E+02  0.32481672089E+03  0.91513944836E+02 0.  0.
         23    2    4    4    0    0  0.26013669079E+03 -0.13299796704E+03 -0.74366822879E+03  0.80425038449E+03  0.91742516375E+02 0.  0.
          1    1    3    3  502    0  0.18270585031E+02  0.19531035438E+02  0.47905624778E+01  0.27170298333E+02  0.00000000000E+00 0. -1.
         -4    1    3    3    0  502  0.24208502605E+02  0.96066932891E+02  0.26714272966E+03  0.28492129651E+03  0.00000000000E+00 0.  1.
         11    1    5    5    0    0 -0.22065209364E+03  0.29635742085E+02  0.89956146980E+02  0.24012024491E+03  0.00000000000E+00 0. -1.
        -11    1    5    5    0    0 -0.81963684781E+02 -0.12235743372E+02 -0.17485251021E+02  0.84696475972E+02  0.00000000000E+00 0.  1.
          2    1    6    6  503    0  0.16301889439E+03 -0.37102936713E+02 -0.46040892617E+03  0.48982462897E+03  0.00000000000E+00 0.  1.
         -2    1    6    6    0  503  0.97117796398E+02 -0.95895030329E+02 -0.28325930262E+03  0.31442575552E+03  0.00000000000E+00 0. -1.
<mgrwt>
<rscale>  0 0.13847479E+04</rscale>
<asrwt>0</asrwt>
<pdfrwt beam="1">  1        1 0.14157098E+00 0.13847479E+04</pdfrwt>
<pdfrwt beam="2">  1       -2 0.80145744E-01 0.13847479E+04</pdfrwt>
<totfact> 0.20635720E+01</totfact>
</mgrwt>
</event>
<event>
12    4  0.4398275E-008  0.1584909E+04  0.7818608E-02  0.8829873E-01
          1   -1    0    0  501    0  0.00000000000E+00  0.00000000000E+00  0.20889873405E+04  0.20889873405E+04  0.00000000000E+00 0. -1.
         -2   -1    0    0    0  501 -0.00000000000E+00 -0.00000000000E+00 -0.30061663332E+03  0.30061663332E+03  0.00000000000E+00 0.  1.
        -24    2    1    2    0    0 -0.37579621926E+03 -0.14644455909E+03  0.11141630845E+04  0.11884990228E+04  0.92204885230E+02 0.  0.
        254    2    1    2    0    0  0.37579621926E+03  0.14644455909E+03  0.67420762259E+03  0.12011049510E+04  0.90853088978E+03 0.  0.
         23    2    4    4    0    0 -0.59099359239E+02  0.41015823657E+03  0.49908613033E+03  0.65508513195E+03  0.91252678431E+02 0.  0.
         23    2    4    4    0    0  0.43489557850E+03 -0.26371367748E+03  0.17512149227E+03  0.54601981907E+03  0.93760534755E+02 0.  0.
          3    1    3    3  502    0 -0.37075119960E+03 -0.14695132440E+03  0.11142045334E+04  0.11834284456E+04  0.00000000000E+00 0. -1.
         -4    1    3    3    0  502 -0.50450196603E+01  0.50676530701E+00 -0.41448829745E-01  0.50705771323E+01  0.00000000000E+00 0.  1.
         11    1    5    5    0    0  0.23483125939E+02  0.11405420509E+03  0.12358165641E+03  0.16980060278E+03  0.00000000000E+00 0.  1.
        -11    1    5    5    0    0 -0.82582485178E+02  0.29610403148E+03  0.37550447392E+03  0.48528452917E+03  0.00000000000E+00 0. -1.
          3    1    6    6  503    0  0.43965117296E+03 -0.26186865433E+03  0.17527771942E+03  0.54091646761E+03  0.00000000000E+00 0. -1.
         -3    1    6    6    0  503 -0.47555944674E+01 -0.18450231462E+01 -0.15622715549E+00  0.51033514549E+01  0.00000000000E+00 0.  1.
<mgrwt>
<rscale>  0 0.15849093E+04</rscale>
<asrwt>0</asrwt>
<pdfrwt beam="1">  1        1 0.32138266E+00 0.15849093E+04</pdfrwt>
<pdfrwt beam="2">  1       -2 0.46248714E-01 0.15849093E+04</pdfrwt>
<totfact> 0.97006268E+00</totfact>
</mgrwt>
</event>
<event>
12    4  0.4398275E-008  0.1121537E+04  0.7818608E-02  0.9184451E-01
         -2   -1    0    0    0  501 -0.00000000000E+00  0.00000000000E+00  0.41072062155E+03  0.41072062155E+03  0.00000000000E+00 0.  1.
          1   -1    0    0  501    0  0.00000000000E+00 -0.00000000000E+00 -0.76563270216E+03  0.76563270216E+03  0.00000000000E+00 0. -1.
        -24    2    1    2    0    0 -0.44413387275E+02  0.74146083587E+02 -0.25354974611E+03  0.27731845006E+03  0.71748577051E+02 0.  0.
        254    2    1    2    0    0  0.44413387275E+02 -0.74146083587E+02 -0.10136233449E+03  0.89903487366E+03  0.88911146124E+03 0.  0.
         23    2    4    4    0    0  0.34836797404E+03  0.95649589122E+02 -0.30764245120E+03  0.48315109947E+03  0.91005592679E+02 0.  0.
         23    2    4    4    0    0 -0.30395458677E+03 -0.16979567271E+03  0.20628011670E+03  0.41588377419E+03  0.95858571859E+02 0.  0.
          3    1    3    3  502    0 -0.15589008517E+02  0.80986800469E+02 -0.17844352186E+03  0.19658069470E+03  0.00000000000E+00 0. -1.
         -4    1    3    3    0  502 -0.28824378757E+02 -0.68407168816E+01 -0.75106224252E+02  0.80737755354E+02  0.00000000000E+00 0.  1.
         11    1    5    5    0    0  0.70780058430E+02 -0.17104769816E+02 -0.55442243952E+02  0.91521758266E+02  0.00000000000E+00 0. -1.
        -11    1    5    5    0    0  0.27758791561E+03  0.11275435894E+03 -0.25220020725E+03  0.39162934120E+03  0.00000000000E+00 0.  1.
          1    1    6    6  503    0 -0.12873358919E+02 -0.12414276004E+02  0.43658190971E+02  0.47179182458E+02  0.00000000000E+00 0. -1.
         -1    1    6    6    0  503 -0.29108122785E+03 -0.15738139670E+03  0.16262192573E+03  0.36870459173E+03  0.00000000000E+00 0.  1.
<mgrwt>
<rscale>  0 0.11215367E+04</rscale>
<asrwt>0</asrwt>
<pdfrwt beam="1">  1        1 0.11778965E+00 0.11215367E+04</pdfrwt>
<pdfrwt beam="2">  1       -2 0.63187788E-01 0.11215367E+04</pdfrwt>
<totfact> 0.47960827E+01</totfact>
</mgrwt>
</event>
<event>
12    4  0.4398275E-008  0.2229436E+04  0.7818608E-02  0.8506275E-01
         -2   -1    0    0    0  501 -0.00000000000E+00  0.00000000000E+00  0.35118064067E+03  0.35118064067E+03  0.00000000000E+00 0.  1.
          1   -1    0    0  501    0  0.00000000000E+00 -0.00000000000E+00 -0.35383378823E+04  0.35383378823E+04  0.00000000000E+00 0. -1.
        -24    2    1    2    0    0 -0.24087304392E+03 -0.76006375332E+03 -0.50090182185E+03  0.94505209171E+03  0.80647929364E+02 0.  0.
        254    2    1    2    0    0  0.24087304392E+03  0.76006375332E+03 -0.26862554198E+04  0.29444664313E+04  0.90454278627E+03 0.  0.
         23    2    4    4    0    0  0.23831047151E+03  0.38097343699E+03 -0.24411289062E+04  0.24838610960E+04  0.92319915399E+02 0.  0.
         23    2    4    4    0    0  0.25625724102E+01  0.37909031633E+03 -0.24512651355E+03  0.46060533529E+03  0.91401490918E+02 0.  0.
          1    1    3    3  502    0 -0.20146084043E+02 -0.23935399999E+02 -0.88348602299E+01  0.32508811585E+02  0.00000000000E+00 0. -1.
         -2    1    3    3    0  502 -0.22072695987E+03 -0.73612835332E+03 -0.49206696162E+03  0.91254328012E+03  0.00000000000E+00 0.  1.
         11    1    5    5    0    0  0.10916396894E+03  0.21603655706E+03 -0.10869203339E+04  0.11135458582E+04  0.00000000000E+00 0. -1.
        -11    1    5    5    0    0  0.12914650257E+03  0.16493687993E+03 -0.13542085723E+04  0.13703152377E+04  0.00000000000E+00 0.  1.
          4    1    6    6  503    0 -0.55920960627E+01  0.66463422262E+02 -0.60807731474E+01  0.66974874686E+02  0.00000000000E+00 0. -1.
         -4    1    6    6    0  503  0.81546684729E+01  0.31262689407E+03 -0.23904574040E+03  0.39363046060E+03  0.00000000000E+00 0.  1.
<mgrwt>
<rscale>  0 0.22294356E+04</rscale>
<asrwt>0</asrwt>
<pdfrwt beam="1">  1        1 0.54435966E+00 0.22294356E+04</pdfrwt>
<pdfrwt beam="2">  1       -2 0.54027792E-01 0.22294356E+04</pdfrwt>
<totfact> 0.60249850E-01</totfact>
</mgrwt>
</event>
<event>
12    4  0.4398275E-008  0.1513837E+04  0.7818608E-02  0.8875303E-01
         -2   -1    0    0    0  501 -0.00000000000E+00  0.00000000000E+00  0.57955956541E+03  0.57955956541E+03  0.00000000000E+00 0.  1.
          1   -1    0    0  501    0  0.00000000000E+00 -0.00000000000E+00 -0.98855313098E+03  0.98855313098E+03  0.00000000000E+00 0. -1.
        -24    2    1    2    0    0  0.37364869017E+03 -0.24074605049E+03  0.44892896106E+02  0.45717141560E+03  0.97048063476E+02 0.  0.
        254    2    1    2    0    0 -0.37364869017E+03  0.24074605049E+03 -0.45388646168E+03  0.11109412808E+04  0.91137566611E+03 0.  0.
         23    2    4    4    0    0  0.25256441792E+03 -0.88956588032E+02 -0.36883476016E+02  0.28496235814E+03  0.90228016707E+02 0.  0.
         23    2    4    4    0    0 -0.62621310810E+03  0.32970263852E+03 -0.41700298567E+03  0.82597892265E+03  0.86619882307E+02 0.  0.
          1    1    3    3  502    0  0.25274506636E+03 -0.16038671311E+03 -0.15949803136E+02  0.29976384460E+03  0.00000000000E+00 0. -1.
         -2    1    3    3    0  502  0.12090362381E+03 -0.80359337385E+02  0.60842699242E+02  0.15740757100E+03  0.00000000000E+00 0.  1.
         11    1    5    5    0    0  0.97050847042E+02  0.11014854349E+02 -0.11290290119E+02  0.98324282753E+02  0.00000000000E+00 0. -1.
        -11    1    5    5    0    0  0.15551357088E+03 -0.99971442381E+02 -0.25593185897E+02  0.18663807539E+03  0.00000000000E+00 0.  1.
          2    1    6    6  503    0 -0.11982913771E+03  0.31175068182E+02 -0.53855588235E+02  0.13502344798E+03  0.00000000000E+00 0. -1.
         -2    1    6    6    0  503 -0.50638397039E+03  0.29852757034E+03 -0.36314739743E+03  0.69095547467E+03  0.00000000000E+00 0.  1.
<mgrwt>
<rscale>  0 0.15138367E+04</rscale>
<asrwt>0</asrwt>
<pdfrwt beam="1">  1        1 0.15208510E+00 0.15138367E+04</pdfrwt>
<pdfrwt beam="2">  1       -2 0.89163011E-01 0.15138367E+04</pdfrwt>
<totfact> 0.14130057E+01</totfact>
</mgrwt>
</event>
<event>
12    4  0.4398275E-008  0.1948503E+04  0.7818608E-02  0.8631083E-01
         -2   -1    0    0    0  501 -0.00000000000E+00  0.00000000000E+00  0.11138060046E+04  0.11138060046E+04  0.00000000000E+00 0.  1.
          1   -1    0    0  501    0  0.00000000000E+00 -0.00000000000E+00 -0.85218266251E+03  0.85218266251E+03  0.00000000000E+00 0. -1.
        -24    2    1    2    0    0 -0.68361124886E+03 -0.30339175755E+03  0.27490354614E+03  0.80080471844E+03  0.79657637933E+02 0.  0.
        254    2    1    2    0    0  0.68361124886E+03  0.30339175755E+03 -0.13280204061E+02  0.11651839487E+04  0.89336799376E+03 0.  0.
         23    2    4    4    0    0  0.67165281466E+03 -0.15525314174E+03  0.24278693709E+02  0.69575809716E+03  0.90933125622E+02 0.  0.
         23    2    4    4    0    0  0.11958434197E+02  0.45864489929E+03 -0.37558897770E+02  0.46942585150E+03  0.91933734083E+02 0.  0.
          1    1    3    3  502    0 -0.42111459418E+03 -0.22026155299E+03  0.19872305181E+03  0.51511504004E+03  0.00000000000E+00 0. -1.
         -2    1    3    3    0  502 -0.26249665468E+03 -0.83130204564E+02  0.76180494337E+02  0.28568967840E+03  0.00000000000E+00 0.  1.
         11    1    5    5    0    0  0.27708681540E+03 -0.77955444053E+02 -0.32617505491E+02  0.28968613393E+03  0.00000000000E+00 0.  1.
        -11    1    5    5    0    0  0.39456599926E+03 -0.77297697686E+02  0.56896199200E+02  0.40607196323E+03  0.00000000000E+00 0. -1.
          1    1    6    6  503    0  0.38555613829E+01  0.45374978507E+03 -0.26035418684E+02  0.45451245949E+03  0.00000000000E+00 0. -1.
         -1    1    6    6    0  503  0.81028728144E+01  0.48951142206E+01 -0.11523479086E+02  0.14913392013E+02  0.00000000000E+00 0.  1.
<mgrwt>
<rscale>  0 0.19485032E+04</rscale>
<asrwt>0</asrwt>
<pdfrwt beam="1">  1        1 0.13110503E+00 0.19485032E+04</pdfrwt>
<pdfrwt beam="2">  1       -2 0.17135477E+00 0.19485032E+04</pdfrwt>
<totfact> 0.33930733E+00</totfact>
</mgrwt>
</event>
<event>
12    4  0.4398275E-008  0.2422172E+04  0.7818608E-02  0.8431249E-01
          1   -1    0    0  501    0  0.00000000000E+00  0.00000000000E+00  0.19107398158E+04  0.19107398158E+04  0.00000000000E+00 0. -1.
         -2   -1    0    0    0  501 -0.00000000000E+00 -0.00000000000E+00 -0.76762399995E+03  0.76762399995E+03  0.00000000000E+00 0.  1.
        -24    2    1    2    0    0 -0.10157530549E+04  0.22192163752E+03  0.39948908335E+03  0.11166232223E+04  0.79072189564E+02 0.  0.
        254    2    1    2    0    0  0.10157530549E+04 -0.22192163752E+03  0.74362673246E+03  0.15617405934E+04  0.89724549702E+03 0.  0.
         23    2    4    4    0    0  0.63289013711E+03 -0.17842613640E+03  0.91482186379E+03  0.11300358684E+04  0.87728043919E+02 0.  0.
         23    2    4    4    0    0  0.38286291783E+03 -0.43495501117E+02 -0.17119513132E+03  0.43170472493E+03  0.92657023877E+02 0.  0.
          3    1    3    3  502    0 -0.77229100207E+03  0.19851162935E+03  0.28779911846E+03  0.84774323439E+03  0.00000000000E+00 0. -1.
         -4    1    3    3    0  502 -0.24346205287E+03  0.23410008167E+02  0.11168996489E+03  0.26887998796E+03  0.00000000000E+00 0.  1.
         11    1    5    5    0    0  0.86944724828E+02  0.55427124082E+01  0.11201999911E+03  0.14191048952E+03  0.00000000000E+00 0.  1.
        -11    1    5    5    0    0  0.54594541228E+03 -0.18396884881E+03  0.80280186468E+03  0.98812537891E+03  0.00000000000E+00 0. -1.
          4    1    6    6  503    0  0.32659989950E+03 -0.18874876588E+02 -0.11035365971E+03  0.34525597103E+03  0.00000000000E+00 0. -1.
         -4    1    6    6    0  503  0.56263018332E+02 -0.24620624528E+02 -0.60841471611E+02  0.86448753905E+02  0.00000000000E+00 0.  1.
<mgrwt>
<rscale>  0 0.24221724E+04</rscale>
<asrwt>0</asrwt>
<pdfrwt beam="1">  1        1 0.29395997E+00 0.24221724E+04</pdfrwt>
<pdfrwt beam="2">  1       -2 0.11809600E+00 0.24221724E+04</pdfrwt>
<totfact> 0.14874251E+00</totfact>
</mgrwt>
</event>
<event>
12    4  0.4398275E-008  0.1667085E+04  0.7818608E-02  0.8780363E-01
         -2   -1    0    0    0  501 -0.00000000000E+00  0.00000000000E+00  0.10819778556E+04  0.10819778556E+04  0.00000000000E+00 0.  1.
          1   -1    0    0  501    0  0.00000000000E+00 -0.00000000000E+00 -0.64215106758E+03  0.64215106758E+03  0.00000000000E+00 0. -1.
        -24    2    1    2    0    0  0.45405173605E+03 -0.83426012574E+02  0.49127056229E+03  0.67927028522E+03  0.83297517527E+02 0.  0.
        254    2    1    2    0    0 -0.45405173605E+03  0.83426012574E+02 -0.51443774312E+02  0.10448586379E+04  0.93592747195E+03 0.  0.
         23    2    4    4    0    0 -0.59477837249E+03 -0.24693734227E+03 -0.13653471838E+03  0.66453023590E+03  0.90660585233E+02 0.  0.
         23    2    4    4    0    0  0.14072663643E+03  0.33036335484E+03  0.85090944066E+02  0.38032840203E+03  0.92007022596E+02 0.  0.
          3    1    3    3  502    0  0.98682577873E+02 -0.42765258021E+02  0.15256204047E+03  0.18666090823E+03  0.00000000000E+00 0. -1.
         -4    1    3    3    0  502  0.35536915818E+03 -0.40660754553E+02  0.33870852182E+03  0.49260937699E+03  0.00000000000E+00 0.  1.
         11    1    5    5    0    0 -0.38434267471E+03 -0.14667737285E+03 -0.43964789421E+02  0.41372266801E+03  0.00000000000E+00 0. -1.
        -11    1    5    5    0    0 -0.21043569777E+03 -0.10025996941E+03 -0.92569928957E+02  0.25080756789E+03  0.00000000000E+00 0.  1.
          2    1    6    6  503    0  0.16271053431E+02  0.23534596401E+02 -0.17684325523E+02  0.33635692006E+02  0.00000000000E+00 0.  1.
         -2    1    6    6    0  503  0.12445558300E+03  0.30682875844E+03  0.10277526959E+03  0.34669271003E+03  0.00000000000E+00 0. -1.
<mgrwt>
<rscale>  0 0.16670852E+04</rscale>
<asrwt>0</asrwt>
<pdfrwt beam="1">  1        1 0.98792472E-01 0.16670852E+04</pdfrwt>
<pdfrwt beam="2">  1       -2 0.16645813E+00 0.16670852E+04</pdfrwt>
<totfact> 0.58489014E+00</totfact>
</mgrwt>
</event>
<event>
12    4  0.4398275E-008  0.2117935E+04  0.7818608E-02  0.8553384E-01
         -2   -1    0    0    0  501 -0.00000000000E+00  0.00000000000E+00  0.42438024266E+03  0.42438024266E+03  0.00000000000E+00 0.  1.
          1   -1    0    0  501    0  0.00000000000E+00 -0.00000000000E+00 -0.26424702806E+04  0.26424702806E+04  0.00000000000E+00 0. -1.
        -24    2    1    2    0    0 -0.73827554664E+02 -0.50982553378E+03 -0.19400909592E+04  0.20088871230E+04  0.79384888197E+02 0.  0.
        254    2    1    2    0    0  0.73827554664E+02  0.50982553378E+03 -0.27799907882E+03  0.10579634003E+04  0.88126641022E+03 0.  0.
         23    2    4    4    0    0 -0.39304812732E+03  0.23735661596E+03 -0.82751227629E+02  0.47547023015E+03  0.91647043322E+02 0.  0.
         23    2    4    4    0    0  0.46687568199E+03  0.27246891782E+03 -0.19524785119E+03  0.58249317013E+03  0.94680284348E+02 0.  0.
          1    1    3    3  502    0 -0.49142945107E+02 -0.31859325327E+03 -0.10606037977E+04  0.11085112114E+04  0.00000000000E+00 0. -1.
         -2    1    3    3    0  502 -0.24684609557E+02 -0.19123228051E+03 -0.87948716147E+03  0.90037591163E+03  0.00000000000E+00 0.  1.
         11    1    5    5    0    0 -0.40383100893E+02  0.73228099584E+01  0.14141383607E+02  0.43409643096E+02  0.00000000000E+00 0. -1.
        -11    1    5    5    0    0 -0.35266502643E+03  0.23003380600E+03 -0.96892611236E+02  0.43206058705E+03  0.00000000000E+00 0.  1.
          2    1    6    6  503    0  0.88380714198E+02  0.11692249372E+02 -0.30339613524E+02  0.94171925149E+02  0.00000000000E+00 0.  1.
         -2    1    6    6    0  503  0.37849496779E+03  0.26077666845E+03 -0.16490823766E+03  0.48832124498E+03  0.00000000000E+00 0. -1.
<mgrwt>
<rscale>  0 0.21179350E+04</rscale>
<asrwt>0</asrwt>
<pdfrwt beam="1">  1        1 0.40653389E+00 0.21179350E+04</pdfrwt>
<pdfrwt beam="2">  1       -2 0.65289267E-01 0.21179350E+04</pdfrwt>
<totfact> 0.18804757E+00</totfact>
</mgrwt>
</event>
<event>
12    4  0.4398275E-008  0.1493891E+04  0.7818608E-02  0.8888525E-01
          1   -1    0    0  501    0  0.00000000000E+00  0.00000000000E+00  0.10303781209E+04  0.10303781209E+04  0.00000000000E+00 0. -1.
         -2   -1    0    0    0  501 -0.00000000000E+00 -0.00000000000E+00 -0.54147853848E+03  0.54147853848E+03  0.00000000000E+00 0.  1.
        -24    2    1    2    0    0 -0.36139225216E+03 -0.30555383317E+02  0.45541937447E+03  0.58791849548E+03  0.81874045378E+02 0.  0.
        254    2    1    2    0    0  0.36139225216E+03  0.30555383317E+02  0.33480207989E+02  0.98393816395E+03  0.91404343156E+03 0.  0.
         23    2    4    4    0    0  0.36341825950E+03  0.29805591142E+03 -0.28617940839E+03  0.55737282833E+03  0.88632151625E+02 0.  0.
         23    2    4    4    0    0 -0.20260073489E+01 -0.26750052810E+03  0.31965961638E+03  0.42656533562E+03  0.90637067292E+02 0.  0.
          1    1    3    3  502    0 -0.29943404962E+03 -0.10716814763E+02  0.41305367004E+03  0.51028319051E+03  0.00000000000E+00 0. -1.
         -4    1    3    3    0  502 -0.61958202538E+02 -0.19838568554E+02  0.42365704438E+02  0.77635304962E+02  0.00000000000E+00 0.  1.
         11    1    5    5    0    0  0.31087075905E+03  0.20871243835E+03 -0.21727441494E+03  0.43290839925E+03  0.00000000000E+00 0.  1.
        -11    1    5    5    0    0  0.52547500457E+02  0.89343473069E+02 -0.68904993449E+02  0.12446442908E+03  0.00000000000E+00 0. -1.
          4    1    6    6  503    0  0.20308396062E+01  0.54066706421E+01  0.21862344336E+02  0.22612352748E+02  0.00000000000E+00 0. -1.
         -4    1    6    6    0  503 -0.40568469550E+01 -0.27290719875E+03  0.29779727204E+03  0.40395298287E+03  0.00000000000E+00 0.  1.
<mgrwt>
<rscale>  0 0.14938911E+04</rscale>
<asrwt>0</asrwt>
<pdfrwt beam="1">  1        1 0.15851971E+00 0.14938911E+04</pdfrwt>
<pdfrwt beam="2">  1       -2 0.83304391E-01 0.14938911E+04</pdfrwt>
<totfact> 0.15338111E+01</totfact>
</mgrwt>
</event>
<event>
12    4  0.4398275E-008  0.1131878E+04  0.7818608E-02  0.9174666E-01
          1   -1    0    0  501    0  0.00000000000E+00  0.00000000000E+00  0.21284227955E+04  0.21284227955E+04  0.00000000000E+00 0. -1.
         -2   -1    0    0    0  501 -0.00000000000E+00 -0.00000000000E+00 -0.15048099764E+03  0.15048099764E+03  0.00000000000E+00 0.  1.
        -24    2    1    2    0    0 -0.51425468982E+02  0.15630200918E+03  0.15205840311E+03  0.23762953463E+03  0.79190535048E+02 0.  0.
        254    2    1    2    0    0  0.51425468982E+02 -0.15630200918E+03  0.18258833947E+04  0.20412742585E+04  0.89770570358E+03 0.  0.
         23    2    4    4    0    0 -0.34902840447E+01 -0.81960455216E+02 -0.72601894907E+02  0.13838535464E+03  0.84556329932E+02 0.  0.
         23    2    4    4    0    0  0.54915753027E+02 -0.74341553961E+02  0.18984852896E+04  0.19028889038E+04  0.90539377219E+02 0.  0.
          1    1    3    3  502    0  0.10608943387E+02 -0.19445289884E+01  0.18694930366E+02  0.21583125217E+02  0.00000000000E+00 0. -1.
         -2    1    3    3    0  502 -0.62034412369E+02  0.15824653817E+03  0.13336347274E+03  0.21604640942E+03  0.00000000000E+00 0.  1.
         11    1    5    5    0    0  0.36475753741E+02 -0.46786808290E+02 -0.58483337867E+02  0.83305383074E+02  0.00000000000E+00 0. -1.
        -11    1    5    5    0    0 -0.39966037786E+02 -0.35173646926E+02 -0.14118557040E+02  0.55079971562E+02  0.00000000000E+00 0.  1.
          1    1    6    6  503    0 -0.24489318088E+02 -0.16875277174E+02  0.32696127780E+03  0.32831110073E+03  0.00000000000E+00 0. -1.
         -1    1    6    6    0  503  0.79405071115E+02 -0.57466276787E+02  0.15715240118E+04  0.15745778031E+04  0.00000000000E+00 0.  1.
<mgrwt>
<rscale>  0 0.11318784E+04</rscale>
<asrwt>0</asrwt>
<pdfrwt beam="1">  1        1 0.32744964E+00 0.11318784E+04</pdfrwt>
<pdfrwt beam="2">  1       -2 0.23150924E-01 0.11318784E+04</pdfrwt>
<totfact> 0.35198176E+01</totfact>
</mgrwt>
</event>
<event>
12    4  0.4398275E-008  0.2821954E+04  0.7818608E-02  0.8296485E-01
         -2   -1    0    0    0  501 -0.00000000000E+00  0.00000000000E+00  0.18773655697E+04  0.18773655697E+04  0.00000000000E+00 0.  1.
          1   -1    0    0  501    0  0.00000000000E+00 -0.00000000000E+00 -0.10604523230E+04  0.10604523230E+04  0.00000000000E+00 0. -1.
        -24    2    1    2    0    0  0.12251339274E+04  0.17248162361E+03  0.64495275060E+03  0.13974482555E+04  0.78705309903E+02 0.  0.
        254    2    1    2    0    0 -0.12251339274E+04 -0.17248162361E+03  0.17196049613E+03  0.15403696372E+04  0.90136849088E+03 0.  0.
         23    2    4    4    0    0 -0.10621295134E+04  0.16119298116E+03  0.32833945719E+03  0.11271236437E+04  0.92188006362E+02 0.  0.
         23    2    4    4    0    0 -0.16300441395E+03 -0.33367460478E+03 -0.15637896105E+03  0.41324599348E+03  0.91698913979E+02 0.  0.
          3    1    3    3  502    0  0.12169158021E+03 -0.64367122464E+01  0.64021164677E+02  0.13765529951E+03  0.00000000000E+00 0. -1.
         -4    1    3    3    0  502  0.11034423472E+04  0.17891833586E+03  0.58093158592E+03  0.12597929560E+04  0.00000000000E+00 0.  1.
         11    1    5    5    0    0 -0.10063293085E+04  0.16506273929E+03  0.32786909217E+03  0.10711874377E+04  0.00000000000E+00 0. -1.
        -11    1    5    5    0    0 -0.55800204910E+02 -0.38697581239E+01  0.47036501775E+00  0.55936205977E+02  0.00000000000E+00 0.  1.
          4    1    6    6  503    0 -0.14219020338E+03 -0.21788697413E+03 -0.13691137514E+03  0.29400257154E+03  0.00000000000E+00 0. -1.
         -4    1    6    6    0  503 -0.20814210564E+02 -0.11578763065E+03 -0.19467585916E+02  0.11924342193E+03  0.00000000000E+00 0.  1.
<mgrwt>
<rscale>  0 0.28219544E+04</rscale>
<asrwt>0</asrwt>
<pdfrwt beam="1">  1        1 0.16314651E+00 0.28219544E+04</pdfrwt>
<pdfrwt beam="2">  1       -2 0.28882547E+00 0.28219544E+04</pdfrwt>
<totfact> 0.38318810E-01</totfact>
</mgrwt>
</event>
<event>
12    4  0.4398275E-008  0.1337480E+04  0.7818608E-02  0.9000360E-01
         -2   -1    0    0    0  501 -0.00000000000E+00  0.00000000000E+00  0.62190367481E+03  0.62190367481E+03  0.00000000000E+00 0.  1.
          1   -1    0    0  501    0  0.00000000000E+00 -0.00000000000E+00 -0.71910377648E+03  0.71910377648E+03  0.00000000000E+00 0. -1.
        -24    2    1    2    0    0 -0.32552397697E+03  0.96467596884E+02  0.63736494831E+02  0.35476316194E+03  0.80763255662E+02 0.  0.
        254    2    1    2    0    0  0.32552397697E+03 -0.96467596884E+02 -0.16093659650E+03  0.98624428936E+03  0.91186915365E+03 0.  0.
         23    2    4    4    0    0 -0.13869778135E+03 -0.53163965764E+02 -0.41194577513E+03  0.44886687442E+03  0.98583302299E+02 0.  0.
         23    2    4    4    0    0  0.46422175831E+03 -0.43303631119E+02  0.25100917864E+03  0.53737741494E+03  0.91606948286E+02 0.  0.
          3    1    3    3  502    0 -0.24192452089E+02  0.15238599486E+02 -0.15844748598E+02  0.32688617446E+02  0.00000000000E+00 0. -1.
         -4    1    3    3    0  502 -0.30133152488E+03  0.81228997398E+02  0.79581243429E+02  0.32207454449E+03  0.00000000000E+00 0.  1.
         11    1    5    5    0    0 -0.12803821749E+03 -0.32540072745E+02 -0.40280626063E+03  0.42391688464E+03  0.00000000000E+00 0. -1.
        -11    1    5    5    0    0 -0.10659563853E+02 -0.20623893020E+02 -0.91395145005E+01  0.24949989782E+02  0.00000000000E+00 0.  1.
          3    1    6    6  503    0  0.21898198628E+03  0.51148134880E+01  0.16038949717E+03  0.27148492119E+03  0.00000000000E+00 0.  1.
         -3    1    6    6    0  503  0.24523977204E+03 -0.48418444607E+02  0.90619681466E+02  0.26589249376E+03  0.00000000000E+00 0. -1.
<mgrwt>
<rscale>  0 0.13374801E+04</rscale>
<asrwt>0</asrwt>
<pdfrwt beam="1">  1        1 0.11063135E+00 0.13374801E+04</pdfrwt>
<pdfrwt beam="2">  1       -2 0.95677489E-01 0.13374801E+04</pdfrwt>
<totfact> 0.20563813E+01</totfact>
</mgrwt>
</event>
<event>
12    4  0.4398275E-008  0.2140652E+04  0.7818608E-02  0.8543544E-01
          1   -1    0    0  501    0  0.00000000000E+00  0.00000000000E+00  0.51262228248E+03  0.51262228248E+03  0.00000000000E+00 0. -1.
         -2   -1    0    0    0  501 -0.00000000000E+00 -0.00000000000E+00 -0.22347796175E+04  0.22347796175E+04  0.00000000000E+00 0.  1.
        -24    2    1    2    0    0 -0.25188098298E+03 -0.29649839577E+03 -0.17061327009E+04  0.17517181198E+04  0.79197536221E+02 0.  0.
        254    2    1    2    0    0  0.25188098298E+03  0.29649839577E+03 -0.16024634072E+02  0.99568378017E+03  0.91639187738E+03 0.  0.
         23    2    4    4    0    0  0.36577033406E+03 -0.22628250932E+03 -0.89797890450E+02  0.44932648096E+03  0.94015499041E+02 0.  0.
         23    2    4    4    0    0 -0.11388935109E+03  0.52278090509E+03  0.73773256378E+02  0.54635729921E+03  0.82420543770E+02 0.  0.
          3    1    3    3  502    0 -0.21595468525E+03 -0.28054140289E+03 -0.14505135224E+04  0.14930938964E+04  0.00000000000E+00 0. -1.
         -2    1    3    3    0  502 -0.35926297731E+02 -0.15956992883E+02 -0.25561917852E+03  0.25862422337E+03  0.00000000000E+00 0.  1.
         11    1    5    5    0    0  0.31910680765E+03 -0.15689097738E+03 -0.84764544763E+02  0.36555295310E+03  0.00000000000E+00 0.  1.
        -11    1    5    5    0    0  0.46663526416E+02 -0.69391531931E+02 -0.50333456868E+01  0.83773527860E+02  0.00000000000E+00 0. -1.
          1    1    6    6  503    0  0.37704080782E+01  0.40713837930E+02 -0.12368163832E+02  0.42717725275E+02  0.00000000000E+00 0. -1.
         -1    1    6    6    0  503 -0.11765975916E+03  0.48206706716E+03  0.86141420210E+02  0.50363957394E+03  0.00000000000E+00 0.  1.
<mgrwt>
<rscale>  0 0.21406521E+04</rscale>
<asrwt>0</asrwt>
<pdfrwt beam="1">  1        1 0.78864965E-01 0.21406521E+04</pdfrwt>
<pdfrwt beam="2">  1       -2 0.34381225E+00 0.21406521E+04</pdfrwt>
<totfact> 0.58562276E-01</totfact>
</mgrwt>
</event>
<event>
12    4  0.4398275E-008  0.2993485E+04  0.7818608E-02  0.8245594E-01
         -2   -1    0    0    0  501 -0.00000000000E+00  0.00000000000E+00  0.60535885786E+03  0.60535885786E+03  0.00000000000E+00 0.  1.
          1   -1    0    0  501    0  0.00000000000E+00 -0.00000000000E+00 -0.37006786331E+04  0.37006786331E+04  0.00000000000E+00 0. -1.
        -24    2    1    2    0    0 -0.91225580162E+03  0.97842881884E+03 -0.17254596214E+04  0.21847757947E+04  0.80627334180E+02 0.  0.
        254    2    1    2    0    0  0.91225580162E+03 -0.97842881884E+03 -0.13698601539E+04  0.21212616963E+04  0.91307214488E+03 0.  0.
         23    2    4    4    0    0  0.57230201300E+03 -0.77736283904E+03 -0.36201003318E+03  0.10349148969E+04  0.90415717698E+02 0.  0.
         23    2    4    4    0    0  0.33995378862E+03 -0.20106597980E+03 -0.10078501207E+04  0.10863467994E+04  0.91604564091E+02 0.  0.
          1    1    3    3  502    0 -0.86842076892E+03  0.90303213042E+03 -0.16063559554E+04  0.20371551526E+04  0.00000000000E+00 0. -1.
         -2    1    3    3    0  502 -0.43835032696E+02  0.75396688423E+02 -0.11910366600E+03  0.14762064209E+03  0.00000000000E+00 0.  1.
         11    1    5    5    0    0  0.49206080954E+03 -0.60865153497E+03 -0.28861396116E+03  0.83419335282E+03  0.00000000000E+00 0. -1.
        -11    1    5    5    0    0  0.80241203460E+02 -0.16871130406E+03 -0.73396072025E+02  0.20072154404E+03  0.00000000000E+00 0.  1.
          3    1    6    6  503    0  0.20314668274E+03 -0.14407228428E+03 -0.73196709719E+03  0.77317606609E+03  0.00000000000E+00 0. -1.
         -3    1    6    6    0  503  0.13680710587E+03 -0.56993695519E+02 -0.27588302354E+03  0.31317073334E+03  0.00000000000E+00 0.  1.
<mgrwt>
<rscale>  0 0.29934853E+04</rscale>
<asrwt>0</asrwt>
<pdfrwt beam="1">  1        1 0.56933517E+00 0.29934853E+04</pdfrwt>
<pdfrwt beam="2">  1       -2 0.93132133E-01 0.29934853E+04</pdfrwt>
<totfact> 0.12598100E-01</totfact>
</mgrwt>
</event>
<event>
12    4  0.4398275E-008  0.1638327E+04  0.7818608E-02  0.8797342E-01
         -2   -1    0    0    0  501 -0.00000000000E+00  0.00000000000E+00  0.13118238526E+04  0.13118238526E+04  0.00000000000E+00 0.  1.
          1   -1    0    0  501    0  0.00000000000E+00 -0.00000000000E+00 -0.51152340605E+03  0.51152340605E+03  0.00000000000E+00 0. -1.
        -24    2    1    2    0    0 -0.58842800175E+02  0.34521172807E+03  0.76700425204E+03  0.84718569490E+03  0.82428554898E+02 0.  0.
        254    2    1    2    0    0  0.58842800175E+02 -0.34521172807E+03  0.33296194471E+02  0.97616156371E+03  0.91057627334E+03 0.  0.
         23    2    4    4    0    0 -0.27030490515E+03  0.11219392455E+03 -0.19272172992E+03  0.36202556419E+03  0.90931982756E+02 0.  0.
         23    2    4    4    0    0  0.32914770532E+03 -0.45740565262E+03  0.22601792439E+03  0.61413599953E+03  0.92308075487E+02 0.  0.
          1    1    3    3  502    0 -0.12414467358E+02  0.47971274078E+02  0.19131237966E+03  0.19762537476E+03  0.00000000000E+00 0. -1.
         -2    1    3    3    0  502 -0.46428332817E+02  0.29724045399E+03  0.57569187238E+03  0.64956032014E+03  0.00000000000E+00 0.  1.
         11    1    5    5    0    0 -0.23569484462E+03  0.11439587710E+03 -0.13509843959E+03  0.29477120765E+03  0.00000000000E+00 0.  1.
        -11    1    5    5    0    0 -0.34610060521E+02 -0.22019525461E+01 -0.57623290335E+02  0.67254356538E+02  0.00000000000E+00 0. -1.
          4    1    6    6  503    0 -0.10218887310E+01 -0.17886232289E+02  0.20578942018E+02  0.27284691984E+02  0.00000000000E+00 0. -1.
         -4    1    6    6    0  503  0.33016959405E+03 -0.43951942033E+03  0.20543898238E+03  0.58685130754E+03  0.00000000000E+00 0.  1.
<mgrwt>
<rscale>  0 0.16383267E+04</rscale>
<asrwt>0</asrwt>
<pdfrwt beam="1">  1        1 0.78695909E-01 0.16383267E+04</pdfrwt>
<pdfrwt beam="2">  1       -2 0.20181905E+00 0.16383267E+04</pdfrwt>
<totfact> 0.46456842E+00</totfact>
</mgrwt>
</event>
<event>
12    4  0.4398275E-008  0.2005804E+04  0.7818608E-02  0.8603912E-01
         -2   -1    0    0    0  501 -0.00000000000E+00  0.00000000000E+00  0.17772926545E+04  0.17772926545E+04  0.00000000000E+00 0.  1.
          1   -1    0    0  501    0  0.00000000000E+00 -0.00000000000E+00 -0.56592399816E+03  0.56592399816E+03  0.00000000000E+00 0. -1.
        -24    2    1    2    0    0  0.15068922142E+02 -0.90409044258E+02  0.14261646137E+04  0.14312532687E+04  0.78355255502E+02 0.  0.
        254    2    1    2    0    0 -0.15068922142E+02  0.90409044258E+02 -0.21479595735E+03  0.91196338399E+03  0.88155490058E+03 0.  0.
         23    2    4    4    0    0  0.27402569569E+03 -0.12459549589E+03  0.18735408989E+03  0.36593859268E+03  0.90528333250E+02 0.  0.
         23    2    4    4    0    0 -0.28909461783E+03  0.21500454015E+03 -0.40215004725E+03  0.54602479131E+03  0.81337333855E+02 0.  0.
          3    1    3    3  502    0  0.39458293822E+02 -0.83772351846E+02  0.97716648219E+03  0.98154424139E+03  0.00000000000E+00 0. -1.
         -4    1    3    3    0  502 -0.24389371680E+02 -0.66366924117E+01  0.44899813150E+03  0.44970902729E+03  0.00000000000E+00 0.  1.
         11    1    5    5    0    0  0.16718832787E+03 -0.37235950225E+02  0.70959075416E+02  0.18540130352E+03  0.00000000000E+00 0.  1.
        -11    1    5    5    0    0  0.10683736782E+03 -0.87359545666E+02  0.11639501448E+03  0.18053728916E+03  0.00000000000E+00 0. -1.
          1    1    6    6  503    0 -0.16227822892E+03  0.16836394319E+03 -0.26682415560E+03  0.35478975600E+03  0.00000000000E+00 0. -1.
         -1    1    6    6    0  503 -0.12681638890E+03  0.46640596957E+02 -0.13532589164E+03  0.19123503531E+03  0.00000000000E+00 0.  1.
<mgrwt>
<rscale>  0 0.20058041E+04</rscale>
<asrwt>0</asrwt>
<pdfrwt beam="1">  1        1 0.87065231E-01 0.20058041E+04</pdfrwt>
<pdfrwt beam="2">  1       -2 0.27342964E+00 0.20058041E+04</pdfrwt>
<totfact> 0.13971108E+00</totfact>
</mgrwt>
</event>
<event>
12    4  0.4398275E-008  0.1729119E+04  0.7818608E-02  0.8744929E-01
         -2   -1    0    0    0  501 -0.00000000000E+00  0.00000000000E+00  0.59061786218E+03  0.59061786218E+03  0.00000000000E+00 0.  1.
          1   -1    0    0  501    0  0.00000000000E+00 -0.00000000000E+00 -0.12655611445E+04  0.12655611445E+04  0.00000000000E+00 0. -1.
        -24    2    1    2    0    0  0.45425651604E+03  0.28679909886E+03  0.10171611597E+03  0.55278062217E+03  0.81348279201E+02 0.  0.
        254    2    1    2    0    0 -0.45425651604E+03 -0.28679909886E+03 -0.77665939832E+03  0.13033983845E+04  0.89835673447E+03 0.  0.
         23    2    4    4    0    0  0.22961536540E+02 -0.11441671791E+02  0.17554256605E+03  0.20025676847E+03  0.92894762012E+02 0.  0.
         23    2    4    4    0    0 -0.47721805258E+03 -0.27535742707E+03 -0.95220196438E+03  0.11031416161E+04  0.81694931321E+02 0.  0.
          1    1    3    3  502    0  0.14833189832E+03  0.83176035684E+02  0.70055073280E+02  0.18392476251E+03  0.00000000000E+00 0. -1.
         -2    1    3    3    0  502  0.30592461771E+03  0.20362306318E+03  0.31661042689E+02  0.36885585966E+03  0.00000000000E+00 0.  1.
         11    1    5    5    0    0  0.42798597383E+02  0.70000542722E+01  0.16595023671E+03  0.17152318142E+03  0.00000000000E+00 0.  1.
        -11    1    5    5    0    0 -0.19837060843E+02 -0.18441726063E+02  0.95923293407E+01  0.28733587059E+02  0.00000000000E+00 0. -1.
          1    1    6    6  503    0 -0.20239345769E+03 -0.74544661905E+02 -0.33869970923E+03  0.40154390964E+03  0.00000000000E+00 0. -1.
         -1    1    6    6    0  503 -0.27482459489E+03 -0.20081276516E+03 -0.61350225515E+03  0.70159770644E+03  0.00000000000E+00 0.  1.
<mgrwt>
<rscale>  0 0.17291189E+04</rscale>
<asrwt>0</asrwt>
<pdfrwt beam="1">  1        1 0.19470171E+00 0.17291189E+04</pdfrwt>
<pdfrwt beam="2">  1       -2 0.90864287E-01 0.17291189E+04</pdfrwt>
<totfact> 0.82430686E+00</totfact>
</mgrwt>
</event>
<event>
12    4  0.4398275E-008  0.1363188E+04  0.7818608E-02  0.8980904E-01
         -2   -1    0    0    0  501 -0.00000000000E+00  0.00000000000E+00  0.32477932081E+03  0.32477932081E+03  0.00000000000E+00 0.  1.
          1   -1    0    0  501    0  0.00000000000E+00 -0.00000000000E+00 -0.14304192157E+04  0.14304192157E+04  0.00000000000E+00 0. -1.
        -24    2    1    2    0    0  0.22477708394E+03 -0.29197681799E+02 -0.69692152511E+03  0.73732029345E+03  0.81020743574E+02 0.  0.
        254    2    1    2    0    0 -0.22477708394E+03  0.29197681799E+02 -0.40871836982E+03  0.10178782431E+04  0.90423900041E+03 0.  0.
         23    2    4    4    0    0 -0.35062366768E+03  0.94178724455E+02  0.17224112086E+03  0.41270804728E+03  0.94097503140E+02 0.  0.
         23    2    4    4    0    0  0.12584658374E+03 -0.64981042656E+02 -0.58095949068E+03  0.60517019583E+03  0.93043740085E+02 0.  0.
          1    1    3    3  502    0  0.11534633504E+03  0.22335138367E+01 -0.46307207890E+03  0.47722690185E+03  0.00000000000E+00 0. -1.
         -2    1    3    3    0  502  0.10943074890E+03 -0.31431195636E+02 -0.23384944621E+03  0.26009339160E+03  0.00000000000E+00 0.  1.
         11    1    5    5    0    0 -0.34607036859E+03  0.99222754972E+02  0.17990792344E+03  0.40246331018E+03  0.00000000000E+00 0. -1.
        -11    1    5    5    0    0 -0.45532990804E+01 -0.50440305166E+01 -0.76668025810E+01  0.10244737097E+02  0.00000000000E+00 0.  1.
          4    1    6    6  503    0  0.52531830646E+01 -0.29542985713E+02 -0.41198927461E+02  0.50967985649E+02  0.00000000000E+00 0.  1.
         -4    1    6    6    0  503  0.12059340067E+03 -0.35438056943E+02 -0.53976056322E+03  0.55420221018E+03  0.00000000000E+00 0. -1.
<mgrwt>
<rscale>  0 0.13631883E+04</rscale>
<asrwt>0</asrwt>
<pdfrwt beam="1">  1        1 0.22006449E+00 0.13631883E+04</pdfrwt>
<pdfrwt beam="2">  1       -2 0.49966050E-01 0.13631883E+04</pdfrwt>
<totfact> 0.23778633E+01</totfact>
</mgrwt>
</event>
<event>
12    4  0.4398275E-008  0.1351118E+04  0.7818608E-02  0.8989982E-01
         -4   -1    0    0    0  501 -0.00000000000E+00  0.00000000000E+00  0.40044144925E+03  0.40044144925E+03  0.00000000000E+00 0.  1.
          3   -1    0    0  501    0  0.00000000000E+00 -0.00000000000E+00 -0.11396924673E+04  0.11396924673E+04  0.00000000000E+00 0. -1.
        -24    2    1    2    0    0 -0.10747693719E+03  0.34914160924E+03 -0.19235199345E+03  0.42060687133E+03  0.80372230889E+02 0.  0.
        254    2    1    2    0    0  0.10747693719E+03 -0.34914160924E+03 -0.54689902456E+03  0.11195270452E+04  0.90597522398E+03 0.  0.
         23    2    4    4    0    0  0.38903818364E+03 -0.44872663818E+03 -0.15934919127E+03  0.62192752851E+03  0.93249031168E+02 0.  0.
         23    2    4    4    0    0 -0.28156124645E+03  0.99585028939E+02 -0.38754983329E+03  0.49759951666E+03  0.90644868595E+02 0.  0.
          3    1    3    3  502    0 -0.67389361458E+02  0.20061209348E+03 -0.66460215594E+02  0.22181861587E+03  0.00000000000E+00 0. -1.
         -4    1    3    3    0  502 -0.40087575732E+02  0.14852951576E+03 -0.12589177785E+03  0.19878825547E+03  0.00000000000E+00 0.  1.
         11    1    5    5    0    0  0.17358440371E+03 -0.25668061718E+03 -0.11179354314E+03  0.32941505845E+03  0.00000000000E+00 0. -1.
        -11    1    5    5    0    0  0.21545377994E+03 -0.19204602101E+03 -0.47555648132E+02  0.29251247006E+03  0.00000000000E+00 0.  1.
          1    1    6    6  503    0 -0.19231383648E+03  0.10039254826E+03 -0.31553803272E+03  0.38291973772E+03  0.00000000000E+00 0. -1.
         -1    1    6    6    0  503 -0.89247409975E+02 -0.80751932477E+00 -0.72011800574E+02  0.11467977893E+03  0.00000000000E+00 0.  1.
<mgrwt>
<rscale>  0 0.13511182E+04</rscale>
<asrwt>0</asrwt>
<pdfrwt beam="1">  1        3 0.17533730E+00 0.13511182E+04</pdfrwt>
<pdfrwt beam="2">  1       -4 0.61606378E-01 0.13511182E+04</pdfrwt>
<totfact> 0.11832378E+00</totfact>
</mgrwt>
</event>
<event>
12    4  0.4398275E-008  0.1805282E+04  0.7818608E-02  0.8703496E-01
         -2   -1    0    0    0  501 -0.00000000000E+00  0.00000000000E+00  0.42019297256E+03  0.42019297256E+03  0.00000000000E+00 0.  1.
          1   -1    0    0  501    0  0.00000000000E+00 -0.00000000000E+00 -0.19390161084E+04  0.19390161084E+04  0.00000000000E+00 0. -1.
        -24    2    1    2    0    0 -0.13866262249E+03 -0.16439451091E+02 -0.12440641714E+04  0.12546359344E+04  0.83175036795E+02 0.  0.
        254    2    1    2    0    0  0.13866262249E+03  0.16439451091E+02 -0.27475896437E+03  0.11045731465E+04  0.10607034313E+04 0.  0.
         23    2    4    4    0    0 -0.37038445013E+03 -0.15391787306E+03 -0.36811141175E+03  0.55202104326E+03  0.91355723408E+02 0.  0.
         23    2    4    4    0    0  0.50904707262E+03  0.17035732415E+03  0.93352447382E+02  0.55255210328E+03  0.91916306391E+02 0.  0.
          1    1    3    3  502    0 -0.10824873396E+03  0.25334493800E+01 -0.11274269069E+04  0.11326145140E+04  0.00000000000E+00 0. -1.
         -2    1    3    3    0  502 -0.30413888529E+02 -0.18972900471E+02 -0.11663726449E+03  0.12202142040E+03  0.00000000000E+00 0.  1.
         11    1    5    5    0    0 -0.31275513930E+03 -0.16336713898E+03 -0.32030515278E+03  0.47655009196E+03  0.00000000000E+00 0. -1.
        -11    1    5    5    0    0 -0.57629310829E+02  0.94492659138E+01 -0.47806258972E+02  0.75470951298E+02  0.00000000000E+00 0.  1.
          3    1    6    6  503    0  0.40302933486E+03  0.98618682694E+02  0.52754189287E+02  0.41825984007E+03  0.00000000000E+00 0. -1.
         -3    1    6    6    0  503  0.10601773776E+03  0.71738641459E+02  0.40598258095E+02  0.13429226321E+03  0.00000000000E+00 0.  1.
<mgrwt>
<rscale>  0 0.18052822E+04</rscale>
<asrwt>0</asrwt>
<pdfrwt beam="1">  1        1 0.29831017E+00 0.18052822E+04</pdfrwt>
<pdfrwt beam="2">  1       -2 0.64645072E-01 0.18052822E+04</pdfrwt>
<totfact> 0.59970652E+00</totfact>
</mgrwt>
</event>
<event>
12    4  0.4398275E-008  0.2448817E+04  0.7818608E-02  0.8421450E-01
         -2   -1    0    0    0  501 -0.00000000000E+00  0.00000000000E+00  0.67832217818E+03  0.67832217818E+03  0.00000000000E+00 0.  1.
          1   -1    0    0  501    0  0.00000000000E+00 -0.00000000000E+00 -0.22101235285E+04  0.22101235285E+04  0.00000000000E+00 0. -1.
        -24    2    1    2    0    0 -0.18275641337E+03  0.18868902948E+03  0.54542655568E+03  0.61056751579E+03  0.79366915212E+02 0.  0.
        254    2    1    2    0    0  0.18275641337E+03 -0.18868902948E+03 -0.20772279060E+04  0.22778781909E+04  0.89713422777E+03 0.  0.
         23    2    4    4    0    0 -0.33658121813E+03 -0.16452932973E+03 -0.11226641998E+04  0.11870479242E+04  0.91384090923E+02 0.  0.
         23    2    4    4    0    0  0.51933763150E+03 -0.24159699749E+02 -0.95456370619E+03  0.10908302667E+04  0.91779817969E+02 0.  0.
          3    1    3    3  502    0 -0.74577367394E+02  0.28851367423E+02  0.13245546307E+03  0.15472115184E+03  0.00000000000E+00 0. -1.
         -4    1    3    3    0  502 -0.10817904597E+03  0.15983766206E+03  0.41297109261E+03  0.45584636395E+03  0.00000000000E+00 0.  1.
         11    1    5    5    0    0 -0.13747634772E+03 -0.76009672283E+02 -0.33852816248E+03  0.37320039289E+03  0.00000000000E+00 0. -1.
        -11    1    5    5    0    0 -0.19910487041E+03 -0.88519657451E+02 -0.78413603735E+03  0.81384753133E+03  0.00000000000E+00 0.  1.
          2    1    6    6  503    0  0.22199014682E+03  0.30957950059E+02 -0.36762962397E+03  0.43056887995E+03  0.00000000000E+00 0. -1.
         -2    1    6    6    0  503  0.29734748468E+03 -0.55117649808E+02 -0.58693408222E+03  0.66026138675E+03  0.00000000000E+00 0.  1.
<mgrwt>
<rscale>  0 0.24488167E+04</rscale>
<asrwt>0</asrwt>
<pdfrwt beam="1">  1        1 0.34001900E+00 0.24488167E+04</pdfrwt>
<pdfrwt beam="2">  1       -2 0.10435726E+00 0.24488167E+04</pdfrwt>
<totfact> 0.12543079E+00</totfact>
</mgrwt>
</event>
<event>
12    4  0.4398275E-008  0.1636102E+04  0.7818608E-02  0.8798671E-01
          1   -1    0    0  501    0  0.00000000000E+00  0.00000000000E+00  0.23989517864E+04  0.23989517864E+04  0.00000000000E+00 0. -1.
         -2   -1    0    0    0  501 -0.00000000000E+00 -0.00000000000E+00 -0.27895828278E+03  0.27895828278E+03  0.00000000000E+00 0.  1.
        -24    2    1    2    0    0  0.26209822863E+03  0.47313829483E+03  0.58617773682E+03  0.80170598136E+03  0.81072892645E+02 0.  0.
        254    2    1    2    0    0 -0.26209822863E+03 -0.47313829483E+03  0.15338157668E+04  0.18762040879E+04  0.93541201895E+03 0.  0.
         23    2    4    4    0    0 -0.36802028132E+03  0.16177943117E+03  0.76701319654E+03  0.87096677994E+03  0.93071887783E+02 0.  0.
         23    2    4    4    0    0  0.10592205269E+03 -0.63491772600E+03  0.76680257031E+03  0.10052373079E+04  0.90420480903E+02 0.  0.
          3    1    3    3  502    0  0.11211039281E+03  0.13750172834E+03  0.22270736823E+03  0.28473503005E+03  0.00000000000E+00 0. -1.
         -4    1    3    3    0  502  0.14998783582E+03  0.33563656649E+03  0.36347036859E+03  0.51697095132E+03  0.00000000000E+00 0.  1.
         11    1    5    5    0    0 -0.11389853595E+03  0.97711174986E+02  0.25888635824E+03  0.29923652299E+03  0.00000000000E+00 0.  1.
        -11    1    5    5    0    0 -0.25412174537E+03  0.64068256179E+02  0.50812683829E+03  0.57173025695E+03  0.00000000000E+00 0. -1.
          2    1    6    6  503    0  0.68975255369E+02 -0.26198753908E+03  0.26531441283E+03  0.37919229178E+03  0.00000000000E+00 0. -1.
         -2    1    6    6    0  503  0.36946797317E+02 -0.37293018692E+03  0.50148815747E+03  0.62604501614E+03  0.00000000000E+00 0.  1.
<mgrwt>
<rscale>  0 0.16361020E+04</rscale>
<asrwt>0</asrwt>
<pdfrwt beam="1">  1        1 0.36906949E+00 0.16361020E+04</pdfrwt>
<pdfrwt beam="2">  1       -2 0.42916661E-01 0.16361020E+04</pdfrwt>
<totfact> 0.68913996E+00</totfact>
</mgrwt>
</event>
<event>
12    4  0.4398275E-008  0.2245551E+04  0.7818608E-02  0.8499705E-01
         -2   -1    0    0    0  501 -0.00000000000E+00  0.00000000000E+00  0.58435876223E+03  0.58435876223E+03  0.00000000000E+00 0.  1.
          1   -1    0    0  501    0  0.00000000000E+00 -0.00000000000E+00 -0.21572780243E+04  0.21572780243E+04  0.00000000000E+00 0. -1.
        -24    2    1    2    0    0 -0.34078346490E+02  0.63801161667E+03  0.20604517031E+03  0.67592749489E+03  0.78760456065E+02 0.  0.
        254    2    1    2    0    0  0.34078346490E+02 -0.63801161667E+03 -0.17789644323E+04  0.20657092916E+04  0.83319881731E+03 0.  0.
         23    2    4    4    0    0  0.95128719857E+02  0.21920891251E+02  0.30827595152E+02  0.13595180308E+03  0.89456991469E+02 0.  0.
         23    2    4    4    0    0 -0.61050373367E+02 -0.65993250792E+03 -0.18097920275E+04  0.19297574885E+04  0.96843784641E+02 0.  0.
          3    1    3    3  502    0 -0.37378517736E+02  0.54177360717E+03  0.14562723766E+03  0.56224824354E+03  0.00000000000E+00 0. -1.
         -4    1    3    3    0  502  0.33001712464E+01  0.96238009502E+02  0.60417932652E+02  0.11367925136E+03  0.00000000000E+00 0.  1.
         11    1    5    5    0    0  0.48096987295E+00 -0.22882533866E+02 -0.80342108668E+01  0.24256756428E+02  0.00000000000E+00 0. -1.
        -11    1    5    5    0    0  0.94647749984E+02  0.44803425117E+02  0.38861806019E+02  0.11169504665E+03  0.00000000000E+00 0.  1.
          3    1    6    6  503    0 -0.77457481739E+01 -0.92133857111E+02 -0.16837588474E+03  0.19209133974E+03  0.00000000000E+00 0. -1.
         -3    1    6    6    0  503 -0.53304625193E+02 -0.56779865081E+03 -0.16414161428E+04  0.17376661488E+04  0.00000000000E+00 0.  1.
<mgrwt>
<rscale>  0 0.22455505E+04</rscale>
<asrwt>0</asrwt>
<pdfrwt beam="1">  1        1 0.33188892E+00 0.22455505E+04</pdfrwt>
<pdfrwt beam="2">  1       -2 0.89901349E-01 0.22455505E+04</pdfrwt>
<totfact> 0.19692107E+00</totfact>
</mgrwt>
</event>
<event>
12    4  0.4398275E-008  0.1751899E+04  0.7818608E-02  0.8732306E-01
         -2   -1    0    0    0  501 -0.00000000000E+00  0.00000000000E+00  0.65560414288E+03  0.65560414288E+03  0.00000000000E+00 0.  1.
          1   -1    0    0  501    0  0.00000000000E+00 -0.00000000000E+00 -0.11703518993E+04  0.11703518993E+04  0.00000000000E+00 0. -1.
        -24    2    1    2    0    0 -0.49674187161E+03 -0.38048030561E+03 -0.31524869149E+02  0.63162093619E+03  0.80208725792E+02 0.  0.
        254    2    1    2    0    0  0.49674187161E+03  0.38048030561E+03 -0.48322288728E+03  0.11943351060E+04  0.89521742425E+03 0.  0.
         23    2    4    4    0    0  0.53442870564E+03  0.77857292761E+02  0.73740228049E+02  0.55260025622E+03  0.90849449588E+02 0.  0.
         23    2    4    4    0    0 -0.37686834032E+02  0.30262301285E+03 -0.55696311533E+03  0.64173484979E+03  0.92815517181E+02 0.  0.
          1    1    3    3  502    0 -0.16202212454E+03 -0.16529445284E+03  0.90429862149E+01  0.23163592248E+03  0.00000000000E+00 0. -1.
         -4    1    3    3    0  502 -0.33471974707E+03 -0.21518585277E+03 -0.40567855364E+02  0.39998501372E+03  0.00000000000E+00 0.  1.
         11    1    5    5    0    0  0.89092723085E+02 -0.20758842001E+02  0.94088893472E+01  0.91961785686E+02  0.00000000000E+00 0. -1.
        -11    1    5    5    0    0  0.44533598256E+03  0.98616134762E+02  0.64331338702E+02  0.46063847053E+03  0.00000000000E+00 0.  1.
          2    1    6    6  503    0 -0.23756481583E+02  0.52265658784E+02 -0.49918154146E+02  0.76078194108E+02  0.00000000000E+00 0. -1.
         -2    1    6    6    0  503 -0.13930352449E+02  0.25035735407E+03 -0.50704496119E+03  0.56565665568E+03  0.00000000000E+00 0.  1.
<mgrwt>
<rscale>  0 0.17518990E+04</rscale>
<asrwt>0</asrwt>
<pdfrwt beam="1">  1        1 0.18005414E+00 0.17518990E+04</pdfrwt>
<pdfrwt beam="2">  1       -2 0.10086218E+00 0.17518990E+04</pdfrwt>
<totfact> 0.75564133E+00</totfact>
</mgrwt>
</event>
<event>
12    4  0.5230754E-008  0.2191612E+04  0.7818608E-02  0.8521927E-01
         -2   -1    0    0    0  501 -0.00000000000E+00  0.00000000000E+00  0.10133161893E+04  0.10133161893E+04  0.00000000000E+00 0.  1.
          1   -1    0    0  501    0  0.00000000000E+00 -0.00000000000E+00 -0.11850111814E+04  0.11850111814E+04  0.00000000000E+00 0. -1.
        -24    2    1    2    0    0  0.42635632944E+03 -0.16925462803E+03 -0.84759908798E+03  0.96692689111E+03  0.78080407643E+02 0.  0.
        254    2    1    2    0    0 -0.42635632944E+03  0.16925462803E+03  0.67590409587E+03  0.12314004796E+04  0.92145208530E+03 0.  0.
         23    2    4    4    0    0  0.45065993141E+02  0.43091835928E+03  0.46928751043E+03  0.64587856971E+03  0.95951984176E+02 0.  0.
         23    2    4    4    0    0 -0.47142232258E+03 -0.26166373124E+03  0.20661658545E+03  0.58552190986E+03  0.97152349794E+02 0.  0.
          3    1    3    3  502    0  0.40256842961E+03 -0.16635668274E+03 -0.82944030214E+03  0.93686023569E+03  0.00000000000E+00 0. -1.
         -4    1    3    3    0  502  0.23787899825E+02 -0.28979452957E+01 -0.18158785838E+02  0.30066655420E+02  0.00000000000E+00 0.  1.
         11    1    5    5    0    0  0.73758790011E+02  0.31256930341E+03  0.32218193447E+03  0.45490782301E+03  0.00000000000E+00 0. -1.
        -11    1    5    5    0    0 -0.28692796870E+02  0.11834905587E+03  0.14710557596E+03  0.19097074670E+03  0.00000000000E+00 0.  1.
          3    1    6    6  503    0 -0.38397181401E+03 -0.17650503537E+03  0.18604331196E+03  0.46173639166E+03  0.00000000000E+00 0. -1.
         -3    1    6    6    0  503 -0.87450508571E+02 -0.85158695878E+02  0.20573273484E+02  0.12378551819E+03  0.00000000000E+00 0.  1.
<mgrwt>
<rscale>  0 0.21916122E+04</rscale>
<asrwt>0</asrwt>
<pdfrwt beam="1">  1        1 0.18230941E+00 0.21916122E+04</pdfrwt>
<pdfrwt beam="2">  1       -2 0.15589480E+00 0.21916122E+04</pdfrwt>
<totfact> 0.23710343E+00</totfact>
</mgrwt>
</event>
<event>
12    4  0.4398275E-008  0.2041066E+04  0.7818608E-02  0.8587658E-01
         -2   -1    0    0    0  501 -0.00000000000E+00  0.00000000000E+00  0.46395589824E+03  0.46395589824E+03  0.00000000000E+00 0.  1.
          1   -1    0    0  501    0  0.00000000000E+00 -0.00000000000E+00 -0.22447990676E+04  0.22447990676E+04  0.00000000000E+00 0. -1.
        -24    2    1    2    0    0  0.14693934043E+03  0.57885772309E+03  0.26132669058E+02  0.60314330067E+03  0.80196579741E+02 0.  0.
        254    2    1    2    0    0 -0.14693934043E+03 -0.57885772309E+03 -0.18069758384E+04  0.21056116652E+04  0.90098355730E+03 0.  0.
         23    2    4    4    0    0 -0.12303449370E+03  0.27777263563E+02  0.41722433611E+02  0.15763838224E+03  0.84853020454E+02 0.  0.
         23    2    4    4    0    0 -0.23904846736E+02 -0.60663498665E+03 -0.18486982720E+04  0.19479732829E+04  0.91308056913E+02 0.  0.
          1    1    3    3  502    0  0.95573970385E+02  0.21966010312E+03  0.17480508471E+02  0.24018849451E+03  0.00000000000E+00 0. -1.
         -2    1    3    3    0  502  0.51365370048E+02  0.35919761997E+03  0.86521605872E+01  0.36295480616E+03  0.00000000000E+00 0.  1.
         11    1    5    5    0    0  0.59963041278E+01 -0.14893055865E+02  0.57671754615E+01  0.17059281608E+02  0.00000000000E+00 0.  1.
        -11    1    5    5    0    0 -0.12903079782E+03  0.42670319428E+02  0.35955258149E+02  0.14057910064E+03  0.00000000000E+00 0. -1.
          1    1    6    6  503    0 -0.23573985031E+02 -0.60866902232E+03 -0.18479958714E+04  0.19457960973E+04  0.00000000000E+00 0. -1.
         -1    1    6    6    0  503 -0.33086170500E+00  0.20340356626E+01 -0.70240058365E+00  0.21771855972E+01  0.00000000000E+00 0.  1.
<mgrwt>
<rscale>  0 0.20410662E+04</rscale>
<asrwt>0</asrwt>
<pdfrwt beam="1">  1        1 0.34535370E+00 0.20410662E+04</pdfrwt>
<pdfrwt beam="2">  1       -2 0.71377831E-01 0.20410662E+04</pdfrwt>
<totfact> 0.29367550E+00</totfact>
</mgrwt>
</event>
<event>
12    4  0.4398275E-008  0.1963752E+04  0.7818608E-02  0.8623758E-01
          1   -1    0    0  501    0  0.00000000000E+00  0.00000000000E+00  0.19174341521E+04  0.19174341521E+04  0.00000000000E+00 0. -1.
         -2   -1    0    0    0  501 -0.00000000000E+00 -0.00000000000E+00 -0.50279741832E+03  0.50279741832E+03  0.00000000000E+00 0.  1.
        -24    2    1    2    0    0  0.61961894054E+03  0.29412971985E+03  0.11700908029E+03  0.70033291665E+03  0.79593628513E+02 0.  0.
        254    2    1    2    0    0 -0.61961894054E+03 -0.29412971985E+03  0.12976276535E+04  0.17198986538E+04  0.89653439900E+03 0.  0.
         23    2    4    4    0    0 -0.31421498032E+03 -0.52197153308E+03  0.11426312168E+04  0.12982536334E+04  0.93118546774E+02 0.  0.
         23    2    4    4    0    0 -0.30540396022E+03  0.22784181324E+03  0.15499643674E+03  0.42164502045E+03  0.92612942331E+02 0.  0.
          3    1    3    3  502    0  0.54914975439E+03  0.27163843380E+03  0.80770405227E+02  0.61796177052E+03  0.00000000000E+00 0. -1.
         -4    1    3    3    0  502  0.70469186153E+02  0.22491286050E+02  0.36238675059E+02  0.82371146133E+02  0.00000000000E+00 0.  1.
         11    1    5    5    0    0 -0.19780763539E+03 -0.26081129312E+03  0.67394416518E+03  0.74923369453E+03  0.00000000000E+00 0.  1.
        -11    1    5    5    0    0 -0.11640734493E+03 -0.26116023996E+03  0.46868705161E+03  0.54901993883E+03  0.00000000000E+00 0. -1.
          2    1    6    6  503    0 -0.22179825822E+03  0.19538871792E+03  0.84082750850E+02  0.30731275182E+03  0.00000000000E+00 0.  1.
         -2    1    6    6    0  503 -0.83605702002E+02  0.32453095316E+02  0.70913685894E+02  0.11433226863E+03  0.00000000000E+00 0. -1.
<mgrwt>
<rscale>  0 0.19637525E+04</rscale>
<asrwt>0</asrwt>
<pdfrwt beam="1">  1        1 0.29498987E+00 0.19637525E+04</pdfrwt>
<pdfrwt beam="2">  1       -2 0.77353450E-01 0.19637525E+04</pdfrwt>
<totfact> 0.41296035E+00</totfact>
</mgrwt>
</event>
<event>
12    4  0.4398275E-008  0.1512451E+04  0.7818608E-02  0.8876215E-01
         -2   -1    0    0    0  501 -0.00000000000E+00  0.00000000000E+00  0.20568504738E+04  0.20568504738E+04  0.00000000000E+00 0.  1.
          1   -1    0    0  501    0  0.00000000000E+00 -0.00000000000E+00 -0.27803546712E+03  0.27803546712E+03  0.00000000000E+00 0. -1.
        -24    2    1    2    0    0  0.95758440528E+02 -0.35893693252E+02  0.13192906512E+04  0.13263295185E+04  0.90355592976E+02 0.  0.
        254    2    1    2    0    0 -0.95758440528E+02  0.35893693252E+02  0.45952435547E+03  0.10085564224E+04  0.89194472236E+03 0.  0.
         23    2    4    4    0    0  0.55660618860E+02 -0.40522596140E+03  0.18456542606E+03  0.45919025034E+03  0.97391504879E+02 0.  0.
         23    2    4    4    0    0 -0.15141905939E+03  0.44111965465E+03  0.27495892941E+03  0.54936617206E+03  0.93201378075E+02 0.  0.
          3    1    3    3  502    0  0.31333216428E+02  0.29621441231E+02  0.51678510771E+03  0.51858080160E+03  0.00000000000E+00 0. -1.
         -4    1    3    3    0  502  0.64425224100E+02 -0.65515134483E+02  0.80250554345E+03  0.80774871687E+03  0.00000000000E+00 0.  1.
         11    1    5    5    0    0 -0.14234135747E+02 -0.65231969377E+01  0.78324668728E+01  0.17507434308E+02  0.00000000000E+00 0.  1.
        -11    1    5    5    0    0  0.69894754607E+02 -0.39870276446E+03  0.17673295919E+03  0.44168281603E+03  0.00000000000E+00 0. -1.
          3    1    6    6  503    0 -0.10909816936E+03  0.36797760841E+03  0.25990987180E+03  0.46353324833E+03  0.00000000000E+00 0. -1.
         -3    1    6    6    0  503 -0.42320890030E+02  0.73142046246E+02  0.15049057617E+02  0.85832923737E+02  0.00000000000E+00 0.  1.
<mgrwt>
<rscale>  0 0.15124515E+04</rscale>
<asrwt>0</asrwt>
<pdfrwt beam="1">  1        1 0.42774688E-01 0.15124515E+04</pdfrwt>
<pdfrwt beam="2">  1       -2 0.31643853E+00 0.15124515E+04</pdfrwt>
<totfact> 0.20675462E+00</totfact>
</mgrwt>
</event>
<event>
12    4  0.4398275E-008  0.1538301E+04  0.7818608E-02  0.8859375E-01
          1   -1    0    0  501    0  0.00000000000E+00  0.00000000000E+00  0.79069180700E+03  0.79069180700E+03  0.00000000000E+00 0. -1.
         -2   -1    0    0    0  501 -0.00000000000E+00 -0.00000000000E+00 -0.74819593992E+03  0.74819593992E+03  0.00000000000E+00 0.  1.
        -24    2    1    2    0    0  0.23248695477E+02 -0.32558374405E+03 -0.35965048201E+03  0.49089716196E+03  0.71318147590E+02 0.  0.
        254    2    1    2    0    0 -0.23248695477E+02  0.32558374405E+03  0.40214634909E+03  0.10479905850E+04  0.91105285459E+03 0.  0.
         23    2    4    4    0    0  0.13247038602E+03  0.12434789074E+03  0.65039494549E+03  0.68112187950E+03  0.88896729455E+02 0.  0.
         23    2    4    4    0    0 -0.15571908150E+03  0.20123585331E+03 -0.24824859641E+03  0.36686870546E+03  0.90669622397E+02 0.  0.
          3    1    3    3  502    0 -0.15212089673E+02 -0.18017536229E+02 -0.18565406106E+02  0.30011890775E+02  0.00000000000E+00 0. -1.
         -2    1    3    3    0  502  0.38460785150E+02 -0.30756620782E+03 -0.34108507591E+03  0.46088527119E+03  0.00000000000E+00 0.  1.
         11    1    5    5    0    0  0.33782166754E+02  0.67415412001E+02  0.38484060881E+03  0.39215859898E+03  0.00000000000E+00 0.  1.
        -11    1    5    5    0    0  0.98688219266E+02  0.56932478738E+02  0.26555433668E+03  0.28896328052E+03  0.00000000000E+00 0. -1.
          3    1    6    6  503    0 -0.12120741560E+03  0.12116717891E+03 -0.11074474121E+03  0.20405175948E+03  0.00000000000E+00 0. -1.
         -3    1    6    6    0  503 -0.34511665901E+02  0.80068674406E+02 -0.13750385520E+03  0.16281694598E+03  0.00000000000E+00 0.  1.
<mgrwt>
<rscale>  0 0.15383009E+04</rscale>
<asrwt>0</asrwt>
<pdfrwt beam="1">  1        1 0.12164489E+00 0.15383009E+04</pdfrwt>
<pdfrwt beam="2">  1       -2 0.11510707E+00 0.15383009E+04</pdfrwt>
<totfact> 0.11195023E+01</totfact>
</mgrwt>
</event>
<event>
12    4  0.4398275E-008  0.2011367E+04  0.7818608E-02  0.8601325E-01
         -4   -1    0    0    0  501 -0.00000000000E+00  0.00000000000E+00  0.25619389678E+03  0.25619389678E+03  0.00000000000E+00 0.  1.
          1   -1    0    0  501    0  0.00000000000E+00 -0.00000000000E+00 -0.39477866376E+04  0.39477866376E+04  0.00000000000E+00 0. -1.
        -24    2    1    2    0    0 -0.79877918255E+03  0.95878364709E+02 -0.13483794824E+04  0.15721850061E+04  0.79985134163E+02 0.  0.
        254    2    1    2    0    0  0.79877918255E+03 -0.95878364709E+02 -0.23432132584E+04  0.26317955282E+04  0.88795184817E+03 0.  0.
         23    2    4    4    0    0  0.53641915617E+03  0.33456700642E+03 -0.92984190044E+03  0.11286132524E+04  0.97372074370E+02 0.  0.
         23    2    4    4    0    0  0.26236002638E+03 -0.43044537113E+03 -0.14133713580E+04  0.15031822758E+04  0.88444093854E+02 0.  0.
          3    1    3    3  502    0 -0.31273291569E+03  0.39147721719E+02 -0.45377855709E+03  0.55249380046E+03  0.00000000000E+00 0. -1.
         -4    1    3    3    0  502 -0.48604626686E+03  0.56730642990E+02 -0.89460092528E+03  0.10196912057E+04  0.00000000000E+00 0.  1.
         11    1    5    5    0    0 -0.31701455719E+01 -0.14215179896E+01 -0.22977215598E+01  0.41653404072E+01  0.00000000000E+00 0. -1.
        -11    1    5    5    0    0  0.53958930174E+03  0.33598852441E+03 -0.92754417888E+03  0.11244479120E+04  0.00000000000E+00 0.  1.
          2    1    6    6  503    0  0.78153247945E+02 -0.92135805581E+02 -0.44212155777E+03  0.45833220340E+03  0.00000000000E+00 0. -1.
         -2    1    6    6    0  503  0.18420677843E+03 -0.33830956555E+03 -0.97124980020E+03  0.10448500724E+04  0.00000000000E+00 0.  1.
<mgrwt>
<rscale>  0 0.20113665E+04</rscale>
<asrwt>0</asrwt>
<pdfrwt beam="1">  1        1 0.60735178E+00 0.20113665E+04</pdfrwt>
<pdfrwt beam="2">  1       -4 0.39414447E-01 0.20113665E+04</pdfrwt>
<totfact> 0.31324000E-01</totfact>
</mgrwt>
</event>
<event>
12    4  0.4398275E-008  0.1635975E+04  0.7818608E-02  0.8798747E-01
         -2   -1    0    0    0  501 -0.00000000000E+00  0.00000000000E+00  0.10731814023E+04  0.10731814023E+04  0.00000000000E+00 0.  1.
          1   -1    0    0  501    0  0.00000000000E+00 -0.00000000000E+00 -0.62347665084E+03  0.62347665084E+03  0.00000000000E+00 0. -1.
        -24    2    1    2    0    0 -0.21108632951E+03  0.39598585340E+03 -0.18752281543E+03  0.49275971992E+03  0.79278626808E+02 0.  0.
        254    2    1    2    0    0  0.21108632951E+03 -0.39598585340E+03  0.63722756688E+03  0.12038983332E+04  0.91757832915E+03 0.  0.
         23    2    4    4    0    0  0.54912539426E+03 -0.18068282935E+03  0.49842040754E+03  0.77027456978E+03  0.10351341337E+03 0.  0.
         23    2    4    4    0    0 -0.33803906476E+03 -0.21530302405E+03  0.13880715934E+03  0.43362376344E+03  0.90201658904E+02 0.  0.
          3    1    3    3  502    0 -0.19613951951E+03  0.37978054985E+03 -0.15754531959E+03  0.45554857577E+03  0.00000000000E+00 0. -1.
         -4    1    3    3    0  502 -0.14946809996E+02  0.16205303550E+02 -0.29977495839E+02  0.37211144150E+02  0.00000000000E+00 0.  1.
         11    1    5    5    0    0  0.37675126519E+03 -0.95289053706E+02  0.38462230048E+03  0.54676853751E+03  0.00000000000E+00 0.  1.
        -11    1    5    5    0    0  0.17237412907E+03 -0.85393775644E+02  0.11379810707E+03  0.22350603227E+03  0.00000000000E+00 0. -1.
          3    1    6    6  503    0 -0.19581860083E+03 -0.11968024294E+03  0.12589755034E+03  0.26176034490E+03  0.00000000000E+00 0. -1.
         -3    1    6    6    0  503 -0.14222046392E+03 -0.95622781108E+02  0.12909608995E+02  0.17186341853E+03  0.00000000000E+00 0.  1.
<mgrwt>
<rscale>  0 0.16359750E+04</rscale>
<asrwt>0</asrwt>
<pdfrwt beam="1">  1        1 0.95919485E-01 0.16359750E+04</pdfrwt>
<pdfrwt beam="2">  1       -2 0.16510483E+00 0.16359750E+04</pdfrwt>
<totfact> 0.62630413E+00</totfact>
</mgrwt>
</event>
<event>
12    4  0.4398275E-008  0.4172098E+04  0.7818608E-02  0.7970701E-01
          1   -1    0    0  501    0  0.00000000000E+00  0.00000000000E+00  0.18789003131E+04  0.18789003131E+04  0.00000000000E+00 0. -1.
         -2   -1    0    0    0  501 -0.00000000000E+00 -0.00000000000E+00 -0.23160361793E+04  0.23160361793E+04  0.00000000000E+00 0.  1.
        -24    2    1    2    0    0  0.36138085308E+03  0.18970236952E+04 -0.68595122058E+03  0.20508841199E+04  0.79382461094E+02 0.  0.
        254    2    1    2    0    0 -0.36138085308E+03 -0.18970236952E+04  0.24881535444E+03  0.21440523725E+04  0.89763938985E+03 0.  0.
         23    2    4    4    0    0  0.26927853790E+03 -0.92003467606E+03  0.10248047127E+03  0.96844571985E+03  0.91706756390E+02 0.  0.
         23    2    4    4    0    0 -0.63065939098E+03 -0.97698901913E+03  0.14633488316E+03  0.11756066526E+04  0.91642199478E+02 0.  0.
          1    1    3    3  502    0  0.17554022422E+03  0.10241424535E+04 -0.33226390913E+03  0.10909085391E+04  0.00000000000E+00 0. -1.
         -2    1    3    3    0  502  0.18584062886E+03  0.87288124168E+03 -0.35368731145E+03  0.95997558078E+03  0.00000000000E+00 0.  1.
         11    1    5    5    0    0  0.20285089149E+03 -0.53273908923E+03  0.59115024169E+02  0.57310907117E+03  0.00000000000E+00 0.  1.
        -11    1    5    5    0    0  0.66427646414E+02 -0.38729558683E+03  0.43365447105E+02  0.39533664868E+03  0.00000000000E+00 0. -1.
          2    1    6    6  503    0 -0.28053235857E+03 -0.35889304508E+03  0.39343290625E+02  0.45722042445E+03  0.00000000000E+00 0. -1.
         -2    1    6    6    0  503 -0.35012703241E+03 -0.61809597405E+03  0.10699159254E+03  0.71838622818E+03  0.00000000000E+00 0.  1.
<mgrwt>
<rscale>  0 0.41720983E+04</rscale>
<asrwt>0</asrwt>
<pdfrwt beam="1">  1        1 0.28906159E+00 0.41720983E+04</pdfrwt>
<pdfrwt beam="2">  1       -2 0.35631326E+00 0.41720983E+04</pdfrwt>
<totfact> 0.34642961E-02</totfact>
</mgrwt>
</event>
<event>
12    4  0.4398275E-008  0.1839229E+04  0.7818608E-02  0.8685712E-01
          1   -1    0    0  501    0  0.00000000000E+00  0.00000000000E+00  0.33206352298E+04  0.33206352298E+04  0.00000000000E+00 0. -1.
         -2   -1    0    0    0  501 -0.00000000000E+00 -0.00000000000E+00 -0.25467752708E+03  0.25467752708E+03  0.00000000000E+00 0.  1.
        -24    2    1    2    0    0  0.14181308126E+03  0.56634434529E+03  0.43313726805E+03  0.73135100654E+03  0.80059567405E+02 0.  0.
        254    2    1    2    0    0 -0.14181308126E+03 -0.56634434529E+03  0.26328204346E+04  0.28439617503E+04  0.90306042363E+03 0.  0.
         23    2    4    4    0    0 -0.46797953491E+03 -0.49544891500E+03  0.13470930230E+04  0.15124269900E+04  0.91111552794E+02 0.  0.
         23    2    4    4    0    0  0.32616645365E+03 -0.70895430292E+02  0.12857274117E+04  0.13315347603E+04  0.92082155146E+02 0.  0.
          1    1    3    3  502    0  0.66056284413E+02  0.31513483882E+03  0.28522813808E+03  0.43014938115E+03  0.00000000000E+00 0. -1.
         -2    1    3    3    0  502  0.75756796846E+02  0.25120950648E+03  0.14790912997E+03  0.30120162539E+03  0.00000000000E+00 0.  1.
         11    1    5    5    0    0 -0.39334547711E+03 -0.40595895634E+03  0.11836488885E+04  0.13116966226E+04  0.00000000000E+00 0.  1.
        -11    1    5    5    0    0 -0.74634057800E+02 -0.89489958659E+02  0.16344413446E+03  0.20073036734E+03  0.00000000000E+00 0. -1.
          3    1    6    6  503    0  0.14048966449E+03  0.47833799921E+01  0.64616636812E+03  0.66127997235E+03  0.00000000000E+00 0. -1.
         -3    1    6    6    0  503  0.18567678916E+03 -0.75678810284E+02  0.63956104357E+03  0.67025478798E+03  0.00000000000E+00 0.  1.
<mgrwt>
<rscale>  0 0.18392294E+04</rscale>
<asrwt>0</asrwt>
<pdfrwt beam="1">  1        1 0.51086693E+00 0.18392294E+04</pdfrwt>
<pdfrwt beam="2">  1       -2 0.39181160E-01 0.18392294E+04</pdfrwt>
<totfact> 0.17605105E+00</totfact>
</mgrwt>
</event>
<event>
12    4  0.4398275E-008  0.1331797E+04  0.7818608E-02  0.9004723E-01
         -2   -1    0    0    0  501 -0.00000000000E+00  0.00000000000E+00  0.27531443355E+04  0.27531443355E+04  0.00000000000E+00 0.  1.
          1   -1    0    0  501    0  0.00000000000E+00 -0.00000000000E+00 -0.16105985325E+03  0.16105985325E+03  0.00000000000E+00 0. -1.
        -24    2    1    2    0    0  0.40117434096E+01 -0.32242401296E+03  0.38060191382E+03  0.50514557927E+03  0.79629776056E+02 0.  0.
        254    2    1    2    0    0 -0.40117434096E+01  0.32242401296E+03  0.22114825685E+04  0.24090586095E+04  0.89940808050E+03 0.  0.
         23    2    4    4    0    0  0.21624252625E+02  0.61020620683E+03  0.17613802715E+04  0.18665190452E+04  0.92809815880E+02 0.  0.
         23    2    4    4    0    0 -0.25635996034E+02 -0.28778219387E+03  0.45010229696E+03  0.54253956437E+03  0.91001680069E+02 0.  0.
          3    1    3    3  502    0  0.71415016758E+01  0.20383563630E+01  0.59594356540E+01  0.95221224610E+01  0.00000000000E+00 0. -1.
         -4    1    3    3    0  502 -0.31297582662E+01 -0.32446236932E+03  0.37464247817E+03  0.49562345681E+03  0.00000000000E+00 0.  1.
         11    1    5    5    0    0 -0.31082931087E+02  0.19115837454E+03  0.61748239438E+03  0.64714154567E+03  0.00000000000E+00 0.  1.
        -11    1    5    5    0    0  0.52707183712E+02  0.41904783229E+03  0.11438978771E+04  0.12193774995E+04  0.00000000000E+00 0. -1.
          2    1    6    6  503    0 -0.50899405729E+02 -0.25956741074E+03  0.40379152713E+03  0.48271480980E+03  0.00000000000E+00 0. -1.
         -2    1    6    6    0  503  0.25263409695E+02 -0.28214783127E+02  0.46310769832E+02  0.59824754565E+02  0.00000000000E+00 0.  1.
<mgrwt>
<rscale>  0 0.13317973E+04</rscale>
<asrwt>0</asrwt>
<pdfrwt beam="1">  1        1 0.24778441E-01 0.13317973E+04</pdfrwt>
<pdfrwt beam="2">  1       -2 0.42356063E+00 0.13317973E+04</pdfrwt>
<totfact> 0.88961764E-01</totfact>
</mgrwt>
</event>
<event>
12    4  0.4398275E-008  0.2432544E+04  0.7818608E-02  0.8427419E-01
          1   -1    0    0  501    0  0.00000000000E+00  0.00000000000E+00  0.20237778497E+04  0.20237778497E+04  0.00000000000E+00 0. -1.
         -2   -1    0    0    0  501 -0.00000000000E+00 -0.00000000000E+00 -0.73096840939E+03  0.73096840939E+03  0.00000000000E+00 0.  1.
        -24    2    1    2    0    0 -0.44880793916E+03 -0.66188073155E+02 -0.51077028958E+03  0.68777847962E+03  0.79646224222E+02 0.  0.
        254    2    1    2    0    0  0.44880793916E+03  0.66188073155E+02  0.18035797299E+04  0.20669677795E+04  0.90202357621E+03 0.  0.
         23    2    4    4    0    0  0.42827210889E+03 -0.32714226053E+03  0.67896104732E+03  0.87196013589E+03  0.94272567195E+02 0.  0.
         23    2    4    4    0    0  0.20535830264E+02  0.39333033369E+03  0.11246186825E+04  0.11950076436E+04  0.90253062651E+02 0.  0.
          3    1    3    3  502    0 -0.16037119066E+03 -0.22282694117E+02 -0.12745597904E+03  0.20605936970E+03  0.00000000000E+00 0. -1.
         -4    1    3    3    0  502 -0.28843674850E+03 -0.43905379038E+02 -0.38331431054E+03  0.48171910991E+03  0.00000000000E+00 0.  1.
         11    1    5    5    0    0  0.13668722888E+03 -0.74756040272E+02  0.14152536544E+03  0.21047872377E+03  0.00000000000E+00 0.  1.
        -11    1    5    5    0    0  0.29158488001E+03 -0.25238622026E+03  0.53743568187E+03  0.66148141212E+03  0.00000000000E+00 0. -1.
          1    1    6    6  503    0 -0.19077792542E+02  0.30334587387E+03  0.79853330129E+03  0.85442267914E+03  0.00000000000E+00 0. -1.
         -1    1    6    6    0  503  0.39613622806E+02  0.89984459815E+02  0.32608538126E+03  0.34058496443E+03  0.00000000000E+00 0.  1.
<mgrwt>
<rscale>  0 0.24325441E+04</rscale>
<asrwt>0</asrwt>
<pdfrwt beam="1">  1        1 0.31135044E+00 0.24325441E+04</pdfrwt>
<pdfrwt beam="2">  1       -2 0.11245668E+00 0.24325441E+04</pdfrwt>
<totfact> 0.14038300E+00</totfact>
</mgrwt>
</event>
<event>
12    4  0.4398275E-008  0.2273876E+04  0.7818608E-02  0.8488293E-01
          1   -1    0    0  501    0  0.00000000000E+00  0.00000000000E+00  0.32003397572E+04  0.32003397572E+04  0.00000000000E+00 0. -1.
         -2   -1    0    0    0  501 -0.00000000000E+00 -0.00000000000E+00 -0.40390323562E+03  0.40390323562E+03  0.00000000000E+00 0.  1.
        -24    2    1    2    0    0  0.77295280010E+03 -0.51832258763E+03  0.14090249606E+04  0.16904486458E+04  0.78427982860E+02 0.  0.
        254    2    1    2    0    0 -0.77295280010E+03  0.51832258763E+03  0.13874115610E+04  0.19137943470E+04  0.93358643255E+03 0.  0.
         23    2    4    4    0    0 -0.97608713843E+03  0.38891795864E+03  0.10293487940E+04  0.14737547618E+04  0.91601734854E+02 0.  0.
         23    2    4    4    0    0  0.20313433833E+03  0.12940462899E+03  0.35806276701E+03  0.44003958523E+03  0.86120694596E+02 0.  0.
          3    1    3    3  502    0  0.61176413668E+03 -0.40532281947E+03  0.10505860872E+04  0.12815120263E+04  0.00000000000E+00 0. -1.
         -4    1    3    3    0  502  0.16118866342E+03 -0.11299976815E+03  0.35843887338E+03  0.40893661950E+03  0.00000000000E+00 0.  1.
         11    1    5    5    0    0 -0.85433317586E+03  0.31905190416E+03  0.92394778140E+03  0.12982136942E+04  0.00000000000E+00 0. -1.
        -11    1    5    5    0    0 -0.12175396257E+03  0.69866054483E+02  0.10540101257E+03  0.17554106762E+03  0.00000000000E+00 0.  1.
          2    1    6    6  503    0  0.12625596324E+03  0.29979280372E+02  0.17058910059E+03  0.21433610695E+03  0.00000000000E+00 0. -1.
         -2    1    6    6    0  503  0.76878375095E+02  0.99425348615E+02  0.18747366643E+03  0.22570347828E+03  0.00000000000E+00 0.  1.
<mgrwt>
<rscale>  0 0.22738756E+04</rscale>
<asrwt>0</asrwt>
<pdfrwt beam="1">  1        1 0.49235995E+00 0.22738756E+04</pdfrwt>
<pdfrwt beam="2">  1       -2 0.62138962E-01 0.22738756E+04</pdfrwt>
<totfact> 0.81421986E-01</totfact>
</mgrwt>
</event>
<event>
12    4  0.4398275E-008  0.2473271E+04  0.7818608E-02  0.8412570E-01
          1   -1    0    0  501    0  0.00000000000E+00  0.00000000000E+00  0.24106159768E+04  0.24106159768E+04  0.00000000000E+00 0. -1.
         -2   -1    0    0    0  501 -0.00000000000E+00 -0.00000000000E+00 -0.63438845184E+03  0.63438845184E+03  0.00000000000E+00 0.  1.
        -24    2    1    2    0    0 -0.39366434020E+03 -0.83395029296E+03  0.14041723486E+04  0.16818352364E+04  0.80156558354E+02 0.  0.
        254    2    1    2    0    0  0.39366434020E+03  0.83395029296E+03  0.37205517629E+03  0.13631691922E+04  0.93239502813E+03 0.  0.
         23    2    4    4    0    0  0.23357158499E+03 -0.15992298388E+03  0.12159003814E+03  0.32173649527E+03  0.92731811801E+02 0.  0.
         23    2    4    4    0    0  0.16009275521E+03  0.99387327685E+03  0.25046513815E+03  0.10414326969E+04  0.91844956928E+02 0.  0.
          1    1    3    3  502    0 -0.18052982373E+02 -0.56168571219E+02  0.12679432339E+03  0.13984855741E+03  0.00000000000E+00 0. -1.
         -2    1    3    3    0  502 -0.37561135783E+03 -0.77778172174E+03  0.12773780253E+04  0.15419866790E+04  0.00000000000E+00 0.  1.
         11    1    5    5    0    0  0.37656496717E+01  0.48005908274E+01  0.20620384519E+02  0.21504093737E+02  0.00000000000E+00 0.  1.
        -11    1    5    5    0    0  0.22980593532E+03 -0.16472357471E+03  0.10096965362E+03  0.30023240153E+03  0.00000000000E+00 0. -1.
          3    1    6    6  503    0  0.14391308195E+03  0.82973342864E+03  0.24233949032E+03  0.87629730476E+03  0.00000000000E+00 0. -1.
         -3    1    6    6    0  503  0.16179673255E+02  0.16413984820E+03  0.81256478315E+01  0.16513539217E+03  0.00000000000E+00 0.  1.
<mgrwt>
<rscale>  0 0.24732707E+04</rscale>
<asrwt>0</asrwt>
<pdfrwt beam="1">  1        1 0.37086399E+00 0.24732707E+04</pdfrwt>
<pdfrwt beam="2">  1       -2 0.97598225E-01 0.24732707E+04</pdfrwt>
<totfact> 0.10695109E+00</totfact>
</mgrwt>
</event>
<event>
12    4  0.4398275E-008  0.1509384E+04  0.7818608E-02  0.8878236E-01
         -2   -1    0    0    0  501 -0.00000000000E+00  0.00000000000E+00  0.65796406893E+03  0.65796406893E+03  0.00000000000E+00 0.  1.
          1   -1    0    0  501    0  0.00000000000E+00 -0.00000000000E+00 -0.86564017885E+03  0.86564017885E+03  0.00000000000E+00 0. -1.
        -24    2    1    2    0    0  0.21086295459E+03  0.19401280638E+03  0.33048026419E+03  0.44466214457E+03  0.80019142346E+02 0.  0.
        254    2    1    2    0    0 -0.21086295459E+03 -0.19401280638E+03 -0.53815637410E+03  0.10789421032E+04  0.89016831241E+03 0.  0.
         23    2    4    4    0    0  0.33439556714E+03 -0.77279367738E+02 -0.31590951636E+03  0.47309234600E+03  0.78898981752E+02 0.  0.
         23    2    4    4    0    0 -0.54525852172E+03 -0.11673343864E+03 -0.22224685774E+03  0.60584975720E+03  0.82016530761E+02 0.  0.
          1    1    3    3  502    0  0.86454871863E+02  0.29831637755E+02  0.10548611645E+03  0.13961265073E+03  0.00000000000E+00 0. -1.
         -2    1    3    3    0  502  0.12440808272E+03  0.16418116862E+03  0.22499414774E+03  0.30504949384E+03  0.00000000000E+00 0.  1.
         11    1    5    5    0    0  0.29622059080E+03 -0.58594496327E+02 -0.23852471329E+03  0.38480383609E+03  0.00000000000E+00 0.  1.
        -11    1    5    5    0    0  0.38174976333E+02 -0.18684871410E+02 -0.77384803063E+02  0.88288509913E+02  0.00000000000E+00 0. -1.
          1    1    6    6  503    0 -0.11523217959E+03  0.94133703206E+00 -0.22963973299E+02  0.11750185274E+03  0.00000000000E+00 0. -1.
         -1    1    6    6    0  503 -0.43002634213E+03 -0.11767477567E+03 -0.19928288445E+03  0.48834790446E+03  0.00000000000E+00 0.  1.
<mgrwt>
<rscale>  0 0.15093842E+04</rscale>
<asrwt>0</asrwt>
<pdfrwt beam="1">  1        1 0.13317541E+00 0.15093842E+04</pdfrwt>
<pdfrwt beam="2">  1       -2 0.10122524E+00 0.15093842E+04</pdfrwt>
<totfact> 0.13205978E+01</totfact>
</mgrwt>
</event>
<event>
12    4  0.4398275E-008  0.1142956E+04  0.7818608E-02  0.9164307E-01
         -2   -1    0    0    0  501 -0.00000000000E+00  0.00000000000E+00  0.12116168761E+03  0.12116168761E+03  0.00000000000E+00 0.  1.
          1   -1    0    0  501    0  0.00000000000E+00 -0.00000000000E+00 -0.26954646192E+04  0.26954646192E+04  0.00000000000E+00 0. -1.
        -24    2    1    2    0    0 -0.15272050888E+03 -0.97162191436E+02 -0.24710298035E+03  0.31657367535E+03  0.79968517239E+02 0.  0.
        254    2    1    2    0    0  0.15272050888E+03  0.97162191436E+02 -0.23271999512E+04  0.25000526314E+04  0.89534323125E+03 0.  0.
         23    2    4    4    0    0  0.46043529225E+03 -0.73619499634E+02 -0.17841040720E+04  0.18462901556E+04  0.91320917720E+02 0.  0.
         23    2    4    4    0    0 -0.30771478336E+03  0.17078169107E+03 -0.54309587925E+03  0.65376247583E+03  0.92722526088E+02 0.  0.
          3    1    3    3  502    0 -0.38790979709E+02  0.37046008357E+01 -0.21657375274E+02  0.44581454416E+02  0.00000000000E+00 0. -1.
         -4    1    3    3    0  502 -0.11392952918E+03 -0.10086679227E+03 -0.22544560508E+03  0.27199222094E+03  0.00000000000E+00 0.  1.
         11    1    5    5    0    0  0.78010847819E+01 -0.95440386460E+01 -0.11686432891E+03  0.11751262472E+03  0.00000000000E+00 0. -1.
        -11    1    5    5    0    0  0.45263420746E+03 -0.64075460988E+02 -0.16672397431E+04  0.17287775309E+04  0.00000000000E+00 0.  1.
          1    1    6    6  503    0 -0.14863620704E+01  0.22580291481E+02 -0.47749158253E+02  0.52839955993E+02  0.00000000000E+00 0. -1.
         -1    1    6    6    0  503 -0.30622842129E+03  0.14820139959E+03 -0.49534672100E+03  0.60092251984E+03  0.00000000000E+00 0.  1.
<mgrwt>
<rscale>  0 0.11429559E+04</rscale>
<asrwt>0</asrwt>
<pdfrwt beam="1">  1        1 0.41468685E+00 0.11429559E+04</pdfrwt>
<pdfrwt beam="2">  1       -2 0.18640260E-01 0.11429559E+04</pdfrwt>
<totfact> 0.21071455E+01</totfact>
</mgrwt>
</event>
<event>
12    4  0.4398275E-008  0.1442878E+04  0.7818608E-02  0.8923353E-01
         -4   -1    0    0    0  501 -0.00000000000E+00  0.00000000000E+00  0.10171743273E+04  0.10171743273E+04  0.00000000000E+00 0.  1.
          3   -1    0    0  501    0  0.00000000000E+00 -0.00000000000E+00 -0.51168655483E+03  0.51168655483E+03  0.00000000000E+00 0. -1.
        -24    2    1    2    0    0  0.37644292213E+03  0.21440706010E+03  0.17735154481E+03  0.47485333877E+03  0.79702332792E+02 0.  0.
        254    2    1    2    0    0 -0.37644292213E+03 -0.21440706010E+03  0.32813622765E+03  0.10540075434E+04  0.90309404632E+03 0.  0.
         23    2    4    4    0    0  0.12790306238E+02 -0.32344075911E+03  0.50240495639E+03  0.60461737539E+03  0.91509091507E+02 0.  0.
         23    2    4    4    0    0 -0.38923322837E+03  0.10903369901E+03 -0.17426872874E+03  0.44939016796E+03  0.90504583642E+02 0.  0.
          1    1    3    3  502    0  0.26598484523E+03  0.11063345656E+03  0.10203446114E+03  0.30561205942E+03  0.00000000000E+00 0. -1.
         -2    1    3    3    0  502  0.11045807690E+03  0.10377360354E+03  0.75317083672E+02  0.16924127935E+03  0.00000000000E+00 0.  1.
         11    1    5    5    0    0 -0.39357591696E+02 -0.12018037701E+03  0.19516565825E+03  0.23255532074E+03  0.00000000000E+00 0. -1.
        -11    1    5    5    0    0  0.52147897934E+02 -0.20326038210E+03  0.30723929814E+03  0.37206205465E+03  0.00000000000E+00 0.  1.
          3    1    6    6  503    0 -0.89446110376E+02  0.56254775547E+02 -0.73624446331E+02  0.12878573497E+03  0.00000000000E+00 0. -1.
         -3    1    6    6    0  503 -0.29978711799E+03  0.52778923463E+02 -0.10064428241E+03  0.32060443300E+03  0.00000000000E+00 0.  1.
<mgrwt>
<rscale>  0 0.14428783E+04</rscale>
<asrwt>0</asrwt>
<pdfrwt beam="1">  1        3 0.78721008E-01 0.14428783E+04</pdfrwt>
<pdfrwt beam="2">  1       -4 0.15648836E+00 0.14428783E+04</pdfrwt>
<totfact> 0.88983946E-01</totfact>
</mgrwt>
</event>
<event>
12    4  0.4398275E-008  0.1533905E+04  0.7818608E-02  0.8862214E-01
         -2   -1    0    0    0  501 -0.00000000000E+00  0.00000000000E+00  0.82385816987E+03  0.82385816987E+03  0.00000000000E+00 0.  1.
          1   -1    0    0  501    0  0.00000000000E+00 -0.00000000000E+00 -0.71397735374E+03  0.71397735374E+03  0.00000000000E+00 0. -1.
        -24    2    1    2    0    0  0.30344252793E+03  0.14923110102E+02 -0.35850081517E+03  0.47738655191E+03  0.84113129108E+02 0.  0.
        254    2    1    2    0    0 -0.30344252793E+03 -0.14923110102E+02  0.46838163130E+03  0.10604489717E+04  0.90159336846E+03 0.  0.
         23    2    4    4    0    0  0.27533724330E+03 -0.13323139892E+03  0.30145778768E+03  0.43954685705E+03  0.93613239343E+02 0.  0.
         23    2    4    4    0    0 -0.57877977123E+03  0.11830828881E+03  0.16692384362E+03  0.62090211465E+03  0.93128897839E+02 0.  0.
          3    1    3    3  502    0  0.29915622905E+03  0.90091953027E+01 -0.31980643646E+03  0.43800887180E+03  0.00000000000E+00 0. -1.
         -4    1    3    3    0  502  0.42862988882E+01  0.59139147989E+01 -0.38694378713E+02  0.39377680105E+02  0.00000000000E+00 0.  1.
         11    1    5    5    0    0  0.27166249684E+03 -0.13390513537E+03  0.30802939825E+03  0.43198750868E+03  0.00000000000E+00 0. -1.
        -11    1    5    5    0    0  0.36747464567E+01  0.67373645832E+00 -0.65716105641E+01  0.75593483676E+01  0.00000000000E+00 0.  1.
          2    1    6    6  503    0 -0.45298798293E+03  0.12699561586E+03  0.14935966124E+03  0.49359326123E+03  0.00000000000E+00 0. -1.
         -2    1    6    6    0  503 -0.12579178830E+03 -0.86873270438E+01  0.17564182385E+02  0.12730885342E+03  0.00000000000E+00 0.  1.
<mgrwt>
<rscale>  0 0.15339049E+04</rscale>
<asrwt>0</asrwt>
<pdfrwt beam="1">  1        1 0.10984267E+00 0.15339049E+04</pdfrwt>
<pdfrwt beam="2">  1       -2 0.12674741E+00 0.15339049E+04</pdfrwt>
<totfact> 0.10336013E+01</totfact>
</mgrwt>
</event>
<event>
12    4  0.4398275E-008  0.2189504E+04  0.7818608E-02  0.8522809E-01
          1   -1    0    0  501    0  0.00000000000E+00  0.00000000000E+00  0.36994592080E+04  0.36994592080E+04  0.00000000000E+00 0. -1.
         -2   -1    0    0    0  501 -0.00000000000E+00 -0.00000000000E+00 -0.32396142764E+03  0.32396142764E+03  0.00000000000E+00 0.  1.
        -24    2    1    2    0    0 -0.14298777979E+03 -0.67127859374E+03  0.24750407581E+04  0.25696974659E+04  0.80360789333E+02 0.  0.
        254    2    1    2    0    0  0.14298777979E+03  0.67127859374E+03  0.90045702225E+03  0.14537231697E+04  0.91182660067E+03 0.  0.
         23    2    4    4    0    0  0.18078482788E+03  0.87364487779E+03  0.81986486413E+03  0.12150682360E+04  0.90960960516E+02 0.  0.
         23    2    4    4    0    0 -0.37797048093E+02 -0.20236628406E+03  0.80592158115E+02  0.23865493367E+03  0.89890776207E+02 0.  0.
          1    1    3    3  502    0 -0.12365145316E+03 -0.42663076369E+03  0.16718231300E+04  0.17298254445E+04  0.00000000000E+00 0. -1.
         -2    1    3    3    0  502 -0.19336326630E+02 -0.24464783004E+03  0.80321762808E+03  0.83987202141E+03  0.00000000000E+00 0.  1.
         11    1    5    5    0    0  0.28001851261E+02  0.64043266924E+02  0.93253814358E+02  0.11654148448E+03  0.00000000000E+00 0. -1.
        -11    1    5    5    0    0  0.15278297662E+03  0.80960161087E+03  0.72661104977E+03  0.10985267516E+04  0.00000000000E+00 0.  1.
          2    1    6    6  503    0 -0.88038165996E+01 -0.88841045290E+02  0.82372889274E+02  0.12147234830E+03  0.00000000000E+00 0. -1.
         -2    1    6    6    0  503 -0.28993231494E+02 -0.11352523877E+03 -0.17807311584E+01  0.11718258536E+03  0.00000000000E+00 0.  1.
<mgrwt>
<rscale>  0 0.21895041E+04</rscale>
<asrwt>0</asrwt>
<pdfrwt beam="1">  1        1 0.56914754E+00 0.21895041E+04</pdfrwt>
<pdfrwt beam="2">  1       -2 0.49840222E-01 0.21895041E+04</pdfrwt>
<totfact> 0.52960354E-01</totfact>
</mgrwt>
</event>
<event>
12    4  0.4398275E-008  0.2759163E+04  0.7818608E-02  0.8316060E-01
          1   -1    0    0  501    0  0.00000000000E+00  0.00000000000E+00  0.13311462819E+04  0.13311462819E+04  0.00000000000E+00 0. -1.
         -2   -1    0    0    0  501 -0.00000000000E+00 -0.00000000000E+00 -0.14297790883E+04  0.14297790883E+04  0.00000000000E+00 0.  1.
        -24    2    1    2    0    0 -0.46733655365E+03  0.29431486145E+03 -0.11462971647E+04  0.12752006846E+04  0.84349890880E+02 0.  0.
        254    2    1    2    0    0  0.46733655365E+03 -0.29431486145E+03  0.10476643583E+04  0.14857246856E+04  0.89708000856E+03 0.  0.
         23    2    4    4    0    0 -0.18953692035E+03 -0.13894032038E+03  0.19608357202E+02  0.25244318678E+03  0.90080064832E+02 0.  0.
         23    2    4    4    0    0  0.65687347399E+03 -0.15537454106E+03  0.10280560011E+04  0.12332814988E+04  0.91978829840E+02 0.  0.
          3    1    3    3  502    0 -0.24824447214E+02  0.38056571411E+02 -0.67801675970E+02  0.81618766662E+02  0.00000000000E+00 0. -1.
         -4    1    3    3    0  502 -0.44251210643E+03  0.25625829004E+03 -0.10784954888E+04  0.11935819179E+04  0.00000000000E+00 0.  1.
         11    1    5    5    0    0 -0.15471480363E+03 -0.14914734654E+03  0.22318487572E+02  0.21605489193E+03  0.00000000000E+00 0.  1.
        -11    1    5    5    0    0 -0.34822116719E+02  0.10207026155E+02 -0.27101303696E+01  0.36388294853E+02  0.00000000000E+00 0. -1.
          4    1    6    6  503    0  0.21029974986E+03 -0.77247512048E+02  0.40355803254E+03  0.46157583184E+03  0.00000000000E+00 0. -1.
         -4    1    6    6    0  503  0.44657372413E+03 -0.78127029017E+02  0.62449796852E+03  0.77170566697E+03  0.00000000000E+00 0.  1.
<mgrwt>
<rscale>  0 0.27591630E+04</rscale>
<asrwt>0</asrwt>
<pdfrwt beam="1">  1        1 0.20479174E+00 0.27591630E+04</pdfrwt>
<pdfrwt beam="2">  1       -2 0.21996601E+00 0.27591630E+04</pdfrwt>
<totfact> 0.64813973E-01</totfact>
</mgrwt>
</event>
<event>
12    4  0.4398275E-008  0.2091899E+04  0.7818608E-02  0.8564820E-01
          1   -1    0    0  501    0  0.00000000000E+00  0.00000000000E+00  0.12014444464E+04  0.12014444464E+04  0.00000000000E+00 0. -1.
         -2   -1    0    0    0  501 -0.00000000000E+00 -0.00000000000E+00 -0.91057905655E+03  0.91057905655E+03  0.00000000000E+00 0.  1.
        -24    2    1    2    0    0 -0.42550760812E+03 -0.17986368857E+03  0.83964666727E+03  0.96186195912E+03  0.82244948246E+02 0.  0.
        254    2    1    2    0    0  0.42550760812E+03  0.17986368857E+03 -0.54878127742E+03  0.11501615438E+04  0.89905673649E+03 0.  0.
         23    2    4    4    0    0  0.12920215915E+03 -0.29244206646E+03 -0.47585463200E+03  0.58021613099E+03  0.89429121093E+02 0.  0.
         23    2    4    4    0    0  0.29630544897E+03  0.47230575502E+03 -0.72926645420E+02  0.56994541285E+03  0.93004476759E+02 0.  0.
          1    1    3    3  502    0 -0.31923471616E+03 -0.15945013982E+03  0.69454248846E+03  0.78084852524E+03  0.00000000000E+00 0. -1.
         -2    1    3    3    0  502 -0.10627289195E+03 -0.20413548748E+02  0.14510417881E+03  0.18101343388E+03  0.00000000000E+00 0.  1.
         11    1    5    5    0    0  0.69210732406E+02 -0.76455583334E+02 -0.10715533042E+03  0.14872069977E+03  0.00000000000E+00 0. -1.
        -11    1    5    5    0    0  0.59991426747E+02 -0.21598648312E+03 -0.36869930158E+03  0.43149543122E+03  0.00000000000E+00 0.  1.
          4    1    6    6  503    0  0.12079739635E+03  0.12345524442E+03 -0.22288743186E+00  0.17272306742E+03  0.00000000000E+00 0. -1.
         -4    1    6    6    0  503  0.17550805261E+03  0.34885051060E+03 -0.72703757988E+02  0.39722234542E+03  0.00000000000E+00 0.  1.
<mgrwt>
<rscale>  0 0.20918988E+04</rscale>
<asrwt>0</asrwt>
<pdfrwt beam="1">  1        1 0.18483761E+00 0.20918988E+04</pdfrwt>
<pdfrwt beam="2">  1       -2 0.14008909E+00 0.20918988E+04</pdfrwt>
<totfact> 0.30858341E+00</totfact>
</mgrwt>
</event>
<event>
12    4  0.4398275E-008  0.1562776E+04  0.7818608E-02  0.8843748E-01
          1   -1    0    0  501    0  0.00000000000E+00  0.00000000000E+00  0.58999406328E+03  0.58999406328E+03  0.00000000000E+00 0. -1.
         -2   -1    0    0    0  501 -0.00000000000E+00 -0.00000000000E+00 -0.10348696823E+04  0.10348696823E+04  0.00000000000E+00 0.  1.
        -24    2    1    2    0    0 -0.64195251822E+02 -0.25074885466E+03 -0.61242467010E+03  0.66961557744E+03  0.79530035391E+02 0.  0.
        254    2    1    2    0    0  0.64195251822E+02  0.25074885466E+03  0.16754905107E+03  0.95524816816E+03  0.90411855405E+03 0.  0.
         23    2    4    4    0    0 -0.26679931292E+03  0.44465881673E+03  0.23061930181E+01  0.52755635196E+03  0.96989944297E+02 0.  0.
         23    2    4    4    0    0  0.33099456474E+03 -0.19390996208E+03  0.16524285805E+03  0.42769181620E+03  0.91959840302E+02 0.  0.
          3    1    3    3  502    0  0.14933191137E+02 -0.16596077024E+02 -0.34966230153E+02  0.41485747206E+02  0.00000000000E+00 0. -1.
         -4    1    3    3    0  502 -0.79128442960E+02 -0.23415277763E+03 -0.57745843995E+03  0.62812983023E+03  0.00000000000E+00 0.  1.
         11    1    5    5    0    0  0.21572474535E+01  0.73885307203E+01 -0.11695598840E+02  0.14001111920E+02  0.00000000000E+00 0. -1.
        -11    1    5    5    0    0 -0.26895656037E+03  0.43727028601E+03  0.14001791858E+02  0.51355524004E+03  0.00000000000E+00 0.  1.
          3    1    6    6  503    0  0.34827391673E+02  0.62553917394E+01  0.26659711597E+02  0.44303694643E+02  0.00000000000E+00 0. -1.
         -3    1    6    6    0  503  0.29616717307E+03 -0.20016535381E+03  0.13858314645E+03  0.38338812156E+03  0.00000000000E+00 0.  1.
<mgrwt>
<rscale>  0 0.15627757E+04</rscale>
<asrwt>0</asrwt>
<pdfrwt beam="1">  1        1 0.90768317E-01 0.15627757E+04</pdfrwt>
<pdfrwt beam="2">  1       -2 0.15921072E+00 0.15627757E+04</pdfrwt>
<totfact> 0.75397164E+00</totfact>
</mgrwt>
</event>
<event>
12    4  0.4398275E-008  0.2267596E+04  0.7818608E-02  0.8490808E-01
          1   -1    0    0  501    0  0.00000000000E+00  0.00000000000E+00  0.14660099524E+04  0.14660099524E+04  0.00000000000E+00 0. -1.
         -2   -1    0    0    0  501 -0.00000000000E+00 -0.00000000000E+00 -0.87686813159E+03  0.87686813159E+03  0.00000000000E+00 0.  1.
        -24    2    1    2    0    0  0.35258755464E+01  0.58765389135E+03  0.10059743360E+04  0.11677794529E+04  0.79843333988E+02 0.  0.
        254    2    1    2    0    0 -0.35258755464E+01 -0.58765389135E+03 -0.41683251522E+03  0.11750986311E+04  0.92830917225E+03 0.  0.
         23    2    4    4    0    0 -0.27507247266E+03 -0.20941069110E+03  0.19015825627E+03  0.40462855996E+03  0.89701763324E+02 0.  0.
         23    2    4    4    0    0  0.27154659712E+03 -0.37824320025E+03 -0.60699077149E+03  0.77047007116E+03  0.91547042184E+02 0.  0.
          3    1    3    3  502    0  0.19905103254E+02  0.20171446863E+03  0.28331714418E+03  0.34835835597E+03  0.00000000000E+00 0. -1.
         -4    1    3    3    0  502 -0.16379227708E+02  0.38593942272E+03  0.72265719184E+03  0.81942109689E+03  0.00000000000E+00 0.  1.
         11    1    5    5    0    0 -0.25865795179E+03 -0.21788500936E+03  0.18479882841E+03  0.38539385090E+03  0.00000000000E+00 0. -1.
        -11    1    5    5    0    0 -0.16414520875E+02  0.84743182659E+01  0.53594278588E+01  0.19234709059E+02  0.00000000000E+00 0.  1.
          4    1    6    6  503    0  0.26229635672E+03 -0.31560397317E+03 -0.50936637651E+03  0.65410958726E+03  0.00000000000E+00 0. -1.
         -4    1    6    6    0  503  0.92502403937E+01 -0.62639227088E+02 -0.97624394979E+02  0.11636048390E+03  0.00000000000E+00 0.  1.
<mgrwt>
<rscale>  0 0.22675956E+04</rscale>
<asrwt>0</asrwt>
<pdfrwt beam="1">  1        1 0.22553999E+00 0.22675956E+04</pdfrwt>
<pdfrwt beam="2">  1       -2 0.13490279E+00 0.22675956E+04</pdfrwt>
<totfact> 0.21725118E+00</totfact>
</mgrwt>
</event>
<event>
12    4  0.4398275E-008  0.3123715E+04  0.7818608E-02  0.8209260E-01
          1   -1    0    0  501    0  0.00000000000E+00  0.00000000000E+00  0.34289059039E+04  0.34289059039E+04  0.00000000000E+00 0. -1.
         -2   -1    0    0    0  501 -0.00000000000E+00 -0.00000000000E+00 -0.71142170980E+03  0.71142170980E+03  0.00000000000E+00 0.  1.
        -24    2    1    2    0    0 -0.78947540330E+03 -0.97732853887E+03  0.21753198593E+04  0.25133160091E+04  0.79362371072E+02 0.  0.
        254    2    1    2    0    0  0.78947540330E+03  0.97732853887E+03  0.54216433483E+03  0.16270116046E+04  0.88021708140E+03 0.  0.
         23    2    4    4    0    0  0.52341962261E+03  0.92780748402E+03  0.72194377441E+03  0.12899277389E+04  0.88971508595E+02 0.  0.
         23    2    4    4    0    0  0.26605578069E+03  0.49521054843E+02 -0.17977943959E+03  0.33708386578E+03  0.89815768985E+02 0.  0.
          1    1    3    3  502    0 -0.57205514186E+03 -0.76224889077E+03  0.16439372736E+04  0.19002105716E+04  0.00000000000E+00 0. -1.
         -2    1    3    3    0  502 -0.21742026144E+03 -0.21507964809E+03  0.53138258566E+03  0.61310543747E+03  0.00000000000E+00 0.  1.
         11    1    5    5    0    0  0.48408444527E+03  0.86948739604E+03  0.69829069443E+03  0.12157121271E+04  0.00000000000E+00 0. -1.
        -11    1    5    5    0    0  0.39335177339E+02  0.58320087986E+02  0.23653079982E+02  0.74215611778E+02  0.00000000000E+00 0.  1.
          3    1    6    6  503    0  0.16711451666E+03 -0.13614951338E+02 -0.11019299699E+03  0.20063679913E+03  0.00000000000E+00 0. -1.
         -3    1    6    6    0  503  0.98941264031E+02  0.63136006181E+02 -0.69586442600E+02  0.13644706665E+03  0.00000000000E+00 0.  1.
<mgrwt>
<rscale>  0 0.31237145E+04</rscale>
<asrwt>0</asrwt>
<pdfrwt beam="1">  1        1 0.52752398E+00 0.31237145E+04</pdfrwt>
<pdfrwt beam="2">  1       -2 0.10944950E+00 0.31237145E+04</pdfrwt>
<totfact> 0.13994122E-01</totfact>
</mgrwt>
</event>
<event>
12    4  0.4398275E-008  0.2070063E+04  0.7818608E-02  0.8574547E-01
          3   -1    0    0  501    0  0.00000000000E+00  0.00000000000E+00  0.90521548325E+03  0.90521548325E+03  0.00000000000E+00 0. -1.
         -4   -1    0    0    0  501 -0.00000000000E+00 -0.00000000000E+00 -0.11834641895E+04  0.11834641895E+04  0.00000000000E+00 0.  1.
        -24    2    1    2    0    0  0.36389001322E+03 -0.74947769995E+03 -0.89648929433E+02  0.84188204814E+03  0.81213841147E+02 0.  0.
        254    2    1    2    0    0 -0.36389001322E+03  0.74947769995E+03 -0.18859977685E+03  0.12467976246E+04  0.90818592619E+03 0.  0.
         23    2    4    4    0    0 -0.53966715800E+03  0.70897904278E+03  0.89932261936E+02  0.90082072202E+03  0.97458898788E+02 0.  0.
         23    2    4    4    0    0  0.17577714478E+03  0.40498657170E+02 -0.27853203879E+03  0.34597690262E+03  0.97888582883E+02 0.  0.
          1    1    3    3  502    0  0.24752751783E+03 -0.42538521251E+03 -0.68225564975E+02  0.49686736542E+03  0.00000000000E+00 0. -1.
         -2    1    3    3    0  502  0.11636249539E+03 -0.32409248744E+03 -0.21423364457E+02  0.34501468272E+03  0.00000000000E+00 0.  1.
         11    1    5    5    0    0 -0.11330017865E+03  0.21974281866E+03  0.17845801009E+02  0.24787559268E+03  0.00000000000E+00 0.  1.
        -11    1    5    5    0    0 -0.42636697935E+03  0.48923622412E+03  0.72086460927E+02  0.65294512933E+03  0.00000000000E+00 0. -1.
          3    1    6    6  503    0  0.11542746719E+03  0.69037378163E+02 -0.21633062364E+03  0.25473240565E+03  0.00000000000E+00 0. -1.
         -3    1    6    6    0  503  0.60349677590E+02 -0.28538720993E+02 -0.62201415145E+02  0.91244496969E+02  0.00000000000E+00 0.  1.
<mgrwt>
<rscale>  0 0.20700629E+04</rscale>
<asrwt>0</asrwt>
<pdfrwt beam="1">  1        3 0.13926392E+00 0.20700629E+04</pdfrwt>
<pdfrwt beam="2">  1       -4 0.18207141E+00 0.20700629E+04</pdfrwt>
<totfact> 0.14370298E-01</totfact>
</mgrwt>
</event>
<event>
12    4  0.4398275E-008  0.2101324E+04  0.7818608E-02  0.8560660E-01
         -2   -1    0    0    0  501 -0.00000000000E+00  0.00000000000E+00  0.43949381041E+03  0.43949381041E+03  0.00000000000E+00 0.  1.
          1   -1    0    0  501    0  0.00000000000E+00 -0.00000000000E+00 -0.25117329946E+04  0.25117329946E+04  0.00000000000E+00 0. -1.
        -24    2    1    2    0    0 -0.43545883265E+03  0.60770554169E+03 -0.14398347695E+04  0.16242934055E+04  0.79211636140E+02 0.  0.
        254    2    1    2    0    0  0.43545883265E+03 -0.60770554169E+03 -0.63240441467E+03  0.13269333995E+04  0.89548114592E+03 0.  0.
         23    2    4    4    0    0  0.19383709268E+03 -0.49563614197E+03 -0.82602238446E+03  0.98665475981E+03  0.89143881945E+02 0.  0.
         23    2    4    4    0    0  0.24162173997E+03 -0.11206939972E+03  0.19361796979E+03  0.34027863970E+03  0.85796380032E+02 0.  0.
          1    1    3    3  502    0 -0.43787482731E+03  0.60229008538E+03 -0.14175041987E+04  0.16011888910E+04  0.00000000000E+00 0. -1.
         -2    1    3    3    0  502  0.24159946559E+01  0.54154563114E+01 -0.22330570783E+02  0.23104514467E+02  0.00000000000E+00 0.  1.
         11    1    5    5    0    0  0.94520564390E+02 -0.30726270732E+03 -0.56208698474E+03  0.64752319404E+03  0.00000000000E+00 0.  1.
        -11    1    5    5    0    0  0.99316528287E+02 -0.18837343466E+03 -0.26393539972E+03  0.33913156577E+03  0.00000000000E+00 0. -1.
          1    1    6    6  503    0  0.89575768472E+02  0.57217795774E+00  0.76034056022E+02  0.11749605679E+03  0.00000000000E+00 0. -1.
         -1    1    6    6    0  503  0.15204597150E+03 -0.11264157768E+03  0.11758391377E+03  0.22278258291E+03  0.00000000000E+00 0.  1.
<mgrwt>
<rscale>  0 0.21013244E+04</rscale>
<asrwt>0</asrwt>
<pdfrwt beam="1">  1        1 0.38642047E+00 0.21013244E+04</pdfrwt>
<pdfrwt beam="2">  1       -2 0.67614431E-01 0.21013244E+04</pdfrwt>
<totfact> 0.21541149E+00</totfact>
</mgrwt>
</event>
<event>
12    4  0.4398275E-008  0.1284684E+04  0.7818608E-02  0.9041800E-01
          1   -1    0    0  501    0  0.00000000000E+00  0.00000000000E+00  0.23832986699E+04  0.23832986699E+04  0.00000000000E+00 0. -1.
         -2   -1    0    0    0  501 -0.00000000000E+00 -0.00000000000E+00 -0.17312272140E+03  0.17312272140E+03  0.00000000000E+00 0.  1.
        -24    2    1    2    0    0  0.16409455704E+03  0.24307090880E+03  0.32175151722E+03  0.44420393249E+03  0.88219070793E+02 0.  0.
        254    2    1    2    0    0 -0.16409455704E+03 -0.24307090880E+03  0.18884244313E+04  0.21122174588E+04  0.89961395625E+03 0.  0.
         23    2    4    4    0    0 -0.17900687843E+03 -0.44190441853E+03  0.18184474952E+04  0.18820211097E+04  0.89045980656E+02 0.  0.
         23    2    4    4    0    0  0.14912321392E+02  0.19883350973E+03  0.69976936050E+02  0.23019634914E+03  0.91304138235E+02 0.  0.
          3    1    3    3  502    0 -0.10729945806E+02  0.19946484264E+02  0.27581741897E+02  0.35689584721E+02  0.00000000000E+00 0. -1.
         -4    1    3    3    0  502  0.17482450284E+03  0.22312442454E+03  0.29416977532E+03  0.40851434777E+03  0.00000000000E+00 0.  1.
         11    1    5    5    0    0 -0.15361178824E+03 -0.42142304046E+03  0.17436274849E+04  0.18003973913E+04  0.00000000000E+00 0.  1.
        -11    1    5    5    0    0 -0.25395090185E+02 -0.20481378076E+02  0.74820010349E+02  0.81623718379E+02  0.00000000000E+00 0. -1.
          1    1    6    6  503    0 -0.36591836684E+02  0.11080615540E+03  0.45978018613E+02  0.12542306320E+03  0.00000000000E+00 0. -1.
         -1    1    6    6    0  503  0.51504158076E+02  0.88027354328E+02  0.23998917437E+02  0.10477328594E+03  0.00000000000E+00 0.  1.
<mgrwt>
<rscale>  0 0.12846839E+04</rscale>
<asrwt>0</asrwt>
<pdfrwt beam="1">  1        1 0.36666131E+00 0.12846839E+04</pdfrwt>
<pdfrwt beam="2">  1       -2 0.26634266E-01 0.12846839E+04</pdfrwt>
<totfact> 0.18076139E+01</totfact>
</mgrwt>
</event>
<event>
12    4  0.4398275E-008  0.1903928E+04  0.7818608E-02  0.8652904E-01
         -2   -1    0    0    0  501 -0.00000000000E+00  0.00000000000E+00  0.53746608186E+03  0.53746608186E+03  0.00000000000E+00 0.  1.
          1   -1    0    0  501    0  0.00000000000E+00 -0.00000000000E+00 -0.16861258104E+04  0.16861258104E+04  0.00000000000E+00 0. -1.
        -24    2    1    2    0    0  0.60686420895E+03 -0.95374335976E+02 -0.91868021828E+03  0.11083301680E+04  0.83916540239E+02 0.  0.
        254    2    1    2    0    0 -0.60686420895E+03  0.95374335976E+02 -0.22997951024E+03  0.11152617243E+04  0.90196325115E+03 0.  0.
         23    2    4    4    0    0  0.15263924700E+03  0.23131492660E+03 -0.16706760420E+03  0.33612596833E+03  0.90905155072E+02 0.  0.
         23    2    4    4    0    0 -0.75950345595E+03 -0.13594059063E+03 -0.62911906042E+02  0.77913575594E+03  0.88143488018E+02 0.  0.
          1    1    3    3  502    0  0.49020918567E+03 -0.10466972508E+03 -0.77570943214E+03  0.92357236867E+03  0.00000000000E+00 0. -1.
         -2    1    3    3    0  502  0.11665502328E+03  0.92953891089E+01 -0.14297078615E+03  0.18475779931E+03  0.00000000000E+00 0.  1.
         11    1    5    5    0    0  0.94143540217E+01  0.89730106539E+02 -0.54553216488E+02  0.10543327516E+03  0.00000000000E+00 0.  1.
        -11    1    5    5    0    0  0.14322489298E+03  0.14158482006E+03 -0.11251438771E+03  0.23069269317E+03  0.00000000000E+00 0. -1.
          3    1    6    6  503    0 -0.62280176988E+03 -0.12699012561E+03 -0.21348469095E+02  0.63597507317E+03  0.00000000000E+00 0. -1.
         -3    1    6    6    0  503 -0.13670168607E+03 -0.89504650218E+01 -0.41563436948E+02  0.14316068276E+03  0.00000000000E+00 0.  1.
<mgrwt>
<rscale>  0 0.19039280E+04</rscale>
<asrwt>0</asrwt>
<pdfrwt beam="1">  1        1 0.25940397E+00 0.19039280E+04</pdfrwt>
<pdfrwt beam="2">  1       -2 0.82687090E-01 0.19039280E+04</pdfrwt>
<totfact> 0.51307684E+00</totfact>
</mgrwt>
</event>
<event>
12    4  0.4398275E-008  0.1259541E+04  0.7818608E-02  0.9062279E-01
         -2   -1    0    0    0  501 -0.00000000000E+00  0.00000000000E+00  0.53383817630E+03  0.53383817630E+03  0.00000000000E+00 0.  1.
          1   -1    0    0  501    0  0.00000000000E+00 -0.00000000000E+00 -0.74294273345E+03  0.74294273345E+03  0.00000000000E+00 0. -1.
        -24    2    1    2    0    0  0.25310505417E+03  0.11178117335E+03 -0.12564103164E+03  0.31422523355E+03  0.79966426732E+02 0.  0.
        254    2    1    2    0    0 -0.25310505417E+03 -0.11178117335E+03 -0.83463525516E+02  0.96255567620E+03  0.91814490716E+03 0.  0.
         23    2    4    4    0    0 -0.53238774347E+03  0.12748904735E+03  0.58344223263E+02  0.55798771469E+03  0.90862944956E+02 0.  0.
         23    2    4    4    0    0  0.27928268930E+03 -0.23927022070E+03 -0.14180774878E+03  0.40456796152E+03  0.91196155718E+02 0.  0.
          3    1    3    3  502    0  0.24697900022E+03  0.97319693183E+02 -0.13296069509E+03  0.29689778657E+03  0.00000000000E+00 0. -1.
         -4    1    3    3    0  502  0.61260539438E+01  0.14461480164E+02  0.73196634525E+01  0.17327446971E+02  0.00000000000E+00 0.  1.
         11    1    5    5    0    0 -0.52969491456E+03  0.12129822483E+03  0.66433150039E+02  0.54745166480E+03  0.00000000000E+00 0. -1.
        -11    1    5    5    0    0 -0.26928289021E+01  0.61908225164E+01 -0.80889267765E+01  0.10536049892E+02  0.00000000000E+00 0.  1.
          3    1    6    6  503    0  0.27809627816E+03 -0.21782734790E+03 -0.11784307085E+03  0.37238861794E+03  0.00000000000E+00 0. -1.
         -3    1    6    6    0  503  0.11864111392E+01 -0.21442872794E+02 -0.23964677930E+02  0.32179343581E+02  0.00000000000E+00 0.  1.
<mgrwt>
<rscale>  0 0.12595415E+04</rscale>
<asrwt>0</asrwt>
<pdfrwt beam="1">  1        1 0.11429888E+00 0.12595415E+04</pdfrwt>
<pdfrwt beam="2">  1       -2 0.82128951E-01 0.12595415E+04</pdfrwt>
<totfact> 0.27956115E+01</totfact>
</mgrwt>
</event>
<event>
12    4  0.4398275E-008  0.2541552E+04  0.7818608E-02  0.8388330E-01
          1   -1    0    0  501    0  0.00000000000E+00  0.00000000000E+00  0.33184988021E+04  0.33184988021E+04  0.00000000000E+00 0. -1.
         -2   -1    0    0    0  501 -0.00000000000E+00 -0.00000000000E+00 -0.48662728189E+03  0.48662728189E+03  0.00000000000E+00 0.  1.
        -24    2    1    2    0    0  0.37737393427E+02  0.10326368070E+04  0.62946041495E+03  0.12128291303E+04  0.83493708010E+02 0.  0.
        254    2    1    2    0    0 -0.37737393427E+02 -0.10326368070E+04  0.22024111053E+04  0.25922969537E+04  0.89533565430E+03 0.  0.
         23    2    4    4    0    0 -0.50543350433E+02 -0.70012199737E+03  0.21216624373E+04  0.22366233635E+04  0.91143462666E+02 0.  0.
         23    2    4    4    0    0  0.12805957007E+02 -0.33251480959E+03  0.80748667968E+02  0.35567359026E+03  0.96193889089E+02 0.  0.
          3    1    3    3  502    0 -0.30282712771E+01  0.16608008595E+03  0.13676659980E+03  0.21516707043E+03  0.00000000000E+00 0. -1.
         -4    1    3    3    0  502  0.40765664704E+02  0.86655672101E+03  0.49269381515E+03  0.99766205983E+03  0.00000000000E+00 0.  1.
         11    1    5    5    0    0  0.15853365805E+02 -0.35260345275E+02  0.91461162163E+02  0.99296351094E+02  0.00000000000E+00 0. -1.
        -11    1    5    5    0    0 -0.66396716238E+02 -0.66486165209E+03  0.20302012751E+04  0.21373270124E+04  0.00000000000E+00 0.  1.
          1    1    6    6  503    0 -0.27715298271E+02 -0.62593592450E+02  0.41147246720E+02  0.79869840908E+02  0.00000000000E+00 0. -1.
         -1    1    6    6    0  503  0.40521255277E+02 -0.26992121714E+03  0.39601421248E+02  0.27580374935E+03  0.00000000000E+00 0.  1.
<mgrwt>
<rscale>  0 0.25415523E+04</rscale>
<asrwt>0</asrwt>
<pdfrwt beam="1">  1        1 0.51053826E+00 0.25415523E+04</pdfrwt>
<pdfrwt beam="2">  1       -2 0.74865738E-01 0.25415523E+04</pdfrwt>
<totfact> 0.43157781E-01</totfact>
</mgrwt>
</event>
<event>
12    4  0.4398275E-008  0.2217641E+04  0.7818608E-02  0.8511121E-01
         -2   -1    0    0    0  501 -0.00000000000E+00  0.00000000000E+00  0.85106746865E+03  0.85106746865E+03  0.00000000000E+00 0.  1.
          1   -1    0    0  501    0  0.00000000000E+00 -0.00000000000E+00 -0.14446358858E+04  0.14446358858E+04  0.00000000000E+00 0. -1.
        -24    2    1    2    0    0 -0.61907113520E+03  0.64691638379E+03 -0.46062766223E+03  0.10100960667E+04  0.79789365025E+02 0.  0.
        254    2    1    2    0    0  0.61907113520E+03 -0.64691638379E+03 -0.13294075492E+03  0.12856072877E+04  0.91288716491E+03 0.  0.
         23    2    4    4    0    0  0.92699324054E+02 -0.71505298239E+03 -0.16653200782E+03  0.74594098173E+03  0.93814211556E+02 0.  0.
         23    2    4    4    0    0  0.52637181115E+03  0.68136598601E+02  0.33591252901E+02  0.53966630599E+03  0.91659532578E+02 0.  0.
          3    1    3    3  502    0 -0.28775287630E+03  0.30452806957E+03 -0.26028320160E+03  0.49324072015E+03  0.00000000000E+00 0. -1.
         -4    1    3    3    0  502 -0.33131825890E+03  0.34238831421E+03 -0.20034446064E+03  0.51685534659E+03  0.00000000000E+00 0.  1.
         11    1    5    5    0    0  0.42477657098E+02 -0.44509905904E+03 -0.14698085317E+03  0.47066006300E+03  0.00000000000E+00 0.  1.
        -11    1    5    5    0    0  0.50221666956E+02 -0.26995392335E+03 -0.19551154643E+02  0.27528091872E+03  0.00000000000E+00 0. -1.
          3    1    6    6  503    0  0.29882366234E+03  0.58051401665E+02 -0.22015616246E+02  0.30520523221E+03  0.00000000000E+00 0. -1.
         -3    1    6    6    0  503  0.22754814881E+03  0.10085196936E+02  0.55606869147E+02  0.23446107378E+03  0.00000000000E+00 0.  1.
<mgrwt>
<rscale>  0 0.22176407E+04</rscale>
<asrwt>0</asrwt>
<pdfrwt beam="1">  1        1 0.22225167E+00 0.22176407E+04</pdfrwt>
<pdfrwt beam="2">  1       -2 0.13093346E+00 0.22176407E+04</pdfrwt>
<totfact> 0.24364482E+00</totfact>
</mgrwt>
</event>
<event>
12    4  0.4398275E-008  0.1094270E+04  0.7818608E-02  0.9210795E-01
          1   -1    0    0  501    0  0.00000000000E+00  0.00000000000E+00  0.13247845677E+04  0.13247845677E+04  0.00000000000E+00 0. -1.
         -2   -1    0    0    0  501 -0.00000000000E+00 -0.00000000000E+00 -0.22596631173E+03  0.22596631173E+03  0.00000000000E+00 0.  1.
        -24    2    1    2    0    0  0.66594778951E+02 -0.14719948328E+03  0.20902777529E+03  0.27630655380E+03  0.80932986897E+02 0.  0.
        254    2    1    2    0    0 -0.66594778951E+02  0.14719948328E+03  0.88979048063E+03  0.12744443256E+04  0.89798590587E+03 0.  0.
         23    2    4    4    0    0 -0.30289804484E+03 -0.31247951213E+02 -0.14697657324E+02  0.31801350487E+03  0.90514684586E+02 0.  0.
         23    2    4    4    0    0  0.23630326589E+03  0.17844743449E+03  0.90448813795E+03  0.95643082071E+03  0.94754434065E+02 0.  0.
          3    1    3    3  502    0  0.81449267754E+02 -0.14236568043E+03  0.19837061286E+03  0.25739632909E+03  0.00000000000E+00 0. -1.
         -4    1    3    3    0  502 -0.14854488803E+02 -0.48338028567E+01  0.10657162428E+02  0.18910224712E+02  0.00000000000E+00 0.  1.
         11    1    5    5    0    0 -0.10707412488E+03 -0.13550890449E+02  0.38050197720E+02  0.11443912092E+03  0.00000000000E+00 0.  1.
        -11    1    5    5    0    0 -0.19582391997E+03 -0.17697060763E+02 -0.52747855043E+02  0.20357438395E+03  0.00000000000E+00 0. -1.
          2    1    6    6  503    0  0.10945723468E+03  0.70912276596E+02  0.54431109539E+03  0.55971779118E+03  0.00000000000E+00 0. -1.
         -2    1    6    6    0  503  0.12684603121E+03  0.10753515790E+03  0.36017704256E+03  0.39671302954E+03  0.00000000000E+00 0.  1.
<mgrwt>
<rscale>  0 0.10942700E+04</rscale>
<asrwt>0</asrwt>
<pdfrwt beam="1">  1        1 0.20381300E+00 0.10942700E+04</pdfrwt>
<pdfrwt beam="2">  1       -2 0.34764049E-01 0.10942700E+04</pdfrwt>
<totfact> 0.58913220E+01</totfact>
</mgrwt>
</event>
<event>
12    4  0.4398275E-008  0.1462550E+04  0.7818608E-02  0.8909746E-01
         -2   -1    0    0    0  501 -0.00000000000E+00  0.00000000000E+00  0.20047291045E+03  0.20047291045E+03  0.00000000000E+00 0.  1.
          1   -1    0    0  501    0  0.00000000000E+00 -0.00000000000E+00 -0.26675082669E+04  0.26675082669E+04  0.00000000000E+00 0. -1.
        -24    2    1    2    0    0  0.22360391864E+03 -0.75057518367E+02 -0.15321682740E+04  0.15522390406E+04  0.79209064975E+02 0.  0.
        254    2    1    2    0    0 -0.22360391864E+03  0.75057518367E+02 -0.93486708248E+03  0.13157421367E+04  0.89530361607E+03 0.  0.
         23    2    4    4    0    0 -0.50018672794E+03  0.28955080901E+02 -0.87701943947E+03  0.10144537045E+04  0.94488422012E+02 0.  0.
         23    2    4    4    0    0  0.27658280930E+03  0.46102437466E+02 -0.57847643016E+02  0.30128843220E+03  0.93834345707E+02 0.  0.
          3    1    3    3  502    0  0.17116744527E+03 -0.91180651449E+02 -0.12006280543E+04  0.12161907459E+04  0.00000000000E+00 0. -1.
         -4    1    3    3    0  502  0.52436473369E+02  0.16123133082E+02 -0.33154021963E+03  0.33604829473E+03  0.00000000000E+00 0.  1.
         11    1    5    5    0    0 -0.63368230692E+02 -0.18670654945E+02 -0.74951439371E+02  0.99909180163E+02  0.00000000000E+00 0.  1.
        -11    1    5    5    0    0 -0.43681849725E+03  0.47625735847E+02 -0.80206800010E+03  0.91454452436E+03  0.00000000000E+00 0. -1.
          4    1    6    6  503    0  0.19448692334E+03  0.59899310029E+02 -0.73905653929E+02  0.21650666589E+03  0.00000000000E+00 0. -1.
         -4    1    6    6    0  503  0.82095885963E+02 -0.13796872563E+02  0.16058010913E+02  0.84781766312E+02  0.00000000000E+00 0.  1.
<mgrwt>
<rscale>  0 0.14625500E+04</rscale>
<asrwt>0</asrwt>
<pdfrwt beam="1">  1        1 0.41038583E+00 0.14625500E+04</pdfrwt>
<pdfrwt beam="2">  1       -2 0.30841991E-01 0.14625500E+04</pdfrwt>
<totfact> 0.86168165E+00</totfact>
</mgrwt>
</event>
<event>
12    4  0.4398275E-008  0.2001434E+04  0.7818608E-02  0.8605950E-01
         -2   -1    0    0    0  501 -0.00000000000E+00  0.00000000000E+00  0.56822293436E+03  0.56822293436E+03  0.00000000000E+00 0.  1.
          1   -1    0    0  501    0  0.00000000000E+00 -0.00000000000E+00 -0.17623980248E+04  0.17623980248E+04  0.00000000000E+00 0. -1.
        -24    2    1    2    0    0  0.28999195975E+03 -0.39519983485E+03 -0.12078684515E+04  0.13059051419E+04  0.78509856428E+02 0.  0.
        254    2    1    2    0    0 -0.28999195975E+03  0.39519983485E+03  0.13693361037E+02  0.10247158172E+04  0.89976483132E+03 0.  0.
         23    2    4    4    0    0  0.29902882654E+02  0.60172848731E+03 -0.99138399459E+02  0.61729608853E+03  0.90855290629E+02 0.  0.
         23    2    4    4    0    0 -0.31989484240E+03 -0.20652865246E+03  0.11283176050E+03  0.40741972867E+03  0.90956223815E+02 0.  0.
          3    1    3    3  502    0  0.19911178183E+03 -0.20856961699E+03 -0.67330475998E+03  0.73245210534E+03  0.00000000000E+00 0. -1.
         -4    1    3    3    0  502  0.90880177913E+02 -0.18663021786E+03 -0.53456369147E+03  0.57345303661E+03  0.00000000000E+00 0.  1.
         11    1    5    5    0    0  0.61309661220E+02  0.40889356194E+03 -0.56310868240E+02  0.41728136004E+03  0.00000000000E+00 0.  1.
        -11    1    5    5    0    0 -0.31406778567E+02  0.19283492536E+03 -0.42827531219E+02  0.20001472848E+03  0.00000000000E+00 0. -1.
          1    1    6    6  503    0 -0.61665794754E+01  0.66475341075E+01 -0.48485580246E+01  0.10282262740E+02  0.00000000000E+00 0. -1.
         -1    1    6    6    0  503 -0.31372826292E+03 -0.21317618656E+03  0.11768031852E+03  0.39713746593E+03  0.00000000000E+00 0.  1.
<mgrwt>
<rscale>  0 0.20014345E+04</rscale>
<asrwt>0</asrwt>
<pdfrwt beam="1">  1        1 0.27113816E+00 0.20014345E+04</pdfrwt>
<pdfrwt beam="2">  1       -2 0.87418913E-01 0.20014345E+04</pdfrwt>
<totfact> 0.39766574E+00</totfact>
</mgrwt>
</event>
<event>
12    4  0.4398275E-008  0.1639622E+04  0.7818608E-02  0.8796569E-01
          1   -1    0    0  501    0  0.00000000000E+00  0.00000000000E+00  0.18271106766E+04  0.18271106766E+04  0.00000000000E+00 0. -1.
         -2   -1    0    0    0  501 -0.00000000000E+00 -0.00000000000E+00 -0.36784330773E+03  0.36784330773E+03  0.00000000000E+00 0.  1.
        -24    2    1    2    0    0 -0.53823037654E+03 -0.14906104110E+03  0.59396400788E+03  0.81898395854E+03  0.77655324918E+02 0.  0.
        254    2    1    2    0    0  0.53823037654E+03  0.14906104110E+03  0.86530336104E+03  0.13759700258E+04  0.91248697149E+03 0.  0.
         23    2    4    4    0    0  0.67404216889E+03  0.33307814822E+03  0.83512628244E+03  0.11275206894E+04  0.92698970462E+02 0.  0.
         23    2    4    4    0    0 -0.13581179235E+03 -0.18401710712E+03  0.30177078606E+02  0.24844933644E+03  0.92245748160E+02 0.  0.
          1    1    3    3  502    0 -0.13568335252E+02 -0.78043903938E+01  0.25334372077E+01  0.15856435129E+02  0.00000000000E+00 0. -1.
         -2    1    3    3    0  502 -0.52466204129E+03 -0.14125665071E+03  0.59143057067E+03  0.80312752341E+03  0.00000000000E+00 0.  1.
         11    1    5    5    0    0  0.21135993610E+03  0.79112840076E+02  0.30536958601E+03  0.37971363962E+03  0.00000000000E+00 0.  1.
        -11    1    5    5    0    0  0.46268223279E+03  0.25396530814E+03  0.52975669643E+03  0.74780704977E+03  0.00000000000E+00 0. -1.
          4    1    6    6  503    0 -0.75037465016E+02 -0.80510643684E+02  0.59188472233E+02  0.12496343524E+03  0.00000000000E+00 0. -1.
         -4    1    6    6    0  503 -0.60774327330E+02 -0.10350646343E+03 -0.29011393628E+02  0.12348590120E+03  0.00000000000E+00 0.  1.
<mgrwt>
<rscale>  0 0.16396224E+04</rscale>
<asrwt>0</asrwt>
<pdfrwt beam="1">  1        1 0.28109394E+00 0.16396224E+04</pdfrwt>
<pdfrwt beam="2">  1       -2 0.56591279E-01 0.16396224E+04</pdfrwt>
<totfact> 0.96042132E+00</totfact>
</mgrwt>
</event>
<event>
12    4  0.4398275E-008  0.1398550E+04  0.7818608E-02  0.8954869E-01
          1   -1    0    0  501    0  0.00000000000E+00  0.00000000000E+00  0.82579991849E+03  0.82579991849E+03  0.00000000000E+00 0. -1.
         -2   -1    0    0    0  501 -0.00000000000E+00 -0.00000000000E+00 -0.59213548678E+03  0.59213548678E+03  0.00000000000E+00 0.  1.
        -24    2    1    2    0    0 -0.26653555136E+03 -0.23643917618E+03 -0.12643003668E+03  0.38748263195E+03  0.84932630446E+02 0.  0.
        254    2    1    2    0    0  0.26653555136E+03  0.23643917618E+03  0.36009446839E+03  0.10304527733E+04  0.89734063082E+03 0.  0.
         23    2    4    4    0    0  0.13906284542E+03  0.57080109324E+03  0.24741283404E+03  0.64448464552E+03  0.94841893901E+02 0.  0.
         23    2    4    4    0    0  0.12747270594E+03 -0.33436191706E+03  0.11268163435E+03  0.38596812780E+03  0.90703156622E+02 0.  0.
          3    1    3    3  502    0 -0.19379908133E+03 -0.14739118865E+03 -0.47635022598E+02  0.24809542880E+03  0.00000000000E+00 0. -1.
         -4    1    3    3    0  502 -0.72736470034E+02 -0.89047987538E+02 -0.78795014084E+02  0.13938720315E+03  0.00000000000E+00 0.  1.
         11    1    5    5    0    0 -0.67931459938E+01  0.10140293275E+02 -0.41624548305E+01  0.12895674097E+02  0.00000000000E+00 0. -1.
        -11    1    5    5    0    0  0.14585599142E+03  0.56066079997E+03  0.25157528887E+03  0.63158897142E+03  0.00000000000E+00 0.  1.
          1    1    6    6  503    0  0.24519651448E+02 -0.42613296097E+02 -0.14812370997E+02  0.51346982832E+02  0.00000000000E+00 0. -1.
         -1    1    6    6    0  503  0.10295305449E+03 -0.29174862096E+03  0.12749400535E+03  0.33462114497E+03  0.00000000000E+00 0.  1.
<mgrwt>
<rscale>  0 0.13985499E+04</rscale>
<asrwt>0</asrwt>
<pdfrwt beam="1">  1        1 0.12704614E+00 0.13985499E+04</pdfrwt>
<pdfrwt beam="2">  1       -2 0.91097767E-01 0.13985499E+04</pdfrwt>
<totfact> 0.18440027E+01</totfact>
</mgrwt>
</event>
<event>
12    4  0.4398275E-008  0.1781737E+04  0.7818608E-02  0.8716072E-01
         -2   -1    0    0    0  501 -0.00000000000E+00  0.00000000000E+00  0.38832260846E+03  0.38832260846E+03  0.00000000000E+00 0.  1.
          1   -1    0    0  501    0  0.00000000000E+00 -0.00000000000E+00 -0.20437824352E+04  0.20437824352E+04  0.00000000000E+00 0. -1.
        -24    2    1    2    0    0  0.28112670526E+03  0.56132932408E+03 -0.32104190413E+03  0.70906920692E+03  0.74755611911E+02 0.  0.
        254    2    1    2    0    0 -0.28112670526E+03 -0.56132932408E+03 -0.13344179226E+04  0.17230358367E+04  0.89109958367E+03 0.  0.
         23    2    4    4    0    0 -0.57601355581E+03 -0.21236084157E+03 -0.69273471385E+03  0.93010502745E+03  0.91242724737E+02 0.  0.
         23    2    4    4    0    0  0.29488685054E+03 -0.34896848251E+03 -0.64168320873E+03  0.79293080926E+03  0.90800173443E+02 0.  0.
          1    1    3    3  502    0  0.12538973006E+03  0.22250087860E+03 -0.92133025483E+02  0.27151007305E+03  0.00000000000E+00 0. -1.
         -2    1    3    3    0  502  0.15573697521E+03  0.33882844548E+03 -0.22890887865E+03  0.43755913387E+03  0.00000000000E+00 0.  1.
         11    1    5    5    0    0 -0.11625321450E+03 -0.76347897421E+02 -0.18915509391E+03  0.23478385991E+03  0.00000000000E+00 0.  1.
        -11    1    5    5    0    0 -0.45976034131E+03 -0.13601294415E+03 -0.50357961993E+03  0.69532116754E+03  0.00000000000E+00 0. -1.
          3    1    6    6  503    0  0.29709278502E+03 -0.35129347378E+03 -0.62576791474E+03  0.77669602210E+03  0.00000000000E+00 0. -1.
         -3    1    6    6    0  503 -0.22059344758E+01  0.23249912679E+01 -0.15915293985E+02  0.16234787154E+02  0.00000000000E+00 0.  1.
<mgrwt>
<rscale>  0 0.17817373E+04</rscale>
<asrwt>0</asrwt>
<pdfrwt beam="1">  1        1 0.31442806E+00 0.17817373E+04</pdfrwt>
<pdfrwt beam="2">  1       -2 0.59741940E-01 0.17817373E+04</pdfrwt>
<totfact> 0.60370156E+00</totfact>
</mgrwt>
</event>
<event>
12    4  0.4398275E-008  0.1239896E+04  0.7818608E-02  0.9078635E-01
          1   -1    0    0  501    0  0.00000000000E+00  0.00000000000E+00  0.24876120788E+03  0.24876120788E+03  0.00000000000E+00 0. -1.
         -2   -1    0    0    0  501 -0.00000000000E+00 -0.00000000000E+00 -0.15449971237E+04  0.15449971237E+04  0.00000000000E+00 0.  1.
        -24    2    1    2    0    0 -0.11307422437E+03  0.73156128691E+02 -0.70590502977E+03  0.72344963327E+03  0.83305830713E+02 0.  0.
        254    2    1    2    0    0  0.11307422437E+03 -0.73156128691E+02 -0.59033088599E+03  0.10703086983E+04  0.88257155815E+03 0.  0.
         23    2    4    4    0    0 -0.24043933568E+03  0.15094813325E+03  0.47905332238E+02  0.30164464105E+03  0.89989752440E+02 0.  0.
         23    2    4    4    0    0  0.35351356005E+03 -0.22410426194E+03 -0.63823621823E+03  0.76866405722E+03  0.91128509408E+02 0.  0.
          1    1    3    3  502    0 -0.84095940715E+00  0.61763447962E+01 -0.22539786865E+03  0.22548404298E+03  0.00000000000E+00 0. -1.
         -2    1    3    3    0  502 -0.11223326497E+03  0.66979783895E+02 -0.48050716112E+03  0.49796559028E+03  0.00000000000E+00 0.  1.
         11    1    5    5    0    0 -0.22485220712E+03  0.16207078699E+03  0.52134476718E+02  0.28203449914E+03  0.00000000000E+00 0.  1.
        -11    1    5    5    0    0 -0.15587128563E+02 -0.11122653735E+02 -0.42291444801E+01  0.19610141916E+02  0.00000000000E+00 0. -1.
          1    1    6    6  503    0  0.98135008631E+02 -0.31176986601E+02 -0.10726415580E+03  0.14868787285E+03  0.00000000000E+00 0. -1.
         -1    1    6    6    0  503  0.25537855142E+03 -0.19292727534E+03 -0.53097206244E+03  0.61997618437E+03  0.00000000000E+00 0.  1.
<mgrwt>
<rscale>  0 0.12398957E+04</rscale>
<asrwt>0</asrwt>
<pdfrwt beam="1">  1        1 0.38270956E-01 0.12398957E+04</pdfrwt>
<pdfrwt beam="2">  1       -2 0.23769186E+00 0.12398957E+04</pdfrwt>
<totfact> 0.73867377E+00</totfact>
</mgrwt>
</event>
<event>
12    4  0.4398275E-008  0.1159407E+04  0.7818608E-02  0.9149149E-01
         -2   -1    0    0    0  501 -0.00000000000E+00  0.00000000000E+00  0.61447121425E+03  0.61447121425E+03  0.00000000000E+00 0.  1.
          1   -1    0    0  501    0  0.00000000000E+00 -0.00000000000E+00 -0.54690307825E+03  0.54690307825E+03  0.00000000000E+00 0. -1.
        -24    2    1    2    0    0 -0.11935489187E+03  0.18322657528E+02  0.85215865042E+02  0.16837930570E+03  0.80675503969E+02 0.  0.
        254    2    1    2    0    0  0.11935489187E+03 -0.18322657528E+02 -0.17647729037E+02  0.99299498680E+03  0.98546754969E+03 0.  0.
         23    2    4    4    0    0 -0.14787417440E+03  0.37238539117E+03 -0.22528329692E+03  0.46822432567E+03  0.89128021770E+02 0.  0.
         23    2    4    4    0    0  0.26722906626E+03 -0.39070804870E+03  0.20763556788E+03  0.52477066114E+03  0.90595610067E+02 0.  0.
          1    1    3    3  502    0 -0.94526892963E+02  0.29240177477E+02  0.24579219237E+02  0.10195322207E+03  0.00000000000E+00 0. -1.
         -2    1    3    3    0  502 -0.24827998902E+02 -0.10917519949E+02  0.60636645806E+02  0.66426083626E+02  0.00000000000E+00 0.  1.
         11    1    5    5    0    0 -0.15001928463E+03  0.31995750599E+03 -0.17049029168E+03  0.39235893128E+03  0.00000000000E+00 0.  1.
        -11    1    5    5    0    0  0.21451102263E+01  0.52427885185E+02 -0.54793005238E+02  0.75865394389E+02  0.00000000000E+00 0. -1.
          2    1    6    6  503    0  0.61992588023E+01 -0.61402913137E+02  0.28125158901E+02  0.67821627190E+02  0.00000000000E+00 0. -1.
         -2    1    6    6    0  503  0.26102980746E+03 -0.32930513556E+03  0.17951040898E+03  0.45694903395E+03  0.00000000000E+00 0.  1.
<mgrwt>
<rscale>  0 0.11594071E+04</rscale>
<asrwt>0</asrwt>
<pdfrwt beam="1">  1        1 0.84138936E-01 0.11594071E+04</pdfrwt>
<pdfrwt beam="2">  1       -2 0.94534032E-01 0.11594071E+04</pdfrwt>
<totfact> 0.32016807E+01</totfact>
</mgrwt>
</event>
<event>
12    4  0.4398275E-008  0.2511646E+04  0.7818608E-02  0.8398848E-01
         -2   -1    0    0    0  501 -0.00000000000E+00  0.00000000000E+00  0.10603920590E+04  0.10603920590E+04  0.00000000000E+00 0.  1.
          1   -1    0    0  501    0  0.00000000000E+00 -0.00000000000E+00 -0.14872724585E+04  0.14872724585E+04  0.00000000000E+00 0. -1.
        -24    2    1    2    0    0 -0.84806316547E+03  0.25371306634E+03  0.46538613422E+03  0.10054523603E+04  0.10377255088E+03 0.  0.
        254    2    1    2    0    0  0.84806316547E+03 -0.25371306634E+03 -0.89226653370E+03  0.15422121572E+04  0.89369867291E+03 0.  0.
         23    2    4    4    0    0 -0.85591566669E+01  0.23633593736E+02  0.14023359485E+03  0.16916686146E+03  0.91214910931E+02 0.  0.
         23    2    4    4    0    0  0.85662232214E+03 -0.27734666007E+03 -0.10325001285E+04  0.13730452957E+04  0.92053767028E+02 0.  0.
          3    1    3    3  502    0 -0.46224017821E+02  0.40175557038E+02  0.37930202432E+02  0.72037736385E+02  0.00000000000E+00 0. -1.
         -4    1    3    3    0  502 -0.80183914765E+03  0.21353750930E+03  0.42745593178E+03  0.93341462395E+03  0.00000000000E+00 0.  1.
         11    1    5    5    0    0  0.15097926681E+02 -0.13354954302E+01  0.13319886462E+03  0.13405845170E+03  0.00000000000E+00 0.  1.
        -11    1    5    5    0    0 -0.23657083348E+02  0.24969089166E+02  0.70347302364E+01  0.35108409759E+02  0.00000000000E+00 0. -1.
          3    1    6    6  503    0  0.71584704119E+03 -0.21510552953E+03 -0.90027083194E+03  0.11701260385E+04  0.00000000000E+00 0. -1.
         -3    1    6    6    0  503  0.14077528095E+03 -0.62241130548E+02 -0.13222929661E+03  0.20291925719E+03  0.00000000000E+00 0.  1.
<mgrwt>
<rscale>  0 0.25116464E+04</rscale>
<asrwt>0</asrwt>
<pdfrwt beam="1">  1        1 0.22881115E+00 0.25116464E+04</pdfrwt>
<pdfrwt beam="2">  1       -2 0.16313724E+00 0.25116464E+04</pdfrwt>
<totfact> 0.12427616E+00</totfact>
</mgrwt>
</event>
<event>
12    4  0.4398275E-008  0.1557785E+04  0.7818608E-02  0.8846911E-01
          1   -1    0    0  501    0  0.00000000000E+00  0.00000000000E+00  0.95469017086E+03  0.95469017086E+03  0.00000000000E+00 0. -1.
         -2   -1    0    0    0  501 -0.00000000000E+00 -0.00000000000E+00 -0.63546615505E+03  0.63546615505E+03  0.00000000000E+00 0.  1.
        -24    2    1    2    0    0 -0.42672114862E+03 -0.26916149528E+03  0.21176064638E+03  0.55314684290E+03  0.81178871827E+02 0.  0.
        254    2    1    2    0    0  0.42672114862E+03  0.26916149528E+03  0.10746336942E+03  0.10370094830E+04  0.89961182898E+03 0.  0.
         23    2    4    4    0    0  0.25967192424E+03  0.58886063342E+03  0.13431034225E+03  0.66392847887E+03  0.92603472871E+02 0.  0.
         23    2    4    4    0    0  0.16704922438E+03 -0.31969913814E+03 -0.26846972832E+02  0.37308100413E+03  0.91409481998E+02 0.  0.
          3    1    3    3  502    0 -0.26286403057E+03 -0.20157306092E+03  0.11155723786E+03  0.34953428269E+03  0.00000000000E+00 0. -1.
         -4    1    3    3    0  502 -0.16385711806E+03 -0.67588434361E+02  0.10020340853E+03  0.20361256022E+03  0.00000000000E+00 0.  1.
         11    1    5    5    0    0  0.51801282322E+02  0.21722445227E+03  0.28229417073E+02  0.22509272645E+03  0.00000000000E+00 0.  1.
        -11    1    5    5    0    0  0.20787064192E+03  0.37163618115E+03  0.10608092518E+03  0.43883575242E+03  0.00000000000E+00 0. -1.
          3    1    6    6  503    0  0.54359327385E+02 -0.11460993646E+03 -0.53279681288E+02  0.13758306018E+03  0.00000000000E+00 0. -1.
         -3    1    6    6    0  503  0.11268989700E+03 -0.20508920168E+03  0.26432708456E+02  0.23549794395E+03  0.00000000000E+00 0.  1.
<mgrwt>
<rscale>  0 0.15577847E+04</rscale>
<asrwt>0</asrwt>
<pdfrwt beam="1">  1        1 0.14687541E+00 0.15577847E+04</pdfrwt>
<pdfrwt beam="2">  1       -2 0.97764024E-01 0.15577847E+04</pdfrwt>
<totfact> 0.12084024E+01</totfact>
</mgrwt>
</event>
<event>
12    4  0.4398275E-008  0.1818544E+04  0.7818608E-02  0.8696500E-01
          1   -1    0    0  501    0  0.00000000000E+00  0.00000000000E+00  0.13229151803E+04  0.13229151803E+04  0.00000000000E+00 0. -1.
         -2   -1    0    0    0  501 -0.00000000000E+00 -0.00000000000E+00 -0.62496494519E+03  0.62496494519E+03  0.00000000000E+00 0.  1.
        -24    2    1    2    0    0 -0.19971822731E+02 -0.27927205215E+03 -0.41884674463E+03  0.51015674018E+03  0.80221887614E+02 0.  0.
        254    2    1    2    0    0  0.19971822731E+02  0.27927205215E+03  0.11167969797E+04  0.14377233853E+04  0.86105823607E+03 0.  0.
         23    2    4    4    0    0 -0.28385075646E+03  0.35695958371E+03  0.97836161000E+03  0.10833189613E+04  0.91635885921E+02 0.  0.
         23    2    4    4    0    0  0.30382257919E+03 -0.77687531562E+02  0.13843536975E+03  0.35440442405E+03  0.89970172845E+02 0.  0.
          1    1    3    3  502    0  0.18570565218E+02 -0.14872645969E+03 -0.26731813924E+03  0.30646926970E+03  0.00000000000E+00 0. -1.
         -2    1    3    3    0  502 -0.38542387950E+02 -0.13054559246E+03 -0.15152860538E+03  0.20368747048E+03  0.00000000000E+00 0.  1.
         11    1    5    5    0    0 -0.60121307350E+02  0.14499468907E+03  0.32590048478E+03  0.36173078033E+03  0.00000000000E+00 0.  1.
        -11    1    5    5    0    0 -0.22372944911E+03  0.21196489464E+03  0.65246112522E+03  0.72158818095E+03  0.00000000000E+00 0. -1.
          1    1    6    6  503    0  0.29421263457E+03 -0.64475808581E+02  0.10820396733E+03  0.32004109545E+03  0.00000000000E+00 0. -1.
         -1    1    6    6    0  503  0.96099446169E+01 -0.13211722981E+02  0.30231402421E+02  0.34363328593E+02  0.00000000000E+00 0.  1.
<mgrwt>
<rscale>  0 0.18185440E+04</rscale>
<asrwt>0</asrwt>
<pdfrwt beam="1">  1        1 0.20352541E+00 0.18185440E+04</pdfrwt>
<pdfrwt beam="2">  1       -2 0.96148453E-01 0.18185440E+04</pdfrwt>
<totfact> 0.65246631E+00</totfact>
</mgrwt>
</event>
<event>
12    4  0.4398275E-008  0.1510666E+04  0.7818608E-02  0.8877391E-01
         -2   -1    0    0    0  501 -0.00000000000E+00  0.00000000000E+00  0.10269373021E+04  0.10269373021E+04  0.00000000000E+00 0.  1.
          1   -1    0    0  501    0  0.00000000000E+00 -0.00000000000E+00 -0.55556235999E+03  0.55556235999E+03  0.00000000000E+00 0. -1.
        -24    2    1    2    0    0 -0.15171353672E+02  0.24552982148E+03  0.61086998997E+03  0.66332081775E+03  0.79481440614E+02 0.  0.
        254    2    1    2    0    0  0.15171353672E+02 -0.24552982148E+03 -0.13949504782E+03  0.91917884438E+03  0.87459465833E+03 0.  0.
         23    2    4    4    0    0  0.16237488677E+02 -0.49571830492E+03  0.14923770385E+03  0.52621836851E+03  0.92917087990E+02 0.  0.
         23    2    4    4    0    0 -0.10661350053E+01  0.25018848344E+03 -0.28873275167E+03  0.39296047587E+03  0.91956075461E+02 0.  0.
          3    1    3    3  502    0  0.22482042298E+02  0.23108808443E+02  0.61502091046E+02  0.69440380591E+02  0.00000000000E+00 0. -1.
         -4    1    3    3    0  502 -0.37653395971E+02  0.22242101303E+03  0.54936789893E+03  0.59388043716E+03  0.00000000000E+00 0.  1.
         11    1    5    5    0    0  0.50247443822E+02 -0.35450695474E+03  0.88804628593E+02  0.36889869697E+03  0.00000000000E+00 0.  1.
        -11    1    5    5    0    0 -0.34009955145E+02 -0.14121135018E+03  0.60433075256E+02  0.15731967154E+03  0.00000000000E+00 0. -1.
          1    1    6    6  503    0  0.29858120859E+02  0.40147328231E+02 -0.85483331430E+02  0.99049055007E+02  0.00000000000E+00 0. -1.
         -1    1    6    6    0  503 -0.30924255865E+02  0.21004115521E+03 -0.20324942024E+03  0.29391142086E+03  0.00000000000E+00 0.  1.
<mgrwt>
<rscale>  0 0.15106657E+04</rscale>
<asrwt>0</asrwt>
<pdfrwt beam="1">  1        1 0.85471133E-01 0.15106657E+04</pdfrwt>
<pdfrwt beam="2">  1       -2 0.15799035E+00 0.15106657E+04</pdfrwt>
<totfact> 0.84234214E+00</totfact>
</mgrwt>
</event>
<event>
12    4  0.4398275E-008  0.1976717E+04  0.7818608E-02  0.8617584E-01
         -2   -1    0    0    0  501 -0.00000000000E+00  0.00000000000E+00  0.62305456605E+03  0.62305456605E+03  0.00000000000E+00 0.  1.
          1   -1    0    0  501    0  0.00000000000E+00 -0.00000000000E+00 -0.15678434858E+04  0.15678434858E+04  0.00000000000E+00 0. -1.
        -24    2    1    2    0    0 -0.38899557917E+03 -0.18552236425E+03  0.34410222393E+03  0.55715611742E+03  0.79249545246E+02 0.  0.
        254    2    1    2    0    0  0.38899557917E+03  0.18552236425E+03 -0.12888911436E+04  0.16337419344E+04  0.90671727665E+03 0.  0.
         23    2    4    4    0    0  0.49355459848E+02  0.79632571385E+02  0.12008861372E+03  0.17765162262E+03  0.91441325625E+02 0.  0.
         23    2    4    4    0    0  0.33964011932E+03  0.10588979286E+03 -0.14089797574E+04  0.14560903118E+04  0.91689587647E+02 0.  0.
          3    1    3    3  502    0 -0.17278755306E+02  0.12017741878E+01  0.34512083432E+02  0.38614551000E+02  0.00000000000E+00 0. -1.
         -4    1    3    3    0  502 -0.37171682386E+03 -0.18672413844E+03  0.30959014050E+03  0.51854156642E+03  0.00000000000E+00 0.  1.
         11    1    5    5    0    0  0.53754243253E+02  0.97989664569E+02  0.98516920052E+02  0.14898683353E+03  0.00000000000E+00 0. -1.
        -11    1    5    5    0    0 -0.43987834048E+01 -0.18357093184E+02  0.21571693669E+02  0.28664789087E+02  0.00000000000E+00 0.  1.
          3    1    6    6  503    0  0.23365050725E+03  0.10309191228E+03 -0.11057518476E+04  0.11348601898E+04  0.00000000000E+00 0. -1.
         -3    1    6    6    0  503  0.10598961207E+03  0.27978805850E+01 -0.30322790978E+03  0.32123012199E+03  0.00000000000E+00 0.  1.
<mgrwt>
<rscale>  0 0.19767165E+04</rscale>
<asrwt>0</asrwt>
<pdfrwt beam="1">  1        1 0.24120669E+00 0.19767165E+04</pdfrwt>
<pdfrwt beam="2">  1       -2 0.95854550E-01 0.19767165E+04</pdfrwt>
<totfact> 0.43725009E+00</totfact>
</mgrwt>
</event>
<event>
12    4  0.4398275E-008  0.1513519E+04  0.7818608E-02  0.8875512E-01
          1   -1    0    0  501    0  0.00000000000E+00  0.00000000000E+00  0.13866979867E+04  0.13866979867E+04  0.00000000000E+00 0. -1.
         -2   -1    0    0    0  501 -0.00000000000E+00 -0.00000000000E+00 -0.41298454225E+03  0.41298454225E+03  0.00000000000E+00 0.  1.
        -24    2    1    2    0    0  0.36507085282E+03 -0.10817689878E+02 -0.68225885618E+02  0.38009444965E+03  0.80145300544E+02 0.  0.
        254    2    1    2    0    0 -0.36507085282E+03  0.10817689878E+02  0.10419393301E+04  0.14195880793E+04  0.89229983601E+03 0.  0.
         23    2    4    4    0    0 -0.30452883534E+03 -0.23358615168E+02  0.11899359154E+04  0.12319345550E+04  0.91824988416E+02 0.  0.
         23    2    4    4    0    0 -0.60542017478E+02  0.34176305045E+02 -0.14799658535E+03  0.18765352431E+03  0.92073341437E+02 0.  0.
          3    1    3    3  502    0  0.67217522660E+02 -0.32884105649E+02 -0.64902713655E+01  0.75111140180E+02  0.00000000000E+00 0. -1.
         -4    1    3    3    0  502  0.29785333016E+03  0.22066415771E+02 -0.61735614253E+02  0.30498330947E+03  0.00000000000E+00 0.  1.
         11    1    5    5    0    0 -0.10944652201E+03 -0.17746381335E+02  0.61126396929E+03  0.62123837244E+03  0.00000000000E+00 0. -1.
        -11    1    5    5    0    0 -0.19508231333E+03 -0.56122338326E+01  0.57867194613E+03  0.61069618255E+03  0.00000000000E+00 0.  1.
          3    1    6    6  503    0 -0.79266386369E+02  0.16265066366E+02 -0.75519662016E+02  0.11068392721E+03  0.00000000000E+00 0. -1.
         -3    1    6    6    0  503  0.18724368891E+02  0.17911238679E+02 -0.72476923337E+02  0.76969597100E+02  0.00000000000E+00 0.  1.
<mgrwt>
<rscale>  0 0.15135189E+04</rscale>
<asrwt>0</asrwt>
<pdfrwt beam="1">  1        1 0.21333815E+00 0.15135189E+04</pdfrwt>
<pdfrwt beam="2">  1       -2 0.63536084E-01 0.15135189E+04</pdfrwt>
<totfact> 0.15257174E+01</totfact>
</mgrwt>
</event>
<event>
12    4  0.4398275E-008  0.1659114E+04  0.7818608E-02  0.8785033E-01
          1   -1    0    0  501    0  0.00000000000E+00  0.00000000000E+00  0.44754291388E+03  0.44754291388E+03  0.00000000000E+00 0. -1.
         -2   -1    0    0    0  501 -0.00000000000E+00 -0.00000000000E+00 -0.15376505484E+04  0.15376505484E+04  0.00000000000E+00 0.  1.
        -24    2    1    2    0    0 -0.34696134360E+03 -0.49085956132E+03 -0.48052126430E+03  0.77372587677E+03  0.80160863570E+02 0.  0.
        254    2    1    2    0    0  0.34696134360E+03  0.49085956132E+03 -0.60958637026E+03  0.12114675855E+04  0.85716561125E+03 0.  0.
         23    2    4    4    0    0  0.53248091112E+03  0.34732755900E+03 -0.10994574799E+03  0.65192034555E+03  0.93486445494E+02 0.  0.
         23    2    4    4    0    0 -0.18551956751E+03  0.14353200232E+03 -0.49964062227E+03  0.55954723999E+03  0.91833636220E+02 0.  0.
          3    1    3    3  502    0 -0.88545294761E+01 -0.45038919297E+02 -0.25321827148E+02  0.52422341361E+02  0.00000000000E+00 0. -1.
         -4    1    3    3    0  502 -0.33810681413E+03 -0.44582064202E+03 -0.45519943715E+03  0.72130353541E+03  0.00000000000E+00 0.  1.
         11    1    5    5    0    0  0.39394290192E+03  0.30342634442E+03 -0.86017108985E+02  0.50463600694E+03  0.00000000000E+00 0. -1.
        -11    1    5    5    0    0  0.13853800920E+03  0.43901214575E+02 -0.23928639004E+02  0.14728433860E+03  0.00000000000E+00 0.  1.
          3    1    6    6  503    0 -0.14371688244E+03  0.10198340068E+03 -0.44715120701E+03  0.48062392600E+03  0.00000000000E+00 0. -1.
         -3    1    6    6    0  503 -0.41802685069E+02  0.41548601637E+02 -0.52489415256E+02  0.78923313989E+02  0.00000000000E+00 0.  1.
<mgrwt>
<rscale>  0 0.16591137E+04</rscale>
<asrwt>0</asrwt>
<pdfrwt beam="1">  1        1 0.68852757E-01 0.16591137E+04</pdfrwt>
<pdfrwt beam="2">  1       -2 0.23656162E+00 0.16591137E+04</pdfrwt>
<totfact> 0.33509730E+00</totfact>
</mgrwt>
</event>
<event>
12    4  0.4398275E-008  0.1761704E+04  0.7818608E-02  0.8726934E-01
         -2   -1    0    0    0  501 -0.00000000000E+00  0.00000000000E+00  0.38048626211E+03  0.38048626211E+03  0.00000000000E+00 0.  1.
          1   -1    0    0  501    0  0.00000000000E+00 -0.00000000000E+00 -0.20392325532E+04  0.20392325532E+04  0.00000000000E+00 0. -1.
        -24    2    1    2    0    0 -0.17645726147E+03 -0.51641133157E+03 -0.17948806363E+03  0.58007064594E+03  0.80300440798E+02 0.  0.
        254    2    1    2    0    0  0.17645726147E+03  0.51641133157E+03 -0.14792582275E+04  0.18396481693E+04  0.94777774557E+03 0.  0.
         23    2    4    4    0    0  0.13080542586E+03  0.78062429017E+03 -0.95898242271E+03  0.12467502309E+04  0.90854330271E+02 0.  0.
         23    2    4    4    0    0  0.45651835612E+02 -0.26421295859E+03 -0.52027580474E+03  0.59289793846E+03  0.94596378600E+02 0.  0.
          1    1    3    3  502    0 -0.26110232055E+02 -0.91994379650E+02 -0.64540409152E+02  0.11536972965E+03  0.00000000000E+00 0. -1.
         -2    1    3    3    0  502 -0.15034702942E+03 -0.42441695193E+03 -0.11494765448E+03  0.46470091629E+03  0.00000000000E+00 0.  1.
         11    1    5    5    0    0  0.13987175030E+03  0.68445394711E+03 -0.81599943000E+03  0.10741956907E+04  0.00000000000E+00 0. -1.
        -11    1    5    5    0    0 -0.90663244367E+01  0.96170343054E+02 -0.14298299271E+03  0.17255454015E+03  0.00000000000E+00 0.  1.
          1    1    6    6  503    0  0.43573214507E+02 -0.25254995909E+03 -0.52141780373E+03  0.58099624173E+03  0.00000000000E+00 0. -1.
         -1    1    6    6    0  503  0.20786211052E+01 -0.11662999507E+02  0.11419989935E+01  0.11901696724E+02  0.00000000000E+00 0.  1.
<mgrwt>
<rscale>  0 0.17617037E+04</rscale>
<asrwt>0</asrwt>
<pdfrwt beam="1">  1        1 0.31372809E+00 0.17617037E+04</pdfrwt>
<pdfrwt beam="2">  1       -2 0.58536348E-01 0.17617037E+04</pdfrwt>
<totfact> 0.63583229E+00</totfact>
</mgrwt>
</event>
<event>
12    4  0.4398275E-008  0.1486452E+04  0.7818608E-02  0.8893512E-01
          1   -1    0    0  501    0  0.00000000000E+00  0.00000000000E+00  0.59433959291E+03  0.59433959291E+03  0.00000000000E+00 0. -1.
         -2   -1    0    0    0  501 -0.00000000000E+00 -0.00000000000E+00 -0.92941000842E+03  0.92941000842E+03  0.00000000000E+00 0.  1.
        -24    2    1    2    0    0  0.24585354675E+03 -0.21457534112E+03 -0.45417005099E+03  0.56512828176E+03  0.81320330537E+02 0.  0.
        254    2    1    2    0    0 -0.24585354675E+03  0.21457534112E+03  0.11909963548E+03  0.95862131957E+03  0.89346716095E+03 0.  0.
         23    2    4    4    0    0 -0.52373061561E+03  0.28809390406E+03  0.21420790943E+03  0.64195139145E+03  0.94470658067E+02 0.  0.
         23    2    4    4    0    0  0.27787706887E+03 -0.73518562932E+02 -0.95108273950E+02  0.31666992813E+03  0.92809563668E+02 0.  0.
          3    1    3    3  502    0  0.52405525683E+02 -0.27314156398E+02 -0.40812308156E+02  0.71819543015E+02  0.00000000000E+00 0. -1.
         -4    1    3    3    0  502  0.19344802107E+03 -0.18726118473E+03 -0.41335774283E+03  0.49330873874E+03  0.00000000000E+00 0.  1.
         11    1    5    5    0    0 -0.25615996792E+03  0.12500578342E+03  0.14996740782E+03  0.32207855946E+03  0.00000000000E+00 0.  1.
        -11    1    5    5    0    0 -0.26757064769E+03  0.16308812063E+03  0.64240501607E+02  0.31987283199E+03  0.00000000000E+00 0. -1.
          3    1    6    6  503    0  0.27016696438E+03 -0.67921762492E+02 -0.66338996947E+02  0.28636413354E+03  0.00000000000E+00 0. -1.
         -3    1    6    6    0  503  0.77101044899E+01 -0.55968004404E+01 -0.28769277003E+02  0.30305794589E+02  0.00000000000E+00 0.  1.
<mgrwt>
<rscale>  0 0.14864524E+04</rscale>
<asrwt>0</asrwt>
<pdfrwt beam="1">  1        1 0.91436861E-01 0.14864524E+04</pdfrwt>
<pdfrwt beam="2">  1       -2 0.14298615E+00 0.14864524E+04</pdfrwt>
<totfact> 0.99956213E+00</totfact>
</mgrwt>
</event>
<event>
12    4  0.4398275E-008  0.1680260E+04  0.7818608E-02  0.8772704E-01
         -2   -1    0    0    0  501 -0.00000000000E+00  0.00000000000E+00  0.30038501547E+03  0.30038501547E+03  0.00000000000E+00 0.  1.
          1   -1    0    0  501    0  0.00000000000E+00 -0.00000000000E+00 -0.23497116687E+04  0.23497116687E+04  0.00000000000E+00 0. -1.
        -24    2    1    2    0    0  0.57277716224E+03  0.91460907989E+02 -0.61375119964E+03  0.84821507568E+03  0.79621004012E+02 0.  0.
        254    2    1    2    0    0 -0.57277716224E+03 -0.91460907989E+02 -0.14355754536E+04  0.18018816085E+04  0.92166245059E+03 0.  0.
         23    2    4    4    0    0 -0.44279376509E+03 -0.18914662767E+03 -0.15193410483E+04  0.15964832518E+04  0.92297275526E+02 0.  0.
         23    2    4    4    0    0 -0.12998339715E+03  0.97685719682E+02  0.83765594675E+02  0.20539835673E+03  0.93453874884E+02 0.  0.
          1    1    3    3  502    0  0.53629626646E+03  0.67546039897E+02 -0.58178965462E+03  0.79413812096E+03  0.00000000000E+00 0. -1.
         -2    1    3    3    0  502  0.36480895775E+02  0.23914868092E+02 -0.31961545013E+02  0.54076954722E+02  0.00000000000E+00 0.  1.
         11    1    5    5    0    0 -0.58788411356E+02 -0.58683873145E+02 -0.31075532600E+03  0.32166558243E+03  0.00000000000E+00 0. -1.
        -11    1    5    5    0    0 -0.38400535373E+03 -0.13046275453E+03 -0.12085857223E+04  0.12748176694E+04  0.00000000000E+00 0.  1.
          1    1    6    6  503    0 -0.49590410822E+02 -0.10957724812E+02  0.35163512080E+02  0.61771782882E+02  0.00000000000E+00 0. -1.
         -1    1    6    6    0  503 -0.80392986329E+02  0.10864344449E+03  0.48602082595E+02  0.14362657385E+03  0.00000000000E+00 0.  1.
<mgrwt>
<rscale>  0 0.16802597E+04</rscale>
<asrwt>0</asrwt>
<pdfrwt beam="1">  1        1 0.36149411E+00 0.16802597E+04</pdfrwt>
<pdfrwt beam="2">  1       -2 0.46213078E-01 0.16802597E+04</pdfrwt>
<totfact> 0.64006325E+00</totfact>
</mgrwt>
</event>
<event>
12    4  0.4398275E-008  0.1125004E+04  0.7818608E-02  0.9181158E-01
         -2   -1    0    0    0  501 -0.00000000000E+00  0.00000000000E+00  0.19755619162E+03  0.19755619162E+03  0.00000000000E+00 0.  1.
          1   -1    0    0  501    0  0.00000000000E+00 -0.00000000000E+00 -0.16016135765E+04  0.16016135765E+04  0.00000000000E+00 0. -1.
        -24    2    1    2    0    0 -0.26888833531E+02  0.95302686144E+02  0.41094780711E+01  0.12653117261E+03  0.78661543825E+02 0.  0.
        254    2    1    2    0    0  0.26888833531E+02 -0.95302686144E+02 -0.14081668629E+04  0.16726385955E+04  0.89720696936E+03 0.  0.
         23    2    4    4    0    0  0.38765723942E+02 -0.23466294328E+03  0.48249656079E-01  0.25465720009E+03  0.90998950128E+02 0.  0.
         23    2    4    4    0    0 -0.11876890411E+02  0.13936025714E+03 -0.14082151126E+04  0.14179813954E+04  0.89660986911E+02 0.  0.
          3    1    3    3  502    0 -0.51723020241E+00  0.39497072098E+02 -0.35568844751E+02  0.53154764117E+02  0.00000000000E+00 0. -1.
         -4    1    3    3    0  502 -0.26371603329E+02  0.55805614047E+02  0.39678322823E+02  0.73376408493E+02  0.00000000000E+00 0.  1.
         11    1    5    5    0    0  0.46085363483E+02 -0.20248862440E+03 -0.30252458777E+02  0.20985879777E+03  0.00000000000E+00 0.  1.
        -11    1    5    5    0    0 -0.73196395410E+01 -0.32174318881E+02  0.30300708433E+02  0.44798402315E+02  0.00000000000E+00 0. -1.
          3    1    6    6  503    0  0.25976254395E+02  0.24797452515E+02 -0.56963453565E+03  0.57076543663E+03  0.00000000000E+00 0. -1.
         -3    1    6    6    0  503 -0.37853144805E+02  0.11456280462E+03 -0.83858057693E+03  0.84721595876E+03  0.00000000000E+00 0.  1.
<mgrwt>
<rscale>  0 0.11250043E+04</rscale>
<asrwt>0</asrwt>
<pdfrwt beam="1">  1        1 0.24640208E+00 0.11250043E+04</pdfrwt>
<pdfrwt beam="2">  1       -2 0.30393262E-01 0.11250043E+04</pdfrwt>
<totfact> 0.48641175E+01</totfact>
</mgrwt>
</event>
<event>
12    4  0.4398275E-008  0.1598196E+04  0.7818608E-02  0.8821657E-01
          1   -1    0    0  501    0  0.00000000000E+00  0.00000000000E+00  0.17605154224E+04  0.17605154224E+04  0.00000000000E+00 0. -1.
         -2   -1    0    0    0  501 -0.00000000000E+00 -0.00000000000E+00 -0.36271042327E+03  0.36271042327E+03  0.00000000000E+00 0.  1.
        -24    2    1    2    0    0  0.30471345739E+03 -0.42132757598E+03  0.27461410714E+03  0.59461024858E+03  0.88211237812E+02 0.  0.
        254    2    1    2    0    0 -0.30471345739E+03  0.42132757598E+03  0.11231908920E+04  0.15286155971E+04  0.89707337849E+03 0.  0.
         23    2    4    4    0    0 -0.21865300218E+02  0.45005562605E+03  0.11087807824E+03  0.47324489945E+03  0.92944223759E+02 0.  0.
         23    2    4    4    0    0 -0.28284815717E+03 -0.28728050070E+02  0.10123128137E+04  0.10553706976E+04  0.90563213706E+02 0.  0.
          1    1    3    3  502    0  0.17865549576E+03 -0.30951686291E+03  0.20740289911E+03  0.41320023857E+03  0.00000000000E+00 0. -1.
         -2    1    3    3    0  502  0.12605796163E+03 -0.11181071307E+03  0.67211208027E+02  0.18141001001E+03  0.00000000000E+00 0.  1.
         11    1    5    5    0    0  0.90965422457E+01  0.14001217748E+03 -0.60608649284E+01  0.14043821064E+03  0.00000000000E+00 0. -1.
        -11    1    5    5    0    0 -0.30961842464E+02  0.31004344857E+03  0.11693894317E+03  0.33280668882E+03  0.00000000000E+00 0.  1.
          2    1    6    6  503    0 -0.79898887999E+01  0.75672979082E+00  0.14165309854E+03  0.14188027097E+03  0.00000000000E+00 0. -1.
         -2    1    6    6    0  503 -0.27485826837E+03 -0.29484779861E+02  0.87065971517E+03  0.91349042663E+03  0.00000000000E+00 0.  1.
<mgrwt>
<rscale>  0 0.15981956E+04</rscale>
<asrwt>0</asrwt>
<pdfrwt beam="1">  1        1 0.27084852E+00 0.15981956E+04</pdfrwt>
<pdfrwt beam="2">  1       -2 0.55801604E-01 0.15981956E+04</pdfrwt>
<totfact> 0.11014108E+01</totfact>
</mgrwt>
</event>
<event>
12    4  0.4398275E-008  0.1490801E+04  0.7818608E-02  0.8890593E-01
         -2   -1    0    0    0  501 -0.00000000000E+00  0.00000000000E+00  0.39236322080E+03  0.39236322080E+03  0.00000000000E+00 0.  1.
          1   -1    0    0  501    0  0.00000000000E+00 -0.00000000000E+00 -0.14160900865E+04  0.14160900865E+04  0.00000000000E+00 0. -1.
        -24    2    1    2    0    0  0.14023614777E+03 -0.93090471411E+02  0.20314315022E+03  0.27569253081E+03  0.80045106359E+02 0.  0.
        254    2    1    2    0    0 -0.14023614777E+03  0.93090471411E+02 -0.12268700159E+04  0.15327607765E+04  0.90322397499E+03 0.  0.
         23    2    4    4    0    0 -0.29090262915E+03  0.15343249018E+03 -0.12910158746E+04  0.13353866004E+04  0.91485055770E+02 0.  0.
         23    2    4    4    0    0  0.15066648138E+03 -0.60342018770E+02  0.64145858629E+02  0.19737417612E+03  0.92197214605E+02 0.  0.
          3    1    3    3  502    0 -0.83599566110E+01  0.25610894524E+01  0.45530743363E+01  0.98579176114E+01  0.00000000000E+00 0. -1.
         -4    1    3    3    0  502  0.14859610438E+03 -0.95651560863E+02  0.19859007589E+03  0.26583461320E+03  0.00000000000E+00 0.  1.
         11    1    5    5    0    0 -0.18655001556E+03  0.14253670874E+03 -0.82862344779E+03  0.86124005938E+03  0.00000000000E+00 0. -1.
        -11    1    5    5    0    0 -0.10435261359E+03  0.10895781436E+02 -0.46239242677E+03  0.47414654101E+03  0.00000000000E+00 0.  1.
          4    1    6    6  503    0  0.11334436454E+03  0.63758897271E+00  0.52588614363E+02  0.12495164606E+03  0.00000000000E+00 0. -1.
         -4    1    6    6    0  503  0.37322116840E+02 -0.60979607743E+02  0.11557244266E+02  0.72422530064E+02  0.00000000000E+00 0.  1.
<mgrwt>
<rscale>  0 0.14908007E+04</rscale>
<asrwt>0</asrwt>
<pdfrwt beam="1">  1        1 0.21786002E+00 0.14908007E+04</pdfrwt>
<pdfrwt beam="2">  1       -2 0.60363571E-01 0.14908007E+04</pdfrwt>
<totfact> 0.16256481E+01</totfact>
</mgrwt>
</event>
<event>
12    4  0.4398275E-008  0.1886421E+04  0.7818608E-02  0.8661645E-01
          3   -1    0    0  501    0  0.00000000000E+00  0.00000000000E+00  0.24849765426E+04  0.24849765426E+04  0.00000000000E+00 0. -1.
         -4   -1    0    0    0  501 -0.00000000000E+00 -0.00000000000E+00 -0.35800976613E+03  0.35800976613E+03  0.00000000000E+00 0.  1.
        -24    2    1    2    0    0  0.16198155195E+03 -0.61412750347E+02 -0.23850522196E+03  0.30561540375E+03  0.80662785932E+02 0.  0.
        254    2    1    2    0    0 -0.16198155195E+03  0.61412750347E+02  0.23654719985E+04  0.25373709050E+04  0.90154522073E+03 0.  0.
         23    2    4    4    0    0 -0.17132630809E+03  0.43551321367E+03  0.17297806529E+04  0.17943485831E+04  0.92310712504E+02 0.  0.
         23    2    4    4    0    0  0.93447561424E+01 -0.37410046332E+03  0.63569134561E+03  0.74302232189E+03  0.89107815707E+02 0.  0.
          3    1    3    3  502    0  0.67968062626E+01  0.62384643779E+01 -0.55717717452E+02  0.56476358339E+02  0.00000000000E+00 0. -1.
         -4    1    3    3    0  502  0.15518474568E+03 -0.67651214725E+02 -0.18278750451E+03  0.24913904541E+03  0.00000000000E+00 0.  1.
         11    1    5    5    0    0 -0.15430752065E+03  0.40043145785E+03  0.14598735901E+04  0.15216395968E+04  0.00000000000E+00 0. -1.
        -11    1    5    5    0    0 -0.17018787439E+02  0.35081755822E+02  0.26990706275E+03  0.27270898636E+03  0.00000000000E+00 0.  1.
          1    1    6    6  503    0  0.48151106147E+01 -0.30672528945E+03  0.44302009614E+03  0.53886027323E+03  0.00000000000E+00 0. -1.
         -1    1    6    6    0  503  0.45296455277E+01 -0.67375173876E+02  0.19267124947E+03  0.20416204866E+03  0.00000000000E+00 0.  1.
<mgrwt>
<rscale>  0 0.18864208E+04</rscale>
<asrwt>0</asrwt>
<pdfrwt beam="1">  1        3 0.38230407E+00 0.18864208E+04</pdfrwt>
<pdfrwt beam="2">  1       -4 0.55078427E-01 0.18864208E+04</pdfrwt>
<totfact> 0.93945735E-02</totfact>
</mgrwt>
</event>
<event>
12    4  0.4398275E-008  0.1399616E+04  0.7818608E-02  0.8954097E-01
         -4   -1    0    0    0  501 -0.00000000000E+00  0.00000000000E+00  0.22976951871E+04  0.22976951871E+04  0.00000000000E+00 0.  1.
          3   -1    0    0  501    0  0.00000000000E+00 -0.00000000000E+00 -0.21314014046E+03  0.21314014046E+03  0.00000000000E+00 0. -1.
        -24    2    1    2    0    0  0.65205092748E+01  0.12568558943E+03 -0.77168986696E+02  0.16535439407E+03  0.74482472434E+02 0.  0.
        254    2    1    2    0    0 -0.65205092748E+01 -0.12568558943E+03  0.21617240333E+04  0.23454809335E+04  0.90132714848E+03 0.  0.
         23    2    4    4    0    0  0.28516281671E+03 -0.16091341360E+03  0.28473801275E+03  0.44349576197E+03  0.91661312828E+02 0.  0.
         23    2    4    4    0    0 -0.29168332599E+03  0.35227824173E+02  0.18769860206E+04  0.19019851715E+04  0.90282384268E+02 0.  0.
          1    1    3    3  502    0  0.35307837293E+02  0.30774393469E+02 -0.20513447146E+02  0.51132261651E+02  0.00000000000E+00 0. -1.
         -2    1    3    3    0  502 -0.28787328019E+02  0.94911195963E+02 -0.56655539549E+02  0.11422213242E+03  0.00000000000E+00 0.  1.
         11    1    5    5    0    0  0.27549762178E+03 -0.16741515083E+03  0.25334958980E+03  0.41001559359E+03  0.00000000000E+00 0.  1.
        -11    1    5    5    0    0  0.96651949357E+01  0.65017372227E+01  0.31388422945E+02  0.33480168384E+02  0.00000000000E+00 0. -1.
          1    1    6    6  503    0  0.26797807389E+01 -0.91581268085E+01  0.68606260367E+02  0.69266669279E+02  0.00000000000E+00 0. -1.
         -1    1    6    6    0  503 -0.29436310673E+03  0.44385950981E+02  0.18083797602E+04  0.18327185022E+04  0.00000000000E+00 0.  1.
<mgrwt>
<rscale>  0 0.13996158E+04</rscale>
<asrwt>0</asrwt>
<pdfrwt beam="1">  1        3 0.32790793E-01 0.13996158E+04</pdfrwt>
<pdfrwt beam="2">  1       -4 0.35349155E+00 0.13996158E+04</pdfrwt>
<totfact> 0.29042296E-01</totfact>
</mgrwt>
</event>
<event>
12    4  0.4398275E-008  0.3948390E+04  0.7818608E-02  0.8015040E-01
         -2   -1    0    0    0  501 -0.00000000000E+00  0.00000000000E+00  0.27639920467E+04  0.27639920467E+04  0.00000000000E+00 0.  1.
          1   -1    0    0  501    0  0.00000000000E+00 -0.00000000000E+00 -0.14100783656E+04  0.14100783656E+04  0.00000000000E+00 0. -1.
        -24    2    1    2    0    0 -0.49196008471E+03 -0.14076336183E+04  0.18118041319E+04  0.23478632603E+04  0.79815713851E+02 0.  0.
        254    2    1    2    0    0  0.49196008471E+03  0.14076336183E+04 -0.45789045079E+03  0.18262071521E+04  0.94969035430E+03 0.  0.
         23    2    4    4    0    0  0.61398224102E+03  0.82998705596E+03  0.56466903029E+02  0.10380869279E+04  0.92645849311E+02 0.  0.
         23    2    4    4    0    0 -0.12202215631E+03  0.57764656235E+03 -0.51435735382E+03  0.78812022418E+03  0.89470904265E+02 0.  0.
          3    1    3    3  502    0 -0.11948600619E+03 -0.24878906654E+03  0.34093894892E+03  0.43864823287E+03  0.00000000000E+00 0. -1.
         -4    1    3    3    0  502 -0.37247407851E+03 -0.11588445518E+04  0.14708651830E+04  0.19092150274E+04  0.00000000000E+00 0.  1.
         11    1    5    5    0    0  0.42918267057E+03  0.51722518923E+03  0.60181926350E+02  0.67478998610E+03  0.00000000000E+00 0. -1.
        -11    1    5    5    0    0  0.18479957045E+03  0.31276186673E+03 -0.37150233208E+01  0.36329694180E+03  0.00000000000E+00 0.  1.
          1    1    6    6  503    0 -0.96256955313E+02  0.52982237872E+03 -0.43651691053E+03  0.69319850521E+03  0.00000000000E+00 0. -1.
         -1    1    6    6    0  503 -0.25765201001E+02  0.47824183632E+02 -0.77840443282E+02  0.94921718974E+02  0.00000000000E+00 0.  1.
<mgrwt>
<rscale>  0 0.39483897E+04</rscale>
<asrwt>0</asrwt>
<pdfrwt beam="1">  1        1 0.21693513E+00 0.39483897E+04</pdfrwt>
<pdfrwt beam="2">  1       -2 0.42522954E+00 0.39483897E+04</pdfrwt>
<totfact> 0.26395004E-02</totfact>
</mgrwt>
</event>
<event>
12    4  0.4398275E-008  0.1842514E+04  0.7818608E-02  0.8684012E-01
          1   -1    0    0  501    0  0.00000000000E+00  0.00000000000E+00  0.12174216982E+04  0.12174216982E+04  0.00000000000E+00 0. -1.
         -2   -1    0    0    0  501 -0.00000000000E+00 -0.00000000000E+00 -0.69714118571E+03  0.69714118571E+03  0.00000000000E+00 0.  1.
        -24    2    1    2    0    0 -0.31287476709E+03  0.75761413233E+02 -0.44270389769E+03  0.55368735722E+03  0.83381873895E+02 0.  0.
        254    2    1    2    0    0  0.31287476709E+03 -0.75761413233E+02  0.96298441015E+03  0.13608755267E+04  0.90609757381E+03 0.  0.
         23    2    4    4    0    0  0.71825548535E+02 -0.20270299532E+03 -0.10391793261E+03  0.25591274487E+03  0.91896586078E+02 0.  0.
         23    2    4    4    0    0  0.24104921855E+03  0.12694158209E+03  0.10669023428E+04  0.11049627818E+04  0.91887154433E+02 0.  0.
          1    1    3    3  502    0 -0.25944700239E+02 -0.10667115183E+02 -0.16071871564E+02  0.32329860383E+02  0.00000000000E+00 0. -1.
         -2    1    3    3    0  502 -0.28693006685E+03  0.86428528416E+02 -0.42663202613E+03  0.52135749683E+03  0.00000000000E+00 0.  1.
         11    1    5    5    0    0  0.86734534696E+02 -0.19310578520E+03 -0.80364443045E+02  0.22643137480E+03  0.00000000000E+00 0.  1.
        -11    1    5    5    0    0 -0.14908986161E+02 -0.95972101198E+01 -0.23553489564E+02  0.29481370068E+02  0.00000000000E+00 0. -1.
          3    1    6    6  503    0  0.10542308322E+02  0.18217993350E+01  0.17423622886E+03  0.17456437971E+03  0.00000000000E+00 0. -1.
         -3    1    6    6    0  503  0.23050691023E+03  0.12511978275E+03  0.89266611391E+03  0.93039840209E+03  0.00000000000E+00 0.  1.
<mgrwt>
<rscale>  0 0.18425144E+04</rscale>
<asrwt>0</asrwt>
<pdfrwt beam="1">  1        1 0.18729565E+00 0.18425144E+04</pdfrwt>
<pdfrwt beam="2">  1       -2 0.10725249E+00 0.18425144E+04</pdfrwt>
<totfact> 0.59776445E+00</totfact>
</mgrwt>
</event>
<event>
12    4  0.4398275E-008  0.2382233E+04  0.7818608E-02  0.8446185E-01
          1   -1    0    0  501    0  0.00000000000E+00  0.00000000000E+00  0.15369741194E+04  0.15369741194E+04  0.00000000000E+00 0. -1.
         -2   -1    0    0    0  501 -0.00000000000E+00 -0.00000000000E+00 -0.92308542430E+03  0.92308542430E+03  0.00000000000E+00 0.  1.
        -24    2    1    2    0    0 -0.40771593449E+03  0.19736551633E+03 -0.68146939010E+03  0.82223159086E+03  0.80491174002E+02 0.  0.
        254    2    1    2    0    0  0.40771593449E+03 -0.19736551633E+03  0.12953580852E+04  0.16378279529E+04  0.89405950807E+03 0.  0.
         23    2    4    4    0    0  0.62762085508E+03  0.10783398843E+02  0.10888506654E+04  0.12601542631E+04  0.91481013168E+02 0.  0.
         23    2    4    4    0    0 -0.21990492059E+03 -0.20814891517E+03  0.20650741982E+03  0.37767368979E+03  0.91147992487E+02 0.  0.
          1    1    3    3  502    0 -0.46000035859E+02  0.16620860678E+01 -0.44449178580E+02  0.63988243495E+02  0.00000000000E+00 0. -1.
         -2    1    3    3    0  502 -0.36171589863E+03  0.19570343026E+03 -0.63702021152E+03  0.75824334736E+03  0.00000000000E+00 0.  1.
         11    1    5    5    0    0  0.56081691308E+03 -0.15652702527E+02  0.93606024663E+03  0.10913154459E+04  0.00000000000E+00 0. -1.
        -11    1    5    5    0    0  0.66803941994E+02  0.26436101370E+02  0.15279041877E+03  0.16883881719E+03  0.00000000000E+00 0.  1.
          2    1    6    6  503    0 -0.10675725004E+03 -0.15840601397E+03  0.10665903573E+03  0.21878237041E+03  0.00000000000E+00 0. -1.
         -2    1    6    6    0  503 -0.11314767055E+03 -0.49742901203E+02  0.99848384089E+02  0.15889131939E+03  0.00000000000E+00 0.  1.
<mgrwt>
<rscale>  0 0.23822329E+04</rscale>
<asrwt>0</asrwt>
<pdfrwt beam="1">  1        1 0.23645756E+00 0.23822329E+04</pdfrwt>
<pdfrwt beam="2">  1       -2 0.14201314E+00 0.23822329E+04</pdfrwt>
<totfact> 0.16818518E+00</totfact>
</mgrwt>
</event>
<event>
12    4  0.4398275E-008  0.1488868E+04  0.7818608E-02  0.8891889E-01
         -2   -1    0    0    0  501 -0.00000000000E+00  0.00000000000E+00  0.17251426023E+04  0.17251426023E+04  0.00000000000E+00 0.  1.
          1   -1    0    0  501    0  0.00000000000E+00 -0.00000000000E+00 -0.32123852421E+03  0.32123852421E+03  0.00000000000E+00 0. -1.
        -24    2    1    2    0    0 -0.24972864818E+03  0.33051140780E+03  0.17253428682E+03  0.45526955784E+03  0.76812119876E+02 0.  0.
        254    2    1    2    0    0  0.24972864818E+03 -0.33051140780E+03  0.12313697912E+04  0.15911115686E+04  0.91856533392E+03 0.  0.
         23    2    4    4    0    0 -0.11038082068E+03  0.26751944776E+03  0.39076856147E+03  0.49470748229E+03  0.91021117832E+02 0.  0.
         23    2    4    4    0    0  0.36010946886E+03 -0.59803085556E+03  0.84060122977E+03  0.10964040864E+04  0.90397783787E+02 0.  0.
          3    1    3    3  502    0 -0.22545845724E+03  0.26753058281E+03  0.12045705770E+03  0.37001896090E+03  0.00000000000E+00 0. -1.
         -4    1    3    3    0  502 -0.24270190932E+02  0.62980824994E+02  0.52077229117E+02  0.85250596932E+02  0.00000000000E+00 0.  1.
         11    1    5    5    0    0 -0.15699692853E+02  0.10247676913E+03  0.19998597908E+03  0.22526064991E+03  0.00000000000E+00 0. -1.
        -11    1    5    5    0    0 -0.94681127831E+02  0.16504267863E+03  0.19078258239E+03  0.26944683238E+03  0.00000000000E+00 0.  1.
          2    1    6    6  503    0  0.15723960233E+03 -0.33028241318E+03  0.39495987809E+03  0.53833453382E+03  0.00000000000E+00 0. -1.
         -2    1    6    6    0  503  0.20286986653E+03 -0.26774844239E+03  0.44564135167E+03  0.55806955253E+03  0.00000000000E+00 0.  1.
<mgrwt>
<rscale>  0 0.14888684E+04</rscale>
<asrwt>0</asrwt>
<pdfrwt beam="1">  1        1 0.49421313E-01 0.14888684E+04</pdfrwt>
<pdfrwt beam="2">  1       -2 0.26540655E+00 0.14888684E+04</pdfrwt>
<totfact> 0.35107296E+00</totfact>
</mgrwt>
</event>
<event>
12    4  0.4398275E-008  0.1398594E+04  0.7818608E-02  0.8954837E-01
          1   -1    0    0  501    0  0.00000000000E+00  0.00000000000E+00  0.24821498999E+04  0.24821498999E+04  0.00000000000E+00 0. -1.
         -2   -1    0    0    0  501 -0.00000000000E+00 -0.00000000000E+00 -0.19701306662E+03  0.19701306662E+03  0.00000000000E+00 0.  1.
        -24    2    1    2    0    0  0.42420886847E+02  0.26419680925E+03  0.12430047327E+04  0.12741715850E+04  0.82782707824E+02 0.  0.
        254    2    1    2    0    0 -0.42420886847E+02 -0.26419680925E+03  0.10421321006E+04  0.14049913815E+04  0.90352752120E+03 0.  0.
         23    2    4    4    0    0  0.53001389804E+02 -0.28883424597E+03 -0.44740377990E+02  0.30981044183E+03  0.88013859581E+02 0.  0.
         23    2    4    4    0    0 -0.95422276650E+02  0.24637436722E+02  0.10868724785E+04  0.10951809397E+04  0.91744710676E+02 0.  0.
          3    1    3    3  502    0  0.25553779207E+02  0.22823434768E+03  0.89859270089E+03  0.92747655236E+03  0.00000000000E+00 0. -1.
         -4    1    3    3    0  502  0.16867107639E+02  0.35962461570E+02  0.34441203182E+03  0.34669503259E+03  0.00000000000E+00 0.  1.
         11    1    5    5    0    0 -0.13596673324E+02 -0.11411106368E+03 -0.43342049899E+02  0.12281994003E+03  0.00000000000E+00 0. -1.
        -11    1    5    5    0    0  0.66598063128E+02 -0.17472318230E+03 -0.13983280908E+01  0.18699050181E+03  0.00000000000E+00 0.  1.
          2    1    6    6  503    0 -0.32730574335E+02 -0.33388601770E+02  0.49015733135E+03  0.49238226887E+03  0.00000000000E+00 0. -1.
         -2    1    6    6    0  503 -0.62691702315E+02  0.58026038492E+02  0.59671514719E+03  0.60279867084E+03  0.00000000000E+00 0.  1.
<mgrwt>
<rscale>  0 0.13985935E+04</rscale>
<asrwt>0</asrwt>
<pdfrwt beam="1">  1        1 0.38186919E+00 0.13985935E+04</pdfrwt>
<pdfrwt beam="2">  1       -2 0.30309704E-01 0.13985935E+04</pdfrwt>
<totfact> 0.12047122E+01</totfact>
</mgrwt>
</event>
<event>
12    4  0.4398275E-008  0.1819567E+04  0.7818608E-02  0.8695962E-01
          1   -1    0    0  501    0  0.00000000000E+00  0.00000000000E+00  0.23432721119E+04  0.23432721119E+04  0.00000000000E+00 0. -1.
         -2   -1    0    0    0  501 -0.00000000000E+00 -0.00000000000E+00 -0.35322676321E+03  0.35322676321E+03  0.00000000000E+00 0.  1.
        -24    2    1    2    0    0 -0.25041680449E+03 -0.62288497076E+03  0.10606086943E+04  0.12575402372E+04  0.76304541215E+02 0.  0.
        254    2    1    2    0    0  0.25041680449E+03  0.62288497076E+03  0.92943665434E+03  0.14389586379E+04  0.86951434966E+03 0.  0.
         23    2    4    4    0    0  0.73016411702E+02  0.17241066198E+03 -0.14673841667E+03  0.25536653401E+03  0.92860492268E+02 0.  0.
         23    2    4    4    0    0  0.17740039279E+03  0.45047430879E+03  0.10761750710E+04  0.11835921039E+04  0.91320767619E+02 0.  0.
          1    1    3    3  502    0 -0.21095428407E+03 -0.51205509846E+03  0.92400870666E+03  0.10772623746E+04  0.00000000000E+00 0. -1.
         -2    1    3    3    0  502 -0.39462520418E+02 -0.11082987230E+03  0.13659998768E+03  0.18027786261E+03  0.00000000000E+00 0.  1.
         11    1    5    5    0    0  0.33028287191E+02  0.16194370562E+03 -0.10089703579E+03  0.19364101677E+03  0.00000000000E+00 0.  1.
        -11    1    5    5    0    0  0.39988124511E+02  0.10466956353E+02 -0.45841380876E+02  0.61725517234E+02  0.00000000000E+00 0. -1.
          3    1    6    6  503    0  0.12129210820E+03  0.29508861132E+03  0.59964349954E+03  0.67923588729E+03  0.00000000000E+00 0. -1.
         -3    1    6    6    0  503  0.56108284585E+02  0.15538569747E+03  0.47653157147E+03  0.50435621656E+03  0.00000000000E+00 0.  1.
<mgrwt>
<rscale>  0 0.18195674E+04</rscale>
<asrwt>0</asrwt>
<pdfrwt beam="1">  1        1 0.36050339E+00 0.18195674E+04</pdfrwt>
<pdfrwt beam="2">  1       -2 0.54342580E-01 0.18195674E+04</pdfrwt>
<totfact> 0.45868723E+00</totfact>
</mgrwt>
</event>
<event>
12    4  0.4398275E-008  0.2507448E+04  0.7818608E-02  0.8400337E-01
         -2   -1    0    0    0  501 -0.00000000000E+00  0.00000000000E+00  0.58891877479E+03  0.58891877479E+03  0.00000000000E+00 0.  1.
          1   -1    0    0  501    0  0.00000000000E+00 -0.00000000000E+00 -0.26689988216E+04  0.26689988216E+04  0.00000000000E+00 0. -1.
        -24    2    1    2    0    0 -0.31427523804E+03 -0.79419342207E+03 -0.17876381642E+04  0.19828078422E+04  0.79778545531E+02 0.  0.
        254    2    1    2    0    0  0.31427523804E+03  0.79419342207E+03 -0.29244188267E+03  0.12751097542E+04  0.90048348879E+03 0.  0.
         23    2    4    4    0    0  0.62250075393E+03  0.47909714202E+03 -0.20041811190E+03  0.81589363951E+03  0.92052980853E+02 0.  0.
         23    2    4    4    0    0 -0.30822551590E+03  0.31509628005E+03 -0.92023770771E+02  0.45921611468E+03  0.90124531847E+02 0.  0.
          3    1    3    3  502    0 -0.27028632247E+03 -0.70932991304E+03 -0.15286653873E+04  0.17067575950E+04  0.00000000000E+00 0. -1.
         -4    1    3    3    0  502 -0.43988915568E+02 -0.84863509030E+02 -0.25897277684E+03  0.27605024724E+03  0.00000000000E+00 0.  1.
         11    1    5    5    0    0  0.40789137636E+02  0.41688182701E+02  0.78903836569E+01  0.58855046345E+02  0.00000000000E+00 0. -1.
        -11    1    5    5    0    0  0.58171161630E+03  0.43740895932E+03 -0.20830849556E+03  0.75703859317E+03  0.00000000000E+00 0.  1.
          2    1    6    6  503    0 -0.49989977549E+02  0.62096648427E+02  0.17214472250E+02  0.81555684388E+02  0.00000000000E+00 0. -1.
         -2    1    6    6    0  503 -0.25823553835E+03  0.25299963162E+03 -0.10923824302E+03  0.37766043029E+03  0.00000000000E+00 0.  1.
<mgrwt>
<rscale>  0 0.25074477E+04</rscale>
<asrwt>0</asrwt>
<pdfrwt beam="1">  1        1 0.41061519E+00 0.25074477E+04</pdfrwt>
<pdfrwt beam="2">  1       -2 0.90602890E-01 0.25074477E+04</pdfrwt>
<totfact> 0.83817917E-01</totfact>
</mgrwt>
</event>
<event>
12    4  0.4398275E-008  0.1899351E+04  0.7818608E-02  0.8655179E-01
          1   -1    0    0  501    0  0.00000000000E+00  0.00000000000E+00  0.13937324072E+04  0.13937324072E+04  0.00000000000E+00 0. -1.
         -2   -1    0    0    0  501 -0.00000000000E+00 -0.00000000000E+00 -0.64709954861E+03  0.64709954861E+03  0.00000000000E+00 0.  1.
        -24    2    1    2    0    0  0.27854456772E+03 -0.25707261570E+03 -0.38581666026E+03  0.54708651815E+03  0.82314986872E+02 0.  0.
        254    2    1    2    0    0 -0.27854456772E+03  0.25707261570E+03  0.11324495189E+04  0.14937454377E+04  0.89730714578E+03 0.  0.
         23    2    4    4    0    0 -0.16332685598E+03 -0.17134714692E+03 -0.21529159600E+02  0.25399244839E+03  0.89516213528E+02 0.  0.
         23    2    4    4    0    0 -0.11521771174E+03  0.42841976261E+03  0.11539786785E+04  0.12397529893E+04  0.92206670008E+02 0.  0.
          1    1    3    3  502    0  0.16220873649E+03 -0.18517048882E+03 -0.20485509362E+03  0.32025832308E+03  0.00000000000E+00 0. -1.
         -2    1    3    3    0  502  0.11633583123E+03 -0.71902126883E+02 -0.18096156664E+03  0.22682819507E+03  0.00000000000E+00 0.  1.
         11    1    5    5    0    0 -0.47633508188E+02 -0.96501747867E+02  0.21283705643E+02  0.10970202628E+03  0.00000000000E+00 0. -1.
        -11    1    5    5    0    0 -0.11569334779E+03 -0.74845399049E+02 -0.42812865243E+02  0.14429042211E+03  0.00000000000E+00 0.  1.
          4    1    6    6  503    0 -0.34768303463E+02  0.25872336122E+03  0.58556226189E+03  0.64111603873E+03  0.00000000000E+00 0. -1.
         -4    1    6    6    0  503 -0.80449408272E+02  0.16969640139E+03  0.56841641660E+03  0.59863695058E+03  0.00000000000E+00 0.  1.
<mgrwt>
<rscale>  0 0.18993511E+04</rscale>
<asrwt>0</asrwt>
<pdfrwt beam="1">  1        1 0.21442037E+00 0.18993511E+04</pdfrwt>
<pdfrwt beam="2">  1       -2 0.99553777E-01 0.18993511E+04</pdfrwt>
<totfact> 0.53198463E+00</totfact>
</mgrwt>
</event>
<event>
12    4  0.4398275E-008  0.1282661E+04  0.7818608E-02  0.9043429E-01
          1   -1    0    0  501    0  0.00000000000E+00  0.00000000000E+00  0.11577552253E+04  0.11577552253E+04  0.00000000000E+00 0. -1.
         -2   -1    0    0    0  501 -0.00000000000E+00 -0.00000000000E+00 -0.35526075278E+03  0.35526075278E+03  0.00000000000E+00 0.  1.
        -24    2    1    2    0    0 -0.24272774456E+03  0.18370697452E+03  0.31316903664E+03  0.44492189106E+03  0.84944883110E+02 0.  0.
        254    2    1    2    0    0  0.24272774456E+03 -0.18370697452E+03  0.48932543588E+03  0.10680940870E+04  0.89928893359E+03 0.  0.
         23    2    4    4    0    0 -0.28642859148E+03 -0.19512477610E+03  0.26745253360E+02  0.35941193871E+03  0.91359820740E+02 0.  0.
         23    2    4    4    0    0  0.52915633604E+03  0.11417801580E+02  0.46258018252E+03  0.70868214832E+03  0.90073125405E+02 0.  0.
          1    1    3    3  502    0 -0.18619889774E+03  0.13110695487E+03  0.17715609479E+03  0.28851922823E+03  0.00000000000E+00 0. -1.
         -2    1    3    3    0  502 -0.56528846823E+02  0.52600019642E+02  0.13601294186E+03  0.15640266283E+03  0.00000000000E+00 0.  1.
         11    1    5    5    0    0 -0.10131974495E+03 -0.32996160460E+02  0.37877744023E+02  0.11308917196E+03  0.00000000000E+00 0. -1.
        -11    1    5    5    0    0 -0.18510884653E+03 -0.16212861564E+03 -0.11132490663E+02  0.24632276675E+03  0.00000000000E+00 0.  1.
          2    1    6    6  503    0  0.29276408189E+03 -0.38438120286E+02  0.25136846089E+03  0.38778138154E+03  0.00000000000E+00 0. -1.
         -2    1    6    6    0  503  0.23639225415E+03  0.49855921866E+02  0.21121172163E+03  0.32090076678E+03  0.00000000000E+00 0.  1.
<mgrwt>
<rscale>  0 0.12826613E+04</rscale>
<asrwt>0</asrwt>
<pdfrwt beam="1">  1        1 0.17811619E+00 0.12826613E+04</pdfrwt>
<pdfrwt beam="2">  1       -2 0.54655501E-01 0.12826613E+04</pdfrwt>
<totfact> 0.31194165E+01</totfact>
</mgrwt>
</event>
<event>
12    4  0.4398275E-008  0.1557473E+04  0.7818608E-02  0.8847108E-01
         -2   -1    0    0    0  501 -0.00000000000E+00  0.00000000000E+00  0.63772461967E+03  0.63772461967E+03  0.00000000000E+00 0.  1.
          1   -1    0    0  501    0  0.00000000000E+00 -0.00000000000E+00 -0.95092881559E+03  0.95092881559E+03  0.00000000000E+00 0. -1.
        -24    2    1    2    0    0 -0.19243801501E+03  0.15251279164E+03  0.35674925600E+03  0.44041131834E+03  0.79997227673E+02 0.  0.
        254    2    1    2    0    0  0.19243801501E+03 -0.15251279164E+03 -0.66995345193E+03  0.11482421169E+04  0.89962758410E+03 0.  0.
         23    2    4    4    0    0  0.12240606273E+03 -0.36924777842E+03 -0.78180888090E+03  0.87811414363E+03  0.92369675398E+02 0.  0.
         23    2    4    4    0    0  0.70031952280E+02  0.21673498678E+03  0.11185542897E+03  0.27012797328E+03  0.92622654481E+02 0.  0.
          1    1    3    3  502    0  0.31572574220E+01 -0.43309171816E+01  0.14347756831E+01  0.55483059869E+01  0.00000000000E+00 0. -1.
         -2    1    3    3    0  502 -0.19559527243E+03  0.15684370882E+03  0.35531448032E+03  0.43486301236E+03  0.00000000000E+00 0.  1.
         11    1    5    5    0    0 -0.45602856477E+01 -0.37874434891E+02 -0.37274793050E+02  0.53335534312E+02  0.00000000000E+00 0. -1.
        -11    1    5    5    0    0  0.12696634838E+03 -0.33137334353E+03 -0.74453408785E+03  0.82477860932E+03  0.00000000000E+00 0.  1.
          3    1    6    6  503    0  0.78942559455E+02  0.14368283173E+03  0.43329487370E+02  0.16957042284E+03  0.00000000000E+00 0. -1.
         -3    1    6    6    0  503 -0.89106071749E+01  0.73052155057E+02  0.68525941602E+02  0.10055755044E+03  0.00000000000E+00 0.  1.
<mgrwt>
<rscale>  0 0.15574732E+04</rscale>
<asrwt>0</asrwt>
<pdfrwt beam="1">  1        1 0.14629674E+00 0.15574732E+04</pdfrwt>
<pdfrwt beam="2">  1       -2 0.98111481E-01 0.15574732E+04</pdfrwt>
<totfact> 0.12066858E+01</totfact>
</mgrwt>
</event>
<event>
12    4  0.4398275E-008  0.1921876E+04  0.7818608E-02  0.8644043E-01
          1   -1    0    0  501    0  0.00000000000E+00  0.00000000000E+00  0.12173154848E+04  0.12173154848E+04  0.00000000000E+00 0. -1.
         -2   -1    0    0    0  501 -0.00000000000E+00 -0.00000000000E+00 -0.75855591109E+03  0.75855591109E+03  0.00000000000E+00 0.  1.
        -24    2    1    2    0    0  0.12722276863E+03 -0.37560860050E+03  0.82298296856E+03  0.91692438596E+03  0.78625119380E+02 0.  0.
        254    2    1    2    0    0 -0.12722276863E+03  0.37560860050E+03 -0.36422339487E+03  0.10589470099E+04  0.91183476289E+03 0.  0.
         23    2    4    4    0    0  0.10322696620E+03 -0.26675907053E+03 -0.61074397820E+02  0.30585518789E+03  0.89448899540E+02 0.  0.
         23    2    4    4    0    0 -0.23044973483E+03  0.64236767103E+03 -0.30314899705E+03  0.75309182203E+03  0.97491912085E+02 0.  0.
          1    1    3    3  502    0  0.11717162435E+03 -0.25667534896E+03  0.62514933751E+03  0.68587398150E+03  0.00000000000E+00 0. -1.
         -2    1    3    3    0  502  0.10051144282E+02 -0.11893325155E+03  0.19783363105E+03  0.23105040445E+03  0.00000000000E+00 0.  1.
         11    1    5    5    0    0 -0.11230688694E+02 -0.76776436445E+02 -0.21903063422E+02  0.80625639526E+02  0.00000000000E+00 0.  1.
        -11    1    5    5    0    0  0.11445765489E+03 -0.18998263409E+03 -0.39171334397E+02  0.22522954836E+03  0.00000000000E+00 0. -1.
          3    1    6    6  503    0 -0.17729558527E+02  0.14430520811E+02 -0.25682982826E+02  0.34383030455E+02  0.00000000000E+00 0. -1.
         -3    1    6    6    0  503 -0.21272017630E+03  0.62793715022E+03 -0.27746601422E+03  0.71870879157E+03  0.00000000000E+00 0.  1.
<mgrwt>
<rscale>  0 0.19218760E+04</rscale>
<asrwt>0</asrwt>
<pdfrwt beam="1">  1        1 0.18727931E+00 0.19218760E+04</pdfrwt>
<pdfrwt beam="2">  1       -2 0.11670091E+00 0.19218760E+04</pdfrwt>
<totfact> 0.48365431E+00</totfact>
</mgrwt>
</event>
<event>
12    4  0.4398275E-008  0.1444930E+04  0.7818608E-02  0.8921923E-01
         -2   -1    0    0    0  501 -0.00000000000E+00  0.00000000000E+00  0.89577495598E+03  0.89577495598E+03  0.00000000000E+00 0.  1.
          1   -1    0    0  501    0  0.00000000000E+00 -0.00000000000E+00 -0.58268624023E+03  0.58268624023E+03  0.00000000000E+00 0. -1.
        -24    2    1    2    0    0 -0.34643138596E+03 -0.63976727735E+02 -0.17329777892E+03  0.39873433654E+03  0.69636370419E+02 0.  0.
        254    2    1    2    0    0  0.34643138596E+03  0.63976727735E+02  0.48638649467E+03  0.10797268597E+04  0.89729066775E+03 0.  0.
         23    2    4    4    0    0 -0.28454717681E+03 -0.67352692928E+02  0.21686042510E+03  0.37548150422E+03  0.91948001412E+02 0.  0.
         23    2    4    4    0    0  0.63097856277E+03  0.13132942066E+03  0.26952606957E+03  0.70424535545E+03  0.89083416491E+02 0.  0.
          3    1    3    3  502    0 -0.15410672965E+03 -0.63601756001E+02 -0.76680977186E+02  0.18350487664E+03  0.00000000000E+00 0. -1.
         -4    1    3    3    0  502 -0.19232465631E+03 -0.37497173336E+00 -0.96616801735E+02  0.21522945989E+03  0.00000000000E+00 0.  1.
         11    1    5    5    0    0 -0.25086949309E+03 -0.25864905392E+02  0.16765275197E+03  0.30283979451E+03  0.00000000000E+00 0. -1.
        -11    1    5    5    0    0 -0.33677683717E+02 -0.41487787536E+02  0.49207673132E+02  0.72641709714E+02  0.00000000000E+00 0.  1.
          1    1    6    6  503    0  0.48600026605E+03  0.10749486435E+03  0.24680145289E+03  0.55557390292E+03  0.00000000000E+00 0. -1.
         -1    1    6    6    0  503  0.14497829672E+03  0.23834556315E+02  0.22724616687E+02  0.14867145253E+03  0.00000000000E+00 0.  1.
<mgrwt>
<rscale>  0 0.14449301E+04</rscale>
<asrwt>0</asrwt>
<pdfrwt beam="1">  1        1 0.89644038E-01 0.14449301E+04</pdfrwt>
<pdfrwt beam="2">  1       -2 0.13781153E+00 0.14449301E+04</pdfrwt>
<totfact> 0.11357747E+01</totfact>
</mgrwt>
</event>
<event>
12    4  0.4398275E-008  0.1389402E+04  0.7818608E-02  0.8961526E-01
          1   -1    0    0  501    0  0.00000000000E+00  0.00000000000E+00  0.72250530736E+03  0.72250530736E+03  0.00000000000E+00 0. -1.
         -2   -1    0    0    0  501 -0.00000000000E+00 -0.00000000000E+00 -0.66796700134E+03  0.66796700134E+03  0.00000000000E+00 0.  1.
        -24    2    1    2    0    0  0.32179374779E+03  0.88255485098E+01  0.27928363594E+03  0.43371245567E+03  0.80486262651E+02 0.  0.
        254    2    1    2    0    0 -0.32179374779E+03 -0.88255485098E+01 -0.22474532992E+03  0.95675985304E+03  0.87249633045E+03 0.  0.
         23    2    4    4    0    0 -0.46822807528E+03 -0.60649858074E+02  0.18043831436E+03  0.51345691713E+03  0.90355324632E+02 0.  0.
         23    2    4    4    0    0  0.14643432750E+03  0.51824309564E+02 -0.40518364427E+03  0.44330293591E+03  0.90636284514E+02 0.  0.
          3    1    3    3  502    0  0.18645069934E+03  0.31975219394E+02  0.19939799038E+03  0.27485602869E+03  0.00000000000E+00 0. -1.
         -4    1    3    3    0  502  0.13534304845E+03 -0.23149670884E+02  0.79885645554E+02  0.15885642697E+03  0.00000000000E+00 0.  1.
         11    1    5    5    0    0 -0.42559915114E+02  0.37598426609E+01 -0.80697720781E+01  0.43481076490E+02  0.00000000000E+00 0. -1.
        -11    1    5    5    0    0 -0.42566816017E+03 -0.64409700735E+02  0.18850808643E+03  0.46997584064E+03  0.00000000000E+00 0.  1.
          3    1    6    6  503    0  0.18780424270E+01 -0.77070500790E+01  0.10724559956E+01  0.80047377309E+01  0.00000000000E+00 0. -1.
         -3    1    6    6    0  503  0.14455628507E+03  0.59531359643E+02 -0.40625610027E+03  0.43529819818E+03  0.00000000000E+00 0.  1.
<mgrwt>
<rscale>  0 0.13894023E+04</rscale>
<asrwt>0</asrwt>
<pdfrwt beam="1">  1        1 0.11115466E+00 0.13894023E+04</pdfrwt>
<pdfrwt beam="2">  1       -2 0.10276415E+00 0.13894023E+04</pdfrwt>
<totfact> 0.17168397E+01</totfact>
</mgrwt>
</event>
<event>
12    4  0.4398275E-008  0.1104536E+04  0.7818608E-02  0.9200782E-01
          1   -1    0    0  501    0  0.00000000000E+00  0.00000000000E+00  0.32112252061E+03  0.32112252061E+03  0.00000000000E+00 0. -1.
         -2   -1    0    0    0  501 -0.00000000000E+00 -0.00000000000E+00 -0.94979313445E+03  0.94979313445E+03  0.00000000000E+00 0.  1.
        -24    2    1    2    0    0  0.69227433139E+02  0.59860617981E+02  0.80831685431E+02  0.14574815207E+03  0.79580345432E+02 0.  0.
        254    2    1    2    0    0 -0.69227433139E+02 -0.59860617981E+02 -0.70950229927E+03  0.11251675030E+04  0.86846569652E+03 0.  0.
         23    2    4    4    0    0  0.19496501144E+02  0.57038919785E+02  0.18440564042E+03  0.21498522822E+03  0.92626433625E+02 0.  0.
         23    2    4    4    0    0 -0.88723934283E+02 -0.11689953777E+03 -0.89390793969E+03  0.91018227477E+03  0.88447330184E+02 0.  0.
          1    1    3    3  502    0  0.84961496588E+02  0.42381184596E+02  0.76284513165E+02  0.12179469471E+03  0.00000000000E+00 0. -1.
         -2    1    3    3    0  502 -0.15734063450E+02  0.17479433385E+02  0.45471722657E+01  0.23953457364E+02  0.00000000000E+00 0.  1.
         11    1    5    5    0    0  0.15586833789E+02  0.12979241136E+02  0.16573809068E+03  0.16697462320E+03  0.00000000000E+00 0.  1.
        -11    1    5    5    0    0  0.39096673550E+01  0.44059678649E+02  0.18667549738E+02  0.48010605023E+02  0.00000000000E+00 0. -1.
          2    1    6    6  503    0 -0.21018939487E+02 -0.73807719852E+02 -0.62083848377E+03  0.62556358451E+03  0.00000000000E+00 0.  1.
         -2    1    6    6    0  503 -0.67704994796E+02 -0.43091817914E+02 -0.27306945592E+03  0.28461869026E+03  0.00000000000E+00 0. -1.
<mgrwt>
<rscale>  0 0.11045360E+04</rscale>
<asrwt>0</asrwt>
<pdfrwt beam="1">  1        1 0.49403464E-01 0.11045360E+04</pdfrwt>
<pdfrwt beam="2">  1       -2 0.14612202E+00 0.11045360E+04</pdfrwt>
<totfact> 0.22370264E+01</totfact>
</mgrwt>
</event>
<event>
12    4  0.4398275E-008  0.1894839E+04  0.7818608E-02  0.8657430E-01
         -2   -1    0    0    0  501 -0.00000000000E+00  0.00000000000E+00  0.90317817426E+03  0.90317817426E+03  0.00000000000E+00 0.  1.
          1   -1    0    0  501    0  0.00000000000E+00 -0.00000000000E+00 -0.99382788990E+03  0.99382788990E+03  0.00000000000E+00 0. -1.
        -24    2    1    2    0    0  0.40119731728E+03  0.15458933157E+03  0.55588154372E+03  0.71017646608E+03  0.10241666609E+03 0.  0.
        254    2    1    2    0    0 -0.40119731728E+03 -0.15458933157E+03 -0.64653125936E+03  0.11868295981E+04  0.89761053733E+03 0.  0.
         23    2    4    4    0    0 -0.53957129688E+03  0.16596536881E+03 -0.58983167782E+03  0.82147680142E+03  0.90780168826E+02 0.  0.
         23    2    4    4    0    0  0.13837397960E+03 -0.32055470038E+03 -0.56699581543E+02  0.36535279666E+03  0.91461190227E+02 0.  0.
          3    1    3    3  502    0  0.19570093875E+03  0.10315914898E+03  0.35469089307E+03  0.41802667029E+03  0.00000000000E+00 0. -1.
         -4    1    3    3    0  502  0.20549637853E+03  0.51430182595E+02  0.20119065065E+03  0.29214979579E+03  0.00000000000E+00 0.  1.
         11    1    5    5    0    0 -0.31154334609E+03  0.78330349863E+02 -0.27418900373E+03  0.42234406586E+03  0.00000000000E+00 0.  1.
        -11    1    5    5    0    0 -0.22802795079E+03  0.87635018943E+02 -0.31564267410E+03  0.39913273556E+03  0.00000000000E+00 0. -1.
          1    1    6    6  503    0  0.61831725350E+02 -0.21656437989E+03 -0.22777154651E+01  0.22522984013E+03  0.00000000000E+00 0. -1.
         -1    1    6    6    0  503  0.76542254247E+02 -0.10399032049E+03 -0.54421866077E+02  0.14012295654E+03  0.00000000000E+00 0.  1.
<mgrwt>
<rscale>  0 0.18948389E+04</rscale>
<asrwt>0</asrwt>
<pdfrwt beam="1">  1        1 0.15289660E+00 0.18948389E+04</pdfrwt>
<pdfrwt beam="2">  1       -2 0.13895049E+00 0.18948389E+04</pdfrwt>
<totfact> 0.45977906E+00</totfact>
</mgrwt>
</event>
<event>
12    4  0.4398275E-008  0.2221226E+04  0.7818608E-02  0.8509645E-01
          1   -1    0    0  501    0  0.00000000000E+00  0.00000000000E+00  0.36254309154E+04  0.36254309154E+04  0.00000000000E+00 0. -1.
         -2   -1    0    0    0  501 -0.00000000000E+00 -0.00000000000E+00 -0.34022467963E+03  0.34022467963E+03  0.00000000000E+00 0.  1.
        -24    2    1    2    0    0  0.33372188138E+03 -0.66517118640E+02  0.29149099863E+04  0.29358615748E+04  0.82390151432E+02 0.  0.
        254    2    1    2    0    0 -0.33372188138E+03  0.66517118640E+02  0.37029624953E+03  0.10297940203E+04  0.89864430704E+03 0.  0.
         23    2    4    4    0    0 -0.25207060655E+03  0.14965642841E+03  0.64699721642E+03  0.71587856878E+03  0.89107182309E+02 0.  0.
         23    2    4    4    0    0 -0.81651274826E+02 -0.83139309769E+02 -0.27670096689E+03  0.31391545148E+03  0.91653751081E+02 0.  0.
          1    1    3    3  502    0  0.31025789473E+03 -0.39297986974E+02  0.26865335358E+04  0.27046749771E+04  0.00000000000E+00 0. -1.
         -2    1    3    3    0  502  0.23463986649E+02 -0.27219131666E+02  0.22837645049E+03  0.23118659766E+03  0.00000000000E+00 0.  1.
         11    1    5    5    0    0 -0.39541006902E+02  0.19268391586E+01  0.15472033707E+03  0.15970468572E+03  0.00000000000E+00 0. -1.
        -11    1    5    5    0    0 -0.21252959965E+03  0.14772958925E+03  0.49227687935E+03  0.55617388307E+03  0.00000000000E+00 0.  1.
          3    1    6    6  503    0 -0.12732758082E+02 -0.38104688344E+02 -0.21093057073E+02  0.45376287407E+02  0.00000000000E+00 0. -1.
         -3    1    6    6    0  503 -0.68918516745E+02 -0.45034621425E+02 -0.25560790982E+03  0.26853916407E+03  0.00000000000E+00 0.  1.
<mgrwt>
<rscale>  0 0.22212259E+04</rscale>
<asrwt>0</asrwt>
<pdfrwt beam="1">  1        1 0.55775858E+00 0.22212259E+04</pdfrwt>
<pdfrwt beam="2">  1       -2 0.52342261E-01 0.22212259E+04</pdfrwt>
<totfact> 0.54843850E-01</totfact>
</mgrwt>
</event>
<event>
12    4  0.4398275E-008  0.1721384E+04  0.7818608E-02  0.8749261E-01
          1   -1    0    0  501    0  0.00000000000E+00  0.00000000000E+00  0.14054893144E+04  0.14054893144E+04  0.00000000000E+00 0. -1.
         -2   -1    0    0    0  501 -0.00000000000E+00 -0.00000000000E+00 -0.52706972251E+03  0.52706972251E+03  0.00000000000E+00 0.  1.
        -24    2    1    2    0    0  0.29282975517E+03 -0.29339900504E+03 -0.20515211294E+03  0.46931402004E+03  0.79599109878E+02 0.  0.
        254    2    1    2    0    0 -0.29282975517E+03  0.29339900504E+03  0.10835717048E+04  0.14632450169E+04  0.89169843458E+03 0.  0.
         23    2    4    4    0    0 -0.34182689187E+02 -0.30279697692E+03  0.44895659303E+03  0.55031004304E+03  0.91785922573E+02 0.  0.
         23    2    4    4    0    0 -0.25864706598E+03  0.59619598195E+03  0.63461511181E+03  0.91293497384E+03  0.91465691235E+02 0.  0.
          3    1    3    3  502    0  0.13747937566E+03 -0.19355931603E+03 -0.11757703668E+03  0.26493423166E+03  0.00000000000E+00 0. -1.
         -4    1    3    3    0  502  0.15535037950E+03 -0.99839689009E+02 -0.87575076260E+02  0.20437978837E+03  0.00000000000E+00 0.  1.
         11    1    5    5    0    0 -0.93777204520E+01 -0.28387174325E+03  0.42407906136E+03  0.51040587628E+03  0.00000000000E+00 0.  1.
        -11    1    5    5    0    0 -0.24804968735E+02 -0.18925233671E+02  0.24877531663E+02  0.39904166763E+02  0.00000000000E+00 0. -1.
          2    1    6    6  503    0 -0.20153184336E+03  0.47850925402E+03  0.45261821034E+03  0.68880289953E+03  0.00000000000E+00 0.  1.
         -2    1    6    6    0  503 -0.57115222621E+02  0.11768672794E+03  0.18199690147E+03  0.22413207430E+03  0.00000000000E+00 0. -1.
<mgrwt>
<rscale>  0 0.17213842E+04</rscale>
<asrwt>0</asrwt>
<pdfrwt beam="1">  1        1 0.21622912E+00 0.17213842E+04</pdfrwt>
<pdfrwt beam="2">  1       -2 0.81087650E-01 0.17213842E+04</pdfrwt>
<totfact> 0.85099969E+00</totfact>
</mgrwt>
</event>
<event>
12    4  0.4398275E-008  0.1898584E+04  0.7818608E-02  0.8655562E-01
          1   -1    0    0  501    0  0.00000000000E+00  0.00000000000E+00  0.16606887902E+04  0.16606887902E+04  0.00000000000E+00 0. -1.
         -2   -1    0    0    0  501 -0.00000000000E+00 -0.00000000000E+00 -0.54263938984E+03  0.54263938984E+03  0.00000000000E+00 0.  1.
        -24    2    1    2    0    0  0.13450918115E+03 -0.37786418279E+03 -0.27482987272E+03  0.49247783670E+03  0.78287293056E+02 0.  0.
        254    2    1    2    0    0 -0.13450918115E+03  0.37786418279E+03  0.13928792731E+04  0.17108503433E+04  0.90885761671E+03 0.  0.
         23    2    4    4    0    0  0.22669684496E+03  0.42755520028E+01  0.10586434546E+04  0.10868058570E+04  0.94927692871E+02 0.  0.
         23    2    4    4    0    0 -0.36120602612E+03  0.37358863079E+03  0.33423581845E+03  0.62404448635E+03  0.87633784867E+02 0.  0.
          1    1    3    3  502    0  0.37133635983E+02 -0.13257048417E+03 -0.52318399705E+02  0.14727883468E+03  0.00000000000E+00 0. -1.
         -2    1    3    3    0  502  0.97375545169E+02 -0.24529369862E+03 -0.22251147301E+03  0.34519900203E+03  0.00000000000E+00 0.  1.
         11    1    5    5    0    0  0.20913909692E+03 -0.10891442699E+02  0.79422705705E+03  0.82137348602E+03  0.00000000000E+00 0. -1.
        -11    1    5    5    0    0  0.17557748043E+02  0.15166994701E+02  0.26441639760E+03  0.26543237098E+03  0.00000000000E+00 0.  1.
          3    1    6    6  503    0 -0.17226354168E+03  0.19412460449E+03  0.21698532570E+03  0.33829236088E+03  0.00000000000E+00 0. -1.
         -3    1    6    6    0  503 -0.18894248443E+03  0.17946402630E+03  0.11725049275E+03  0.28575212547E+03  0.00000000000E+00 0.  1.
<mgrwt>
<rscale>  0 0.18985838E+04</rscale>
<asrwt>0</asrwt>
<pdfrwt beam="1">  1        1 0.25549058E+00 0.18985838E+04</pdfrwt>
<pdfrwt beam="2">  1       -2 0.83482984E-01 0.18985838E+04</pdfrwt>
<totfact> 0.52278311E+00</totfact>
</mgrwt>
</event>
<event>
12    4  0.4398275E-008  0.1458884E+04  0.7818608E-02  0.8912265E-01
         -4   -1    0    0    0  501 -0.00000000000E+00  0.00000000000E+00  0.80540763263E+03  0.80540763263E+03  0.00000000000E+00 0.  1.
          3   -1    0    0  501    0  0.00000000000E+00 -0.00000000000E+00 -0.66064136142E+03  0.66064136142E+03  0.00000000000E+00 0. -1.
        -24    2    1    2    0    0  0.91758815789E+02  0.37303638230E+03 -0.21819750655E+03  0.44896086890E+03  0.79874195765E+02 0.  0.
        254    2    1    2    0    0 -0.91758815789E+02 -0.37303638230E+03  0.36296377776E+03  0.10170881252E+04  0.86899351411E+03 0.  0.
         23    2    4    4    0    0  0.24474318065E+03 -0.49428374615E+03  0.11065140517E+03  0.56974093431E+03  0.90251607089E+02 0.  0.
         23    2    4    4    0    0 -0.33650199643E+03  0.12124736385E+03  0.25231237259E+03  0.44734719084E+03  0.92322580914E+02 0.  0.
          3    1    3    3  502    0  0.43755291400E+02  0.28998212464E+03 -0.13887751637E+03  0.32448593604E+03  0.00000000000E+00 0. -1.
         -4    1    3    3    0  502  0.48003524390E+02  0.83054257662E+02 -0.79319990179E+02  0.12447493286E+03  0.00000000000E+00 0.  1.
         11    1    5    5    0    0  0.10467923948E+03 -0.15673573361E+03  0.20388014967E+01  0.18848870014E+03  0.00000000000E+00 0. -1.
        -11    1    5    5    0    0  0.14006394117E+03 -0.33754801254E+03  0.10861260367E+03  0.38125223417E+03  0.00000000000E+00 0.  1.
          3    1    6    6  503    0 -0.28833746267E+03  0.65473692107E+02  0.20432874363E+03  0.35940997790E+03  0.00000000000E+00 0. -1.
         -3    1    6    6    0  503 -0.48164533764E+02  0.55773671745E+02  0.47983628964E+02  0.87937212948E+02  0.00000000000E+00 0.  1.
<mgrwt>
<rscale>  0 0.14588840E+04</rscale>
<asrwt>0</asrwt>
<pdfrwt beam="1">  1        3 0.10163713E+00 0.14588840E+04</pdfrwt>
<pdfrwt beam="2">  1       -4 0.12390887E+00 0.14588840E+04</pdfrwt>
<totfact> 0.91260197E-01</totfact>
</mgrwt>
</event>
<event>
12    4  0.4398275E-008  0.2239917E+04  0.7818608E-02  0.8501995E-01
          1   -1    0    0  501    0  0.00000000000E+00  0.00000000000E+00  0.16171129215E+04  0.16171129215E+04  0.00000000000E+00 0. -1.
         -2   -1    0    0    0  501 -0.00000000000E+00 -0.00000000000E+00 -0.77564609597E+03  0.77564609597E+03  0.00000000000E+00 0.  1.
        -24    2    1    2    0    0 -0.83092249891E+02  0.76738397371E+03  0.94121036124E+03  0.12199953361E+04  0.82031645676E+02 0.  0.
        254    2    1    2    0    0  0.83092249891E+02 -0.76738397371E+03 -0.99743535755E+02  0.11727636813E+04  0.87729322021E+03 0.  0.
         23    2    4    4    0    0 -0.17481910743E+03 -0.55028208907E+03 -0.40472733667E+03  0.71088213037E+03  0.90427254464E+02 0.  0.
         23    2    4    4    0    0  0.25791135732E+03 -0.21710188464E+03  0.30498380091E+03  0.46188155097E+03  0.81657527226E+02 0.  0.
          1    1    3    3  502    0 -0.13973348417E+02  0.16757445890E+03  0.26090651940E+03  0.31040081444E+03  0.00000000000E+00 0. -1.
         -2    1    3    3    0  502 -0.69118901474E+02  0.59980951482E+03  0.68030384184E+03  0.90959452166E+03  0.00000000000E+00 0.  1.
         11    1    5    5    0    0  0.10985398621E+02 -0.32494912634E+02 -0.23053998416E+02  0.41328987079E+02  0.00000000000E+00 0.  1.
        -11    1    5    5    0    0 -0.18580450605E+03 -0.51778717644E+03 -0.38167333825E+03  0.66955314329E+03  0.00000000000E+00 0. -1.
          1    1    6    6  503    0  0.20208882930E+03 -0.14274164745E+03  0.17935712680E+03  0.30558804260E+03  0.00000000000E+00 0. -1.
         -1    1    6    6    0  503  0.55822528027E+02 -0.74360237190E+02  0.12562667411E+03  0.15629350837E+03  0.00000000000E+00 0.  1.
<mgrwt>
<rscale>  0 0.22399173E+04</rscale>
<asrwt>0</asrwt>
<pdfrwt beam="1">  1        1 0.24878660E+00 0.22399173E+04</pdfrwt>
<pdfrwt beam="2">  1       -2 0.11933017E+00 0.22399173E+04</pdfrwt>
<totfact> 0.23331175E+00</totfact>
</mgrwt>
</event>
<event>
12    4  0.4398275E-008  0.1475139E+04  0.7818608E-02  0.8901155E-01
          1   -1    0    0  501    0  0.00000000000E+00  0.00000000000E+00  0.16660637495E+04  0.16660637495E+04  0.00000000000E+00 0. -1.
         -2   -1    0    0    0  501 -0.00000000000E+00 -0.00000000000E+00 -0.32652352958E+03  0.32652352958E+03  0.00000000000E+00 0.  1.
        -24    2    1    2    0    0  0.42105873935E+03 -0.17118077122E+03  0.47266991609E+03  0.66089196331E+03  0.82267971723E+02 0.  0.
        254    2    1    2    0    0 -0.42105873935E+03  0.17118077122E+03  0.86687030380E+03  0.13316953157E+04  0.90297008363E+03 0.  0.
         23    2    4    4    0    0  0.78636984889E+02  0.29737578116E+03  0.71933346168E+03  0.78744251080E+03  0.89492726587E+02 0.  0.
         23    2    4    4    0    0 -0.49969572424E+03 -0.12619500994E+03  0.14753684212E+03  0.54425280494E+03  0.93930817860E+02 0.  0.
          3    1    3    3  502    0  0.27802650568E+03 -0.10129574872E+03  0.25123662346E+03  0.38817445503E+03  0.00000000000E+00 0. -1.
         -4    1    3    3    0  502  0.14303223368E+03 -0.69885022495E+02  0.22143329263E+03  0.27271750828E+03  0.00000000000E+00 0.  1.
         11    1    5    5    0    0  0.11130427708E+02  0.50213974260E+02  0.22328854584E+03  0.22913555887E+03  0.00000000000E+00 0. -1.
        -11    1    5    5    0    0  0.67506557181E+02  0.24716180690E+03  0.49604491583E+03  0.55830695193E+03  0.00000000000E+00 0.  1.
          4    1    6    6  503    0 -0.11226666988E+03 -0.63680653374E+02  0.59171867676E+02  0.14198711458E+03  0.00000000000E+00 0.  1.
         -4    1    6    6    0  503 -0.38742905436E+03 -0.62514356566E+02  0.88364974448E+02  0.40226569037E+03  0.00000000000E+00 0. -1.
<mgrwt>
<rscale>  0 0.14751393E+04</rscale>
<asrwt>0</asrwt>
<pdfrwt beam="1">  1        1 0.25631749E+00 0.14751393E+04</pdfrwt>
<pdfrwt beam="2">  1       -2 0.50234390E-01 0.14751393E+04</pdfrwt>
<totfact> 0.16031624E+01</totfact>
</mgrwt>
</event>
<event>
12    4  0.4398275E-008  0.1136865E+04  0.7818608E-02  0.9169987E-01
         -2   -1    0    0    0  501 -0.00000000000E+00  0.00000000000E+00  0.42970917295E+03  0.42970917295E+03  0.00000000000E+00 0.  1.
          1   -1    0    0  501    0  0.00000000000E+00 -0.00000000000E+00 -0.75194017249E+03  0.75194017249E+03  0.00000000000E+00 0. -1.
        -24    2    1    2    0    0  0.93900372452E+02  0.99723255030E+02 -0.20374219542E+03  0.25781933041E+03  0.78726853099E+02 0.  0.
        254    2    1    2    0    0 -0.93900372452E+02 -0.99723255030E+02 -0.11848880412E+03  0.92383001503E+03  0.90590302595E+03 0.  0.
         23    2    4    4    0    0 -0.40029980616E+03  0.18675758339E+03  0.67146180351E+02  0.45592944441E+03  0.90800434895E+02 0.  0.
         23    2    4    4    0    0  0.30639943371E+03 -0.28648083842E+03 -0.18563498447E+03  0.46790057062E+03  0.92296873014E+02 0.  0.
          1    1    3    3  502    0  0.62778076137E+02  0.13736241360E+02 -0.10608224676E+03  0.12402908630E+03  0.00000000000E+00 0. -1.
         -2    1    3    3    0  502  0.31122296315E+02  0.85987013670E+02 -0.97659948659E+02  0.13379024411E+03  0.00000000000E+00 0.  1.
         11    1    5    5    0    0 -0.28741117717E+03  0.17703075433E+03  0.46237159723E+02  0.34070947695E+03  0.00000000000E+00 0. -1.
        -11    1    5    5    0    0 -0.11288862899E+03  0.97268290622E+01  0.20909020628E+02  0.11521996746E+03  0.00000000000E+00 0.  1.
          2    1    6    6  503    0  0.29956673251E+03 -0.26864265142E+03 -0.15379295541E+03  0.43076835367E+03  0.00000000000E+00 0. -1.
         -2    1    6    6    0  503  0.68327011989E+01 -0.17838187001E+02 -0.31842029058E+02  0.37132216951E+02  0.00000000000E+00 0.  1.
<mgrwt>
<rscale>  0 0.11368651E+04</rscale>
<asrwt>0</asrwt>
<pdfrwt beam="1">  1        1 0.11568310E+00 0.11368651E+04</pdfrwt>
<pdfrwt beam="2">  1       -2 0.66109103E-01 0.11368651E+04</pdfrwt>
<totfact> 0.44723660E+01</totfact>
</mgrwt>
</event>
<event>
12    4  0.4398275E-008  0.1072964E+04  0.7818608E-02  0.9231951E-01
          1   -1    0    0  501    0  0.00000000000E+00  0.00000000000E+00  0.31460979802E+03  0.31460979802E+03  0.00000000000E+00 0. -1.
         -2   -1    0    0    0  501 -0.00000000000E+00 -0.00000000000E+00 -0.91482455601E+03  0.91482455601E+03  0.00000000000E+00 0.  1.
        -24    2    1    2    0    0  0.61355230144E+02  0.79828675913E+02  0.15180508758E+02  0.13529479149E+03  0.89090689721E+02 0.  0.
        254    2    1    2    0    0 -0.61355230144E+02 -0.79828675913E+02 -0.61539526676E+03  0.10941395625E+04  0.89905114771E+03 0.  0.
         23    2    4    4    0    0  0.27901159683E+03 -0.87621556432E+02  0.79407035049E+02  0.31516803411E+03  0.86604873940E+02 0.  0.
         23    2    4    4    0    0 -0.34036682697E+03  0.77928805187E+01 -0.69480230180E+03  0.77897152843E+03  0.90200319405E+02 0.  0.
          1    1    3    3  502    0  0.73168777027E+02  0.91899100624E+02  0.11704430936E+02  0.11805129534E+03  0.00000000000E+00 0. -1.
         -2    1    3    3    0  502 -0.11813546883E+02 -0.12070424711E+02  0.34760778224E+01  0.17243496156E+02  0.00000000000E+00 0.  1.
         11    1    5    5    0    0  0.23568725799E+03 -0.65532900142E+02  0.31056388524E+02  0.24659185681E+03  0.00000000000E+00 0. -1.
        -11    1    5    5    0    0  0.43324338845E+02 -0.22088656290E+02  0.48350646525E+02  0.68576177295E+02  0.00000000000E+00 0.  1.
          1    1    6    6  503    0 -0.10530620672E+03 -0.35071850395E+02 -0.18086149518E+03  0.21220346911E+03  0.00000000000E+00 0. -1.
         -1    1    6    6    0  503 -0.23506062025E+03  0.42864730914E+02 -0.51394080663E+03  0.56676805932E+03  0.00000000000E+00 0.  1.
<mgrwt>
<rscale>  0 0.10729637E+04</rscale>
<asrwt>0</asrwt>
<pdfrwt beam="1">  1        1 0.48401508E-01 0.10729637E+04</pdfrwt>
<pdfrwt beam="2">  1       -2 0.14074224E+00 0.10729637E+04</pdfrwt>
<totfact> 0.25402261E+01</totfact>
</mgrwt>
</event>
<event>
12    4  0.4398275E-008  0.1223081E+04  0.7818608E-02  0.9092890E-01
         -2   -1    0    0    0  501 -0.00000000000E+00  0.00000000000E+00  0.17079109672E+03  0.17079109672E+03  0.00000000000E+00 0.  1.
          1   -1    0    0  501    0  0.00000000000E+00 -0.00000000000E+00 -0.21897033186E+04  0.21897033186E+04  0.00000000000E+00 0. -1.
        -24    2    1    2    0    0  0.69047869150E+02 -0.71850918961E+01  0.34986184966E+02  0.10911857272E+03  0.76574120911E+02 0.  0.
        254    2    1    2    0    0 -0.69047869150E+02  0.71850918961E+01 -0.20538984069E+04  0.22513758426E+04  0.91944292115E+03 0.  0.
         23    2    4    4    0    0  0.33761506656E+02 -0.26474518695E+03 -0.14292005002E+03  0.31591904233E+03  0.90270965803E+02 0.  0.
         23    2    4    4    0    0 -0.10280937581E+03  0.27193027884E+03 -0.19109783568E+04  0.19354568003E+04  0.98177905747E+02 0.  0.
          1    1    3    3  502    0  0.19739561853E+02  0.10401076253E+02 -0.22278957370E+02  0.31530693473E+02  0.00000000000E+00 0. -1.
         -2    1    3    3    0  502  0.49308307297E+02 -0.17586168149E+02  0.57265142336E+02  0.77587879243E+02  0.00000000000E+00 0.  1.
         11    1    5    5    0    0  0.40367693495E+02 -0.26796437945E+03 -0.12888471877E+03  0.30007620709E+03  0.00000000000E+00 0.  1.
        -11    1    5    5    0    0 -0.66061868389E+01  0.32191925039E+01 -0.14035331257E+02  0.15842835239E+02  0.00000000000E+00 0. -1.
          1    1    6    6  503    0 -0.40884444979E+01  0.10071746285E+02 -0.31092486980E+03  0.31111481822E+03  0.00000000000E+00 0. -1.
         -1    1    6    6    0  503 -0.98720931308E+02  0.26185853256E+03 -0.16000534870E+04  0.16243419821E+04  0.00000000000E+00 0.  1.
<mgrwt>
<rscale>  0 0.12230811E+04</rscale>
<asrwt>0</asrwt>
<pdfrwt beam="1">  1        1 0.33687740E+00 0.12230811E+04</pdfrwt>
<pdfrwt beam="2">  1       -2 0.26275556E-01 0.12230811E+04</pdfrwt>
<totfact> 0.25240754E+01</totfact>
</mgrwt>
</event>
<event>
12    4  0.4398275E-008  0.1415784E+04  0.7818608E-02  0.8942472E-01
         -2   -1    0    0    0  501 -0.00000000000E+00  0.00000000000E+00  0.40934432638E+03  0.40934432638E+03  0.00000000000E+00 0.  1.
          1   -1    0    0  501    0  0.00000000000E+00 -0.00000000000E+00 -0.12241806858E+04  0.12241806858E+04  0.00000000000E+00 0. -1.
        -24    2    1    2    0    0  0.35105671640E+03 -0.14126504793E+03 -0.44787392894E+03  0.59135781533E+03  0.76917992901E+02 0.  0.
        254    2    1    2    0    0 -0.35105671640E+03  0.14126504793E+03 -0.36696243050E+03  0.10421671969E+04  0.89902970414E+03 0.  0.
         23    2    4    4    0    0 -0.19929229232E+02  0.48232128991E+03 -0.19117207063E+03  0.52708850692E+03  0.90799408895E+02 0.  0.
         23    2    4    4    0    0 -0.33112748717E+03 -0.34105624198E+03 -0.17579035987E+03  0.51507868995E+03  0.91864211008E+02 0.  0.
          3    1    3    3  502    0  0.31654377102E+03 -0.11728743729E+03 -0.42733167930E+03  0.54458118408E+03  0.00000000000E+00 0. -1.
         -4    1    3    3    0  502  0.34512945386E+02 -0.23977610643E+02 -0.20542249635E+02  0.46776631253E+02  0.00000000000E+00 0.  1.
         11    1    5    5    0    0 -0.15684144822E+02  0.48432971919E+03 -0.18364176861E+03  0.51821382504E+03  0.00000000000E+00 0.  1.
        -11    1    5    5    0    0 -0.42450844094E+01 -0.20084292768E+01 -0.75303020257E+01  0.88746818761E+01  0.00000000000E+00 0. -1.
          3    1    6    6  503    0 -0.12630805243E+03 -0.10590303024E+03 -0.18663304452E+02  0.16588398011E+03  0.00000000000E+00 0. -1.
         -3    1    6    6    0  503 -0.20481943474E+03 -0.23515321173E+03 -0.15712705541E+03  0.34919470984E+03  0.00000000000E+00 0.  1.
<mgrwt>
<rscale>  0 0.14157845E+04</rscale>
<asrwt>0</asrwt>
<pdfrwt beam="1">  1        1 0.18833549E+00 0.14157845E+04</pdfrwt>
<pdfrwt beam="2">  1       -2 0.62976051E-01 0.14157845E+04</pdfrwt>
<totfact> 0.20475689E+01</totfact>
</mgrwt>
</event>
<event>
12    4  0.4398275E-008  0.1698778E+04  0.7818608E-02  0.8762061E-01
          1   -1    0    0  501    0  0.00000000000E+00  0.00000000000E+00  0.14968936058E+04  0.14968936058E+04  0.00000000000E+00 0. -1.
         -2   -1    0    0    0  501 -0.00000000000E+00 -0.00000000000E+00 -0.48197286327E+03  0.48197286327E+03  0.00000000000E+00 0.  1.
        -24    2    1    2    0    0 -0.21999871995E+03 -0.44058857143E+03  0.77892110258E+03  0.92504586218E+03  0.80461400966E+02 0.  0.
        254    2    1    2    0    0  0.21999871995E+03  0.44058857143E+03  0.23599963993E+03  0.10538206069E+04  0.90129036128E+03 0.  0.
         23    2    4    4    0    0  0.47353173169E+03  0.14428102364E+03  0.37713042225E+03  0.62913029920E+03  0.92348596561E+02 0.  0.
         23    2    4    4    0    0 -0.25353301174E+03  0.29630754778E+03 -0.14113078233E+03  0.42469030765E+03  0.91470261713E+02 0.  0.
          1    1    3    3  502    0 -0.17444187780E+03 -0.26745583480E+03  0.47618713450E+03  0.57333827655E+03  0.00000000000E+00 0. -1.
         -2    1    3    3    0  502 -0.45556842145E+02 -0.17313273663E+03  0.30273396809E+03  0.35170758563E+03  0.00000000000E+00 0.  1.
         11    1    5    5    0    0  0.16178090079E+03  0.57508709047E+02  0.18673113884E+03  0.25367071114E+03  0.00000000000E+00 0.  1.
        -11    1    5    5    0    0  0.31175083090E+03  0.86772314598E+02  0.19039928341E+03  0.37545958807E+03  0.00000000000E+00 0. -1.
          2    1    6    6  503    0 -0.11122912392E+03  0.12741900467E+03 -0.13643680004E+02  0.16968697877E+03  0.00000000000E+00 0. -1.
         -2    1    6    6    0  503 -0.14230388783E+03  0.16888854311E+03 -0.12748710232E+03  0.25500332889E+03  0.00000000000E+00 0.  1.
<mgrwt>
<rscale>  0 0.16987785E+04</rscale>
<asrwt>0</asrwt>
<pdfrwt beam="1">  1        1 0.23029132E+00 0.16987785E+04</pdfrwt>
<pdfrwt beam="2">  1       -2 0.74149672E-01 0.16987785E+04</pdfrwt>
<totfact> 0.89914454E+00</totfact>
</mgrwt>
</event>
<event>
12    4  0.4398275E-008  0.1561886E+04  0.7818608E-02  0.8844311E-01
          1   -1    0    0  501    0  0.00000000000E+00  0.00000000000E+00  0.21455732342E+04  0.21455732342E+04  0.00000000000E+00 0. -1.
         -4   -1    0    0    0  501 -0.00000000000E+00 -0.00000000000E+00 -0.28424656675E+03  0.28424656675E+03  0.00000000000E+00 0.  1.
        -24    2    1    2    0    0 -0.18013279502E+03 -0.47343121857E+03  0.80519321303E+03  0.95459873564E+03  0.79609630285E+02 0.  0.
        254    2    1    2    0    0  0.18013279502E+03  0.47343121857E+03  0.10561334545E+04  0.14752210653E+04  0.89681345632E+03 0.  0.
         23    2    4    4    0    0  0.24238786446E+03 -0.84923862352E+02  0.81057253113E+03  0.85513549494E+03  0.90911755214E+02 0.  0.
         23    2    4    4    0    0 -0.62255069443E+02  0.55835508092E+03  0.24556092332E+03  0.62008557040E+03  0.92573524827E+02 0.  0.
          1    1    3    3  502    0 -0.18609912476E+03 -0.46241245494E+03  0.77014070537E+03  0.91737389803E+03  0.00000000000E+00 0. -1.
         -2    1    3    3    0  502  0.59663297375E+01 -0.11018763629E+02  0.35052507658E+02  0.37224837616E+02  0.00000000000E+00 0.  1.
         11    1    5    5    0    0  0.21163522394E+03 -0.55353500812E+02  0.74852922319E+03  0.77983939118E+03  0.00000000000E+00 0.  1.
        -11    1    5    5    0    0  0.30752640518E+02 -0.29570361540E+02  0.62043307949E+02  0.75296103762E+02  0.00000000000E+00 0. -1.
          2    1    6    6  503    0 -0.15158093054E+02  0.13876361409E+03  0.10640270115E+03  0.17551821328E+03  0.00000000000E+00 0. -1.
         -2    1    6    6    0  503 -0.47096976389E+02  0.41959146683E+03  0.13915822216E+03  0.44456735712E+03  0.00000000000E+00 0.  1.
<mgrwt>
<rscale>  0 0.15618858E+04</rscale>
<asrwt>0</asrwt>
<pdfrwt beam="1">  1        1 0.33008818E+00 0.15618858E+04</pdfrwt>
<pdfrwt beam="2">  1       -4 0.43730242E-01 0.15618858E+04</pdfrwt>
<totfact> 0.57618187E+00</totfact>
</mgrwt>
</event>
<event>
12    4  0.4398275E-008  0.1177961E+04  0.7818608E-02  0.9132369E-01
          1   -1    0    0  501    0  0.00000000000E+00  0.00000000000E+00  0.80683448302E+03  0.80683448302E+03  0.00000000000E+00 0. -1.
         -2   -1    0    0    0  501 -0.00000000000E+00 -0.00000000000E+00 -0.42994966887E+03  0.42994966887E+03  0.00000000000E+00 0.  1.
        -24    2    1    2    0    0 -0.23754807683E+02  0.76230936217E+02  0.37976382002E+03  0.39570616251E+03  0.77378042960E+02 0.  0.
        254    2    1    2    0    0  0.23754807683E+02 -0.76230936217E+02 -0.28790058708E+01  0.84107798937E+03  0.83727441679E+03 0.  0.
         23    2    4    4    0    0 -0.16450916356E+03 -0.35968810469E+03 -0.18157637904E+03  0.44477778971E+03  0.91752401857E+02 0.  0.
         23    2    4    4    0    0  0.18826397124E+03  0.28345716847E+03  0.17869737317E+03  0.39630019967E+03  0.96590930492E+02 0.  0.
          1    1    3    3  502    0 -0.36742968249E+02  0.18799941143E+02  0.24763952315E+03  0.25105540610E+03  0.00000000000E+00 0. -1.
         -2    1    3    3    0  502  0.12988160566E+02  0.57430995074E+02  0.13212429686E+03  0.14465075642E+03  0.00000000000E+00 0.  1.
         11    1    5    5    0    0 -0.14989580856E+03 -0.28436826540E+03 -0.10973768369E+03  0.33967105118E+03  0.00000000000E+00 0. -1.
        -11    1    5    5    0    0 -0.14613355001E+02 -0.75319839290E+02 -0.71838695348E+02  0.10510673853E+03  0.00000000000E+00 0.  1.
          2    1    6    6  503    0  0.16278073669E+03  0.19069478313E+03  0.16241795791E+03  0.29873342900E+03  0.00000000000E+00 0. -1.
         -2    1    6    6    0  503  0.25483234551E+02  0.92762385338E+02  0.16279415258E+02  0.97566770664E+02  0.00000000000E+00 0.  1.
<mgrwt>
<rscale>  0 0.11779613E+04</rscale>
<asrwt>0</asrwt>
<pdfrwt beam="1">  1        1 0.12412838E+00 0.11779613E+04</pdfrwt>
<pdfrwt beam="2">  1       -2 0.66146103E-01 0.11779613E+04</pdfrwt>
<totfact> 0.39829001E+01</totfact>
</mgrwt>
</event>
<event>
12    4  0.4398275E-008  0.1678219E+04  0.7818608E-02  0.8773885E-01
          1   -1    0    0  501    0  0.00000000000E+00  0.00000000000E+00  0.29605952723E+04  0.29605952723E+04  0.00000000000E+00 0. -1.
         -2   -1    0    0    0  501 -0.00000000000E+00 -0.00000000000E+00 -0.23782532473E+03  0.23782532473E+03  0.00000000000E+00 0.  1.
        -24    2    1    2    0    0  0.30586398758E+03 -0.40771125621E+03  0.39761402258E+03  0.65127320438E+03  0.79237796813E+02 0.  0.
        254    2    1    2    0    0 -0.30586398758E+03  0.40771125621E+03  0.23251559250E+04  0.25471473926E+04  0.90654758122E+03 0.  0.
         23    2    4    4    0    0  0.24345046136E+03 -0.36467733796E+02  0.28987431260E+03  0.39083383904E+03  0.90144050800E+02 0.  0.
         23    2    4    4    0    0 -0.54931444894E+03  0.44417899001E+03  0.20352816124E+04  0.21563135536E+04  0.90970109020E+02 0.  0.
          1    1    3    3  502    0  0.32645347447E+01 -0.28917524188E+02  0.10764270007E+02  0.31028211373E+02  0.00000000000E+00 0. -1.
         -2    1    3    3    0  502  0.30259945284E+03 -0.37879373203E+03  0.38684975257E+03  0.62024499300E+03  0.00000000000E+00 0.  1.
         11    1    5    5    0    0  0.19034553141E+03  0.11074133106E+02  0.21783009340E+03  0.28948921801E+03  0.00000000000E+00 0.  1.
        -11    1    5    5    0    0  0.53104929946E+02 -0.47541866902E+02  0.72044219197E+02  0.10134462104E+03  0.00000000000E+00 0. -1.
          2    1    6    6  503    0 -0.49804753410E+03  0.36639689689E+03  0.17325477047E+04  0.18395704883E+04  0.00000000000E+00 0.  1.
         -2    1    6    6    0  503 -0.51266914839E+02  0.77782093116E+02  0.30273390767E+03  0.31674306531E+03  0.00000000000E+00 0. -1.
<mgrwt>
<rscale>  0 0.16782187E+04</rscale>
<asrwt>0</asrwt>
<pdfrwt beam="1">  1        1 0.45547617E+00 0.16782187E+04</pdfrwt>
<pdfrwt beam="2">  1       -2 0.36588514E-01 0.16782187E+04</pdfrwt>
<totfact> 0.37759038E+00</totfact>
</mgrwt>
</event>
<event>
12    4  0.4398275E-008  0.2296067E+04  0.7818608E-02  0.8479473E-01
          1   -1    0    0  501    0  0.00000000000E+00  0.00000000000E+00  0.74949352906E+03  0.74949352906E+03  0.00000000000E+00 0. -1.
         -2   -1    0    0    0  501 -0.00000000000E+00 -0.00000000000E+00 -0.17584954024E+04  0.17584954024E+04  0.00000000000E+00 0.  1.
        -24    2    1    2    0    0  0.20751832586E+03  0.90158093507E+03 -0.10286599536E+03  0.93429611404E+03  0.80098549713E+02 0.  0.
        254    2    1    2    0    0 -0.20751832586E+03 -0.90158093507E+03 -0.90613587795E+03  0.15736928174E+04  0.89415592385E+03 0.  0.
         23    2    4    4    0    0  0.37840133462E+02  0.15805393493E+03 -0.20013939682E+03  0.27392712378E+03  0.92560082843E+02 0.  0.
         23    2    4    4    0    0 -0.24535845932E+03 -0.10596348700E+04 -0.70599648113E+03  0.12997656936E+04  0.89067365732E+02 0.  0.
          1    1    3    3  502    0  0.20913670468E+03  0.85590062156E+03 -0.11039851452E+03  0.88797064549E+03  0.00000000000E+00 0. -1.
         -2    1    3    3    0  502 -0.16183788250E+01  0.45680313508E+02  0.75325191589E+01  0.46325468558E+02  0.00000000000E+00 0.  1.
         11    1    5    5    0    0 -0.17259925720E+02 -0.91737044894E+00 -0.97355113829E+01  0.19837509579E+02  0.00000000000E+00 0.  1.
        -11    1    5    5    0    0  0.55100059182E+02  0.15897130538E+03 -0.19040388544E+03  0.25408961420E+03  0.00000000000E+00 0. -1.
          3    1    6    6  503    0 -0.17402593907E+03 -0.79762095408E+03 -0.48443011732E+03  0.94929276434E+03  0.00000000000E+00 0. -1.
         -3    1    6    6    0  503 -0.71332520254E+02 -0.26201391592E+03 -0.22156636381E+03  0.35047292927E+03  0.00000000000E+00 0.  1.
<mgrwt>
<rscale>  0 0.22960670E+04</rscale>
<asrwt>0</asrwt>
<pdfrwt beam="1">  1        1 0.11530670E+00 0.22960670E+04</pdfrwt>
<pdfrwt beam="2">  1       -2 0.27053775E+00 0.22960670E+04</pdfrwt>
<totfact> 0.93464262E-01</totfact>
</mgrwt>
</event>
<event>
12    4  0.4398275E-008  0.1738007E+04  0.7818608E-02  0.8739980E-01
         -2   -1    0    0    0  501 -0.00000000000E+00  0.00000000000E+00  0.86652700039E+03  0.86652700039E+03  0.00000000000E+00 0.  1.
          1   -1    0    0  501    0  0.00000000000E+00 -0.00000000000E+00 -0.87148724706E+03  0.87148724706E+03  0.00000000000E+00 0. -1.
        -24    2    1    2    0    0  0.59979022348E+03 -0.65012026196E+02  0.19437000589E+03  0.63925446222E+03  0.83016218571E+02 0.  0.
        254    2    1    2    0    0 -0.59979022348E+03  0.65012026196E+02 -0.19933025256E+03  0.10987597852E+04  0.89641822847E+03 0.  0.
         23    2    4    4    0    0 -0.41336223017E+03 -0.16930376356E+03  0.27354406908E+03  0.53151400119E+03  0.90270028535E+02 0.  0.
         23    2    4    4    0    0 -0.18642799331E+03  0.23431578976E+03 -0.47287432163E+03  0.56724578404E+03  0.92186601117E+02 0.  0.
          1    1    3    3  502    0  0.46916665030E+03 -0.36470194006E+02  0.11751051031E+03  0.48503210290E+03  0.00000000000E+00 0. -1.
         -2    1    3    3    0  502  0.13062357317E+03 -0.28541832190E+02  0.76859495578E+02  0.15422235932E+03  0.00000000000E+00 0.  1.
         11    1    5    5    0    0 -0.32972932447E+03 -0.14821780983E+03  0.17852917752E+03  0.40319054279E+03  0.00000000000E+00 0. -1.
        -11    1    5    5    0    0 -0.83632905701E+02 -0.21085953732E+02  0.95014891554E+02  0.12832345841E+03  0.00000000000E+00 0.  1.
          4    1    6    6  503    0 -0.16214407754E+03  0.23417718648E+03 -0.45609358070E+03  0.53772763636E+03  0.00000000000E+00 0. -1.
         -4    1    6    6    0  503 -0.24283915773E+02  0.13860328307E+00 -0.16780740937E+02  0.29518147681E+02  0.00000000000E+00 0.  1.
<mgrwt>
<rscale>  0 0.17380072E+04</rscale>
<asrwt>0</asrwt>
<pdfrwt beam="1">  1        1 0.13407496E+00 0.17380072E+04</pdfrwt>
<pdfrwt beam="2">  1       -2 0.13331185E+00 0.17380072E+04</pdfrwt>
<totfact> 0.65046711E+00</totfact>
</mgrwt>
</event>
<event>
12    4  0.4398275E-008  0.1481905E+04  0.7818608E-02  0.8896576E-01
         -2   -1    0    0    0  501 -0.00000000000E+00  0.00000000000E+00  0.29148961389E+03  0.29148961389E+03  0.00000000000E+00 0.  1.
          1   -1    0    0  501    0  0.00000000000E+00 -0.00000000000E+00 -0.18834663781E+04  0.18834663781E+04  0.00000000000E+00 0. -1.
        -24    2    1    2    0    0  0.17789999982E+03 -0.28268286940E+03 -0.97796722126E+03  0.10367504184E+04  0.82906752997E+02 0.  0.
        254    2    1    2    0    0 -0.17789999982E+03  0.28268286940E+03 -0.61400954293E+03  0.11382055735E+04  0.89830183915E+03 0.  0.
         23    2    4    4    0    0  0.20374662965E+03  0.20617058969E+03 -0.66842391762E+03  0.73417704250E+03  0.90589154653E+02 0.  0.
         23    2    4    4    0    0 -0.38164662948E+03  0.76512279708E+02  0.54414374687E+02  0.40402853103E+03  0.93647482498E+02 0.  0.
          1    1    3    3  502    0  0.18059238802E+03 -0.28685079646E+03 -0.96765843646E+03  0.10253096311E+04  0.00000000000E+00 0. -1.
         -2    1    3    3    0  502 -0.26923881996E+01  0.41679270613E+01 -0.10308784801E+02  0.11440787310E+02  0.00000000000E+00 0.  1.
         11    1    5    5    0    0  0.16971412675E+03  0.11804565850E+03 -0.41318129525E+03  0.46201346847E+03  0.00000000000E+00 0.  1.
        -11    1    5    5    0    0  0.34032502902E+02  0.88124931192E+02 -0.25524262237E+03  0.27216357403E+03  0.00000000000E+00 0. -1.
          4    1    6    6  503    0 -0.14952220538E+02  0.16523351932E+01  0.24276271245E+02  0.28559349715E+02  0.00000000000E+00 0. -1.
         -4    1    6    6    0  503 -0.36669440894E+03  0.74859944515E+02  0.30138103443E+02  0.37546918132E+03  0.00000000000E+00 0.  1.
<mgrwt>
<rscale>  0 0.14819054E+04</rscale>
<asrwt>0</asrwt>
<pdfrwt beam="1">  1        1 0.28976406E+00 0.14819054E+04</pdfrwt>
<pdfrwt beam="2">  1       -2 0.44844556E-01 0.14819054E+04</pdfrwt>
<totfact> 0.14343632E+01</totfact>
</mgrwt>
</event>
<event>
12    4  0.4398275E-008  0.3101058E+04  0.7818608E-02  0.8215448E-01
          1   -1    0    0  501    0  0.00000000000E+00  0.00000000000E+00  0.67785809353E+03  0.67785809353E+03  0.00000000000E+00 0. -1.
         -2   -1    0    0    0  501 -0.00000000000E+00 -0.00000000000E+00 -0.35466711098E+04  0.35466711098E+04  0.00000000000E+00 0.  1.
        -24    2    1    2    0    0 -0.50654642095E+03  0.36502803104E+03 -0.30455517064E+04  0.31098857541E+04  0.78545954865E+02 0.  0.
        254    2    1    2    0    0  0.50654642095E+03 -0.36502803104E+03  0.17673869013E+03  0.11146434493E+04  0.90628842781E+03 0.  0.
         23    2    4    4    0    0 -0.19452986066E+03  0.77910912533E+02  0.16055375988E+03  0.28007462485E+03  0.93553774328E+02 0.  0.
         23    2    4    4    0    0  0.70107628161E+03 -0.44293894357E+03  0.16184930245E+02  0.83456882442E+03  0.92413799566E+02 0.  0.
          3    1    3    3  502    0 -0.21186867269E+03  0.12733339153E+03 -0.10462744054E+04  0.10750777918E+04  0.00000000000E+00 0. -1.
         -4    1    3    3    0  502 -0.29467774826E+03  0.23769463951E+03 -0.19992773010E+04  0.20348079623E+04  0.00000000000E+00 0.  1.
         11    1    5    5    0    0 -0.13691349416E+03  0.72582732137E+02  0.15924257821E+03  0.22219756210E+03  0.00000000000E+00 0.  1.
        -11    1    5    5    0    0 -0.57616366500E+02  0.53281803964E+01  0.13111816710E+01  0.57877062749E+02  0.00000000000E+00 0. -1.
          3    1    6    6  503    0  0.13483774953E+03 -0.56156141228E+02  0.28060114846E+02  0.14873500241E+03  0.00000000000E+00 0. -1.
         -3    1    6    6    0  503  0.56623853208E+03 -0.38678280234E+03 -0.11875184601E+02  0.68583382201E+03  0.00000000000E+00 0.  1.
<mgrwt>
<rscale>  0 0.31010577E+04</rscale>
<asrwt>0</asrwt>
<pdfrwt beam="1">  1        1 0.10428586E+00 0.31010577E+04</pdfrwt>
<pdfrwt beam="2">  1       -2 0.54564172E+00 0.31010577E+04</pdfrwt>
<totfact> 0.18917054E-02</totfact>
</mgrwt>
</event>
<event>
12    4  0.4398275E-008  0.2516173E+04  0.7818608E-02  0.8397246E-01
         -2   -1    0    0    0  501 -0.00000000000E+00  0.00000000000E+00  0.69236959995E+03  0.69236959995E+03  0.00000000000E+00 0.  1.
          1   -1    0    0  501    0  0.00000000000E+00 -0.00000000000E+00 -0.22860359036E+04  0.22860359036E+04  0.00000000000E+00 0. -1.
        -24    2    1    2    0    0 -0.29030374232E+03  0.23003917844E+03 -0.19096736497E+04  0.19469559695E+04  0.81177659429E+02 0.  0.
        254    2    1    2    0    0  0.29030374232E+03 -0.23003917844E+03  0.31600734610E+03  0.10314495340E+04  0.90930369623E+03 0.  0.
         23    2    4    4    0    0 -0.68406699132E+00  0.11510252739E+03 -0.25732142086E+03  0.29544568911E+03  0.88457796819E+02 0.  0.
         23    2    4    4    0    0  0.29098780931E+03 -0.34514170582E+03  0.57332876696E+03  0.73600384490E+03  0.95911847089E+02 0.  0.
          1    1    3    3  502    0 -0.47547928939E+02  0.62609663733E+01 -0.29499020839E+03  0.29886322673E+03  0.00000000000E+00 0. -1.
         -2    1    3    3    0  502 -0.24275581338E+03  0.22377821206E+03 -0.16146834414E+04  0.16480927428E+04  0.00000000000E+00 0.  1.
         11    1    5    5    0    0 -0.14368545531E+02  0.11819518367E+03 -0.25472403750E+03  0.28117768728E+03  0.00000000000E+00 0. -1.
        -11    1    5    5    0    0  0.13684478540E+02 -0.30926562803E+01 -0.25973833597E+01  0.14268001825E+02  0.00000000000E+00 0.  1.
          4    1    6    6  503    0  0.61849794649E+02 -0.75584803908E+02  0.19462444690E+03  0.21775475887E+03  0.00000000000E+00 0.  1.
         -4    1    6    6    0  503  0.22913801466E+03 -0.26955690192E+03  0.37870432006E+03  0.51824908602E+03  0.00000000000E+00 0. -1.
<mgrwt>
<rscale>  0 0.25161731E+04</rscale>
<asrwt>0</asrwt>
<pdfrwt beam="1">  1        1 0.35169783E+00 0.25161731E+04</pdfrwt>
<pdfrwt beam="2">  1       -2 0.10651840E+00 0.25161731E+04</pdfrwt>
<totfact> 0.10534489E+00</totfact>
</mgrwt>
</event>
<event>
12    4  0.4398275E-008  0.1304349E+04  0.7818608E-02  0.9026123E-01
          1   -1    0    0  501    0  0.00000000000E+00  0.00000000000E+00  0.96894931843E+03  0.96894931843E+03  0.00000000000E+00 0. -1.
         -2   -1    0    0    0  501 -0.00000000000E+00 -0.00000000000E+00 -0.43896168666E+03  0.43896168666E+03  0.00000000000E+00 0.  1.
        -24    2    1    2    0    0 -0.18186352165E+02 -0.19862848973E+03  0.42951255719E+03  0.48049261050E+03  0.81290169295E+02 0.  0.
        254    2    1    2    0    0  0.18186352165E+02  0.19862848973E+03  0.10047507459E+03  0.92741839459E+03  0.90012533442E+03 0.  0.
         23    2    4    4    0    0  0.32943935528E+01 -0.33704192447E+03  0.15319087856E+03  0.38127354593E+03  0.91071179151E+02 0.  0.
         23    2    4    4    0    0  0.14891958612E+02  0.53567041420E+03 -0.52715803973E+02  0.54614484865E+03  0.91272540441E+02 0.  0.
          3    1    3    3  502    0  0.32299996312E+01 -0.14055178298E+03  0.36474839668E+03  0.39090488546E+03  0.00000000000E+00 0. -1.
         -4    1    3    3    0  502 -0.21416351797E+02 -0.58076706749E+02  0.64764160508E+02  0.89587725037E+02  0.00000000000E+00 0.  1.
         11    1    5    5    0    0 -0.34930240769E+02 -0.15592725420E+03  0.41538794449E+02  0.16510270066E+03  0.00000000000E+00 0.  1.
        -11    1    5    5    0    0  0.38224634322E+02 -0.18111467027E+03  0.11165208411E+03  0.21617084527E+03  0.00000000000E+00 0. -1.
          3    1    6    6  503    0  0.22305326330E+02  0.53388076281E+03 -0.46610166735E+02  0.53637552528E+03  0.00000000000E+00 0. -1.
         -3    1    6    6    0  503 -0.74133677179E+01  0.17896513948E+01 -0.61056372384E+01  0.97693233707E+01  0.00000000000E+00 0.  1.
<mgrwt>
<rscale>  0 0.13043491E+04</rscale>
<asrwt>0</asrwt>
<pdfrwt beam="1">  1        1 0.14906913E+00 0.13043491E+04</pdfrwt>
<pdfrwt beam="2">  1       -2 0.67532567E-01 0.13043491E+04</pdfrwt>
<totfact> 0.27707338E+01</totfact>
</mgrwt>
</event>
<event>
12    4  0.4398275E-008  0.2609418E+04  0.7818608E-02  0.8365009E-01
          3   -1    0    0  501    0  0.00000000000E+00  0.00000000000E+00  0.31546391847E+04  0.31546391847E+04  0.00000000000E+00 0. -1.
         -4   -1    0    0    0  501 -0.00000000000E+00 -0.00000000000E+00 -0.53960688985E+03  0.53960688985E+03  0.00000000000E+00 0.  1.
        -24    2    1    2    0    0  0.21282581283E+01  0.10406715838E+04  0.18380915360E+04  0.21137613504E+04  0.80029223840E+02 0.  0.
        254    2    1    2    0    0 -0.21282581283E+01 -0.10406715838E+04  0.77694075885E+03  0.15804847242E+04  0.90071812780E+03 0.  0.
         23    2    4    4    0    0 -0.21383930724E+03 -0.34059914265E+03 -0.11073667874E+03  0.42676963019E+03  0.90192460540E+02 0.  0.
         23    2    4    4    0    0  0.21171104911E+03 -0.70007244120E+03  0.88767743759E+03  0.11537150940E+04  0.90356481161E+02 0.  0.
          3    1    3    3  502    0 -0.28130187034E+02  0.75655823014E+03  0.13738389679E+04  0.15686316243E+04  0.00000000000E+00 0. -1.
         -4    1    3    3    0  502  0.30258445163E+02  0.28411335371E+03  0.46425256814E+03  0.54512972611E+03  0.00000000000E+00 0.  1.
         11    1    5    5    0    0  0.19891010471E+01 -0.18190805515E+02  0.94561146845E+01  0.20598058966E+02  0.00000000000E+00 0.  1.
        -11    1    5    5    0    0 -0.21582840829E+03 -0.32240833713E+03 -0.12019279343E+03  0.40617157122E+03  0.00000000000E+00 0. -1.
          3    1    6    6  503    0  0.13939884280E+03 -0.52049377897E+03  0.59416232466E+03  0.80210640153E+03  0.00000000000E+00 0. -1.
         -3    1    6    6    0  503  0.72312206312E+02 -0.17957866223E+03  0.29351511294E+03  0.35160869248E+03  0.00000000000E+00 0.  1.
<mgrwt>
<rscale>  0 0.26094176E+04</rscale>
<asrwt>0</asrwt>
<pdfrwt beam="1">  1        3 0.48532909E+00 0.26094176E+04</pdfrwt>
<pdfrwt beam="2">  1       -4 0.83016447E-01 0.26094176E+04</pdfrwt>
<totfact> 0.10446207E-02</totfact>
</mgrwt>
</event>
<event>
12    4  0.4398275E-008  0.1433522E+04  0.7818608E-02  0.8929904E-01
          1   -1    0    0  501    0  0.00000000000E+00  0.00000000000E+00  0.13930495139E+04  0.13930495139E+04  0.00000000000E+00 0. -1.
         -2   -1    0    0    0  501 -0.00000000000E+00 -0.00000000000E+00 -0.36879278260E+03  0.36879278260E+03  0.00000000000E+00 0.  1.
        -24    2    1    2    0    0  0.28053995835E+03 -0.49481893677E+02 -0.87064509254E+02  0.30851500185E+03  0.80312835581E+02 0.  0.
        254    2    1    2    0    0 -0.28053995835E+03  0.49481893677E+02  0.11113212405E+04  0.14533272946E+04  0.89217386177E+03 0.  0.
         23    2    4    4    0    0 -0.92478080072E+02  0.45801191682E+03  0.62051973265E+03  0.78138849809E+03  0.84830036522E+02 0.  0.
         23    2    4    4    0    0 -0.18806187828E+03 -0.40853002315E+03  0.49080150787E+03  0.67193879653E+03  0.91386958995E+02 0.  0.
          3    1    3    3  502    0  0.58715114654E+02 -0.40583673298E+02 -0.39121141469E+02  0.81393875304E+02  0.00000000000E+00 0. -1.
         -4    1    3    3    0  502  0.22182484370E+03 -0.88982203789E+01 -0.47943367786E+02  0.22712112654E+03  0.00000000000E+00 0.  1.
         11    1    5    5    0    0 -0.77260780350E+02  0.45134306383E+03  0.59264390797E+03  0.74893697405E+03  0.00000000000E+00 0. -1.
        -11    1    5    5    0    0 -0.15217299722E+02  0.66688529984E+01  0.27875824680E+02  0.32451524043E+02  0.00000000000E+00 0.  1.
          2    1    6    6  503    0 -0.15191870411E+03 -0.38779376131E+03  0.43426225031E+03  0.60170341200E+03  0.00000000000E+00 0. -1.
         -2    1    6    6    0  503 -0.36143174168E+02 -0.20736261839E+02  0.56539257563E+02  0.70235384528E+02  0.00000000000E+00 0.  1.
<mgrwt>
<rscale>  0 0.14335224E+04</rscale>
<asrwt>0</asrwt>
<pdfrwt beam="1">  1        1 0.21431531E+00 0.14335224E+04</pdfrwt>
<pdfrwt beam="2">  1       -2 0.56737352E-01 0.14335224E+04</pdfrwt>
<totfact> 0.19313537E+01</totfact>
</mgrwt>
</event>
<event>
12    4  0.4398275E-008  0.1285503E+04  0.7818608E-02  0.9041141E-01
          1   -1    0    0  501    0  0.00000000000E+00  0.00000000000E+00  0.11922829114E+04  0.11922829114E+04  0.00000000000E+00 0. -1.
         -2   -1    0    0    0  501 -0.00000000000E+00 -0.00000000000E+00 -0.34650297273E+03  0.34650297273E+03  0.00000000000E+00 0.  1.
        -24    2    1    2    0    0  0.86655822568E+02  0.25306841687E+03  0.18961270369E+02  0.27968519491E+03  0.79444466616E+02 0.  0.
        254    2    1    2    0    0 -0.86655822568E+02 -0.25306841687E+03  0.82681866831E+03  0.12591006892E+04  0.91112709332E+03 0.  0.
         23    2    4    4    0    0  0.33880536764E+02  0.33048404469E+03  0.25290900494E+03  0.42692865514E+03  0.89092745127E+02 0.  0.
         23    2    4    4    0    0 -0.12053635933E+03 -0.58355246156E+03  0.57390966337E+03  0.83217203410E+03  0.89863804228E+02 0.  0.
          3    1    3    3  502    0 -0.99330140036E+01  0.37000878445E+02  0.19549166189E+02  0.43010460025E+02  0.00000000000E+00 0. -1.
         -4    1    3    3    0  502  0.96588836572E+02  0.21606753842E+03 -0.58789582016E+00  0.23667473488E+03  0.00000000000E+00 0.  1.
         11    1    5    5    0    0 -0.12943713478E+02  0.24795766315E+03  0.19554753412E+03  0.31605281289E+03  0.00000000000E+00 0. -1.
        -11    1    5    5    0    0  0.46824250241E+02  0.82526381538E+02  0.57361470820E+02  0.11087584225E+03  0.00000000000E+00 0.  1.
          1    1    6    6  503    0 -0.13321239952E+03 -0.56229648606E+03  0.55031670115E+03  0.79797954435E+03  0.00000000000E+00 0. -1.
         -1    1    6    6    0  503  0.12676040191E+02 -0.21255975495E+02  0.23592962214E+02  0.34192489749E+02  0.00000000000E+00 0.  1.
<mgrwt>
<rscale>  0 0.12855031E+04</rscale>
<asrwt>0</asrwt>
<pdfrwt beam="1">  1        1 0.18342814E+00 0.12855031E+04</pdfrwt>
<pdfrwt beam="2">  1       -2 0.53308150E-01 0.12855031E+04</pdfrwt>
<totfact> 0.30976192E+01</totfact>
</mgrwt>
</event>
<event>
12    4  0.4398275E-008  0.2509048E+04  0.7818608E-02  0.8399769E-01
         -4   -1    0    0    0  501 -0.00000000000E+00  0.00000000000E+00  0.11459612070E+04  0.11459612070E+04  0.00000000000E+00 0.  1.
          3   -1    0    0  501    0  0.00000000000E+00 -0.00000000000E+00 -0.13733712760E+04  0.13733712760E+04  0.00000000000E+00 0. -1.
        -24    2    1    2    0    0 -0.85810191903E+03  0.67303459893E+03 -0.13941954460E+03  0.11021965297E+04  0.78005806978E+02 0.  0.
        254    2    1    2    0    0  0.85810191903E+03 -0.67303459893E+03 -0.87990524372E+02  0.14171359533E+04  0.90067613650E+03 0.  0.
         23    2    4    4    0    0  0.25922537985E+03 -0.74402730818E+03  0.39055868292E+02  0.79404597845E+03  0.90604758006E+02 0.  0.
         23    2    4    4    0    0  0.59887653918E+03  0.70992709242E+02 -0.12704639266E+03  0.62308997482E+03  0.91691094931E+02 0.  0.
          3    1    3    3  502    0 -0.32379717503E+03  0.27851909783E+03 -0.21550677832E+02  0.42764696903E+03  0.00000000000E+00 0. -1.
         -4    1    3    3    0  502 -0.53430474400E+03  0.39451550111E+03 -0.11786886676E+03  0.67454956069E+03  0.00000000000E+00 0.  1.
         11    1    5    5    0    0  0.40515502937E+02 -0.52048031623E+02  0.16428140815E+02  0.67973431461E+02  0.00000000000E+00 0. -1.
        -11    1    5    5    0    0  0.21870987692E+03 -0.69197927655E+03  0.22627727478E+02  0.72607254699E+03  0.00000000000E+00 0.  1.
          2    1    6    6  503    0  0.29372458307E+03  0.18208995652E+02 -0.10561323403E+03  0.31266572154E+03  0.00000000000E+00 0. -1.
         -2    1    6    6    0  503  0.30515195611E+03  0.52783713590E+02 -0.21433158631E+02  0.31042425328E+03  0.00000000000E+00 0.  1.
<mgrwt>
<rscale>  0 0.25090478E+04</rscale>
<asrwt>0</asrwt>
<pdfrwt beam="1">  1        3 0.21128789E+00 0.25090478E+04</pdfrwt>
<pdfrwt beam="2">  1       -4 0.17630172E+00 0.25090478E+04</pdfrwt>
<totfact> 0.48608203E-02</totfact>
</mgrwt>
</event>
<event>
12    4  0.4398275E-008  0.1577113E+04  0.7818608E-02  0.8834733E-01
         -2   -1    0    0    0  501 -0.00000000000E+00  0.00000000000E+00  0.38887499553E+03  0.38887499553E+03  0.00000000000E+00 0.  1.
          1   -1    0    0  501    0  0.00000000000E+00 -0.00000000000E+00 -0.15990259942E+04  0.15990259942E+04  0.00000000000E+00 0. -1.
        -24    2    1    2    0    0  0.66722153216E+02 -0.49476395411E+03 -0.17778104224E+03  0.53561518945E+03  0.77680861014E+02 0.  0.
        254    2    1    2    0    0 -0.66722153216E+02  0.49476395411E+03 -0.10323699565E+04  0.14522858003E+04  0.89112462808E+03 0.  0.
         23    2    4    4    0    0 -0.30670785086E+03 -0.12000559900E+03 -0.23848448904E+03  0.41595825180E+03  0.87609167065E+02 0.  0.
         23    2    4    4    0    0  0.23998569764E+03  0.61476955311E+03 -0.79388546742E+03  0.10363275485E+04  0.90476040664E+02 0.  0.
          1    1    3    3  502    0  0.33135005031E+02 -0.63848803388E+02 -0.13296904185E+02  0.73153304187E+02  0.00000000000E+00 0. -1.
         -2    1    3    3    0  502  0.33587148184E+02 -0.43091515072E+03 -0.16448413806E+03  0.46246188526E+03  0.00000000000E+00 0.  1.
         11    1    5    5    0    0 -0.27668853692E+03 -0.12508477231E+03 -0.18840533499E+03  0.35735041203E+03  0.00000000000E+00 0.  1.
        -11    1    5    5    0    0 -0.30019313941E+02  0.50791733158E+01 -0.50079154056E+02  0.58607839766E+02  0.00000000000E+00 0. -1.
          3    1    6    6  503    0  0.14512687054E+01  0.24508721053E+02 -0.59743144882E+02  0.64591229660E+02  0.00000000000E+00 0. -1.
         -3    1    6    6    0  503  0.23853442894E+03  0.59026083206E+03 -0.73414232253E+03  0.97173631886E+03  0.00000000000E+00 0.  1.
<mgrwt>
<rscale>  0 0.15771128E+04</rscale>
<asrwt>0</asrwt>
<pdfrwt beam="1">  1        1 0.24600400E+00 0.15771128E+04</pdfrwt>
<pdfrwt beam="2">  1       -2 0.59826922E-01 0.15771128E+04</pdfrwt>
<totfact> 0.12286385E+01</totfact>
</mgrwt>
</event>
<event>
12    4  0.4398275E-008  0.1493470E+04  0.7818608E-02  0.8888807E-01
          1   -1    0    0  501    0  0.00000000000E+00  0.00000000000E+00  0.63187550723E+03  0.63187550723E+03  0.00000000000E+00 0. -1.
         -2   -1    0    0    0  501 -0.00000000000E+00 -0.00000000000E+00 -0.88247283166E+03  0.88247283166E+03  0.00000000000E+00 0.  1.
        -24    2    1    2    0    0  0.31724916647E+03  0.24875400483E+03 -0.31186965468E+03  0.51620289767E+03  0.81713900339E+02 0.  0.
        254    2    1    2    0    0 -0.31724916647E+03 -0.24875400483E+03  0.61272330246E+02  0.99814544122E+03  0.91105128003E+03 0.  0.
         23    2    4    4    0    0 -0.30734367211E+03  0.24168975143E+03  0.24095271577E+03  0.46840090450E+03  0.92016994981E+02 0.  0.
         23    2    4    4    0    0 -0.99054943603E+01 -0.49044375626E+03 -0.17968038553E+03  0.52974453672E+03  0.87812506905E+02 0.  0.
          3    1    3    3  502    0  0.89181022194E+02  0.35162049214E+02 -0.10092561850E+03  0.13919628190E+03  0.00000000000E+00 0. -1.
         -4    1    3    3    0  502  0.22806814428E+03  0.21359195561E+03 -0.21094403618E+03  0.37700661577E+03  0.00000000000E+00 0.  1.
         11    1    5    5    0    0 -0.30385711055E+03  0.22417829799E+03  0.24496141728E+03  0.45010126514E+03  0.00000000000E+00 0.  1.
        -11    1    5    5    0    0 -0.34865615670E+01  0.17511453443E+02 -0.40087015082E+01  0.18299639369E+02  0.00000000000E+00 0. -1.
          1    1    6    6  503    0 -0.27200830059E+02 -0.45396839096E+02 -0.17119264620E+02  0.55622184216E+02  0.00000000000E+00 0. -1.
         -1    1    6    6    0  503  0.17295335698E+02 -0.44504691716E+03 -0.16256112091E+03  0.47412235250E+03  0.00000000000E+00 0.  1.
<mgrwt>
<rscale>  0 0.14934697E+04</rscale>
<asrwt>0</asrwt>
<pdfrwt beam="1">  1        1 0.97211616E-01 0.14934697E+04</pdfrwt>
<pdfrwt beam="2">  1       -2 0.13576505E+00 0.14934697E+04</pdfrwt>
<totfact> 0.10455836E+01</totfact>
</mgrwt>
</event>
<event>
12    4  0.4398275E-008  0.1985471E+04  0.7818608E-02  0.8613444E-01
          1   -1    0    0  501    0  0.00000000000E+00  0.00000000000E+00  0.83255670135E+03  0.83255670135E+03  0.00000000000E+00 0. -1.
         -2   -1    0    0    0  501 -0.00000000000E+00 -0.00000000000E+00 -0.11837316222E+04  0.11837316222E+04  0.00000000000E+00 0.  1.
        -24    2    1    2    0    0 -0.62800389166E+03  0.46881417976E+03 -0.27715131635E+03  0.83511413698E+03  0.80169486371E+02 0.  0.
        254    2    1    2    0    0  0.62800389166E+03 -0.46881417976E+03 -0.74023604491E+02  0.11811741866E+04  0.88063462451E+03 0.  0.
         23    2    4    4    0    0  0.56919956420E+03  0.10777304849E+03  0.23868753113E+02  0.58695384459E+03  0.91334136204E+02 0.  0.
         23    2    4    4    0    0  0.58804327466E+02 -0.57658722825E+03 -0.97892357604E+02  0.59422034197E+03  0.87201607942E+02 0.  0.
          3    1    3    3  502    0 -0.22757714589E+03  0.17480929339E+03 -0.14260403306E+03  0.32044587161E+03  0.00000000000E+00 0. -1.
         -2    1    3    3    0  502 -0.40042674577E+03  0.29400488636E+03 -0.13454728329E+03  0.51466826537E+03  0.00000000000E+00 0.  1.
         11    1    5    5    0    0  0.16968973057E+03 -0.99231272514E+01  0.77425494369E+01  0.17015587027E+03  0.00000000000E+00 0. -1.
        -11    1    5    5    0    0  0.39950983362E+03  0.11769617575E+03  0.16126203676E+02  0.41679797431E+03  0.00000000000E+00 0.  1.
          1    1    6    6  503    0 -0.14363674666E+02 -0.48942359723E+02 -0.24190356992E+02  0.56452131018E+02  0.00000000000E+00 0. -1.
         -1    1    6    6    0  503  0.73168002132E+02 -0.52764486853E+03 -0.73702000612E+02  0.53776821095E+03  0.00000000000E+00 0.  1.
<mgrwt>
<rscale>  0 0.19854709E+04</rscale>
<asrwt>0</asrwt>
<pdfrwt beam="1">  1        1 0.12808565E+00 0.19854709E+04</pdfrwt>
<pdfrwt beam="2">  1       -2 0.18211256E+00 0.19854709E+04</pdfrwt>
<totfact> 0.29561559E+00</totfact>
</mgrwt>
</event>
<event>
12    4  0.4398275E-008  0.2853165E+04  0.7818608E-02  0.8286950E-01
         -2   -1    0    0    0  501 -0.00000000000E+00  0.00000000000E+00  0.83376903823E+03  0.83376903823E+03  0.00000000000E+00 0.  1.
          1   -1    0    0  501    0  0.00000000000E+00 -0.00000000000E+00 -0.24408881622E+04  0.24408881622E+04  0.00000000000E+00 0. -1.
        -24    2    1    2    0    0  0.10427277718E+03 -0.73362619820E+03  0.47780910249E+03  0.88519291250E+03  0.78643138131E+02 0.  0.
        254    2    1    2    0    0 -0.10427277718E+03  0.73362619820E+03 -0.20849282265E+04  0.23894642880E+04  0.90196100972E+03 0.  0.
         23    2    4    4    0    0 -0.19322864208E+03  0.10027963885E+03 -0.32940475874E+02  0.23837352506E+03  0.91343026057E+02 0.  0.
         23    2    4    4    0    0  0.88955864899E+02  0.63334655935E+03 -0.20519877506E+04  0.21510907629E+04  0.86583667045E+02 0.  0.
          1    1    3    3  502    0 -0.24306745635E+01 -0.41008647802E+02  0.47653817462E+02  0.62916640820E+02  0.00000000000E+00 0. -1.
         -2    1    3    3    0  502  0.10670345175E+03 -0.69261755040E+03  0.43015528503E+03  0.82227627168E+03  0.00000000000E+00 0.  1.
         11    1    5    5    0    0  0.21651650074E+01  0.27391212434E+02 -0.20631717478E+01  0.27554003988E+02  0.00000000000E+00 0.  1.
        -11    1    5    5    0    0 -0.19539380709E+03  0.72888426414E+02 -0.30877304126E+02  0.21081952107E+03  0.00000000000E+00 0. -1.
          4    1    6    6  503    0  0.98075537038E+02  0.55956979269E+03 -0.17410784660E+04  0.18314178629E+04  0.00000000000E+00 0. -1.
         -4    1    6    6    0  503 -0.91196721393E+01  0.73776766663E+02 -0.31090928460E+03  0.31967289996E+03  0.00000000000E+00 0.  1.
<mgrwt>
<rscale>  0 0.28531645E+04</rscale>
<asrwt>0</asrwt>
<pdfrwt beam="1">  1        1 0.37552126E+00 0.28531645E+04</pdfrwt>
<pdfrwt beam="2">  1       -2 0.12827216E+00 0.28531645E+04</pdfrwt>
<totfact> 0.50681519E-01</totfact>
</mgrwt>
</event>
<event>
12    4  0.4398275E-008  0.2402623E+04  0.7818608E-02  0.8438522E-01
          3   -1    0    0  501    0  0.00000000000E+00  0.00000000000E+00  0.10313236242E+04  0.10313236242E+04  0.00000000000E+00 0. -1.
         -4   -1    0    0    0  501 -0.00000000000E+00 -0.00000000000E+00 -0.13993178134E+04  0.13993178134E+04  0.00000000000E+00 0.  1.
        -24    2    1    2    0    0 -0.72790757536E+03  0.67501267006E+03  0.12114515310E+03  0.10031731802E+04  0.78668534561E+02 0.  0.
        254    2    1    2    0    0  0.72790757536E+03 -0.67501267006E+03 -0.48913934224E+03  0.14274682574E+04  0.90161898089E+03 0.  0.
         23    2    4    4    0    0  0.16608107987E+03  0.20699864950E+03 -0.16885494669E+03  0.32905830746E+03  0.96623034029E+02 0.  0.
         23    2    4    4    0    0  0.56182649549E+03 -0.88201131956E+03 -0.32028439555E+03  0.10984099499E+04  0.10163338619E+03 0.  0.
          3    1    3    3  502    0 -0.10846385251E+03  0.95641639093E+02 -0.98931176998E+01  0.14494690133E+03  0.00000000000E+00 0. -1.
         -4    1    3    3    0  502 -0.61944372286E+03  0.57937103097E+03  0.13103827080E+03  0.85822627886E+03  0.00000000000E+00 0.  1.
         11    1    5    5    0    0  0.67436652055E+02  0.13441428906E+03 -0.13476279642E+03  0.20193046933E+03  0.00000000000E+00 0. -1.
        -11    1    5    5    0    0  0.98644427816E+02  0.72584360435E+02 -0.34092150268E+02  0.12712783813E+03  0.00000000000E+00 0.  1.
          2    1    6    6  503    0  0.19550754903E+03 -0.27671743576E+03 -0.57419337383E+02  0.34364621530E+03  0.00000000000E+00 0. -1.
         -2    1    6    6    0  503  0.36631894646E+03 -0.60529388380E+03 -0.26286505817E+03  0.75476373462E+03  0.00000000000E+00 0.  1.
<mgrwt>
<rscale>  0 0.24026232E+04</rscale>
<asrwt>0</asrwt>
<pdfrwt beam="1">  1        3 0.15866517E+00 0.24026232E+04</pdfrwt>
<pdfrwt beam="2">  1       -4 0.21527966E+00 0.24026232E+04</pdfrwt>
<totfact> 0.59891285E-02</totfact>
</mgrwt>
</event>
<event>
12    4  0.4398275E-008  0.2599050E+04  0.7818608E-02  0.8368524E-01
          1   -1    0    0  501    0  0.00000000000E+00  0.00000000000E+00  0.90175188452E+03  0.90175188452E+03  0.00000000000E+00 0. -1.
         -2   -1    0    0    0  501 -0.00000000000E+00 -0.00000000000E+00 -0.18727600006E+04  0.18727600006E+04  0.00000000000E+00 0.  1.
        -24    2    1    2    0    0 -0.72257304399E+01  0.10536246565E+03  0.78254951517E+03  0.79369465505E+03  0.80087461032E+02 0.  0.
        254    2    1    2    0    0  0.72257304399E+01 -0.10536246565E+03 -0.17535576312E+04  0.19808172300E+04  0.91516068122E+03 0.  0.
         23    2    4    4    0    0 -0.11584011856E+03  0.14535941494E+03 -0.42410417577E+01  0.20693842434E+03  0.90869315251E+02 0.  0.
         23    2    4    4    0    0  0.12306584900E+03 -0.25072188059E+03 -0.17493165894E+04  0.17738788057E+04  0.92362451867E+02 0.  0.
          1    1    3    3  502    0 -0.20134662337E+02  0.94273759832E+02  0.75625115338E+03  0.76237048304E+03  0.00000000000E+00 0. -1.
         -2    1    3    3    0  502  0.12908931897E+02  0.11088705816E+02  0.26298361794E+02  0.31324172016E+02  0.00000000000E+00 0.  1.
         11    1    5    5    0    0 -0.14994442188E+02  0.87966338203E+02 -0.14686120482E+02  0.90435568711E+02  0.00000000000E+00 0. -1.
        -11    1    5    5    0    0 -0.10084567638E+03  0.57393076739E+02  0.10445078724E+02  0.11650285563E+03  0.00000000000E+00 0.  1.
          1    1    6    6  503    0  0.82446116889E+01 -0.10999617674E+03 -0.55816697434E+03  0.56896177707E+03  0.00000000000E+00 0. -1.
         -1    1    6    6    0  503  0.11482123731E+03 -0.14072570385E+03 -0.11911496151E+04  0.12049170286E+04  0.00000000000E+00 0.  1.
<mgrwt>
<rscale>  0 0.25990497E+04</rscale>
<asrwt>0</asrwt>
<pdfrwt beam="1">  1        1 0.13873106E+00 0.25990497E+04</pdfrwt>
<pdfrwt beam="2">  1       -2 0.28811692E+00 0.25990497E+04</pdfrwt>
<totfact> 0.52641752E-01</totfact>
</mgrwt>
</event>
<event>
12    4  0.4398275E-008  0.2145872E+04  0.7818608E-02  0.8541301E-01
          1   -1    0    0  501    0  0.00000000000E+00  0.00000000000E+00  0.10154175897E+04  0.10154175897E+04  0.00000000000E+00 0. -1.
         -2   -1    0    0    0  501 -0.00000000000E+00 -0.00000000000E+00 -0.11337124723E+04  0.11337124723E+04  0.00000000000E+00 0.  1.
        -24    2    1    2    0    0  0.25384461867E+03 -0.46533132570E+03  0.66871677384E+03  0.85735351062E+03  0.83081799794E+02 0.  0.
        254    2    1    2    0    0 -0.25384461867E+03  0.46533132570E+03 -0.78701165651E+03  0.12917765514E+04  0.87654376852E+03 0.  0.
         23    2    4    4    0    0 -0.48188777717E+03  0.51979475446E+03 -0.75200860872E+03  0.10375516229E+04  0.92703862382E+02 0.  0.
         23    2    4    4    0    0  0.22804315850E+03 -0.54463428762E+02 -0.35003047787E+02  0.25422492846E+03  0.91843092763E+02 0.  0.
          1    1    3    3  502    0  0.17512288188E+03 -0.29409003992E+03  0.48933041380E+03  0.59716097428E+03  0.00000000000E+00 0. -1.
         -2    1    3    3    0  502  0.78721736789E+02 -0.17124128578E+03  0.17938636005E+03  0.26019253634E+03  0.00000000000E+00 0.  1.
         11    1    5    5    0    0 -0.15793510105E+03  0.19449914795E+03 -0.32688182777E+03  0.41185573205E+03  0.00000000000E+00 0.  1.
        -11    1    5    5    0    0 -0.32395267611E+03  0.32529560651E+03 -0.42512678096E+03  0.62569589088E+03  0.00000000000E+00 0. -1.
          2    1    6    6  503    0  0.26121811893E+02  0.22401893998E+02  0.41090309140E+01  0.34656572916E+02  0.00000000000E+00 0.  1.
         -2    1    6    6    0  503  0.20192134660E+03 -0.76865322760E+02 -0.39112078701E+02  0.21956835555E+03  0.00000000000E+00 0. -1.
<mgrwt>
<rscale>  0 0.21458719E+04</rscale>
<asrwt>0</asrwt>
<pdfrwt beam="1">  1        1 0.15621809E+00 0.21458719E+04</pdfrwt>
<pdfrwt beam="2">  1       -2 0.17441730E+00 0.21458719E+04</pdfrwt>
<totfact> 0.23441977E+00</totfact>
</mgrwt>
</event>
<event>
12    4  0.4398275E-008  0.4870803E+04  0.7818608E-02  0.7848752E-01
          3   -1    0    0  501    0  0.00000000000E+00  0.00000000000E+00  0.40723686949E+04  0.40723686949E+04  0.00000000000E+00 0. -1.
         -4   -1    0    0    0  501 -0.00000000000E+00 -0.00000000000E+00 -0.14564447085E+04  0.14564447085E+04  0.00000000000E+00 0.  1.
        -24    2    1    2    0    0 -0.44605840813E+03 -0.15623506783E+04 -0.66553611458E+03  0.17576036613E+04  0.79527134591E+02 0.  0.
        254    2    1    2    0    0  0.44605840813E+03  0.15623506783E+04  0.32814601010E+04  0.37712097420E+04  0.90229417529E+03 0.  0.
         23    2    4    4    0    0 -0.11204296112E+03  0.68824115666E+02  0.51051369939E+02  0.16762667935E+03  0.90565320203E+02 0.  0.
         23    2    4    4    0    0  0.55810136925E+03  0.14935265626E+04  0.32304087310E+04  0.36035830627E+04  0.90396839119E+02 0.  0.
          3    1    3    3  502    0 -0.25059058782E+03 -0.90316519687E+03 -0.42557093993E+03  0.10293753642E+04  0.00000000000E+00 0. -1.
         -4    1    3    3    0  502 -0.19546782030E+03 -0.65918548139E+03 -0.23996517465E+03  0.72822829710E+03  0.00000000000E+00 0.  1.
         11    1    5    5    0    0 -0.12266435229E+03  0.77254604978E+02  0.40709209907E+02  0.15057243136E+03  0.00000000000E+00 0.  1.
        -11    1    5    5    0    0  0.10621391171E+02 -0.84304893126E+01  0.10342160031E+02  0.17054247992E+02  0.00000000000E+00 0. -1.
          3    1    6    6  503    0  0.93521819258E+02  0.31923619818E+03  0.73768965362E+03  0.80922438542E+03  0.00000000000E+00 0. -1.
         -3    1    6    6    0  503  0.46457954999E+03  0.11742903644E+04  0.24927190774E+04  0.27943586773E+04  0.00000000000E+00 0.  1.
<mgrwt>
<rscale>  0 0.48708027E+04</rscale>
<asrwt>0</asrwt>
<pdfrwt beam="1">  1        3 0.62651826E+00 0.48708027E+04</pdfrwt>
<pdfrwt beam="2">  1       -4 0.22406842E+00 0.48708027E+04</pdfrwt>
<totfact> 0.12668163E-04</totfact>
</mgrwt>
</event>
<event>
12    4  0.4398275E-008  0.1324017E+04  0.7818608E-02  0.9010733E-01
         -2   -1    0    0    0  501 -0.00000000000E+00  0.00000000000E+00  0.71394429146E+03  0.71394429146E+03  0.00000000000E+00 0.  1.
          1   -1    0    0  501    0  0.00000000000E+00 -0.00000000000E+00 -0.61385122793E+03  0.61385122793E+03  0.00000000000E+00 0. -1.
        -24    2    1    2    0    0 -0.78815009564E+02 -0.49040668051E+02  0.36359175486E+03  0.38355351742E+03  0.79357064342E+02 0.  0.
        254    2    1    2    0    0  0.78815009564E+02  0.49040668051E+02 -0.26349869134E+03  0.94424200197E+03  0.90196707539E+03 0.  0.
         23    2    4    4    0    0 -0.11571018790E+03  0.28814123691E+03  0.19984225968E+03  0.38056519213E+03  0.92079947381E+02 0.  0.
         23    2    4    4    0    0  0.19452519746E+03 -0.23910056886E+03 -0.46334095103E+03  0.56367680985E+03  0.89652521356E+02 0.  0.
          3    1    3    3  502    0  0.13252835484E+02 -0.10004306026E+01  0.16104463853E+02  0.20880427815E+02  0.00000000000E+00 0. -1.
         -4    1    3    3    0  502 -0.92067845047E+02 -0.48040237448E+02  0.34748729101E+03  0.36267308960E+03  0.00000000000E+00 0.  1.
         11    1    5    5    0    0 -0.12656033455E+03  0.21829303027E+03  0.16727256746E+03  0.30273664656E+03  0.00000000000E+00 0.  1.
        -11    1    5    5    0    0  0.10850146652E+02  0.69848206639E+02  0.32569692223E+02  0.77828545564E+02  0.00000000000E+00 0. -1.
          3    1    6    6  503    0  0.50251587781E+02 -0.39353379823E+02 -0.44761989950E+02  0.77958619294E+02  0.00000000000E+00 0.  1.
         -3    1    6    6    0  503  0.14427360968E+03 -0.19974718904E+03 -0.41857896108E+03  0.48571819055E+03  0.00000000000E+00 0. -1.
<mgrwt>
<rscale>  0 0.13240175E+04</rscale>
<asrwt>0</asrwt>
<pdfrwt beam="1">  1        1 0.94438651E-01 0.13240175E+04</pdfrwt>
<pdfrwt beam="2">  1       -2 0.10983758E+00 0.13240175E+04</pdfrwt>
<totfact> 0.18750191E+01</totfact>
</mgrwt>
</event>
<event>
12    4  0.4398275E-008  0.2461558E+04  0.7818608E-02  0.8416810E-01
         -2   -1    0    0    0  501 -0.00000000000E+00  0.00000000000E+00  0.52720059981E+03  0.52720059981E+03  0.00000000000E+00 0.  1.
          1   -1    0    0  501    0  0.00000000000E+00 -0.00000000000E+00 -0.28733227506E+04  0.28733227506E+04  0.00000000000E+00 0. -1.
        -24    2    1    2    0    0  0.59036537577E+03 -0.74018275807E+03 -0.33840269289E+03  0.10089671139E+04  0.84240501359E+02 0.  0.
        254    2    1    2    0    0 -0.59036537577E+03  0.74018275807E+03 -0.20077194579E+04  0.23915562366E+04  0.89005731199E+03 0.  0.
         23    2    4    4    0    0 -0.26735814005E+03  0.87793801966E+03 -0.15983389089E+04  0.18451853549E+04  0.88125959750E+02 0.  0.
         23    2    4    4    0    0 -0.32300723572E+03 -0.13775526160E+03 -0.40938054906E+03  0.54637088170E+03  0.87284133676E+02 0.  0.
          3    1    3    3  502    0  0.26845329713E+03 -0.30853324394E+03 -0.18643995546E+03  0.44946611924E+03  0.00000000000E+00 0. -1.
         -4    1    3    3    0  502  0.32191207865E+03 -0.43164951413E+03 -0.15196273742E+03  0.55950099463E+03  0.00000000000E+00 0.  1.
         11    1    5    5    0    0 -0.17299972501E+03  0.45771314300E+03 -0.90991248632E+03  0.10331364667E+04  0.00000000000E+00 0. -1.
        -11    1    5    5    0    0 -0.94358415038E+02  0.42022487666E+03 -0.68842642256E+03  0.81204888814E+03  0.00000000000E+00 0.  1.
          3    1    6    6  503    0 -0.14068648872E+03 -0.70953097635E+02 -0.12079019228E+03  0.19853790752E+03  0.00000000000E+00 0. -1.
         -3    1    6    6    0  503 -0.18232074701E+03 -0.66802163960E+02 -0.28859035678E+03  0.34783297418E+03  0.00000000000E+00 0.  1.
<mgrwt>
<rscale>  0 0.24615584E+04</rscale>
<asrwt>0</asrwt>
<pdfrwt beam="1">  1        1 0.44204964E+00 0.24615584E+04</pdfrwt>
<pdfrwt beam="2">  1       -2 0.81107786E-01 0.24615584E+04</pdfrwt>
<totfact> 0.77552289E-01</totfact>
</mgrwt>
</event>
<event>
12    4  0.4398275E-008  0.1660875E+04  0.7818608E-02  0.8783999E-01
         -2   -1    0    0    0  501 -0.00000000000E+00  0.00000000000E+00  0.60703278758E+03  0.60703278758E+03  0.00000000000E+00 0.  1.
          1   -1    0    0  501    0  0.00000000000E+00 -0.00000000000E+00 -0.11360610209E+04  0.11360610209E+04  0.00000000000E+00 0. -1.
        -24    2    1    2    0    0  0.54916482799E+03  0.81547916389E+02 -0.20959747010E+01  0.56077443269E+03  0.78939852348E+02 0.  0.
        254    2    1    2    0    0 -0.54916482799E+03 -0.81547916389E+02 -0.52693225859E+03  0.11823193758E+04  0.90110456118E+03 0.  0.
         23    2    4    4    0    0  0.21514660519E+03 -0.14750864412E+03 -0.75780841474E+02  0.28714770505E+03  0.93081720889E+02 0.  0.
         23    2    4    4    0    0 -0.76431143318E+03  0.65960727734E+02 -0.45115141712E+03  0.89517167070E+03  0.96290884165E+02 0.  0.
          3    1    3    3  502    0  0.43120862649E+03  0.62991075573E+02 -0.34205448696E+02  0.43712557450E+03  0.00000000000E+00 0. -1.
         -4    1    3    3    0  502  0.11795620150E+03  0.18556840816E+02  0.32109473995E+02  0.12364885820E+03  0.00000000000E+00 0.  1.
         11    1    5    5    0    0  0.89986580733E+02 -0.36287786477E+02  0.12556473704E+02  0.97836870306E+02  0.00000000000E+00 0. -1.
        -11    1    5    5    0    0  0.12516002446E+03 -0.11122085765E+03 -0.88337315178E+02  0.18931083474E+03  0.00000000000E+00 0.  1.
          4    1    6    6  503    0 -0.85699180255E+02 -0.23055243297E+02 -0.51799152989E+02  0.10275721868E+03  0.00000000000E+00 0. -1.
         -4    1    6    6    0  503 -0.67861225292E+03  0.89015971031E+02 -0.39935226413E+03  0.79241445203E+03  0.00000000000E+00 0.  1.
<mgrwt>
<rscale>  0 0.16608748E+04</rscale>
<asrwt>0</asrwt>
<pdfrwt beam="1">  1        1 0.17477862E+00 0.16608748E+04</pdfrwt>
<pdfrwt beam="2">  1       -2 0.93389660E-01 0.16608748E+04</pdfrwt>
<totfact> 0.96751892E+00</totfact>
</mgrwt>
</event>
<event>
12    4  0.4398275E-008  0.1787354E+04  0.7818608E-02  0.8713053E-01
         -2   -1    0    0    0  501 -0.00000000000E+00  0.00000000000E+00  0.55522988072E+03  0.55522988072E+03  0.00000000000E+00 0.  1.
          1   -1    0    0  501    0  0.00000000000E+00 -0.00000000000E+00 -0.14384288102E+04  0.14384288102E+04  0.00000000000E+00 0. -1.
        -24    2    1    2    0    0  0.39144347058E+03 -0.39321228600E+03  0.76898586985E+02  0.56578943230E+03  0.79752093987E+02 0.  0.
        254    2    1    2    0    0 -0.39144347058E+03  0.39321228600E+03 -0.96009751645E+03  0.14278692586E+04  0.89954404342E+03 0.  0.
         23    2    4    4    0    0 -0.18512444664E+03 -0.98494365597E+02 -0.84420345314E+03  0.87454390831E+03  0.90417788475E+02 0.  0.
         23    2    4    4    0    0 -0.20631902394E+03  0.49170665159E+03 -0.11589406331E+03  0.55332535029E+03  0.91621714132E+02 0.  0.
          1    1    3    3  502    0  0.34724175566E+02 -0.73984890153E+02  0.15176751085E+02  0.83125604438E+02  0.00000000000E+00 0. -1.
         -2    1    3    3    0  502  0.35671929502E+03 -0.31922739584E+03  0.61721835901E+02  0.48266382786E+03  0.00000000000E+00 0.  1.
         11    1    5    5    0    0 -0.17093847151E+03 -0.10063296231E+03 -0.83313728806E+03  0.85642553377E+03  0.00000000000E+00 0.  1.
        -11    1    5    5    0    0 -0.14185975132E+02  0.21385967092E+01 -0.11066165082E+02  0.18118374539E+02  0.00000000000E+00 0. -1.
          1    1    6    6  503    0 -0.63373270062E+02  0.67911362713E+02 -0.32183425082E+02  0.98305123945E+02  0.00000000000E+00 0. -1.
         -1    1    6    6    0  503 -0.14294575388E+03  0.42379528888E+03 -0.83710638229E+02  0.45502022635E+03  0.00000000000E+00 0.  1.
<mgrwt>
<rscale>  0 0.17873541E+04</rscale>
<asrwt>0</asrwt>
<pdfrwt beam="1">  1        1 0.22129674E+00 0.17873541E+04</pdfrwt>
<pdfrwt beam="2">  1       -2 0.85419981E-01 0.17873541E+04</pdfrwt>
<totfact> 0.71310151E+00</totfact>
</mgrwt>
</event>
<event>
12    4  0.4398275E-008  0.1556732E+04  0.7818608E-02  0.8847579E-01
          1   -1    0    0  501    0  0.00000000000E+00  0.00000000000E+00  0.19557682280E+04  0.19557682280E+04  0.00000000000E+00 0. -1.
         -2   -1    0    0    0  501 -0.00000000000E+00 -0.00000000000E+00 -0.30977768947E+03  0.30977768947E+03  0.00000000000E+00 0.  1.
        -24    2    1    2    0    0 -0.47681151098E+03 -0.60535700629E+02  0.65264538582E+03  0.81449785550E+03  0.80293019149E+02 0.  0.
        254    2    1    2    0    0  0.47681151098E+03  0.60535700629E+02  0.99334515275E+03  0.14510480620E+04  0.94222720068E+03 0.  0.
         23    2    4    4    0    0  0.27446504183E+03 -0.24776403419E+03 -0.67082059222E+01  0.38117598942E+03  0.92369145587E+02 0.  0.
         23    2    4    4    0    0  0.20234646915E+03  0.30829973482E+03  0.10000533587E+04  0.10698720726E+04  0.92340194074E+02 0.  0.
          3    1    3    3  502    0 -0.47836510895E+03 -0.64540897991E+02  0.64375204157E+03  0.80462127489E+03  0.00000000000E+00 0. -1.
         -4    1    3    3    0  502  0.15535979732E+01  0.40051973622E+01  0.88933442540E+01  0.98765806123E+01  0.00000000000E+00 0.  1.
         11    1    5    5    0    0  0.27776636191E+03 -0.24766475677E+03 -0.14796695787E+02  0.37243915712E+03  0.00000000000E+00 0. -1.
        -11    1    5    5    0    0 -0.33013200770E+01 -0.99277422998E-01  0.80884898646E+01  0.87368322948E+01  0.00000000000E+00 0.  1.
          1    1    6    6  503    0  0.17704027717E+03  0.23670704871E+03  0.87490229044E+03  0.92348660221E+03  0.00000000000E+00 0. -1.
         -1    1    6    6    0  503  0.25306191985E+02  0.71592686108E+02  0.12515106823E+03  0.14638547037E+03  0.00000000000E+00 0.  1.
<mgrwt>
<rscale>  0 0.15567317E+04</rscale>
<asrwt>0</asrwt>
<pdfrwt beam="1">  1        1 0.30088741E+00 0.15567317E+04</pdfrwt>
<pdfrwt beam="2">  1       -2 0.47658107E-01 0.15567317E+04</pdfrwt>
<totfact> 0.11266808E+01</totfact>
</mgrwt>
</event>
<event>
12    4  0.4398275E-008  0.1485000E+04  0.7818608E-02  0.8894489E-01
         -2   -1    0    0    0  501 -0.00000000000E+00  0.00000000000E+00  0.34419924988E+03  0.34419924988E+03  0.00000000000E+00 0.  1.
          1   -1    0    0  501    0  0.00000000000E+00 -0.00000000000E+00 -0.16017068150E+04  0.16017068150E+04  0.00000000000E+00 0. -1.
        -24    2    1    2    0    0  0.22008312263E+03  0.36650451108E+03 -0.16979379935E+03  0.46620943887E+03  0.75889189511E+02 0.  0.
        254    2    1    2    0    0 -0.22008312263E+03 -0.36650451108E+03 -0.10877137658E+04  0.14796966260E+04  0.90753442430E+03 0.  0.
         23    2    4    4    0    0 -0.37748606663E+03 -0.44479473385E+03 -0.29028800496E+03  0.65800352696E+03  0.91451790090E+02 0.  0.
         23    2    4    4    0    0  0.15740294399E+03  0.78290222774E+02 -0.79742576080E+03  0.82169309904E+03  0.91578705319E+02 0.  0.
          3    1    3    3  502    0  0.92431012120E+02  0.12580394214E+03 -0.98478134903E+02  0.18457536919E+03  0.00000000000E+00 0. -1.
         -4    1    3    3    0  502  0.12765211051E+03  0.24070056894E+03 -0.71315664447E+02  0.28163406968E+03  0.00000000000E+00 0.  1.
         11    1    5    5    0    0 -0.29979760470E+03 -0.33519655843E+03 -0.26285315647E+03  0.52089069721E+03  0.00000000000E+00 0.  1.
        -11    1    5    5    0    0 -0.77688461924E+02 -0.10959817542E+03 -0.27434848486E+02  0.13711282975E+03  0.00000000000E+00 0. -1.
          1    1    6    6  503    0  0.48333623560E+02  0.59571356840E+02 -0.20210967962E+03  0.21617864908E+03  0.00000000000E+00 0. -1.
         -1    1    6    6    0  503  0.10906932043E+03  0.18718865933E+02 -0.59531608118E+03  0.60551444997E+03  0.00000000000E+00 0.  1.
<mgrwt>
<rscale>  0 0.14850000E+04</rscale>
<asrwt>0</asrwt>
<pdfrwt beam="1">  1        1 0.24641644E+00 0.14850000E+04</pdfrwt>
<pdfrwt beam="2">  1       -2 0.52953730E-01 0.14850000E+04</pdfrwt>
<totfact> 0.15908888E+01</totfact>
</mgrwt>
</event>
<event>
12    4  0.4398275E-008  0.2727133E+04  0.7818608E-02  0.8326255E-01
         -2   -1    0    0    0  501 -0.00000000000E+00  0.00000000000E+00  0.10642281881E+04  0.10642281881E+04  0.00000000000E+00 0.  1.
          1   -1    0    0  501    0  0.00000000000E+00 -0.00000000000E+00 -0.17471001082E+04  0.17471001082E+04  0.00000000000E+00 0. -1.
        -24    2    1    2    0    0  0.44430232407E+03 -0.11070131864E+04 -0.68582188550E+02  0.11975224223E+04  0.80459214372E+02 0.  0.
        254    2    1    2    0    0 -0.44430232407E+03  0.11070131864E+04 -0.61428973155E+03  0.16138058740E+04  0.89673562130E+03 0.  0.
         23    2    4    4    0    0 -0.37662953472E+03  0.12503303333E+04 -0.52020231338E+03  0.14086981700E+04  0.92974935077E+02 0.  0.
         23    2    4    4    0    0 -0.67672789349E+02 -0.14331714689E+03 -0.94087418165E+02  0.20510770395E+03  0.89985092940E+02 0.  0.
          3    1    3    3  502    0  0.89954759923E+02 -0.26739709934E+03 -0.46491340512E+02  0.28592745987E+03  0.00000000000E+00 0. -1.
         -4    1    3    3    0  502  0.35434756415E+03 -0.83961608707E+03 -0.22090848037E+02  0.91159496238E+03  0.00000000000E+00 0.  1.
         11    1    5    5    0    0 -0.15248848916E+02  0.15209701606E+03 -0.66568954437E+02  0.16672568903E+03  0.00000000000E+00 0.  1.
        -11    1    5    5    0    0 -0.36138068581E+03  0.10982333172E+04 -0.45363335894E+03  0.12419724810E+04  0.00000000000E+00 0. -1.
          1    1    6    6  503    0 -0.29032335040E+02  0.45796752171E+01 -0.14818869672E+02  0.32915783468E+02  0.00000000000E+00 0. -1.
         -1    1    6    6    0  503 -0.38640454309E+02 -0.14789682211E+03 -0.79268548493E+02  0.17219192048E+03  0.00000000000E+00 0.  1.
<mgrwt>
<rscale>  0 0.27271327E+04</rscale>
<asrwt>0</asrwt>
<pdfrwt beam="1">  1        1 0.26878463E+00 0.27271327E+04</pdfrwt>
<pdfrwt beam="2">  1       -2 0.16372741E+00 0.27271327E+04</pdfrwt>
<totfact> 0.80126330E-01</totfact>
</mgrwt>
</event>
<event>
12    4  0.4398275E-008  0.1077293E+04  0.7818608E-02  0.9227611E-01
         -2   -1    0    0    0  501 -0.00000000000E+00  0.00000000000E+00  0.17196089963E+03  0.17196089963E+03  0.00000000000E+00 0.  1.
          1   -1    0    0  501    0  0.00000000000E+00 -0.00000000000E+00 -0.16872443637E+04  0.16872443637E+04  0.00000000000E+00 0. -1.
        -24    2    1    2    0    0  0.10236527007E+03 -0.60789548792E+01 -0.44027520624E+03  0.45910380614E+03  0.80115200622E+02 0.  0.
        254    2    1    2    0    0 -0.10236527007E+03  0.60789548792E+01 -0.10750082578E+04  0.14001014572E+04  0.89113732601E+03 0.  0.
         23    2    4    4    0    0 -0.10072368025E+03 -0.43047044253E+03 -0.52054114713E+03  0.68852997242E+03  0.87523570618E+02 0.  0.
         23    2    4    4    0    0 -0.16415898272E+01  0.43654939741E+03 -0.55446711069E+03  0.71157148476E+03  0.91225708534E+02 0.  0.
          1    1    3    3  502    0  0.11491281982E+03 -0.76308216066E+01 -0.41706401500E+03  0.43267259932E+03  0.00000000000E+00 0. -1.
         -2    1    3    3    0  502 -0.12547549743E+02  0.15518667275E+01 -0.23211191237E+02  0.26431206812E+02  0.00000000000E+00 0.  1.
         11    1    5    5    0    0 -0.94674053516E+02 -0.35711365808E+03 -0.47579474816E+03  0.60239022533E+03  0.00000000000E+00 0. -1.
        -11    1    5    5    0    0 -0.60496267302E+01 -0.73356784448E+02 -0.44746398971E+02  0.86139747091E+02  0.00000000000E+00 0.  1.
          4    1    6    6  503    0 -0.33717939941E+02  0.37525765186E+03 -0.47165438209E+03  0.60366634899E+03  0.00000000000E+00 0. -1.
         -4    1    6    6    0  503  0.32076350114E+02  0.61291745542E+02 -0.82812728599E+02  0.10790513577E+03  0.00000000000E+00 0.  1.
<mgrwt>
<rscale>  0 0.10772930E+04</rscale>
<asrwt>0</asrwt>
<pdfrwt beam="1">  1        1 0.25957605E+00 0.10772930E+04</pdfrwt>
<pdfrwt beam="2">  1       -2 0.26455523E-01 0.10772930E+04</pdfrwt>
<totfact> 0.55151597E+01</totfact>
</mgrwt>
</event>
<event>
12    4  0.4398275E-008  0.1947544E+04  0.7818608E-02  0.8631546E-01
         -2   -1    0    0    0  501 -0.00000000000E+00  0.00000000000E+00  0.39619433251E+03  0.39619433251E+03  0.00000000000E+00 0.  1.
          1   -1    0    0  501    0  0.00000000000E+00 -0.00000000000E+00 -0.23933493331E+04  0.23933493331E+04  0.00000000000E+00 0. -1.
        -24    2    1    2    0    0 -0.35981080593E+03  0.16529780896E+03 -0.17549151302E+04  0.18008298528E+04  0.80460317368E+02 0.  0.
        254    2    1    2    0    0  0.35981080593E+03 -0.16529780896E+03 -0.24223987035E+03  0.98871381281E+03  0.87297632680E+03 0.  0.
         23    2    4    4    0    0  0.62839966803E+03 -0.20896254114E+03 -0.13829302283E+03  0.68283691541E+03  0.92681209019E+02 0.  0.
         23    2    4    4    0    0 -0.26858886210E+03  0.43664732178E+02 -0.10394684751E+03  0.30587689740E+03  0.93322792365E+02 0.  0.
          3    1    3    3  502    0 -0.20979218037E+03  0.11177717708E+03 -0.88035947586E+03  0.91188798818E+03  0.00000000000E+00 0. -1.
         -4    1    3    3    0  502 -0.15001862555E+03  0.53520631878E+02 -0.87455565435E+03  0.88894186458E+03  0.00000000000E+00 0.  1.
         11    1    5    5    0    0  0.21538650091E+03 -0.40673178543E+02 -0.78681826299E+02  0.23288727319E+03  0.00000000000E+00 0. -1.
        -11    1    5    5    0    0  0.41301316712E+03 -0.16828936260E+03 -0.59611196534E+02  0.44994964222E+03  0.00000000000E+00 0.  1.
          2    1    6    6  503    0 -0.89171583220E+02 -0.12597785741E+02  0.19450911715E+01  0.90078070801E+02  0.00000000000E+00 0. -1.
         -2    1    6    6    0  503 -0.17941727888E+03  0.56262517919E+02 -0.10589193868E+03  0.21579882660E+03  0.00000000000E+00 0.  1.
<mgrwt>
<rscale>  0 0.19475435E+04</rscale>
<asrwt>0</asrwt>
<pdfrwt beam="1">  1        1 0.36820758E+00 0.19475435E+04</pdfrwt>
<pdfrwt beam="2">  1       -2 0.60952975E-01 0.19475435E+04</pdfrwt>
<totfact> 0.32931242E+00</totfact>
</mgrwt>
</event>
<event>
12    4  0.4398275E-008  0.1768484E+04  0.7818608E-02  0.8723241E-01
         -2   -1    0    0    0  501 -0.00000000000E+00  0.00000000000E+00  0.15023650344E+04  0.15023650344E+04  0.00000000000E+00 0.  1.
          1   -1    0    0  501    0  0.00000000000E+00 -0.00000000000E+00 -0.52043532599E+03  0.52043532599E+03  0.00000000000E+00 0. -1.
        -24    2    1    2    0    0  0.37655370049E+03 -0.85272354510E+01  0.96997111095E+03  0.10440329341E+04  0.85413162892E+02 0.  0.
        254    2    1    2    0    0 -0.37655370049E+03  0.85272354510E+01  0.11958597491E+02  0.97876742628E+03  0.90331459835E+03 0.  0.
         23    2    4    4    0    0  0.18649934694E+03  0.15011491526E+03 -0.22890796141E+03  0.34385752310E+03  0.92318184594E+02 0.  0.
         23    2    4    4    0    0 -0.56305304743E+03 -0.14158767981E+03  0.24086655890E+03  0.63490990318E+03  0.89543736032E+02 0.  0.
          1    1    3    3  502    0  0.12610971136E+03 -0.40571018633E+02  0.37470149504E+03  0.39743034262E+03  0.00000000000E+00 0. -1.
         -2    1    3    3    0  502  0.25044398912E+03  0.32043783182E+02  0.59526961591E+03  0.64660259152E+03  0.00000000000E+00 0.  1.
         11    1    5    5    0    0  0.19429746256E+03  0.13208926791E+03 -0.19806767095E+03  0.30729445314E+03  0.00000000000E+00 0.  1.
        -11    1    5    5    0    0 -0.77981156219E+01  0.18025647350E+02 -0.30840290459E+02  0.36563069965E+02  0.00000000000E+00 0. -1.
          1    1    6    6  503    0 -0.84462025732E+02  0.52346134722E+01  0.54930173117E+02  0.10088884422E+03  0.00000000000E+00 0. -1.
         -1    1    6    6    0  503 -0.47859102170E+03 -0.14682229328E+03  0.18593638578E+03  0.53402105896E+03  0.00000000000E+00 0.  1.
<mgrwt>
<rscale>  0 0.17684839E+04</rscale>
<asrwt>0</asrwt>
<pdfrwt beam="1">  1        1 0.80066974E-01 0.17684839E+04</pdfrwt>
<pdfrwt beam="2">  1       -2 0.23113308E+00 0.17684839E+04</pdfrwt>
<totfact> 0.29181938E+00</totfact>
</mgrwt>
</event>
<event>
12    4  0.4398275E-008  0.2254385E+04  0.7818608E-02  0.8496127E-01
          1   -1    0    0  501    0  0.00000000000E+00  0.00000000000E+00  0.10505034139E+04  0.10505034139E+04  0.00000000000E+00 0. -1.
         -2   -1    0    0    0  501 -0.00000000000E+00 -0.00000000000E+00 -0.12094802598E+04  0.12094802598E+04  0.00000000000E+00 0.  1.
        -24    2    1    2    0    0  0.73989235798E+03  0.59070166919E+03 -0.65914812961E+02  0.95246329141E+03  0.80451199662E+02 0.  0.
        254    2    1    2    0    0 -0.73989235798E+03 -0.59070166919E+03 -0.93062032941E+02  0.13075203822E+04  0.89698374819E+03 0.  0.
         23    2    4    4    0    0 -0.59229314386E+03 -0.72259334832E+03 -0.32118536330E+03  0.99188136016E+03  0.87842357273E+02 0.  0.
         23    2    4    4    0    0 -0.14759921412E+03  0.13189167913E+03  0.22812333036E+03  0.31563902204E+03  0.91688578071E+02 0.  0.
          1    1    3    3  502    0  0.63445983919E+02  0.58082837437E+02 -0.28752030482E+02  0.90695579479E+02  0.00000000000E+00 0. -1.
         -2    1    3    3    0  502  0.67644637407E+03  0.53261883175E+03 -0.37162782479E+02  0.86176771193E+03  0.00000000000E+00 0.  1.
         11    1    5    5    0    0 -0.54313188919E+02 -0.10889752923E+03 -0.29586572771E+02  0.12523561654E+03  0.00000000000E+00 0. -1.
        -11    1    5    5    0    0 -0.53797995494E+03 -0.61369581910E+03 -0.29159879053E+03  0.86664574362E+03  0.00000000000E+00 0.  1.
          2    1    6    6  503    0 -0.34147935443E+02  0.64103757725E+01  0.41964762880E+01  0.34996925948E+02  0.00000000000E+00 0. -1.
         -2    1    6    6    0  503 -0.11345127868E+03  0.12548130336E+03  0.22392685407E+03  0.28064209609E+03  0.00000000000E+00 0.  1.
<mgrwt>
<rscale>  0 0.22543852E+04</rscale>
<asrwt>0</asrwt>
<pdfrwt beam="1">  1        1 0.16161591E+00 0.22543852E+04</pdfrwt>
<pdfrwt beam="2">  1       -2 0.18607389E+00 0.22543852E+04</pdfrwt>
<totfact> 0.18126736E+00</totfact>
</mgrwt>
</event>
<event>
12    4  0.4398275E-008  0.1501845E+04  0.7818608E-02  0.8883227E-01
          1   -1    0    0  501    0  0.00000000000E+00  0.00000000000E+00  0.21449895152E+04  0.21449895152E+04  0.00000000000E+00 0. -1.
         -2   -1    0    0    0  501 -0.00000000000E+00 -0.00000000000E+00 -0.26288471897E+03  0.26288471897E+03  0.00000000000E+00 0.  1.
        -24    2    1    2    0    0  0.46588704546E+03  0.10268270273E+03  0.59861082294E+03  0.76963964150E+03  0.80098588330E+02 0.  0.
        254    2    1    2    0    0 -0.46588704546E+03 -0.10268270273E+03  0.12834939733E+04  0.16382345927E+04  0.89936718008E+03 0.  0.
         23    2    4    4    0    0 -0.56524334177E+03 -0.28627572172E+03  0.47206189583E+03  0.79543214742E+03  0.91738996002E+02 0.  0.
         23    2    4    4    0    0  0.99356296311E+02  0.18359301899E+03  0.81143207749E+03  0.84280244528E+03  0.91191420400E+02 0.  0.
          3    1    3    3  502    0  0.19235242908E+03  0.68874394559E+02  0.30326576583E+03  0.36566824298E+03  0.00000000000E+00 0. -1.
         -4    1    3    3    0  502  0.27353461638E+03  0.33808308170E+02  0.29534505711E+03  0.40397139852E+03  0.00000000000E+00 0.  1.
         11    1    5    5    0    0 -0.30410887859E+03 -0.11971479193E+03  0.28471989482E+03  0.43345041233E+03  0.00000000000E+00 0.  1.
        -11    1    5    5    0    0 -0.26113446318E+03 -0.16656092979E+03  0.18734200101E+03  0.36198173509E+03  0.00000000000E+00 0. -1.
          4    1    6    6  503    0  0.81749665454E+02  0.11285619690E+03  0.36961664955E+03  0.39501391951E+03  0.00000000000E+00 0.  1.
         -4    1    6    6    0  503  0.17606630858E+02  0.70736822096E+02  0.44181542793E+03  0.44778852577E+03  0.00000000000E+00 0. -1.
<mgrwt>
<rscale>  0 0.15018455E+04</rscale>
<asrwt>0</asrwt>
<pdfrwt beam="1">  1        1 0.32999837E+00 0.15018455E+04</pdfrwt>
<pdfrwt beam="2">  1       -2 0.40443804E-01 0.15018455E+04</pdfrwt>
<totfact> 0.11684597E+01</totfact>
</mgrwt>
</event>
<event>
12    4  0.4398275E-008  0.2205143E+04  0.7818608E-02  0.8516291E-01
          1   -1    0    0  501    0  0.00000000000E+00  0.00000000000E+00  0.12919018776E+04  0.12919018776E+04  0.00000000000E+00 0. -1.
         -2   -1    0    0    0  501 -0.00000000000E+00 -0.00000000000E+00 -0.94098749074E+03  0.94098749074E+03  0.00000000000E+00 0.  1.
        -24    2    1    2    0    0  0.91797105093E+03 -0.57308740365E+00  0.22727567617E+03  0.94936475520E+03  0.83474706721E+02 0.  0.
        254    2    1    2    0    0 -0.91797105093E+03  0.57308740365E+00  0.12363871067E+03  0.12835246131E+04  0.88852558935E+03 0.  0.
         23    2    4    4    0    0 -0.48891803516E+02  0.30844755965E+03  0.14817823023E+03  0.35763423623E+03  0.91734145778E+02 0.  0.
         23    2    4    4    0    0 -0.86907924742E+03 -0.30787447225E+03 -0.24539519559E+02  0.92589037689E+03  0.81150311402E+02 0.  0.
          3    1    3    3  502    0  0.48831744673E+03  0.35984432383E+01  0.78128379327E+02  0.49454112188E+03  0.00000000000E+00 0. -1.
         -4    1    3    3    0  502  0.42965360420E+03 -0.41715306420E+01  0.14914729684E+03  0.45482363332E+03  0.00000000000E+00 0.  1.
         11    1    5    5    0    0  0.12534915026E+02  0.60748417301E+02 -0.98677046185E+00  0.62036021916E+02  0.00000000000E+00 0. -1.
        -11    1    5    5    0    0 -0.61426718542E+02  0.24769914235E+03  0.14916500069E+03  0.29559821431E+03  0.00000000000E+00 0.  1.
          4    1    6    6  503    0 -0.32449900096E+02 -0.34076065958E+01  0.12174043674E+02  0.34825495522E+02  0.00000000000E+00 0. -1.
         -4    1    6    6    0  503 -0.83662934732E+03 -0.30446686565E+03 -0.36713563234E+02  0.89106488137E+03  0.00000000000E+00 0.  1.
<mgrwt>
<rscale>  0 0.22051426E+04</rscale>
<asrwt>0</asrwt>
<pdfrwt beam="1">  1        1 0.19875414E+00 0.22051426E+04</pdfrwt>
<pdfrwt beam="2">  1       -2 0.14476731E+00 0.22051426E+04</pdfrwt>
<totfact> 0.24123786E+00</totfact>
</mgrwt>
</event>
<event>
12    4  0.4398275E-008  0.1979302E+04  0.7818608E-02  0.8616359E-01
          1   -1    0    0  501    0  0.00000000000E+00  0.00000000000E+00  0.23594535118E+04  0.23594535118E+04  0.00000000000E+00 0. -1.
         -2   -1    0    0    0  501 -0.00000000000E+00 -0.00000000000E+00 -0.41510011888E+03  0.41510011888E+03  0.00000000000E+00 0.  1.
        -24    2    1    2    0    0  0.50081453335E+03 -0.36354598663E+03  0.13042382125E+03  0.63712439443E+03  0.77046996161E+02 0.  0.
        254    2    1    2    0    0 -0.50081453335E+03  0.36354598663E+03  0.18139295717E+04  0.21374292363E+04  0.94619362065E+03 0.  0.
         23    2    4    4    0    0 -0.39565725470E+03  0.39382070312E+03  0.34700888612E+03  0.66360975796E+03  0.91232310175E+02 0.  0.
         23    2    4    4    0    0 -0.10515727866E+03 -0.30274716491E+02  0.14669206856E+04  0.14738194783E+04  0.91175353815E+02 0.  0.
          1    1    3    3  502    0  0.23863664116E+03 -0.12730391039E+03  0.65530272894E+02  0.27829471567E+03  0.00000000000E+00 0. -1.
         -2    1    3    3    0  502  0.26217789219E+03 -0.23624207624E+03  0.64893548358E+02  0.35882967876E+03  0.00000000000E+00 0.  1.
         11    1    5    5    0    0 -0.25464009062E+03  0.29036743178E+03  0.27676430518E+03  0.47513503534E+03  0.00000000000E+00 0. -1.
        -11    1    5    5    0    0 -0.14101716408E+03  0.10345327134E+03  0.70244580936E+02  0.18847472262E+03  0.00000000000E+00 0.  1.
          2    1    6    6  503    0 -0.74302178733E+02 -0.24296702316E+01  0.45399615393E+03  0.46004263373E+03  0.00000000000E+00 0. -1.
         -2    1    6    6    0  503 -0.30855099923E+02 -0.27845046259E+02  0.10129245316E+04  0.10137768446E+04  0.00000000000E+00 0.  1.
<mgrwt>
<rscale>  0 0.19793023E+04</rscale>
<asrwt>0</asrwt>
<pdfrwt beam="1">  1        1 0.36299284E+00 0.19793023E+04</pdfrwt>
<pdfrwt beam="2">  1       -2 0.63861558E-01 0.19793023E+04</pdfrwt>
<totfact> 0.31370096E+00</totfact>
</mgrwt>
</event>
<event>
12    4  0.4398275E-008  0.1696246E+04  0.7818608E-02  0.8763508E-01
          1   -1    0    0  501    0  0.00000000000E+00  0.00000000000E+00  0.14962174084E+04  0.14962174084E+04  0.00000000000E+00 0. -1.
         -2   -1    0    0    0  501 -0.00000000000E+00 -0.00000000000E+00 -0.48075395188E+03  0.48075395188E+03  0.00000000000E+00 0.  1.
        -24    2    1    2    0    0 -0.56988593414E+03 -0.51200650740E+02  0.11856945364E+03  0.58934816795E+03  0.76688090067E+02 0.  0.
        254    2    1    2    0    0  0.56988593414E+03  0.51200650740E+02  0.89689400289E+03  0.13876231923E+04  0.89089156857E+03 0.  0.
         23    2    4    4    0    0  0.14250219016E+03 -0.36236092896E+03  0.58920763342E+03  0.71207491491E+03  0.90954560810E+02 0.  0.
         23    2    4    4    0    0  0.42738374398E+03  0.41356157970E+03  0.30768636948E+03  0.67554827744E+03  0.89468029826E+02 0.  0.
          3    1    3    3  502    0 -0.16437588828E+02 -0.15385364591E+02  0.74904458246E+01  0.23727843322E+02  0.00000000000E+00 0. -1.
         -4    1    3    3    0  502 -0.55344834532E+03 -0.35815286149E+02  0.11107900781E+03  0.56562032463E+03  0.00000000000E+00 0.  1.
         11    1    5    5    0    0  0.80138962318E+02 -0.90387942620E+02  0.17425468719E+03  0.21203049182E+03  0.00000000000E+00 0. -1.
        -11    1    5    5    0    0  0.62363227844E+02 -0.27197298634E+03  0.41495294622E+03  0.50004442309E+03  0.00000000000E+00 0.  1.
          4    1    6    6  503    0  0.21182783013E+02  0.36680611972E+02  0.13106036388E+01  0.42378004586E+02  0.00000000000E+00 0. -1.
         -4    1    6    6    0  503  0.40620096097E+03  0.37688096773E+03  0.30637576584E+03  0.63317027285E+03  0.00000000000E+00 0.  1.
<mgrwt>
<rscale>  0 0.16962458E+04</rscale>
<asrwt>0</asrwt>
<pdfrwt beam="1">  1        1 0.23018729E+00 0.16962458E+04</pdfrwt>
<pdfrwt beam="2">  1       -2 0.73962147E-01 0.16962458E+04</pdfrwt>
<totfact> 0.90536584E+00</totfact>
</mgrwt>
</event>
<event>
12    4  0.4398275E-008  0.2772908E+04  0.7818608E-02  0.8311729E-01
          1   -1    0    0  501    0  0.00000000000E+00  0.00000000000E+00  0.26000832829E+04  0.26000832829E+04  0.00000000000E+00 0. -1.
         -2   -1    0    0    0  501 -0.00000000000E+00 -0.00000000000E+00 -0.73930509058E+03  0.73930509058E+03  0.00000000000E+00 0.  1.
        -24    2    1    2    0    0 -0.40332620322E+03  0.11054210876E+04  0.12949575427E+04  0.17515478737E+04  0.79856803592E+02 0.  0.
        254    2    1    2    0    0  0.40332620322E+03 -0.11054210876E+04  0.56582064957E+03  0.15878404998E+04  0.90357990135E+03 0.  0.
         23    2    4    4    0    0 -0.57903768555E+02 -0.84062978953E+03  0.61184274352E+03  0.10452818608E+04  0.90836865782E+02 0.  0.
         23    2    4    4    0    0  0.46122997177E+03 -0.26479129811E+03 -0.46022093949E+02  0.54255863903E+03  0.96975900329E+02 0.  0.
          3    1    3    3  502    0 -0.18499160239E+03  0.51378013397E+03  0.54211095956E+03  0.76946488646E+03  0.00000000000E+00 0. -1.
         -4    1    3    3    0  502 -0.21833460082E+03  0.59164095367E+03  0.75284658318E+03  0.98208298722E+03  0.00000000000E+00 0.  1.
         11    1    5    5    0    0 -0.34824215386E+02 -0.25924227503E+03  0.14340317384E+03  0.29830144721E+03  0.00000000000E+00 0. -1.
        -11    1    5    5    0    0 -0.23079553169E+02 -0.58138751450E+03  0.46843956968E+03  0.74698041355E+03  0.00000000000E+00 0.  1.
          2    1    6    6  503    0  0.16821566823E+03 -0.15134198409E+03 -0.24830774590E+02  0.22763451969E+03  0.00000000000E+00 0. -1.
         -2    1    6    6    0  503  0.29301430354E+03 -0.11344931402E+03 -0.21191319359E+02  0.31492411934E+03  0.00000000000E+00 0.  1.
<mgrwt>
<rscale>  0 0.27729081E+04</rscale>
<asrwt>0</asrwt>
<pdfrwt beam="1">  1        1 0.40001281E+00 0.27729081E+04</pdfrwt>
<pdfrwt beam="2">  1       -2 0.11373925E+00 0.27729081E+04</pdfrwt>
<totfact> 0.53316218E-01</totfact>
</mgrwt>
</event>
<event>
12    4  0.4398275E-008  0.1346465E+04  0.7818608E-02  0.8993509E-01
          1   -1    0    0  501    0  0.00000000000E+00  0.00000000000E+00  0.71105717374E+03  0.71105717374E+03  0.00000000000E+00 0. -1.
         -2   -1    0    0    0  501 -0.00000000000E+00 -0.00000000000E+00 -0.63741960618E+03  0.63741960618E+03  0.00000000000E+00 0.  1.
        -24    2    1    2    0    0  0.34481389720E+03  0.53755666404E+02  0.13940094838E+03  0.38437011992E+03  0.80755614699E+02 0.  0.
        254    2    1    2    0    0 -0.34481389720E+03 -0.53755666404E+02 -0.65763380820E+02  0.96410666000E+03  0.89632055327E+03 0.  0.
         23    2    4    4    0    0 -0.43587393821E+03 -0.31891806872E+03 -0.26575545546E+03  0.60863900319E+03  0.90114646603E+02 0.  0.
         23    2    4    4    0    0  0.91060041015E+02  0.26516240232E+03  0.19999207464E+03  0.35546765680E+03  0.88076071922E+02 0.  0.
          1    1    3    3  502    0  0.29779829813E+03  0.35261597424E+02  0.14580057577E+03  0.33344417001E+03  0.00000000000E+00 0. -1.
         -2    1    3    3    0  502  0.47015599072E+02  0.18494068980E+02 -0.63996273837E+01  0.50925949910E+02  0.00000000000E+00 0.  1.
         11    1    5    5    0    0 -0.21447656074E+03 -0.11700424336E+03 -0.84901416839E+02  0.25864732485E+03  0.00000000000E+00 0.  1.
        -11    1    5    5    0    0 -0.22139737747E+03 -0.20191382536E+03 -0.18085403862E+03  0.34999167834E+03  0.00000000000E+00 0. -1.
          3    1    6    6  503    0  0.72368351598E+02  0.21467145005E+03  0.19913381351E+03  0.30162109585E+03  0.00000000000E+00 0. -1.
         -3    1    6    6    0  503  0.18691689417E+02  0.50490952270E+02  0.85826112273E+00  0.53846560954E+02  0.00000000000E+00 0.  1.
<mgrwt>
<rscale>  0 0.13464647E+04</rscale>
<asrwt>0</asrwt>
<pdfrwt beam="1">  1        1 0.10939341E+00 0.13464647E+04</pdfrwt>
<pdfrwt beam="2">  1       -2 0.98064555E-01 0.13464647E+04</pdfrwt>
<totfact> 0.19730016E+01</totfact>
</mgrwt>
</event>
<event>
12    4  0.4398275E-008  0.2225144E+04  0.7818608E-02  0.8508035E-01
          3   -1    0    0  501    0  0.00000000000E+00  0.00000000000E+00  0.73358471207E+03  0.73358471207E+03  0.00000000000E+00 0. -1.
         -4   -1    0    0    0  501 -0.00000000000E+00 -0.00000000000E+00 -0.16873532821E+04  0.16873532821E+04  0.00000000000E+00 0.  1.
        -24    2    1    2    0    0 -0.14713781356E+03  0.37778438677E+03 -0.13420149800E+04  0.14041961550E+04  0.79950335276E+02 0.  0.
        254    2    1    2    0    0  0.14713781356E+03 -0.37778438677E+03  0.38824641002E+03  0.10167418391E+04  0.84773705443E+03 0.  0.
         23    2    4    4    0    0 -0.24781820163E+03 -0.43977974708E+03  0.31293024077E+03  0.59970205666E+03  0.83048986611E+02 0.  0.
         23    2    4    4    0    0  0.39495601519E+03  0.61995360305E+02  0.75316169247E+02  0.41703978246E+03  0.91738629625E+02 0.  0.
          3    1    3    3  502    0 -0.87618426279E+00  0.78946225447E-01 -0.53789129219E+02  0.53796322862E+02  0.00000000000E+00 0. -1.
         -4    1    3    3    0  502 -0.14626162930E+03  0.37770544055E+03 -0.12882258508E+04  0.13503998322E+04  0.00000000000E+00 0.  1.
         11    1    5    5    0    0 -0.13335646774E+03 -0.16694882583E+03  0.15784399641E+03  0.26565124719E+03  0.00000000000E+00 0. -1.
        -11    1    5    5    0    0 -0.11446173389E+03 -0.27283092125E+03  0.15508624436E+03  0.33405080947E+03  0.00000000000E+00 0.  1.
          1    1    6    6  503    0  0.29186678197E+03  0.11795669781E+02  0.29603321937E+02  0.29360128220E+03  0.00000000000E+00 0. -1.
         -1    1    6    6    0  503  0.10308923322E+03  0.50199690524E+02  0.45712847310E+02  0.12343850025E+03  0.00000000000E+00 0.  1.
<mgrwt>
<rscale>  0 0.22251441E+04</rscale>
<asrwt>0</asrwt>
<pdfrwt beam="1">  1        3 0.11285919E+00 0.22251441E+04</pdfrwt>
<pdfrwt beam="2">  1       -4 0.25959281E+00 0.22251441E+04</pdfrwt>
<totfact> 0.75237424E-02</totfact>
</mgrwt>
</event>
<event>
12    4  0.4398275E-008  0.1703699E+04  0.7818608E-02  0.8759258E-01
         -2   -1    0    0    0  501 -0.00000000000E+00  0.00000000000E+00  0.59462661886E+03  0.59462661886E+03  0.00000000000E+00 0.  1.
          1   -1    0    0  501    0  0.00000000000E+00 -0.00000000000E+00 -0.12203414348E+04  0.12203414348E+04  0.00000000000E+00 0. -1.
        -24    2    1    2    0    0  0.25964187718E+03 -0.48383855289E+03  0.67015674616E+02  0.55821309705E+03  0.74813845132E+02 0.  0.
        254    2    1    2    0    0 -0.25964187718E+03  0.48383855289E+03 -0.69273049056E+03  0.12567549566E+04  0.89333299433E+03 0.  0.
         23    2    4    4    0    0 -0.44521494368E+03  0.42214699349E+03 -0.80308015242E+03  0.10146325263E+04  0.90094406279E+02 0.  0.
         23    2    4    4    0    0  0.18557306649E+03  0.61691559403E+02  0.11034966186E+03  0.24212243031E+03  0.90570480165E+02 0.  0.
          1    1    3    3  502    0  0.15375001585E+03 -0.26802342845E+03  0.12819488072E+01  0.30899396267E+03  0.00000000000E+00 0. -1.
         -2    1    3    3    0  502  0.10589186134E+03 -0.21581512444E+03  0.65733725809E+02  0.24921913438E+03  0.00000000000E+00 0.  1.
         11    1    5    5    0    0 -0.97910944172E+02  0.51694846200E+02 -0.11711358455E+03  0.16116606900E+03  0.00000000000E+00 0. -1.
        -11    1    5    5    0    0 -0.34730399950E+03  0.37045214729E+03 -0.68596656787E+03  0.85346645730E+03  0.00000000000E+00 0.  1.
          1    1    6    6  503    0  0.11023888581E+03  0.82114367226E+02  0.70350194248E+02  0.15441674482E+03  0.00000000000E+00 0. -1.
         -1    1    6    6    0  503  0.75334180677E+02 -0.20422807822E+02  0.39999467608E+02  0.87705685485E+02  0.00000000000E+00 0.  1.
<mgrwt>
<rscale>  0 0.17036989E+04</rscale>
<asrwt>0</asrwt>
<pdfrwt beam="1">  1        1 0.18774484E+00 0.17036989E+04</pdfrwt>
<pdfrwt beam="2">  1       -2 0.91481018E-01 0.17036989E+04</pdfrwt>
<totfact> 0.87687509E+00</totfact>
</mgrwt>
</event>
<event>
12    4  0.4398275E-008  0.1840352E+04  0.7818608E-02  0.8685130E-01
         -4   -1    0    0    0  501 -0.00000000000E+00  0.00000000000E+00  0.39337610133E+03  0.39337610133E+03  0.00000000000E+00 0.  1.
          1   -1    0    0  501    0  0.00000000000E+00 -0.00000000000E+00 -0.21524530604E+04  0.21524530604E+04  0.00000000000E+00 0. -1.
        -24    2    1    2    0    0 -0.66690856737E+03  0.12800381683E+03 -0.88217959834E+03  0.11160498275E+04  0.78577092644E+02 0.  0.
        254    2    1    2    0    0  0.66690856737E+03 -0.12800381683E+03 -0.87689736071E+03  0.14297793341E+04  0.90231255604E+03 0.  0.
         23    2    4    4    0    0  0.62201071482E+03 -0.28857245749E+03 -0.99040720529E+03  0.12083612645E+04  0.95179413158E+02 0.  0.
         23    2    4    4    0    0  0.44897852557E+02  0.16056864066E+03  0.11350984458E+03  0.22141806965E+03  0.91342056157E+02 0.  0.
          1    1    3    3  502    0 -0.61463566769E+03  0.12398944346E+03 -0.84291119256E+03  0.10505473167E+04  0.00000000000E+00 0. -1.
         -2    1    3    3    0  502 -0.52272899686E+02  0.40143733733E+01 -0.39268405778E+02  0.65502510849E+02  0.00000000000E+00 0.  1.
         11    1    5    5    0    0  0.32063812174E+03 -0.97111619896E+02 -0.46508390037E+03  0.57318627531E+03  0.00000000000E+00 0. -1.
        -11    1    5    5    0    0  0.30137259308E+03 -0.19146083760E+03 -0.52532330492E+03  0.63517498919E+03  0.00000000000E+00 0.  1.
          2    1    6    6  503    0  0.33325716834E+02  0.16635210421E+02 -0.79305740683E+00  0.37255369658E+02  0.00000000000E+00 0.  1.
         -2    1    6    6    0  503  0.11572135723E+02  0.14393343024E+03  0.11430290199E+03  0.18416269999E+03  0.00000000000E+00 0. -1.
<mgrwt>
<rscale>  0 0.18403517E+04</rscale>
<asrwt>0</asrwt>
<pdfrwt beam="1">  1        1 0.33114661E+00 0.18403517E+04</pdfrwt>
<pdfrwt beam="2">  1       -4 0.60519402E-01 0.18403517E+04</pdfrwt>
<totfact> 0.28077192E+00</totfact>
</mgrwt>
</event>
<event>
12    4  0.4398275E-008  0.1359009E+04  0.7818608E-02  0.8984036E-01
          1   -1    0    0  501    0  0.00000000000E+00  0.00000000000E+00  0.37698020362E+03  0.37698020362E+03  0.00000000000E+00 0. -1.
         -2   -1    0    0    0  501 -0.00000000000E+00 -0.00000000000E+00 -0.12248032160E+04  0.12248032160E+04  0.00000000000E+00 0.  1.
        -24    2    1    2    0    0  0.24655680384E+03  0.26216863424E+03 -0.13143344712E+03  0.39182644861E+03  0.82040017761E+02 0.  0.
        254    2    1    2    0    0 -0.24655680384E+03 -0.26216863424E+03 -0.71638956525E+03  0.12099569710E+04  0.90623353070E+03 0.  0.
         23    2    4    4    0    0 -0.15390032599E+03 -0.17745209873E+03  0.17355900054E+03  0.30656329283E+03  0.93186738130E+02 0.  0.
         23    2    4    4    0    0 -0.92656477846E+02 -0.84716535515E+02 -0.88994856579E+03  0.90339367816E+03  0.91376001862E+02 0.  0.
          1    1    3    3  502    0  0.10279676189E+03  0.10711604669E+03 -0.11909341613E+02  0.14893909537E+03  0.00000000000E+00 0. -1.
         -2    1    3    3    0  502  0.14376004195E+03  0.15505258755E+03 -0.11952410550E+03  0.24288735324E+03  0.00000000000E+00 0.  1.
         11    1    5    5    0    0 -0.59634010216E+01 -0.16584206064E+02  0.55361682808E+02  0.58099173539E+02  0.00000000000E+00 0. -1.
        -11    1    5    5    0    0 -0.14793692497E+03 -0.16086789266E+03  0.11819731773E+03  0.24846411930E+03  0.00000000000E+00 0.  1.
          2    1    6    6  503    0  0.57106534336E+01 -0.65727024012E+01 -0.60276885977E+01  0.10589854075E+02  0.00000000000E+00 0. -1.
         -2    1    6    6    0  503 -0.98367131280E+02 -0.78143833113E+02 -0.88392087719E+03  0.89280382408E+03  0.00000000000E+00 0.  1.
<mgrwt>
<rscale>  0 0.13590093E+04</rscale>
<asrwt>0</asrwt>
<pdfrwt beam="1">  1        1 0.57996955E-01 0.13590093E+04</pdfrwt>
<pdfrwt beam="2">  1       -2 0.18843126E+00 0.13590093E+04</pdfrwt>
<totfact> 0.88014756E+00</totfact>
</mgrwt>
</event>
<event>
12    4  0.4398275E-008  0.1070874E+04  0.7818608E-02  0.9234054E-01
         -2   -1    0    0    0  501 -0.00000000000E+00  0.00000000000E+00  0.47170438335E+03  0.47170438335E+03  0.00000000000E+00 0.  1.
          1   -1    0    0  501    0  0.00000000000E+00 -0.00000000000E+00 -0.60778097729E+03  0.60778097729E+03  0.00000000000E+00 0. -1.
        -24    2    1    2    0    0 -0.77576598313E+02  0.10271687625E+03  0.22009434030E+01  0.15122820132E+03  0.79348846558E+02 0.  0.
        254    2    1    2    0    0  0.77576598313E+02 -0.10271687625E+03 -0.13827753734E+03  0.92825715932E+03  0.90882990225E+03 0.  0.
         23    2    4    4    0    0  0.36890339723E+02  0.14517290499E+03  0.33942959331E+03  0.38084356391E+03  0.85984311652E+02 0.  0.
         23    2    4    4    0    0  0.40686258590E+02 -0.24788978124E+03 -0.47770713065E+03  0.54741359540E+03  0.91393798892E+02 0.  0.
          1    1    3    3  502    0 -0.71229665737E+02  0.49054659775E+02 -0.25953286499E+02  0.90297275744E+02  0.00000000000E+00 0. -1.
         -2    1    3    3    0  502 -0.63469325754E+01  0.53662216472E+02  0.28154229902E+02  0.60930925573E+02  0.00000000000E+00 0.  1.
         11    1    5    5    0    0  0.11629572380E+02  0.10977965041E+03  0.30801318071E+03  0.32719862177E+03  0.00000000000E+00 0.  1.
        -11    1    5    5    0    0  0.25260767343E+02  0.35393254581E+02  0.31416412599E+02  0.53644942140E+02  0.00000000000E+00 0. -1.
          1    1    6    6  503    0  0.62263974501E+02 -0.14200579694E+03 -0.23261681557E+03  0.27955863745E+03  0.00000000000E+00 0. -1.
         -1    1    6    6    0  503 -0.21577715911E+02 -0.10588398430E+03 -0.24509031508E+03  0.26785495796E+03  0.00000000000E+00 0.  1.
<mgrwt>
<rscale>  0 0.10708743E+04</rscale>
<asrwt>0</asrwt>
<pdfrwt beam="1">  1        1 0.93504766E-01 0.10708743E+04</pdfrwt>
<pdfrwt beam="2">  1       -2 0.72569905E-01 0.10708743E+04</pdfrwt>
<totfact> 0.50472280E+01</totfact>
</mgrwt>
</event>
<event>
12    4  0.4398275E-008  0.1691456E+04  0.7818608E-02  0.8766252E-01
         -2   -1    0    0    0  501 -0.00000000000E+00  0.00000000000E+00  0.36581647694E+03  0.36581647694E+03  0.00000000000E+00 0.  1.
          1   -1    0    0  501    0  0.00000000000E+00 -0.00000000000E+00 -0.19552311153E+04  0.19552311153E+04  0.00000000000E+00 0. -1.
        -24    2    1    2    0    0 -0.42963989120E+03 -0.68525703970E+02 -0.16903673504E+01  0.44141418988E+03  0.74548115158E+02 0.  0.
        254    2    1    2    0    0  0.42963989120E+03  0.68525703970E+02 -0.15877242710E+04  0.18796334024E+04  0.90712025572E+03 0.  0.
         23    2    4    4    0    0 -0.22846819248E+03 -0.17002330591E+03 -0.43541424048E+03  0.52821182537E+03  0.91195022477E+02 0.  0.
         23    2    4    4    0    0  0.65810808368E+03  0.23854900987E+03 -0.11523100306E+04  0.13514215770E+04  0.92249619975E+02 0.  0.
          1    1    3    3  502    0 -0.12818621579E+03  0.13092398854E+02  0.62692014196E+01  0.12900550264E+03  0.00000000000E+00 0. -1.
         -2    1    3    3    0  502 -0.30145367541E+03 -0.81618102824E+02 -0.79595687700E+01  0.31240868724E+03  0.00000000000E+00 0.  1.
         11    1    5    5    0    0 -0.52252663438E+02 -0.17884902330E+02 -0.36072797608E+02  0.65965576591E+02  0.00000000000E+00 0.  1.
        -11    1    5    5    0    0 -0.17621552905E+03 -0.15213840358E+03 -0.39934144287E+03  0.46224624878E+03  0.00000000000E+00 0. -1.
          1    1    6    6  503    0  0.15116182129E+03  0.41437557887E+02 -0.19285435094E+03  0.24851512649E+03  0.00000000000E+00 0. -1.
         -1    1    6    6    0  503  0.50694626239E+03  0.19711145199E+03 -0.95945567963E+03  0.11029064505E+04  0.00000000000E+00 0.  1.
<mgrwt>
<rscale>  0 0.16914559E+04</rscale>
<asrwt>0</asrwt>
<pdfrwt beam="1">  1        1 0.30080478E+00 0.16914559E+04</pdfrwt>
<pdfrwt beam="2">  1       -2 0.56279460E-01 0.16914559E+04</pdfrwt>
<totfact> 0.79199531E+00</totfact>
</mgrwt>
</event>
<event>
12    4  0.4398275E-008  0.2105923E+04  0.7818608E-02  0.8558639E-01
         -2   -1    0    0    0  501 -0.00000000000E+00  0.00000000000E+00  0.78353488311E+03  0.78353488311E+03  0.00000000000E+00 0.  1.
          1   -1    0    0  501    0  0.00000000000E+00 -0.00000000000E+00 -0.14150326506E+04  0.14150326506E+04  0.00000000000E+00 0. -1.
        -24    2    1    2    0    0 -0.12655708289E+03  0.23435944238E+03 -0.11142377222E+04  0.11484270867E+04  0.80112598396E+02 0.  0.
        254    2    1    2    0    0  0.12655708289E+03 -0.23435944238E+03  0.48273995472E+03  0.10501404470E+04  0.89376509838E+03 0.  0.
         23    2    4    4    0    0  0.42996041385E+03  0.75154035780E+02  0.83274023501E+02  0.45363974370E+03  0.91325612559E+02 0.  0.
         23    2    4    4    0    0 -0.30340333096E+03 -0.30951347816E+03  0.39946593122E+03  0.59650070330E+03  0.91585394209E+02 0.  0.
          3    1    3    3  502    0 -0.76251116527E+02  0.18199916832E+03 -0.67587996931E+03  0.70409634494E+03  0.00000000000E+00 0. -1.
         -4    1    3    3    0  502 -0.50305966359E+02  0.52360274058E+02 -0.43835775294E+03  0.44433074180E+03  0.00000000000E+00 0.  1.
         11    1    5    5    0    0  0.34992669359E+03  0.44576275637E+02  0.99328948930E+02  0.36647233910E+03  0.00000000000E+00 0. -1.
        -11    1    5    5    0    0  0.80033720260E+02  0.30577760143E+02 -0.16054925429E+02  0.87167404599E+02  0.00000000000E+00 0.  1.
          3    1    6    6  503    0 -0.20810899722E+03 -0.17560009364E+03  0.19895538322E+03  0.33723581085E+03  0.00000000000E+00 0. -1.
         -3    1    6    6    0  503 -0.95294333742E+02 -0.13391338452E+03  0.20051054800E+03  0.25926489245E+03  0.00000000000E+00 0.  1.
<mgrwt>
<rscale>  0 0.21059225E+04</rscale>
<asrwt>0</asrwt>
<pdfrwt beam="1">  1        1 0.21769733E+00 0.21059225E+04</pdfrwt>
<pdfrwt beam="2">  1       -2 0.12054383E+00 0.21059225E+04</pdfrwt>
<totfact> 0.31763807E+00</totfact>
</mgrwt>
</event>
<event>
12    4  0.4398275E-008  0.2206258E+04  0.7818608E-02  0.8515828E-01
          1   -1    0    0  501    0  0.00000000000E+00  0.00000000000E+00  0.95910988880E+03  0.95910988880E+03  0.00000000000E+00 0. -1.
         -4   -1    0    0    0  501 -0.00000000000E+00 -0.00000000000E+00 -0.12687743702E+04  0.12687743702E+04  0.00000000000E+00 0.  1.
        -24    2    1    2    0    0  0.45443459671E+03  0.73059443895E+03  0.19531852927E+03  0.88592384515E+03  0.80204081083E+02 0.  0.
        254    2    1    2    0    0 -0.45443459671E+03 -0.73059443895E+03 -0.50498301065E+03  0.13419604138E+04  0.89753600170E+03 0.  0.
         23    2    4    4    0    0 -0.63788165072E+03 -0.20128675459E+03 -0.27376714468E+03  0.72906191389E+03  0.95778217115E+02 0.  0.
         23    2    4    4    0    0  0.18344705401E+03 -0.52930768435E+03 -0.23121586597E+03  0.61289849995E+03  0.91456810679E+02 0.  0.
          3    1    3    3  502    0  0.25610482897E+03  0.43131635101E+03  0.15284906894E+03  0.52439137669E+03  0.00000000000E+00 0. -1.
         -4    1    3    3    0  502  0.19832976774E+03  0.29927808794E+03  0.42469460330E+02  0.36153246846E+03  0.00000000000E+00 0.  1.
         11    1    5    5    0    0 -0.52306761631E+03 -0.15935525017E+03 -0.18228246283E+03  0.57638591521E+03  0.00000000000E+00 0. -1.
        -11    1    5    5    0    0 -0.11481403440E+03 -0.41931504418E+02 -0.91484681849E+02  0.15267599868E+03  0.00000000000E+00 0.  1.
          4    1    6    6  503    0  0.57994604575E+02 -0.22935311750E+03 -0.14131836458E+03  0.27556688269E+03  0.00000000000E+00 0. -1.
         -4    1    6    6    0  503  0.12545244944E+03 -0.29995456685E+03 -0.89897501389E+02  0.33733161726E+03  0.00000000000E+00 0.  1.
<mgrwt>
<rscale>  0 0.22062584E+04</rscale>
<asrwt>0</asrwt>
<pdfrwt beam="1">  1        1 0.14755537E+00 0.22062584E+04</pdfrwt>
<pdfrwt beam="2">  1       -4 0.19519606E+00 0.22062584E+04</pdfrwt>
<totfact> 0.10157137E+00</totfact>
</mgrwt>
</event>
<event>
12    4  0.4398275E-008  0.1260490E+04  0.7818608E-02  0.9061497E-01
          1   -1    0    0  501    0  0.00000000000E+00  0.00000000000E+00  0.64858802753E+03  0.64858802753E+03  0.00000000000E+00 0. -1.
         -2   -1    0    0    0  501 -0.00000000000E+00 -0.00000000000E+00 -0.61242082171E+03  0.61242082171E+03  0.00000000000E+00 0.  1.
        -24    2    1    2    0    0 -0.20500376767E+03 -0.21457603501E+03 -0.88848982754E+02  0.31953316681E+03  0.78344644982E+02 0.  0.
        254    2    1    2    0    0  0.20500376767E+03  0.21457603501E+03  0.12501618857E+03  0.94147568242E+03  0.88469090287E+03 0.  0.
         23    2    4    4    0    0  0.51015705277E+03  0.28575964648E+03  0.35284149042E+00  0.59192382444E+03  0.91950505129E+02 0.  0.
         23    2    4    4    0    0 -0.30515328510E+03 -0.71183611467E+02  0.12466334708E+03  0.34955185799E+03  0.91977809109E+02 0.  0.
          3    1    3    3  502    0 -0.11190305993E+03 -0.75267856711E+02 -0.66913665771E+02  0.15054894136E+03  0.00000000000E+00 0. -1.
         -4    1    3    3    0  502 -0.93100707737E+02 -0.13930817830E+03 -0.21935316983E+02  0.16898422546E+03  0.00000000000E+00 0.  1.
         11    1    5    5    0    0  0.51266584838E+03  0.28371991340E+03  0.53611656087E+01  0.58596245908E+03  0.00000000000E+00 0.  1.
        -11    1    5    5    0    0 -0.25087956103E+01  0.20397330774E+01 -0.50083241182E+01  0.59613653566E+01  0.00000000000E+00 0. -1.
          1    1    6    6  503    0 -0.54121535288E+02 -0.52194017196E+01  0.62147459151E+02  0.82575355979E+02  0.00000000000E+00 0. -1.
         -1    1    6    6    0  503 -0.25103174981E+03 -0.65964209748E+02  0.62515887933E+02  0.26697650201E+03  0.00000000000E+00 0.  1.
<mgrwt>
<rscale>  0 0.12604901E+04</rscale>
<asrwt>0</asrwt>
<pdfrwt beam="1">  1        1 0.99782774E-01 0.12604901E+04</pdfrwt>
<pdfrwt beam="2">  1       -2 0.94218587E-01 0.12604901E+04</pdfrwt>
<totfact> 0.25048716E+01</totfact>
</mgrwt>
</event>
<event>
12    4  0.4456755E-008  0.1760562E+04  0.7818608E-02  0.8727558E-01
          1   -1    0    0  501    0  0.00000000000E+00  0.00000000000E+00  0.21672030816E+04  0.21672030816E+04  0.00000000000E+00 0. -1.
         -2   -1    0    0    0  501 -0.00000000000E+00 -0.00000000000E+00 -0.35755495435E+03  0.35755495435E+03  0.00000000000E+00 0.  1.
        -24    2    1    2    0    0  0.10383584611E+03 -0.56199100287E+02  0.15869703616E+04  0.15933556018E+04  0.79793003976E+02 0.  0.
        254    2    1    2    0    0 -0.10383584611E+03  0.56199100287E+02  0.22267776562E+03  0.93140243408E+03  0.89665204237E+03 0.  0.
         23    2    4    4    0    0  0.35795644989E+03  0.18885786885E+03  0.90676635081E+02  0.42469288548E+03  0.91332799067E+02 0.  0.
         23    2    4    4    0    0 -0.46179229600E+03 -0.13265876856E+03  0.13200113054E+03  0.50670954859E+03  0.92085800486E+02 0.  0.
          1    1    3    3  502    0  0.11543864050E+03 -0.57802811136E+02  0.15087039114E+04  0.15142175329E+04  0.00000000000E+00 0. -1.
         -2    1    3    3    0  502 -0.11602794387E+02  0.16037108495E+01  0.78266450230E+02  0.79138068953E+02  0.00000000000E+00 0.  1.
         11    1    5    5    0    0  0.20083900713E+02 -0.98606729010E+01  0.99578315089E+01  0.24489882528E+02  0.00000000000E+00 0. -1.
        -11    1    5    5    0    0  0.33787254918E+03  0.19871854175E+03  0.80718803573E+02  0.40020300295E+03  0.00000000000E+00 0.  1.
          1    1    6    6  503    0 -0.25738252888E+01 -0.12118750485E+02  0.11447343704E+02  0.16868027977E+02  0.00000000000E+00 0. -1.
         -1    1    6    6    0  503 -0.45921847071E+03 -0.12054001808E+03  0.12055378683E+03  0.48984152062E+03  0.00000000000E+00 0.  1.
<mgrwt>
<rscale>  0 0.17605615E+04</rscale>
<asrwt>0</asrwt>
<pdfrwt beam="1">  1        1 0.33341585E+00 0.17605615E+04</pdfrwt>
<pdfrwt beam="2">  1       -2 0.55008456E-01 0.17605615E+04</pdfrwt>
<totfact> 0.59291992E+00</totfact>
</mgrwt>
</event>
<event>
12    4  0.4398275E-008  0.3060693E+04  0.7818608E-02  0.8226609E-01
          1   -1    0    0  501    0  0.00000000000E+00  0.00000000000E+00  0.13661553695E+04  0.13661553695E+04  0.00000000000E+00 0. -1.
         -2   -1    0    0    0  501 -0.00000000000E+00 -0.00000000000E+00 -0.17142706600E+04  0.17142706600E+04  0.00000000000E+00 0.  1.
        -24    2    1    2    0    0  0.13721376704E+04 -0.23938844845E+03 -0.24936270651E+03  0.14169401920E+04  0.73953584720E+02 0.  0.
        254    2    1    2    0    0 -0.13721376704E+04  0.23938844845E+03 -0.98752584022E+02  0.16634858375E+04  0.90408209974E+03 0.  0.
         23    2    4    4    0    0 -0.72657166511E+03 -0.22668334366E+03  0.22419064019E+03  0.79864943814E+03  0.91037130101E+02 0.  0.
         23    2    4    4    0    0 -0.64556600526E+03  0.46607179212E+03 -0.32294322422E+03  0.86483639938E+03  0.98342712324E+02 0.  0.
          1    1    3    3  502    0  0.13707871594E+04 -0.23571962803E+03 -0.24838912414E+03  0.14129112982E+04  0.00000000000E+00 0. -1.
         -2    1    3    3    0  502  0.13505109327E+01 -0.36688204233E+01 -0.97358236985E+00  0.40288938568E+01  0.00000000000E+00 0.  1.
         11    1    5    5    0    0 -0.64762629848E+03 -0.20110722041E+03  0.22838564721E+03  0.71555848149E+03  0.00000000000E+00 0. -1.
        -11    1    5    5    0    0 -0.78945366637E+02 -0.25576123254E+02 -0.41950070134E+01  0.83090956656E+02  0.00000000000E+00 0.  1.
          1    1    6    6  503    0 -0.50431863257E+03  0.34372807876E+03 -0.20482791120E+03  0.64377072665E+03  0.00000000000E+00 0. -1.
         -1    1    6    6    0  503 -0.14124737269E+03  0.12234371335E+03 -0.11811531302E+03  0.22106567273E+03  0.00000000000E+00 0.  1.
<mgrwt>
<rscale>  0 0.30606928E+04</rscale>
<asrwt>0</asrwt>
<pdfrwt beam="1">  1        1 0.21017775E+00 0.30606928E+04</pdfrwt>
<pdfrwt beam="2">  1       -2 0.26373395E+00 0.30606928E+04</pdfrwt>
<totfact> 0.31941164E-01</totfact>
</mgrwt>
</event>
<event>
12    4  0.4398275E-008  0.1711211E+04  0.7818608E-02  0.8754996E-01
         -2   -1    0    0    0  501 -0.00000000000E+00  0.00000000000E+00  0.52497679345E+03  0.52497679345E+03  0.00000000000E+00 0.  1.
          1   -1    0    0  501    0  0.00000000000E+00 -0.00000000000E+00 -0.13944627214E+04  0.13944627214E+04  0.00000000000E+00 0. -1.
        -24    2    1    2    0    0  0.71007606853E+02 -0.13031500081E+03  0.35567699088E+03  0.39349683769E+03  0.79432737378E+02 0.  0.
        254    2    1    2    0    0 -0.71007606853E+02  0.13031500081E+03 -0.12251629188E+04  0.15259426771E+04  0.89747022046E+03 0.  0.
         23    2    4    4    0    0 -0.28958534832E+03 -0.27641987281E+03 -0.38242849842E+03  0.56066290008E+03  0.88451744388E+02 0.  0.
         23    2    4    4    0    0  0.21857774146E+03  0.40673487362E+03 -0.84273442038E+03  0.96527977704E+03  0.91401631228E+02 0.  0.
          1    1    3    3  502    0  0.17008529699E+02 -0.43299740821E+02  0.39106147839E+02  0.60773747922E+02  0.00000000000E+00 0. -1.
         -2    1    3    3    0  502  0.53999077155E+02 -0.87015259987E+02  0.31657084304E+03  0.33272308977E+03  0.00000000000E+00 0.  1.
         11    1    5    5    0    0 -0.11787447721E+03 -0.17244478576E+03 -0.18309813362E+03  0.27777063028E+03  0.00000000000E+00 0.  1.
        -11    1    5    5    0    0 -0.17171087110E+03 -0.10397508705E+03 -0.19933036480E+03  0.28289226980E+03  0.00000000000E+00 0. -1.
          3    1    6    6  503    0  0.60039261673E+02  0.54358914765E+02 -0.19341798336E+03  0.20969053590E+03  0.00000000000E+00 0. -1.
         -3    1    6    6    0  503  0.15853847979E+03  0.35237595885E+03 -0.64931643702E+03  0.75558924114E+03  0.00000000000E+00 0.  1.
<mgrwt>
<rscale>  0 0.17112108E+04</rscale>
<asrwt>0</asrwt>
<pdfrwt beam="1">  1        1 0.21453273E+00 0.17112108E+04</pdfrwt>
<pdfrwt beam="2">  1       -2 0.80765661E-01 0.17112108E+04</pdfrwt>
<totfact> 0.87487271E+00</totfact>
</mgrwt>
</event>
<event>
12    4  0.4398275E-008  0.1384494E+04  0.7818608E-02  0.8965120E-01
          1   -1    0    0  501    0  0.00000000000E+00  0.00000000000E+00  0.76627955005E+03  0.76627955005E+03  0.00000000000E+00 0. -1.
         -2   -1    0    0    0  501 -0.00000000000E+00 -0.00000000000E+00 -0.62536714386E+03  0.62536714386E+03  0.00000000000E+00 0.  1.
        -24    2    1    2    0    0  0.36700283815E+03  0.36872748779E+01  0.18153566585E+03  0.41732675544E+03  0.80633390256E+02 0.  0.
        254    2    1    2    0    0 -0.36700283815E+03 -0.36872748779E+01 -0.40623259649E+02  0.97431993847E+03  0.90163430174E+03 0.  0.
         23    2    4    4    0    0 -0.25179254943E+03  0.43381926017E+03  0.37822001230E+01  0.51081375924E+03  0.96528509510E+02 0.  0.
         23    2    4    4    0    0 -0.11521028872E+03 -0.43750653505E+03 -0.44405459772E+02  0.46350617923E+03  0.90447523395E+02 0.  0.
          1    1    3    3  502    0  0.25571430855E+03 -0.19911446729E+02  0.15770894784E+03  0.30109530972E+03  0.00000000000E+00 0. -1.
         -2    1    3    3    0  502  0.11128852960E+03  0.23598721606E+02  0.23826718003E+02  0.11623144571E+03  0.00000000000E+00 0.  1.
         11    1    5    5    0    0 -0.40650762788E+02  0.68453028154E+02 -0.35163213611E+02  0.87033057916E+02  0.00000000000E+00 0. -1.
        -11    1    5    5    0    0 -0.21114178664E+03  0.36536623202E+03  0.38945413734E+02  0.42378070133E+03  0.00000000000E+00 0.  1.
          2    1    6    6  503    0 -0.64701514964E+02 -0.22180939773E+03  0.22357726502E+02  0.23213264074E+03  0.00000000000E+00 0. -1.
         -2    1    6    6    0  503 -0.50508773757E+02 -0.21569713732E+03 -0.66763186275E+02  0.23137353850E+03  0.00000000000E+00 0.  1.
<mgrwt>
<rscale>  0 0.13844942E+04</rscale>
<asrwt>0</asrwt>
<pdfrwt beam="1">  1        1 0.11788916E+00 0.13844942E+04</pdfrwt>
<pdfrwt beam="2">  1       -2 0.96210330E-01 0.13844942E+04</pdfrwt>
<totfact> 0.18322286E+01</totfact>
</mgrwt>
</event>
<event>
12    4  0.4398275E-008  0.2113873E+04  0.7818608E-02  0.8555157E-01
         -2   -1    0    0    0  501 -0.00000000000E+00  0.00000000000E+00  0.73099772000E+03  0.73099772000E+03  0.00000000000E+00 0.  1.
          1   -1    0    0  501    0  0.00000000000E+00 -0.00000000000E+00 -0.15282055855E+04  0.15282055855E+04  0.00000000000E+00 0. -1.
        -24    2    1    2    0    0 -0.79235563633E+03 -0.14530355387E+03 -0.64619116584E+03  0.10356914570E+04  0.78442297559E+02 0.  0.
        254    2    1    2    0    0  0.79235563633E+03  0.14530355387E+03 -0.15101669963E+03  0.12235118485E+04  0.90842425256E+03 0.  0.
         23    2    4    4    0    0  0.48743609100E+03  0.32067833350E+03  0.28495728944E+03  0.65586860680E+03  0.92382012296E+02 0.  0.
         23    2    4    4    0    0  0.30491954533E+03 -0.17537477962E+03 -0.43597398907E+03  0.56764324169E+03  0.91723978543E+02 0.  0.
          3    1    3    3  502    0 -0.68801861972E+03 -0.12802184235E+03 -0.59313626478E+03  0.91737115814E+03  0.00000000000E+00 0. -1.
         -4    1    3    3    0  502 -0.10433701661E+03 -0.17281711521E+02 -0.53054901062E+02  0.11832029883E+03  0.00000000000E+00 0.  1.
         11    1    5    5    0    0  0.31790961237E+03  0.21459341797E+03  0.13773415514E+03  0.40753840821E+03  0.00000000000E+00 0.  1.
        -11    1    5    5    0    0  0.16952647863E+03  0.10608491553E+03  0.14722313430E+03  0.24833019859E+03  0.00000000000E+00 0. -1.
          3    1    6    6  503    0  0.30397384649E+03 -0.15312477708E+03 -0.39869133341E+03  0.52421567703E+03  0.00000000000E+00 0. -1.
         -3    1    6    6    0  503  0.94569883777E+00 -0.22250002539E+02 -0.37282655659E+02  0.43427564659E+02  0.00000000000E+00 0.  1.
<mgrwt>
<rscale>  0 0.21138730E+04</rscale>
<asrwt>0</asrwt>
<pdfrwt beam="1">  1        1 0.23510855E+00 0.21138730E+04</pdfrwt>
<pdfrwt beam="2">  1       -2 0.11246119E+00 0.21138730E+04</pdfrwt>
<totfact> 0.31399897E+00</totfact>
</mgrwt>
</event>
<event>
12    4  0.4398275E-008  0.1502930E+04  0.7818608E-02  0.8882507E-01
         -2   -1    0    0    0  501 -0.00000000000E+00  0.00000000000E+00  0.61883800210E+03  0.61883800210E+03  0.00000000000E+00 0.  1.
          1   -1    0    0  501    0  0.00000000000E+00 -0.00000000000E+00 -0.91251613318E+03  0.91251613318E+03  0.00000000000E+00 0. -1.
        -24    2    1    2    0    0  0.11706631019E+03  0.26980327458E+03  0.28939657274E+03  0.42045431567E+03  0.80827763125E+02 0.  0.
        254    2    1    2    0    0 -0.11706631019E+03 -0.26980327458E+03 -0.58307470382E+03  0.11108998196E+04  0.89867901446E+03 0.  0.
         23    2    4    4    0    0  0.91075357608E+02 -0.18330234063E+03 -0.77193496729E+03  0.80385637183E+03  0.91689715690E+02 0.  0.
         23    2    4    4    0    0 -0.20814166780E+03 -0.86500933948E+02  0.18886026348E+03  0.30704344778E+03  0.88329577475E+02 0.  0.
          1    1    3    3  502    0 -0.26806081803E+01  0.40499366649E+02  0.71539079539E+02  0.82250983340E+02  0.00000000000E+00 0. -1.
         -2    1    3    3    0  502  0.11974691837E+03  0.22930390793E+03  0.21785749320E+03  0.33820333233E+03  0.00000000000E+00 0.  1.
         11    1    5    5    0    0  0.56742022452E+02 -0.17970061726E+03 -0.68088239053E+03  0.70647915659E+03  0.00000000000E+00 0. -1.
        -11    1    5    5    0    0  0.34333335156E+02 -0.36017233684E+01 -0.91052576761E+02  0.97377215245E+02  0.00000000000E+00 0.  1.
          1    1    6    6  503    0 -0.24986077582E+02  0.11546180341E+02  0.50265122171E+02  0.57307947618E+02  0.00000000000E+00 0. -1.
         -1    1    6    6    0  503 -0.18315559021E+03 -0.98047114289E+02  0.13859514130E+03  0.24973550016E+03  0.00000000000E+00 0.  1.
<mgrwt>
<rscale>  0 0.15029300E+04</rscale>
<asrwt>0</asrwt>
<pdfrwt beam="1">  1        1 0.14038710E+00 0.15029300E+04</pdfrwt>
<pdfrwt beam="2">  1       -2 0.95205847E-01 0.15029300E+04</pdfrwt>
<totfact> 0.13969256E+01</totfact>
</mgrwt>
</event>
<event>
12    4  0.4398275E-008  0.1353775E+04  0.7818608E-02  0.8987976E-01
         -2   -1    0    0    0  501 -0.00000000000E+00  0.00000000000E+00  0.26316580754E+03  0.26316580754E+03  0.00000000000E+00 0.  1.
          1   -1    0    0  501    0  0.00000000000E+00 -0.00000000000E+00 -0.17410181686E+04  0.17410181686E+04  0.00000000000E+00 0. -1.
        -24    2    1    2    0    0  0.31947227083E+03 -0.17731878565E+03 -0.30491454898E+03  0.48249633498E+03  0.79532053395E+02 0.  0.
        254    2    1    2    0    0 -0.31947227083E+03  0.17731878565E+03 -0.11729378121E+04  0.15216876412E+04  0.89791184571E+03 0.  0.
         23    2    4    4    0    0 -0.47619003669E+03  0.42070931006E+03 -0.95217998767E+03  0.11481298012E+04  0.88329139734E+02 0.  0.
         23    2    4    4    0    0  0.15671776587E+03 -0.24339052441E+03 -0.22075782442E+03  0.37355783994E+03  0.83737907937E+02 0.  0.
          1    1    3    3  502    0  0.15611692988E+02  0.53117237088E+01 -0.28378204719E+01  0.16732979165E+02  0.00000000000E+00 0. -1.
         -2    1    3    3    0  502  0.30386057784E+03 -0.18263050936E+03 -0.30207672850E+03  0.46576335581E+03  0.00000000000E+00 0.  1.
         11    1    5    5    0    0 -0.24459199641E+03  0.20699821662E+03 -0.55807155486E+03  0.64351951542E+03  0.00000000000E+00 0.  1.
        -11    1    5    5    0    0 -0.23159804028E+03  0.21371109344E+03 -0.39410843282E+03  0.50461028581E+03  0.00000000000E+00 0. -1.
          1    1    6    6  503    0  0.14566615764E+03 -0.22359790647E+03 -0.22666592832E+03  0.35013154145E+03  0.00000000000E+00 0. -1.
         -1    1    6    6    0  503  0.11051608231E+02 -0.19792617947E+02  0.59081038904E+01  0.23426298496E+02  0.00000000000E+00 0.  1.
<mgrwt>
<rscale>  0 0.13537747E+04</rscale>
<asrwt>0</asrwt>
<pdfrwt beam="1">  1        1 0.26784894E+00 0.13537747E+04</pdfrwt>
<pdfrwt beam="2">  1       -2 0.40487048E-01 0.13537747E+04</pdfrwt>
<totfact> 0.22172016E+01</totfact>
</mgrwt>
</event>
<event>
12    4  0.4398275E-008  0.1660591E+04  0.7818608E-02  0.8784166E-01
         -2   -1    0    0    0  501 -0.00000000000E+00  0.00000000000E+00  0.24253037353E+04  0.24253037353E+04  0.00000000000E+00 0.  1.
          1   -1    0    0  501    0  0.00000000000E+00 -0.00000000000E+00 -0.28424914548E+03  0.28424914548E+03  0.00000000000E+00 0. -1.
        -24    2    1    2    0    0 -0.35854060529E+03 -0.61662900056E+02  0.78978997252E+01  0.36937591008E+03  0.63423238990E+02 0.  0.
        254    2    1    2    0    0  0.35854060529E+03  0.61662900056E+02  0.21331566901E+04  0.23401769707E+04  0.89090802599E+03 0.  0.
         23    2    4    4    0    0  0.58285811052E+03  0.26448803023E+03  0.14254206744E+04  0.15652307439E+04  0.91900422361E+02 0.  0.
         23    2    4    4    0    0 -0.22431750523E+03 -0.20282513018E+03  0.70773601568E+03  0.77494622674E+03  0.90526293780E+02 0.  0.
          1    1    3    3  502    0 -0.29155435398E+03 -0.72634626374E+02 -0.38360218467E+01  0.30049034151E+03  0.00000000000E+00 0. -1.
         -2    1    3    3    0  502 -0.66986251308E+02  0.10971726318E+02  0.11733921572E+02  0.68885568577E+02  0.00000000000E+00 0.  1.
         11    1    5    5    0    0 -0.33076808511E+01  0.39505048766E+01  0.10513975410E+02  0.11708583190E+02  0.00000000000E+00 0. -1.
        -11    1    5    5    0    0  0.58616579137E+03  0.26053752536E+03  0.14149066990E+04  0.15535221607E+04  0.00000000000E+00 0.  1.
          2    1    6    6  503    0 -0.12514437803E+03 -0.13971115316E+03  0.52662636013E+03  0.55903098738E+03  0.00000000000E+00 0. -1.
         -2    1    6    6    0  503 -0.99173127199E+02 -0.63113977024E+02  0.18110965554E+03  0.21591523935E+03  0.00000000000E+00 0.  1.
<mgrwt>
<rscale>  0 0.16605909E+04</rscale>
<asrwt>0</asrwt>
<pdfrwt beam="1">  1        1 0.43730639E-01 0.16605909E+04</pdfrwt>
<pdfrwt beam="2">  1       -2 0.37312364E+00 0.16605909E+04</pdfrwt>
<totfact> 0.87503944E-01</totfact>
</mgrwt>
</event>
<event>
12    4  0.4398275E-008  0.1820874E+04  0.7818608E-02  0.8695277E-01
          1   -1    0    0  501    0  0.00000000000E+00  0.00000000000E+00  0.78799486151E+03  0.78799486151E+03  0.00000000000E+00 0. -1.
         -2   -1    0    0    0  501 -0.00000000000E+00 -0.00000000000E+00 -0.10519042313E+04  0.10519042313E+04  0.00000000000E+00 0.  1.
        -24    2    1    2    0    0  0.36674714835E+03 -0.11280311433E+03  0.47383415053E+03  0.61478383216E+03  0.78818428368E+02 0.  0.
        254    2    1    2    0    0 -0.36674714835E+03  0.11280311433E+03 -0.73774352032E+03  0.12251152606E+04  0.89967432256E+03 0.  0.
         23    2    4    4    0    0  0.18404807924E+03  0.59626112231E+02  0.84561893250E+02  0.22987518533E+03  0.90900595766E+02 0.  0.
         23    2    4    4    0    0 -0.55079522759E+03  0.53177002099E+02 -0.82230541357E+03  0.99524007531E+03  0.90074624829E+02 0.  0.
          3    1    3    3  502    0  0.28365408011E+03 -0.12028354395E+03  0.38041734001E+03  0.48953561738E+03  0.00000000000E+00 0. -1.
         -4    1    3    3    0  502  0.83093068232E+02  0.74804296167E+01  0.93416810527E+02  0.12524821478E+03  0.00000000000E+00 0.  1.
         11    1    5    5    0    0  0.17546618970E+03  0.60857781110E+02  0.47342694154E+02  0.19165955218E+03  0.00000000000E+00 0.  1.
        -11    1    5    5    0    0  0.85818895363E+01 -0.12316688794E+01  0.37219199097E+02  0.38215633158E+02  0.00000000000E+00 0. -1.
          3    1    6    6  503    0 -0.10589658019E+03  0.39916227670E+02 -0.20562305014E+03  0.23470881892E+03  0.00000000000E+00 0. -1.
         -3    1    6    6    0  503 -0.44489864739E+03  0.13260774429E+02 -0.61668236342E+03  0.76053125639E+03  0.00000000000E+00 0.  1.
<mgrwt>
<rscale>  0 0.18208736E+04</rscale>
<asrwt>0</asrwt>
<pdfrwt beam="1">  1        1 0.12122998E+00 0.18208736E+04</pdfrwt>
<pdfrwt beam="2">  1       -2 0.16183142E+00 0.18208736E+04</pdfrwt>
<totfact> 0.45619967E+00</totfact>
</mgrwt>
</event>
<event>
12    4  0.4398275E-008  0.2239696E+04  0.7818608E-02  0.8502085E-01
         -2   -1    0    0    0  501 -0.00000000000E+00  0.00000000000E+00  0.10613675569E+04  0.10613675569E+04  0.00000000000E+00 0.  1.
          1   -1    0    0  501    0  0.00000000000E+00 -0.00000000000E+00 -0.11815505895E+04  0.11815505895E+04  0.00000000000E+00 0. -1.
        -24    2    1    2    0    0  0.14963109439E+02 -0.89870277954E+03 -0.31705560590E+03  0.95635886265E+03  0.78787285412E+02 0.  0.
        254    2    1    2    0    0 -0.14963109439E+02  0.89870277954E+03  0.19687257331E+03  0.12865592838E+04  0.89921376770E+03 0.  0.
         23    2    4    4    0    0  0.72561308528E+02  0.10038555752E+04 -0.24064713131E+02  0.10109959770E+04  0.92426163561E+02 0.  0.
         23    2    4    4    0    0 -0.87524417967E+02 -0.10515279564E+03  0.22093728644E+03  0.27556330684E+03  0.91674518624E+02 0.  0.
          3    1    3    3  502    0 -0.32346977064E+01 -0.26654583146E+03 -0.13177329440E+03  0.29735726770E+03  0.00000000000E+00 0. -1.
         -4    1    3    3    0  502  0.18197807145E+02 -0.63215694808E+03 -0.18528231149E+03  0.65900159495E+03  0.00000000000E+00 0.  1.
         11    1    5    5    0    0  0.81459784660E+02  0.90209345931E+03  0.12117772370E+01  0.90576474553E+03  0.00000000000E+00 0.  1.
        -11    1    5    5    0    0 -0.88984761320E+01  0.10176211587E+03 -0.25276490368E+02  0.10523123143E+03  0.00000000000E+00 0. -1.
          2    1    6    6  503    0 -0.55104187851E+02 -0.45844761207E+02  0.18629975840E+03  0.19961416190E+03  0.00000000000E+00 0. -1.
         -2    1    6    6    0  503 -0.32420230115E+02 -0.59308034431E+02  0.34637528039E+02  0.75949144943E+02  0.00000000000E+00 0.  1.
<mgrwt>
<rscale>  0 0.22396959E+04</rscale>
<asrwt>0</asrwt>
<pdfrwt beam="1">  1        1 0.18177701E+00 0.22396959E+04</pdfrwt>
<pdfrwt beam="2">  1       -2 0.16328732E+00 0.22396959E+04</pdfrwt>
<totfact> 0.20935728E+00</totfact>
</mgrwt>
</event>
<event>
12    4  0.4398275E-008  0.1060600E+04  0.7818608E-02  0.9244468E-01
         -2   -1    0    0    0  501 -0.00000000000E+00  0.00000000000E+00  0.36405342104E+04  0.36405342104E+04  0.00000000000E+00 0.  1.
          1   -1    0    0  501    0  0.00000000000E+00 -0.00000000000E+00 -0.77246343949E+02  0.77246343949E+02  0.00000000000E+00 0. -1.
        -24    2    1    2    0    0 -0.19997518636E+01  0.14292091497E+03  0.49121565009E+03  0.51459686158E+03  0.55558330672E+02 0.  0.
        254    2    1    2    0    0  0.19997518636E+01 -0.14292091497E+03  0.30720722163E+04  0.32031836927E+04  0.89572745864E+03 0.  0.
         23    2    4    4    0    0 -0.37932874205E+03 -0.27773973760E+03  0.13684462970E+04  0.14498298842E+04  0.91278523533E+02 0.  0.
         23    2    4    4    0    0  0.38132849392E+03  0.13481882263E+03  0.17036259193E+04  0.17533538085E+04  0.91218253850E+02 0.  0.
          1    1    3    3  502    0  0.22774355136E+02  0.95331134860E+02  0.27944173579E+03  0.29613236944E+03  0.00000000000E+00 0. -1.
         -2    1    3    3    0  502 -0.24774107000E+02  0.47589780106E+02  0.21177391430E+03  0.21846449214E+03  0.00000000000E+00 0.  1.
         11    1    5    5    0    0 -0.36144991605E+03 -0.23127471084E+03  0.12304169500E+04  0.13030962760E+04  0.00000000000E+00 0. -1.
        -11    1    5    5    0    0 -0.17878826003E+02 -0.46465026763E+02  0.13802934698E+03  0.14673360815E+03  0.00000000000E+00 0.  1.
          3    1    6    6  503    0  0.35631972300E+03  0.10000278503E+03  0.15695613373E+04  0.16126025839E+04  0.00000000000E+00 0. -1.
         -3    1    6    6    0  503  0.25008770914E+02  0.34816037598E+02  0.13406458196E+03  0.14075122462E+03  0.00000000000E+00 0.  1.
<mgrwt>
<rscale>  0 0.10605998E+04</rscale>
<asrwt>0</asrwt>
<pdfrwt beam="1">  1        1 0.11884056E-01 0.10605998E+04</pdfrwt>
<pdfrwt beam="2">  1       -2 0.56008205E+00 0.10605998E+04</pdfrwt>
<totfact> 0.35011529E-01</totfact>
</mgrwt>
</event>
<event>
12    4  0.4398275E-008  0.2361131E+04  0.7818608E-02  0.8454200E-01
         -4   -1    0    0    0  501 -0.00000000000E+00  0.00000000000E+00  0.73403994160E+03  0.73403994160E+03  0.00000000000E+00 0.  1.
          3   -1    0    0  501    0  0.00000000000E+00 -0.00000000000E+00 -0.18987188336E+04  0.18987188336E+04  0.00000000000E+00 0. -1.
        -24    2    1    2    0    0 -0.59162530847E+02  0.98724446434E+03 -0.68614889345E+03  0.12063088383E+04  0.78923202969E+02 0.  0.
        254    2    1    2    0    0  0.59162530847E+02 -0.98724446434E+03 -0.47852999858E+03  0.14264499369E+04  0.90973437090E+03 0.  0.
         23    2    4    4    0    0 -0.35047651068E+03 -0.14907304990E+03 -0.23698938730E+03  0.45788426533E+03  0.91855712919E+02 0.  0.
         23    2    4    4    0    0  0.40963904153E+03 -0.83817141444E+03 -0.24154061129E+03  0.96856567160E+03  0.97170617847E+02 0.  0.
          3    1    3    3  502    0 -0.22329325280E+02  0.82481653960E+03 -0.58484754548E+03  0.10113691582E+04  0.00000000000E+00 0. -1.
         -4    1    3    3    0  502 -0.36833205567E+02  0.16242792473E+03 -0.10130134797E+03  0.19493968007E+03  0.00000000000E+00 0.  1.
         11    1    5    5    0    0 -0.10420832796E+02  0.11433137423E+02 -0.12915061134E+02  0.20152151041E+02  0.00000000000E+00 0. -1.
        -11    1    5    5    0    0 -0.34005567789E+03 -0.16050618732E+03 -0.22407432617E+03  0.43773211429E+03  0.00000000000E+00 0.  1.
          2    1    6    6  503    0  0.50994163858E+02 -0.14065591720E+03 -0.72426898182E+02  0.16622318542E+03  0.00000000000E+00 0. -1.
         -2    1    6    6    0  503  0.35864487767E+03 -0.69751549724E+03 -0.16911371310E+03  0.80234248618E+03  0.00000000000E+00 0.  1.
<mgrwt>
<rscale>  0 0.23611315E+04</rscale>
<asrwt>0</asrwt>
<pdfrwt beam="1">  1        3 0.29211059E+00 0.23611315E+04</pdfrwt>
<pdfrwt beam="2">  1       -4 0.11292922E+00 0.23611315E+04</pdfrwt>
<totfact> 0.54298152E-02</totfact>
</mgrwt>
</event>
<event>
12    4  0.4398275E-008  0.1687629E+04  0.7818608E-02  0.8768451E-01
          1   -1    0    0  501    0  0.00000000000E+00  0.00000000000E+00  0.17204209584E+04  0.17204209584E+04  0.00000000000E+00 0. -1.
         -2   -1    0    0    0  501 -0.00000000000E+00 -0.00000000000E+00 -0.41386567588E+03  0.41386567588E+03  0.00000000000E+00 0.  1.
        -24    2    1    2    0    0 -0.22267715848E+03  0.55455069389E+03  0.44890671039E+03  0.75156129830E+03  0.78838832231E+02 0.  0.
        254    2    1    2    0    0  0.22267715848E+03 -0.55455069389E+03  0.85764857209E+03  0.13827253359E+04  0.90512799783E+03 0.  0.
         23    2    4    4    0    0 -0.10718789543E+03  0.10582804269E+03  0.54976382927E+03  0.57748014277E+03  0.92489068409E+02 0.  0.
         23    2    4    4    0    0  0.32986505390E+03 -0.66037873658E+03  0.30788474281E+03  0.80524519317E+03  0.93358324467E+02 0.  0.
          1    1    3    3  502    0 -0.82422227906E+02  0.29770486724E+03  0.25435528292E+03  0.40014774969E+03  0.00000000000E+00 0. -1.
         -2    1    3    3    0  502 -0.14025493057E+03  0.25684582665E+03  0.19455142747E+03  0.35141354861E+03  0.00000000000E+00 0.  1.
         11    1    5    5    0    0 -0.94861672114E+02  0.10653173926E+03  0.54635855947E+03  0.56467284671E+03  0.00000000000E+00 0. -1.
        -11    1    5    5    0    0 -0.12326223313E+02 -0.70369656887E+00  0.34052698031E+01  0.12807296063E+02  0.00000000000E+00 0.  1.
          4    1    6    6  503    0  0.24575474066E+03 -0.51683957329E+03  0.19673205600E+03  0.60516282019E+03  0.00000000000E+00 0. -1.
         -4    1    6    6    0  503  0.84110313239E+02 -0.14353916329E+03  0.11115268682E+03  0.20008237298E+03  0.00000000000E+00 0.  1.
<mgrwt>
<rscale>  0 0.16876293E+04</rscale>
<asrwt>0</asrwt>
<pdfrwt beam="1">  1        1 0.26468014E+00 0.16876293E+04</pdfrwt>
<pdfrwt beam="2">  1       -2 0.63671643E-01 0.16876293E+04</pdfrwt>
<totfact> 0.88075375E+00</totfact>
</mgrwt>
</event>
<event>
12    4  0.4398275E-008  0.1170361E+04  0.7818608E-02  0.9139203E-01
          1   -1    0    0  501    0  0.00000000000E+00  0.00000000000E+00  0.15955634610E+04  0.15955634610E+04  0.00000000000E+00 0. -1.
         -2   -1    0    0    0  501 -0.00000000000E+00 -0.00000000000E+00 -0.21461762499E+03  0.21461762499E+03  0.00000000000E+00 0.  1.
        -24    2    1    2    0    0 -0.12094492459E+03  0.92921061997E+02  0.18575233436E+02  0.17207919329E+03  0.77486843524E+02 0.  0.
        254    2    1    2    0    0  0.12094492459E+03 -0.92921061997E+02  0.13623706025E+04  0.16381018927E+04  0.89669512854E+03 0.  0.
         23    2    4    4    0    0 -0.14716175154E+03 -0.33149882069E+03  0.21278475063E+03  0.43029315652E+03  0.91251308011E+02 0.  0.
         23    2    4    4    0    0  0.26810667612E+03  0.23857775869E+03  0.11495858519E+04  0.12078087361E+04  0.91944415213E+02 0.  0.
          3    1    3    3  502    0 -0.18711972303E+02  0.32799733753E+02  0.36039239662E+02  0.52199494606E+02  0.00000000000E+00 0. -1.
         -4    1    3    3    0  502 -0.10223295228E+03  0.60121328244E+02 -0.17464006226E+02  0.11987969868E+03  0.00000000000E+00 0.  1.
         11    1    5    5    0    0 -0.12016776017E+03 -0.31403505051E+03  0.21320651209E+03  0.39813982510E+03  0.00000000000E+00 0. -1.
        -11    1    5    5    0    0 -0.26993991365E+02 -0.17463770178E+02 -0.42176145854E+00  0.32153331420E+02  0.00000000000E+00 0.  1.
          1    1    6    6  503    0  0.25889552776E+03  0.22592402713E+03  0.11368106155E+04  0.11876055473E+04  0.00000000000E+00 0. -1.
         -1    1    6    6    0  503  0.92111483618E+01  0.12653731555E+02  0.12775236388E+02  0.20203188887E+02  0.00000000000E+00 0.  1.
<mgrwt>
<rscale>  0 0.11703607E+04</rscale>
<asrwt>0</asrwt>
<pdfrwt beam="1">  1        1 0.24547129E+00 0.11703607E+04</pdfrwt>
<pdfrwt beam="2">  1       -2 0.33018097E-01 0.11703607E+04</pdfrwt>
<totfact> 0.41877491E+01</totfact>
</mgrwt>
</event>
<event>
12    4  0.4398275E-008  0.3060434E+04  0.7818608E-02  0.8226681E-01
         -2   -1    0    0    0  501 -0.00000000000E+00  0.00000000000E+00  0.16058708309E+04  0.16058708309E+04  0.00000000000E+00 0.  1.
          1   -1    0    0  501    0  0.00000000000E+00 -0.00000000000E+00 -0.14581277523E+04  0.14581277523E+04  0.00000000000E+00 0. -1.
        -24    2    1    2    0    0 -0.11051313095E+04 -0.60625370636E+03 -0.53390333935E+03  0.13710828467E+04  0.77179201678E+02 0.  0.
        254    2    1    2    0    0  0.11051313095E+04  0.60625370636E+03  0.68164641794E+03  0.16929157364E+04  0.90136734126E+03 0.  0.
         23    2    4    4    0    0  0.10626079740E+04  0.55188330917E+03  0.22466517666E+03  0.12218565495E+04  0.93531239437E+02 0.  0.
         23    2    4    4    0    0  0.42523335485E+02  0.54370397197E+02  0.45698124127E+03  0.47105918688E+03  0.91107236355E+02 0.  0.
          1    1    3    3  502    0 -0.10078418305E+04 -0.52939007116E+03 -0.49222973223E+03  0.12402778367E+04  0.00000000000E+00 0. -1.
         -2    1    3    3    0  502 -0.97289478916E+02 -0.76863635202E+02 -0.41673607119E+02  0.13080501005E+03  0.00000000000E+00 0.  1.
         11    1    5    5    0    0  0.69525628063E+03  0.40272270166E+03  0.17465215335E+03  0.82223490856E+03  0.00000000000E+00 0. -1.
        -11    1    5    5    0    0  0.36735169334E+03  0.14916060751E+03  0.50013023311E+02  0.39962164097E+03  0.00000000000E+00 0.  1.
          1    1    6    6  503    0  0.45922954342E+02 -0.65708112124E+01  0.28076588039E+03  0.28457261444E+03  0.00000000000E+00 0. -1.
         -1    1    6    6    0  503 -0.33996188566E+01  0.60941208410E+02  0.17621536088E+03  0.18648657244E+03  0.00000000000E+00 0.  1.
<mgrwt>
<rscale>  0 0.30604345E+04</rscale>
<asrwt>0</asrwt>
<pdfrwt beam="1">  1        1 0.22432735E+00 0.30604345E+04</pdfrwt>
<pdfrwt beam="2">  1       -2 0.24705705E+00 0.30604345E+04</pdfrwt>
<totfact> 0.34852137E-01</totfact>
</mgrwt>
</event>
<event>
12    4  0.4398275E-008  0.1252176E+04  0.7818608E-02  0.9068374E-01
         -2   -1    0    0    0  501 -0.00000000000E+00  0.00000000000E+00  0.49282015998E+03  0.49282015998E+03  0.00000000000E+00 0.  1.
          1   -1    0    0  501    0  0.00000000000E+00 -0.00000000000E+00 -0.79539358930E+03  0.79539358930E+03  0.00000000000E+00 0. -1.
        -24    2    1    2    0    0  0.18092110407E+03 -0.15074281319E+03 -0.24481110788E+03  0.34888775976E+03  0.79588621945E+02 0.  0.
        254    2    1    2    0    0 -0.18092110407E+03  0.15074281319E+03 -0.57762321442E+02  0.93932598952E+03  0.90749159070E+03 0.  0.
         23    2    4    4    0    0 -0.59406872813E+02 -0.31036649082E+03  0.20562021576E+03  0.38754204326E+03  0.89736430766E+02 0.  0.
         23    2    4    4    0    0 -0.12151423125E+03  0.46110930401E+03 -0.26338253720E+03  0.55178394626E+03  0.87793301629E+02 0.  0.
          1    1    3    3  502    0  0.16302431370E+03 -0.13922542589E+03 -0.24749562715E+03  0.32743660688E+03  0.00000000000E+00 0. -1.
         -2    1    3    3    0  502  0.17896790370E+02 -0.11517387309E+02  0.26845192720E+01  0.21451152875E+02  0.00000000000E+00 0.  1.
         11    1    5    5    0    0 -0.81505639174E+02 -0.27266155192E+03  0.18284469327E+03  0.33825977143E+03  0.00000000000E+00 0.  1.
        -11    1    5    5    0    0  0.22098766361E+02 -0.37704938900E+02  0.22775522485E+02  0.49282271829E+02  0.00000000000E+00 0. -1.
          3    1    6    6  503    0 -0.71618284141E+02  0.14588414995E+03 -0.59478386258E+02  0.17305791591E+03  0.00000000000E+00 0. -1.
         -3    1    6    6    0  503 -0.49895947111E+02  0.31522515407E+03 -0.20390415094E+03  0.37872603035E+03  0.00000000000E+00 0.  1.
<mgrwt>
<rscale>  0 0.12521757E+04</rscale>
<asrwt>0</asrwt>
<pdfrwt beam="1">  1        1 0.12236824E+00 0.12521757E+04</pdfrwt>
<pdfrwt beam="2">  1       -2 0.75818487E-01 0.12521757E+04</pdfrwt>
<totfact> 0.30054351E+01</totfact>
</mgrwt>
</event>
<event>
12    4  0.4398275E-008  0.1737777E+04  0.7818608E-02  0.8740107E-01
          1   -1    0    0  501    0  0.00000000000E+00  0.00000000000E+00  0.12294869572E+04  0.12294869572E+04  0.00000000000E+00 0. -1.
         -2   -1    0    0    0  501 -0.00000000000E+00 -0.00000000000E+00 -0.61405041545E+03  0.61405041545E+03  0.00000000000E+00 0.  1.
        -24    2    1    2    0    0  0.43483185558E+03  0.97186039323E+02 -0.25106282666E+03  0.51768233033E+03  0.80240783502E+02 0.  0.
        254    2    1    2    0    0 -0.43483185558E+03 -0.97186039323E+02  0.86649936841E+03  0.13258550423E+04  0.89919217574E+03 0.  0.
         23    2    4    4    0    0  0.15207734874E+03 -0.30329546820E+03  0.44850486530E+03  0.57018357871E+03  0.94005522183E+02 0.  0.
         23    2    4    4    0    0 -0.58690920433E+03  0.20610942888E+03  0.41799450311E+03  0.75567146360E+03  0.96832047797E+02 0.  0.
          1    1    3    3  502    0  0.17960421083E+03  0.79514428792E+02 -0.12076979430E+03  0.23057658197E+03  0.00000000000E+00 0. -1.
         -2    1    3    3    0  502  0.25522764475E+03  0.17671610530E+02 -0.13029303236E+03  0.28710574836E+03  0.00000000000E+00 0.  1.
         11    1    5    5    0    0  0.88934189232E+02 -0.23186845883E+03  0.26365024551E+03  0.36219293777E+03  0.00000000000E+00 0. -1.
        -11    1    5    5    0    0  0.63143159513E+02 -0.71427009377E+02  0.18485461979E+03  0.20799064094E+03  0.00000000000E+00 0.  1.
          3    1    6    6  503    0 -0.49932943616E+03  0.17665852516E+03  0.39421899248E+03  0.66026262529E+03  0.00000000000E+00 0. -1.
         -3    1    6    6    0  503 -0.87579768167E+02  0.29450903724E+02  0.23775510628E+02  0.95408838311E+02  0.00000000000E+00 0.  1.
<mgrwt>
<rscale>  0 0.17377767E+04</rscale>
<asrwt>0</asrwt>
<pdfrwt beam="1">  1        1 0.18915184E+00 0.17377767E+04</pdfrwt>
<pdfrwt beam="2">  1       -2 0.94469295E-01 0.17377767E+04</pdfrwt>
<totfact> 0.79903493E+00</totfact>
</mgrwt>
</event>
<event>
12    4  0.4398275E-008  0.1410188E+04  0.7818608E-02  0.8946477E-01
          1   -1    0    0  501    0  0.00000000000E+00  0.00000000000E+00  0.10732894593E+04  0.10732894593E+04  0.00000000000E+00 0. -1.
         -2   -1    0    0    0  501 -0.00000000000E+00 -0.00000000000E+00 -0.46320914310E+03  0.46320914310E+03  0.00000000000E+00 0.  1.
        -24    2    1    2    0    0 -0.36439196273E+03  0.50299302224E+02 -0.27323840777E+02  0.37739456927E+03  0.79803172458E+02 0.  0.
        254    2    1    2    0    0  0.36439196273E+03 -0.50299302224E+02  0.63740415695E+03  0.11591040331E+04  0.89550353318E+03 0.  0.
         23    2    4    4    0    0  0.57993445671E+03  0.20286371707E+03  0.44152814081E+03  0.76249993530E+03  0.94770197949E+02 0.  0.
         23    2    4    4    0    0 -0.21554249398E+03 -0.25316301930E+03  0.19587601613E+03  0.39660409779E+03  0.91527676892E+02 0.  0.
          3    1    3    3  502    0 -0.23256293906E+03  0.46125603946E+02  0.18382412808E+02  0.23780455223E+03  0.00000000000E+00 0. -1.
         -4    1    3    3    0  502 -0.13182902367E+03  0.41736982785E+01 -0.45706253586E+02  0.13959001703E+03  0.00000000000E+00 0.  1.
         11    1    5    5    0    0  0.13646584638E+02 -0.38365097394E+01  0.28246948385E+02  0.31604401155E+02  0.00000000000E+00 0. -1.
        -11    1    5    5    0    0  0.56628787207E+03  0.20670022681E+03  0.41328119243E+03  0.73089553415E+03  0.00000000000E+00 0.  1.
          2    1    6    6  503    0 -0.17408819633E+03 -0.14269510508E+03  0.10911690942E+03  0.25015014099E+03  0.00000000000E+00 0.  1.
         -2    1    6    6    0  503 -0.41454297652E+02 -0.11046791422E+03  0.86759106714E+02  0.14645395681E+03  0.00000000000E+00 0. -1.
<mgrwt>
<rscale>  0 0.14101879E+04</rscale>
<asrwt>0</asrwt>
<pdfrwt beam="1">  1        1 0.16512145E+00 0.14101879E+04</pdfrwt>
<pdfrwt beam="2">  1       -2 0.71262945E-01 0.14101879E+04</pdfrwt>
<totfact> 0.20285021E+01</totfact>
</mgrwt>
</event>
<event>
12    4  0.4398275E-008  0.1450099E+04  0.7818608E-02  0.8918332E-01
         -2   -1    0    0    0  501 -0.00000000000E+00  0.00000000000E+00  0.50600821430E+03  0.50600821430E+03  0.00000000000E+00 0.  1.
          1   -1    0    0  501    0  0.00000000000E+00 -0.00000000000E+00 -0.10389100077E+04  0.10389100077E+04  0.00000000000E+00 0. -1.
        -24    2    1    2    0    0  0.38208137007E+03  0.45835435428E+02  0.10286568234E+03  0.40673067993E+03  0.82227956937E+02 0.  0.
        254    2    1    2    0    0 -0.38208137007E+03 -0.45835435428E+02 -0.63576747574E+03  0.11381875421E+04  0.86208093426E+03 0.  0.
         23    2    4    4    0    0  0.26509671924E+03  0.82169477290E+01 -0.25574486695E+03  0.38010881767E+03  0.93453130050E+02 0.  0.
         23    2    4    4    0    0 -0.64717808931E+03 -0.54052383157E+02 -0.38002260880E+03  0.75807872440E+03  0.92222718360E+02 0.  0.
          3    1    3    3  502    0  0.90311058343E+01  0.11141879480E+02  0.17212060399E+02  0.22404405239E+02  0.00000000000E+00 0. -1.
         -4    1    3    3    0  502  0.37305026423E+03  0.34693555948E+02  0.85653621943E+02  0.38432627469E+03  0.00000000000E+00 0.  1.
         11    1    5    5    0    0  0.14780386576E+03 -0.36576730927E+02 -0.11058494031E+03  0.18818307311E+03  0.00000000000E+00 0.  1.
        -11    1    5    5    0    0  0.11729285348E+03  0.44793678656E+02 -0.14515992664E+03  0.19192574456E+03  0.00000000000E+00 0. -1.
          4    1    6    6  503    0 -0.39808136778E+03 -0.72676983629E+02 -0.25961178871E+03  0.48077957544E+03  0.00000000000E+00 0. -1.
         -4    1    6    6    0  503 -0.24909672153E+03  0.18624600472E+02 -0.12041082009E+03  0.27729914896E+03  0.00000000000E+00 0.  1.
<mgrwt>
<rscale>  0 0.14500993E+04</rscale>
<asrwt>0</asrwt>
<pdfrwt beam="1">  1        1 0.15983231E+00 0.14500993E+04</pdfrwt>
<pdfrwt beam="2">  1       -2 0.77847418E-01 0.14500993E+04</pdfrwt>
<totfact> 0.17662354E+01</totfact>
</mgrwt>
</event>
<event>
12    4  0.4398275E-008  0.2068249E+04  0.7818608E-02  0.8575360E-01
         -2   -1    0    0    0  501 -0.00000000000E+00  0.00000000000E+00  0.11063934667E+04  0.11063934667E+04  0.00000000000E+00 0.  1.
          1   -1    0    0  501    0  0.00000000000E+00 -0.00000000000E+00 -0.96657616525E+03  0.96657616525E+03  0.00000000000E+00 0. -1.
        -24    2    1    2    0    0 -0.53357179008E+03 -0.55159448260E+03 -0.28790019776E+03  0.82353070036E+03  0.79755640313E+02 0.  0.
        254    2    1    2    0    0  0.53357179008E+03  0.55159448260E+03  0.42771749918E+03  0.12494389316E+04  0.88836932421E+03 0.  0.
         23    2    4    4    0    0  0.65090512361E+03  0.57316197142E+03  0.85973846485E+02  0.87628722095E+03  0.91080546193E+02 0.  0.
         23    2    4    4    0    0 -0.11733333353E+03 -0.21567488821E+02  0.34174365270E+03  0.37315171061E+03  0.90670873179E+02 0.  0.
          3    1    3    3  502    0 -0.39377838283E+03 -0.44674952538E+03 -0.24237677301E+03  0.64295649411E+03  0.00000000000E+00 0. -1.
         -4    1    3    3    0  502 -0.13979340725E+03 -0.10484495721E+03 -0.45523424746E+02  0.18057420625E+03  0.00000000000E+00 0.  1.
         11    1    5    5    0    0  0.49398814527E+02  0.78190114085E+02  0.19140286424E+02  0.94447273024E+02  0.00000000000E+00 0.  1.
        -11    1    5    5    0    0  0.60150630909E+03  0.49497185733E+03  0.66833560061E+02  0.78183994793E+03  0.00000000000E+00 0. -1.
          1    1    6    6  503    0 -0.71775334777E+02 -0.57382983914E+02  0.20930537735E+03  0.22858969030E+03  0.00000000000E+00 0. -1.
         -1    1    6    6    0  503 -0.45557998756E+02  0.35815495093E+02  0.13243827535E+03  0.14456202031E+03  0.00000000000E+00 0.  1.
<mgrwt>
<rscale>  0 0.20682491E+04</rscale>
<asrwt>0</asrwt>
<pdfrwt beam="1">  1        1 0.14870403E+00 0.20682491E+04</pdfrwt>
<pdfrwt beam="2">  1       -2 0.17021438E+00 0.20682491E+04</pdfrwt>
<totfact> 0.27600050E+00</totfact>
</mgrwt>
</event>
<event>
12    4  0.4398275E-008  0.1963573E+04  0.7818608E-02  0.8623843E-01
          1   -1    0    0  501    0  0.00000000000E+00  0.00000000000E+00  0.57830548469E+03  0.57830548469E+03  0.00000000000E+00 0. -1.
         -2   -1    0    0    0  501 -0.00000000000E+00 -0.00000000000E+00 -0.16667747744E+04  0.16667747744E+04  0.00000000000E+00 0.  1.
        -24    2    1    2    0    0 -0.33975628297E+02  0.67942122876E+02 -0.13088294487E+04  0.13134234207E+04  0.79221720382E+02 0.  0.
        254    2    1    2    0    0  0.33975628297E+02 -0.67942122876E+02  0.22036015897E+03  0.93165683837E+03  0.90202848594E+03 0.  0.
         23    2    4    4    0    0 -0.16141087568E+03 -0.79724560845E+02 -0.30367402871E+03  0.36502093485E+03  0.92805661321E+02 0.  0.
         23    2    4    4    0    0  0.19538650398E+03  0.11782437969E+02  0.52403418768E+03  0.56663590352E+03  0.90275719461E+02 0.  0.
          1    1    3    3  502    0 -0.14995672574E+02  0.83193069089E+02 -0.94120163875E+03  0.94499020192E+03  0.00000000000E+00 0. -1.
         -2    1    3    3    0  502 -0.18979955722E+02 -0.15250946213E+02 -0.36762780994E+03  0.36843321880E+03  0.00000000000E+00 0.  1.
         11    1    5    5    0    0  0.36012309283E+01 -0.14616711911E+02 -0.70225806563E+02  0.71821174028E+02  0.00000000000E+00 0. -1.
        -11    1    5    5    0    0 -0.16501210661E+03 -0.65107848934E+02 -0.23344822215E+03  0.29319976082E+03  0.00000000000E+00 0.  1.
          4    1    6    6  503    0  0.59957447126E+02  0.16762186265E+02  0.28627168690E+03  0.29296304387E+03  0.00000000000E+00 0.  1.
         -4    1    6    6    0  503  0.13542905686E+03 -0.49797482954E+01  0.23776250078E+03  0.27367285965E+03  0.00000000000E+00 0. -1.
<mgrwt>
<rscale>  0 0.19635733E+04</rscale>
<asrwt>0</asrwt>
<pdfrwt beam="1">  1        1 0.88970075E-01 0.19635733E+04</pdfrwt>
<pdfrwt beam="2">  1       -2 0.25642689E+00 0.19635733E+04</pdfrwt>
<totfact> 0.17265242E+00</totfact>
</mgrwt>
</event>
<event>
12    4  0.4398275E-008  0.1812499E+04  0.7818608E-02  0.8699681E-01
          1   -1    0    0  501    0  0.00000000000E+00  0.00000000000E+00  0.94606063091E+03  0.94606063091E+03  0.00000000000E+00 0. -1.
         -2   -1    0    0    0  501 -0.00000000000E+00 -0.00000000000E+00 -0.86811373840E+03  0.86811373840E+03  0.00000000000E+00 0.  1.
        -24    2    1    2    0    0  0.50903159481E+03 -0.75108907410E+02  0.46416567387E+03  0.69719595829E+03  0.76667587406E+02 0.  0.
        254    2    1    2    0    0 -0.50903159481E+03  0.75108907410E+02 -0.38621878136E+03  0.11169784110E+04  0.91308340864E+03 0.  0.
         23    2    4    4    0    0 -0.14200397436E+03 -0.22697815954E+03  0.20774784568E+03  0.35067097665E+03  0.90148504375E+02 0.  0.
         23    2    4    4    0    0 -0.36702762045E+03  0.30208706695E+03 -0.59396662704E+03  0.76630743438E+03  0.92004672449E+02 0.  0.
          1    1    3    3  502    0  0.46329215218E+03 -0.82501359498E+02  0.44286647922E+03  0.64620183457E+03  0.00000000000E+00 0. -1.
         -2    1    3    3    0  502  0.45739442638E+02  0.73924520879E+01  0.21299194656E+02  0.50994123717E+02  0.00000000000E+00 0.  1.
         11    1    5    5    0    0 -0.15936576858E+01 -0.34939541972E+02  0.63401395085E+02  0.72408896116E+02  0.00000000000E+00 0. -1.
        -11    1    5    5    0    0 -0.14041031668E+03 -0.19203861757E+03  0.14434645059E+03  0.27826208054E+03  0.00000000000E+00 0.  1.
          2    1    6    6  503    0 -0.81170967848E+02  0.27207262521E+02 -0.13366022816E+03  0.15872623522E+03  0.00000000000E+00 0. -1.
         -2    1    6    6    0  503 -0.28585665260E+03  0.27487980443E+03 -0.46030639888E+03  0.60758119916E+03  0.00000000000E+00 0.  1.
<mgrwt>
<rscale>  0 0.18124991E+04</rscale>
<asrwt>0</asrwt>
<pdfrwt beam="1">  1        1 0.14554779E+00 0.18124991E+04</pdfrwt>
<pdfrwt beam="2">  1       -2 0.13355596E+00 0.18124991E+04</pdfrwt>
<totfact> 0.55926610E+00</totfact>
</mgrwt>
</event>
<event>
12    4  0.4398275E-008  0.1731521E+04  0.7818608E-02  0.8743588E-01
         -2   -1    0    0    0  501 -0.00000000000E+00  0.00000000000E+00  0.12397116601E+04  0.12397116601E+04  0.00000000000E+00 0.  1.
          1   -1    0    0  501    0  0.00000000000E+00 -0.00000000000E+00 -0.60460961781E+03  0.60460961781E+03  0.00000000000E+00 0. -1.
        -24    2    1    2    0    0 -0.47655953080E+03  0.51697427351E+02  0.70498169812E+03  0.85622162146E+03  0.79590577217E+02 0.  0.
        254    2    1    2    0    0  0.47655953080E+03 -0.51697427351E+02 -0.69879655852E+02  0.98809965643E+03  0.86120622056E+03 0.  0.
         23    2    4    4    0    0  0.11858474417E+03 -0.38420435133E+03  0.15786869311E+03  0.44097917601E+03  0.88683618972E+02 0.  0.
         23    2    4    4    0    0  0.35797478663E+03  0.33250692398E+03 -0.22774834896E+03  0.54712048042E+03  0.93620015376E+02 0.  0.
          3    1    3    3  502    0 -0.12057906308E+03  0.42477697553E+02  0.22163046000E+03  0.25585880099E+03  0.00000000000E+00 0. -1.
         -4    1    3    3    0  502 -0.35598046772E+03  0.92197297975E+01  0.48335123812E+03  0.60036282047E+03  0.00000000000E+00 0.  1.
         11    1    5    5    0    0  0.86331702663E+02 -0.14196486350E+03  0.47323491950E+02  0.17276196990E+03  0.00000000000E+00 0.  1.
        -11    1    5    5    0    0  0.32253041503E+02 -0.24223948783E+03  0.11054520116E+03  0.26821720610E+03  0.00000000000E+00 0. -1.
          1    1    6    6  503    0  0.33835081454E+03  0.27285562312E+03 -0.19991034353E+03  0.47843036088E+03  0.00000000000E+00 0. -1.
         -1    1    6    6    0  503  0.19623972099E+02  0.59651300864E+02 -0.27838005436E+02  0.68690119540E+02  0.00000000000E+00 0.  1.
<mgrwt>
<rscale>  0 0.17315214E+04</rscale>
<asrwt>0</asrwt>
<pdfrwt beam="1">  1        1 0.93016864E-01 0.17315214E+04</pdfrwt>
<pdfrwt beam="2">  1       -2 0.19072487E+00 0.17315214E+04</pdfrwt>
<totfact> 0.43093610E+00</totfact>
</mgrwt>
</event>
<event>
12    4  0.4398275E-008  0.1289734E+04  0.7818608E-02  0.9037746E-01
         -4   -1    0    0    0  501 -0.00000000000E+00  0.00000000000E+00  0.44510505940E+03  0.44510505940E+03  0.00000000000E+00 0.  1.
          1   -1    0    0  501    0  0.00000000000E+00 -0.00000000000E+00 -0.93428208420E+03  0.93428208420E+03  0.00000000000E+00 0. -1.
        -24    2    1    2    0    0 -0.22152276008E+03 -0.17751062350E+02  0.11024661233E+03  0.25941355251E+03  0.75852766899E+02 0.  0.
        254    2    1    2    0    0  0.22152276008E+03  0.17751062350E+02 -0.59942363714E+03  0.11199735911E+04  0.91958942716E+03 0.  0.
         23    2    4    4    0    0  0.50610382127E+03  0.54442814440E+02 -0.87245660586E+02  0.52557495555E+03  0.97530152625E+02 0.  0.
         23    2    4    4    0    0 -0.28458106119E+03 -0.36691752090E+02 -0.51217797655E+03  0.59439863554E+03  0.93009640411E+02 0.  0.
          1    1    3    3  502    0 -0.13318069343E+03 -0.66443854848E+01  0.24068816473E+02  0.13550111766E+03  0.00000000000E+00 0. -1.
         -2    1    3    3    0  502 -0.88342066653E+02 -0.11106676865E+02  0.86177795857E+02  0.12391243485E+03  0.00000000000E+00 0.  1.
         11    1    5    5    0    0  0.27038840800E+03  0.77469920637E+02 -0.40503163487E+02  0.28416893925E+03  0.00000000000E+00 0.  1.
        -11    1    5    5    0    0  0.23571541327E+03 -0.23027106198E+02 -0.46742497099E+02  0.24140601631E+03  0.00000000000E+00 0. -1.
          2    1    6    6  503    0 -0.65119360563E+02  0.87408834900E+01 -0.56769706876E+02  0.86831640449E+02  0.00000000000E+00 0. -1.
         -2    1    6    6    0  503 -0.21946170062E+03 -0.45432635580E+02 -0.45540826967E+03  0.50756699509E+03  0.00000000000E+00 0.  1.
<mgrwt>
<rscale>  0 0.12897344E+04</rscale>
<asrwt>0</asrwt>
<pdfrwt beam="1">  1        1 0.14373571E+00 0.12897344E+04</pdfrwt>
<pdfrwt beam="2">  1       -4 0.68477701E-01 0.12897344E+04</pdfrwt>
<totfact> 0.16044626E+01</totfact>
</mgrwt>
</event>
<event>
12    4  0.4398275E-008  0.1245424E+04  0.7818608E-02  0.9074001E-01
         -2   -1    0    0    0  501 -0.00000000000E+00  0.00000000000E+00  0.12993311073E+03  0.12993311073E+03  0.00000000000E+00 0.  1.
          1   -1    0    0  501    0  0.00000000000E+00 -0.00000000000E+00 -0.29843812547E+04  0.29843812547E+04  0.00000000000E+00 0. -1.
        -24    2    1    2    0    0  0.27487693390E+03  0.11543917672E+03 -0.85637966124E+03  0.91021392572E+03  0.78865290693E+02 0.  0.
        254    2    1    2    0    0 -0.27487693390E+03 -0.11543917672E+03 -0.19980684827E+04  0.22041004397E+04  0.88141792265E+03 0.  0.
         23    2    4    4    0    0  0.35563797785E+02  0.15561483088E+03 -0.16387318562E+04  0.16490410071E+04  0.91724518596E+02 0.  0.
         23    2    4    4    0    0 -0.31044073169E+03 -0.27105400760E+03 -0.35933662653E+03  0.55505943260E+03  0.95521932713E+02 0.  0.
          1    1    3    3  502    0  0.26379740087E+03  0.96686492673E+02 -0.73446779034E+03  0.78637159258E+03  0.00000000000E+00 0. -1.
         -2    1    3    3    0  502  0.11079533034E+02  0.18752684047E+02 -0.12191187090E+03  0.12384233314E+03  0.00000000000E+00 0.  1.
         11    1    5    5    0    0 -0.14837881549E+02  0.30386680677E+02 -0.68141455758E+03  0.68225311460E+03  0.00000000000E+00 0.  1.
        -11    1    5    5    0    0  0.50401679334E+02  0.12522815021E+03 -0.95731729860E+03  0.96678789250E+03  0.00000000000E+00 0. -1.
          2    1    6    6  503    0 -0.58448819821E+02 -0.80685264962E+02 -0.13451355426E+03  0.16739257093E+03  0.00000000000E+00 0. -1.
         -2    1    6    6    0  503 -0.25199191187E+03 -0.19036874264E+03 -0.22482307227E+03  0.38766686168E+03  0.00000000000E+00 0.  1.
<mgrwt>
<rscale>  0 0.12454235E+04</rscale>
<asrwt>0</asrwt>
<pdfrwt beam="1">  1        1 0.45913556E+00 0.12454235E+04</pdfrwt>
<pdfrwt beam="2">  1       -2 0.19989710E-01 0.12454235E+04</pdfrwt>
<totfact> 0.11501346E+01</totfact>
</mgrwt>
</event>
<event>
12    4  0.4398275E-008  0.1282408E+04  0.7818608E-02  0.9043633E-01
          1   -1    0    0  501    0  0.00000000000E+00  0.00000000000E+00  0.11658538737E+04  0.11658538737E+04  0.00000000000E+00 0. -1.
         -2   -1    0    0    0  501 -0.00000000000E+00 -0.00000000000E+00 -0.35265357770E+03  0.35265357770E+03  0.00000000000E+00 0.  1.
        -24    2    1    2    0    0  0.22063110501E+03  0.22258096833E+03  0.23288108981E+03  0.39841993007E+03  0.79274628523E+02 0.  0.
        254    2    1    2    0    0 -0.22063110501E+03 -0.22258096833E+03  0.58031920620E+03  0.11200875213E+04  0.90532055229E+03 0.  0.
         23    2    4    4    0    0  0.27895051714E+03 -0.20032366137E+02  0.48125136819E+03  0.56429380432E+03  0.92789716582E+02 0.  0.
         23    2    4    4    0    0 -0.49958162215E+03 -0.20254860220E+03  0.99067838017E+02  0.55579371702E+03  0.92111269160E+02 0.  0.
          3    1    3    3  502    0  0.20294434265E+03  0.21505532592E+03  0.19012858364E+03  0.35154527125E+03  0.00000000000E+00 0. -1.
         -4    1    3    3    0  502  0.17686762360E+02  0.75256424170E+01  0.42752506167E+02  0.46874658827E+02  0.00000000000E+00 0.  1.
         11    1    5    5    0    0  0.26295843105E+03  0.72213652654E+01  0.43047031469E+03  0.50448387131E+03  0.00000000000E+00 0. -1.
        -11    1    5    5    0    0  0.15992086092E+02 -0.27253731402E+02  0.50781053493E+02  0.59809933011E+02  0.00000000000E+00 0.  1.
          2    1    6    6  503    0 -0.37927482036E+03 -0.12818889999E+03  0.39386206822E+02  0.40228479555E+03  0.00000000000E+00 0. -1.
         -2    1    6    6    0  503 -0.12030680178E+03 -0.74359702209E+02  0.59681631195E+02  0.15350892147E+03  0.00000000000E+00 0.  1.
<mgrwt>
<rscale>  0 0.12824080E+04</rscale>
<asrwt>0</asrwt>
<pdfrwt beam="1">  1        1 0.17936213E+00 0.12824080E+04</pdfrwt>
<pdfrwt beam="2">  1       -2 0.54254397E-01 0.12824080E+04</pdfrwt>
<totfact> 0.31241999E+01</totfact>
</mgrwt>
</event>
<event>
12    4  0.4398275E-008  0.1298236E+04  0.7818608E-02  0.9030965E-01
          1   -1    0    0  501    0  0.00000000000E+00  0.00000000000E+00  0.63026823966E+03  0.63026823966E+03  0.00000000000E+00 0. -1.
         -2   -1    0    0    0  501 -0.00000000000E+00 -0.00000000000E+00 -0.66853119406E+03  0.66853119406E+03  0.00000000000E+00 0.  1.
        -24    2    1    2    0    0  0.10382724923E+03 -0.28565761695E+03 -0.15591044486E+03  0.35039370663E+03  0.78021221615E+02 0.  0.
        254    2    1    2    0    0 -0.10382724923E+03  0.28565761695E+03  0.11764749045E+03  0.94840572709E+03  0.89064702287E+03 0.  0.
         23    2    4    4    0    0  0.14900428821E+03  0.26203981375E+03 -0.31041768073E+03  0.44236310568E+03  0.91971946026E+02 0.  0.
         23    2    4    4    0    0 -0.25283153744E+03  0.23617803202E+02  0.42806517119E+03  0.50604262141E+03  0.91420768698E+02 0.  0.
          1    1    3    3  502    0  0.71732672391E+02 -0.15328025571E+03 -0.12586082603E+03  0.21090604687E+03  0.00000000000E+00 0. -1.
         -2    1    3    3    0  502  0.32094576841E+02 -0.13237736124E+03 -0.30049618828E+02  0.13948765975E+03  0.00000000000E+00 0.  1.
         11    1    5    5    0    0  0.33830425922E+02  0.10489740396E+03 -0.16841515180E+03  0.20127500200E+03  0.00000000000E+00 0. -1.
        -11    1    5    5    0    0  0.11517386229E+03  0.15714240979E+03 -0.14200252893E+03  0.24108810367E+03  0.00000000000E+00 0.  1.
          3    1    6    6  503    0 -0.11814895619E+03  0.26212330915E+02  0.28451957348E+03  0.30918869616E+03  0.00000000000E+00 0. -1.
         -3    1    6    6    0  503 -0.13468258124E+03 -0.25945277139E+01  0.14354559771E+03  0.19685392525E+03  0.00000000000E+00 0.  1.
<mgrwt>
<rscale>  0 0.12982357E+04</rscale>
<asrwt>0</asrwt>
<pdfrwt beam="1">  1        1 0.96964344E-01 0.12982357E+04</pdfrwt>
<pdfrwt beam="2">  1       -2 0.10285095E+00 0.12982357E+04</pdfrwt>
<totfact> 0.21178904E+01</totfact>
</mgrwt>
</event>
<event>
12    4  0.4398275E-008  0.1570505E+04  0.7818608E-02  0.8838876E-01
          1   -1    0    0  501    0  0.00000000000E+00  0.00000000000E+00  0.16977310776E+04  0.16977310776E+04  0.00000000000E+00 0. -1.
         -2   -1    0    0    0  501 -0.00000000000E+00 -0.00000000000E+00 -0.36320312295E+03  0.36320312295E+03  0.00000000000E+00 0.  1.
        -24    2    1    2    0    0 -0.16617135187E+03 -0.40710606949E+03  0.61967046349E+03  0.76396171326E+03  0.79358339262E+02 0.  0.
        254    2    1    2    0    0  0.16617135187E+03  0.40710606949E+03  0.71485749117E+03  0.12969724873E+04  0.98882158662E+03 0.  0.
         23    2    4    4    0    0  0.21410641446E+03  0.68904701162E+03  0.30329971168E+03  0.78796506500E+03  0.90944420552E+02 0.  0.
         23    2    4    4    0    0 -0.47935062584E+02 -0.28194094213E+03  0.41155777949E+03  0.50900742230E+03  0.88995983215E+02 0.  0.
          1    1    3    3  502    0 -0.12901079915E+03 -0.21834152643E+03  0.37515726265E+03  0.45283526826E+03  0.00000000000E+00 0. -1.
         -2    1    3    3    0  502 -0.37160552725E+02 -0.18876454306E+03  0.24451320084E+03  0.31112644500E+03  0.00000000000E+00 0.  1.
         11    1    5    5    0    0  0.20663382367E+03  0.68092066274E+03  0.30871989985E+03  0.77566646350E+03  0.00000000000E+00 0. -1.
        -11    1    5    5    0    0  0.74725907876E+01  0.81263488732E+01 -0.54201881713E+01  0.12298601502E+02  0.00000000000E+00 0.  1.
          3    1    6    6  503    0 -0.21921955859E+02 -0.26899385098E+03  0.38026593430E+03  0.46630509841E+03  0.00000000000E+00 0. -1.
         -3    1    6    6    0  503 -0.26013106725E+02 -0.12947091153E+02  0.31291845190E+02  0.42702323897E+02  0.00000000000E+00 0.  1.
<mgrwt>
<rscale>  0 0.15705047E+04</rscale>
<asrwt>0</asrwt>
<pdfrwt beam="1">  1        1 0.26118939E+00 0.15705047E+04</pdfrwt>
<pdfrwt beam="2">  1       -2 0.55877404E-01 0.15705047E+04</pdfrwt>
<totfact> 0.12146780E+01</totfact>
</mgrwt>
</event>
<event>
12    4  0.4398275E-008  0.3271236E+04  0.7818608E-02  0.8170253E-01
          1   -1    0    0  501    0  0.00000000000E+00  0.00000000000E+00  0.15289513023E+04  0.15289513023E+04  0.00000000000E+00 0. -1.
         -2   -1    0    0    0  501 -0.00000000000E+00 -0.00000000000E+00 -0.17497262462E+04  0.17497262462E+04  0.00000000000E+00 0.  1.
        -24    2    1    2    0    0 -0.97066890025E+03 -0.30956332843E+03 -0.11615121890E+04  0.15470964017E+04  0.79806909609E+02 0.  0.
        254    2    1    2    0    0  0.97066890025E+03  0.30956332843E+03  0.94073724512E+03  0.17315811468E+04  0.10369952437E+04 0.  0.
         23    2    4    4    0    0  0.42349925310E+03 -0.97289380241E+02  0.94437102043E+03  0.10435432609E+04  0.91263751588E+02 0.  0.
         23    2    4    4    0    0  0.54716964715E+03  0.40685270867E+03 -0.36337753041E+01  0.68803788588E+03  0.91973793926E+02 0.  0.
          1    1    3    3  502    0 -0.22441958078E+03 -0.56973354730E+02 -0.21934054486E+03  0.31893633535E+03  0.00000000000E+00 0. -1.
         -2    1    3    3    0  502 -0.74624931947E+03 -0.25258997370E+03 -0.94217164417E+03  0.12281600664E+04  0.00000000000E+00 0.  1.
         11    1    5    5    0    0  0.33289428440E+03 -0.88030918718E+02  0.65237332840E+03  0.73767134067E+03  0.00000000000E+00 0.  1.
        -11    1    5    5    0    0  0.90604968697E+02 -0.92584615227E+01  0.29199769203E+03  0.30587192028E+03  0.00000000000E+00 0. -1.
          3    1    6    6  503    0  0.75396947043E+02  0.20412265376E+02  0.28399012553E+01  0.78162812387E+02  0.00000000000E+00 0. -1.
         -3    1    6    6    0  503  0.47177270011E+03  0.38644044329E+03 -0.64736765595E+01  0.60987507349E+03  0.00000000000E+00 0.  1.
<mgrwt>
<rscale>  0 0.32712360E+04</rscale>
<asrwt>0</asrwt>
<pdfrwt beam="1">  1        1 0.23522328E+00 0.32712360E+04</pdfrwt>
<pdfrwt beam="2">  1       -2 0.26918865E+00 0.32712360E+04</pdfrwt>
<totfact> 0.22368366E-01</totfact>
</mgrwt>
</event>
<event>
12    4  0.4398275E-008  0.1545489E+04  0.7818608E-02  0.8854754E-01
          1   -1    0    0  501    0  0.00000000000E+00  0.00000000000E+00  0.17909941253E+04  0.17909941253E+04  0.00000000000E+00 0. -1.
         -2   -1    0    0    0  501 -0.00000000000E+00 -0.00000000000E+00 -0.33340916915E+03  0.33340916915E+03  0.00000000000E+00 0.  1.
        -24    2    1    2    0    0 -0.36909165256E+02  0.17194612285E+03  0.11414671058E+04  0.11577048244E+04  0.80034687781E+02 0.  0.
        254    2    1    2    0    0  0.36909165256E+02 -0.17194612285E+03  0.31611785043E+03  0.96669847009E+03  0.89646398761E+03 0.  0.
         23    2    4    4    0    0  0.25056273415E+03 -0.46709561588E+03  0.18281739748E+03  0.56799934610E+03  0.90780274440E+02 0.  0.
         23    2    4    4    0    0 -0.21365356889E+03  0.29514949303E+03  0.13330045295E+03  0.39869912399E+03  0.91819986805E+02 0.  0.
          1    1    3    3  502    0 -0.61721616846E+02  0.13607068054E+03  0.90403921522E+03  0.91630327444E+03  0.00000000000E+00 0. -1.
         -2    1    3    3    0  502  0.24812451591E+02  0.35875442313E+02  0.23742789055E+03  0.24140154996E+03  0.00000000000E+00 0.  1.
         11    1    5    5    0    0  0.16680541105E+03 -0.28461081067E+03  0.15770154963E+03  0.36564619164E+03  0.00000000000E+00 0. -1.
        -11    1    5    5    0    0  0.83757323100E+02 -0.18248480522E+03  0.25115847850E+02  0.20235315446E+03  0.00000000000E+00 0.  1.
          3    1    6    6  503    0 -0.16661402988E+01  0.17452004842E+02 -0.11012650720E+02  0.20703308247E+02  0.00000000000E+00 0. -1.
         -3    1    6    6    0  503 -0.21198742859E+03  0.27769748819E+03  0.14431310367E+03  0.37799581574E+03  0.00000000000E+00 0.  1.
<mgrwt>
<rscale>  0 0.15454887E+04</rscale>
<asrwt>0</asrwt>
<pdfrwt beam="1">  1        1 0.27553755E+00 0.15454887E+04</pdfrwt>
<pdfrwt beam="2">  1       -2 0.51293719E-01 0.15454887E+04</pdfrwt>
<totfact> 0.12555703E+01</totfact>
</mgrwt>
</event>
<event>
12    4  0.4398275E-008  0.1416585E+04  0.7818608E-02  0.8941900E-01
          3   -1    0    0  501    0  0.00000000000E+00  0.00000000000E+00  0.24552132136E+03  0.24552132136E+03  0.00000000000E+00 0. -1.
         -2   -1    0    0    0  501 -0.00000000000E+00 -0.00000000000E+00 -0.20433176002E+04  0.20433176002E+04  0.00000000000E+00 0.  1.
        -24    2    1    2    0    0 -0.28182135857E+03 -0.26429147526E+03 -0.77066409601E+03  0.86579970371E+03  0.80079435686E+02 0.  0.
        254    2    1    2    0    0  0.28182135857E+03  0.26429147526E+03 -0.10271321828E+04  0.14230392179E+04  0.90596182728E+03 0.  0.
         23    2    4    4    0    0 -0.30880152513E+03 -0.16225541868E+01 -0.43082303175E+03  0.53794307272E+03  0.91723771154E+02 0.  0.
         23    2    4    4    0    0  0.59062288370E+03  0.26591402945E+03 -0.59630915108E+03  0.88509614513E+03  0.90911608977E+02 0.  0.
          1    1    3    3  502    0 -0.11373713572E+03 -0.12021001871E+03 -0.41603188740E+03  0.44773777590E+03  0.00000000000E+00 0. -1.
         -2    1    3    3    0  502 -0.16808422286E+03 -0.14408145655E+03 -0.35463220861E+03  0.41806192780E+03  0.00000000000E+00 0.  1.
         11    1    5    5    0    0 -0.15727816445E+03 -0.41549478471E+02 -0.25457030871E+03  0.30210730254E+03  0.00000000000E+00 0.  1.
        -11    1    5    5    0    0 -0.15152336068E+03  0.39926924284E+02 -0.17625272305E+03  0.23583577018E+03  0.00000000000E+00 0. -1.
          2    1    6    6  503    0  0.38740888715E+03  0.19699704400E+03 -0.34694062958E+03  0.55611265193E+03  0.00000000000E+00 0.  1.
         -2    1    6    6    0  503  0.20321399656E+03  0.68916985443E+02 -0.24936852150E+03  0.32898349320E+03  0.00000000000E+00 0. -1.
<mgrwt>
<rscale>  0 0.14165847E+04</rscale>
<asrwt>0</asrwt>
<pdfrwt beam="1">  1        3 0.37772511E-01 0.14165847E+04</pdfrwt>
<pdfrwt beam="2">  1       -2 0.31435655E+00 0.14165847E+04</pdfrwt>
<totfact> 0.74711300E-01</totfact>
</mgrwt>
</event>
<event>
12    4  0.4398275E-008  0.2018973E+04  0.7818608E-02  0.8597801E-01
          1   -1    0    0  501    0  0.00000000000E+00  0.00000000000E+00  0.61195265770E+03  0.61195265770E+03  0.00000000000E+00 0. -1.
         -2   -1    0    0    0  501 -0.00000000000E+00 -0.00000000000E+00 -0.16652651312E+04  0.16652651312E+04  0.00000000000E+00 0.  1.
        -24    2    1    2    0    0  0.36772491779E+02 -0.72853040877E+03 -0.80819098452E+03  0.10918473562E+04  0.82759948363E+02 0.  0.
        254    2    1    2    0    0 -0.36772491779E+02  0.72853040877E+03 -0.24512148895E+03  0.11853704327E+04  0.90161507626E+03 0.  0.
         23    2    4    4    0    0 -0.41507566912E+02  0.65673270050E+03  0.22469521613E+03  0.70121784608E+03  0.90541755509E+02 0.  0.
         23    2    4    4    0    0  0.47350751329E+01  0.71797708272E+02 -0.46981670508E+03  0.48415258663E+03  0.92188171265E+02 0.  0.
          1    1    3    3  502    0 -0.12556191620E+02 -0.36451380750E+03 -0.36175455777E+03  0.51370646664E+03  0.00000000000E+00 0. -1.
         -4    1    3    3    0  502  0.49328683399E+02 -0.36401660127E+03 -0.44643642675E+03  0.57814088952E+03  0.00000000000E+00 0.  1.
         11    1    5    5    0    0 -0.15960309147E+02  0.39945422840E+02 -0.33043002239E+01  0.43142631746E+02  0.00000000000E+00 0.  1.
        -11    1    5    5    0    0 -0.25547257765E+02  0.61678727766E+03  0.22799951635E+03  0.65807521433E+03  0.00000000000E+00 0. -1.
          3    1    6    6  503    0  0.19538092434E+02 -0.29805568318E+01 -0.26288223699E+03  0.26362414779E+03  0.00000000000E+00 0. -1.
         -3    1    6    6    0  503 -0.14803017302E+02  0.74778265104E+02 -0.20693446809E+03  0.22052843884E+03  0.00000000000E+00 0.  1.
<mgrwt>
<rscale>  0 0.20189734E+04</rscale>
<asrwt>0</asrwt>
<pdfrwt beam="1">  1        1 0.94146563E-01 0.20189734E+04</pdfrwt>
<pdfrwt beam="2">  1       -2 0.25619463E+00 0.20189734E+04</pdfrwt>
<totfact> 0.15889576E+00</totfact>
</mgrwt>
</event>
<event>
12    4  0.4398275E-008  0.1573396E+04  0.7818608E-02  0.8837061E-01
         -2   -1    0    0    0  501 -0.00000000000E+00  0.00000000000E+00  0.31648337802E+03  0.31648337802E+03  0.00000000000E+00 0.  1.
          1   -1    0    0  501    0  0.00000000000E+00 -0.00000000000E+00 -0.19555329560E+04  0.19555329560E+04  0.00000000000E+00 0. -1.
        -24    2    1    2    0    0  0.12472194176E+03 -0.19956227946E+03 -0.12267402444E+04  0.12534106183E+04  0.10375878195E+03 0.  0.
        254    2    1    2    0    0 -0.12472194176E+03  0.19956227946E+03 -0.41230933360E+03  0.10186057157E+04  0.90120916070E+03 0.  0.
         23    2    4    4    0    0 -0.12508432929E+03  0.36401696013E+03 -0.62069735341E+03  0.73620145023E+03  0.92590140399E+02 0.  0.
         23    2    4    4    0    0  0.36238752693E+00 -0.16445468067E+03  0.20838801980E+03  0.28240426546E+03  0.96338616526E+02 0.  0.
          1    1    3    3  502    0  0.11328285316E+03 -0.89590142844E+02 -0.77445670008E+03  0.78780871969E+03  0.00000000000E+00 0. -1.
         -2    1    3    3    0  502  0.11439088596E+02 -0.10997213661E+03 -0.45228354430E+03  0.46560189865E+03  0.00000000000E+00 0.  1.
         11    1    5    5    0    0 -0.13276972597E+03  0.36416328563E+03 -0.60209355112E+03  0.71607216329E+03  0.00000000000E+00 0. -1.
        -11    1    5    5    0    0  0.76853966792E+01 -0.14632550316E+00 -0.18603802282E+02  0.20129286937E+02  0.00000000000E+00 0.  1.
          1    1    6    6  503    0  0.34325339155E+02 -0.14072256677E+03  0.18454160797E+03  0.23459896585E+03  0.00000000000E+00 0. -1.
         -1    1    6    6    0  503 -0.33962951628E+02 -0.23732113906E+02  0.23846411831E+02  0.47805299612E+02  0.00000000000E+00 0.  1.
<mgrwt>
<rscale>  0 0.15733959E+04</rscale>
<asrwt>0</asrwt>
<pdfrwt beam="1">  1        1 0.30085122E+00 0.15733959E+04</pdfrwt>
<pdfrwt beam="2">  1       -2 0.48689750E-01 0.15733959E+04</pdfrwt>
<totfact> 0.10776965E+01</totfact>
</mgrwt>
</event>
<event>
12    4  0.4398275E-008  0.3439385E+04  0.7818608E-02  0.8128307E-01
          1   -1    0    0  501    0  0.00000000000E+00  0.00000000000E+00  0.15239786983E+04  0.15239786983E+04  0.00000000000E+00 0. -1.
         -2   -1    0    0    0  501 -0.00000000000E+00 -0.00000000000E+00 -0.19405408234E+04  0.19405408234E+04  0.00000000000E+00 0.  1.
        -24    2    1    2    0    0  0.10201924062E+04 -0.75012948669E+03  0.79238489513E+03  0.14959605532E+04  0.80853955939E+02 0.  0.
        254    2    1    2    0    0 -0.10201924062E+04  0.75012948669E+03 -0.12089470202E+04  0.19685589685E+04  0.90010261779E+03 0.  0.
         23    2    4    4    0    0  0.13048874773E+02  0.30376925233E+03 -0.61682899023E+03  0.69360305837E+03  0.90339180829E+02 0.  0.
         23    2    4    4    0    0 -0.10332412809E+04  0.44636023436E+03 -0.59211802995E+03  0.12749559102E+04  0.89909999437E+02 0.  0.
          1    1    3    3  502    0  0.53505911648E+03 -0.39329445793E+03  0.36785070286E+03  0.75913301098E+03  0.00000000000E+00 0. -1.
         -2    1    3    3    0  502  0.48513328968E+03 -0.35683502876E+03  0.42453419227E+03  0.73682754217E+03  0.00000000000E+00 0.  1.
         11    1    5    5    0    0 -0.36098529970E+02  0.12405987183E+03 -0.21819593565E+03  0.25358119409E+03  0.00000000000E+00 0.  1.
        -11    1    5    5    0    0  0.49147404743E+02  0.17970938050E+03 -0.39863305459E+03  0.44002186428E+03  0.00000000000E+00 0. -1.
          1    1    6    6  503    0 -0.25316807585E+03  0.10735454707E+03 -0.18924369071E+03  0.33381469093E+03  0.00000000000E+00 0. -1.
         -1    1    6    6    0  503 -0.78007320508E+03  0.33900568729E+03 -0.40287433924E+03  0.94114121922E+03  0.00000000000E+00 0.  1.
<mgrwt>
<rscale>  0 0.34393853E+04</rscale>
<asrwt>0</asrwt>
<pdfrwt beam="1">  1        1 0.23445826E+00 0.34393853E+04</pdfrwt>
<pdfrwt beam="2">  1       -2 0.29854474E+00 0.34393853E+04</pdfrwt>
<totfact> 0.14710132E-01</totfact>
</mgrwt>
</event>
<event>
12    4  0.4398275E-008  0.1757675E+04  0.7818608E-02  0.8729137E-01
          1   -1    0    0  501    0  0.00000000000E+00  0.00000000000E+00  0.12556627667E+04  0.12556627667E+04  0.00000000000E+00 0. -1.
         -2   -1    0    0    0  501 -0.00000000000E+00 -0.00000000000E+00 -0.61509753047E+03  0.61509753047E+03  0.00000000000E+00 0.  1.
        -24    2    1    2    0    0 -0.62167089467E+03  0.20630192256E+03  0.46975439552E+02  0.66152660905E+03  0.79847216780E+02 0.  0.
        254    2    1    2    0    0  0.62167089467E+03 -0.20630192256E+03  0.59358979665E+03  0.12092336881E+04  0.82514367307E+03 0.  0.
         23    2    4    4    0    0  0.41574298909E+03 -0.30424573804E+02 -0.11746982180E+03  0.44268048067E+03  0.91645846960E+02 0.  0.
         23    2    4    4    0    0  0.20592790558E+03 -0.17587734876E+03  0.71105961845E+03  0.76655320743E+03  0.93053182223E+02 0.  0.
          1    1    3    3  502    0 -0.53078801188E+02  0.37235048691E+02 -0.99921384911E+01  0.65602216565E+02  0.00000000000E+00 0. -1.
         -2    1    3    3    0  502 -0.56859209348E+03  0.16906687387E+03  0.56967578043E+02  0.59592439249E+03  0.00000000000E+00 0.  1.
         11    1    5    5    0    0  0.40883895879E+03 -0.14108417378E+02 -0.11195568466E+03  0.42412547317E+03  0.00000000000E+00 0. -1.
        -11    1    5    5    0    0  0.69040302988E+01 -0.16316156426E+02 -0.55141371415E+01  0.18555007499E+02  0.00000000000E+00 0.  1.
          2    1    6    6  503    0  0.16620906970E+02 -0.16375995645E+02  0.16951792501E+03  0.17111620227E+03  0.00000000000E+00 0.  1.
         -2    1    6    6    0  503  0.18930699861E+03 -0.15950135311E+03  0.54154169345E+03  0.59543700516E+03  0.00000000000E+00 0. -1.
<mgrwt>
<rscale>  0 0.17576747E+04</rscale>
<asrwt>0</asrwt>
<pdfrwt beam="1">  1        1 0.19317889E+00 0.17576747E+04</pdfrwt>
<pdfrwt beam="2">  1       -2 0.94630389E-01 0.17576747E+04</pdfrwt>
<totfact> 0.76061324E+00</totfact>
</mgrwt>
</event>
<event>
12    4  0.4398275E-008  0.1806362E+04  0.7818608E-02  0.8702924E-01
         -2   -1    0    0    0  501 -0.00000000000E+00  0.00000000000E+00  0.94757501233E+03  0.94757501233E+03  0.00000000000E+00 0.  1.
          1   -1    0    0  501    0  0.00000000000E+00 -0.00000000000E+00 -0.86086683532E+03  0.86086683532E+03  0.00000000000E+00 0. -1.
        -24    2    1    2    0    0 -0.40244414381E+03 -0.48238092938E+03 -0.21999344665E+03  0.66854917532E+03  0.62515864660E+02 0.  0.
        254    2    1    2    0    0  0.40244414381E+03  0.48238092938E+03  0.30670162366E+03  0.11398926723E+04  0.90035369082E+03 0.  0.
         23    2    4    4    0    0 -0.27743671233E+03  0.15048712686E+03  0.15107360958E+03  0.36131284808E+03  0.90034626547E+02 0.  0.
         23    2    4    4    0    0  0.67988085614E+03  0.33189380252E+03  0.15562801408E+03  0.77857982426E+03  0.97851874209E+02 0.  0.
          1    1    3    3  502    0 -0.31634609107E+03 -0.41015086519E+03 -0.19466252261E+03  0.55334625621E+03  0.00000000000E+00 0. -1.
         -2    1    3    3    0  502 -0.86098052742E+02 -0.72230064192E+02 -0.25330924032E+02  0.11520291911E+03  0.00000000000E+00 0.  1.
         11    1    5    5    0    0 -0.18859153622E+03  0.14563781261E+03  0.97527642159E+02  0.25746607734E+03  0.00000000000E+00 0. -1.
        -11    1    5    5    0    0 -0.88845176102E+02  0.48493142531E+01  0.53545967423E+02  0.10384677074E+03  0.00000000000E+00 0.  1.
          4    1    6    6  503    0  0.26608867955E+03  0.18155351131E+03  0.79480891408E+02  0.33178618861E+03  0.00000000000E+00 0. -1.
         -4    1    6    6    0  503  0.41379217658E+03  0.15034029121E+03  0.76147122671E+02  0.44679363565E+03  0.00000000000E+00 0.  1.
<mgrwt>
<rscale>  0 0.18063620E+04</rscale>
<asrwt>0</asrwt>
<pdfrwt beam="1">  1        1 0.13244105E+00 0.18063620E+04</pdfrwt>
<pdfrwt beam="2">  1       -2 0.14578077E+00 0.18063620E+04</pdfrwt>
<totfact> 0.52342025E+00</totfact>
</mgrwt>
</event>
<event>
12    4  0.4398275E-008  0.2751990E+04  0.7818608E-02  0.8318331E-01
          1   -1    0    0  501    0  0.00000000000E+00  0.00000000000E+00  0.17746346843E+04  0.17746346843E+04  0.00000000000E+00 0. -1.
         -2   -1    0    0    0  501 -0.00000000000E+00 -0.00000000000E+00 -0.10669023919E+04  0.10669023919E+04  0.00000000000E+00 0.  1.
        -24    2    1    2    0    0 -0.10058789519E+03 -0.11818177671E+03  0.15813543540E+04  0.15910828437E+04  0.82329614181E+02 0.  0.
        254    2    1    2    0    0  0.10058789519E+03  0.11818177671E+03 -0.87362206171E+03  0.12504542326E+04  0.88109898649E+03 0.  0.
         23    2    4    4    0    0  0.12462590536E+03 -0.36013695660E+03 -0.27207485573E+03  0.47621734013E+03  0.86763956362E+02 0.  0.
         23    2    4    4    0    0 -0.24038010170E+02  0.47831873331E+03 -0.60154720598E+03  0.77423689242E+03  0.90648154932E+02 0.  0.
          1    1    3    3  502    0 -0.90546198380E+02 -0.91328133300E+02  0.14848737411E+04  0.14904326449E+04  0.00000000000E+00 0. -1.
         -2    1    3    3    0  502 -0.10041696809E+02 -0.26853643412E+02  0.96480612962E+02  0.10065019879E+03  0.00000000000E+00 0.  1.
         11    1    5    5    0    0  0.55135392547E+02 -0.11054730296E+03 -0.13543006862E+03  0.18330826819E+03  0.00000000000E+00 0. -1.
        -11    1    5    5    0    0  0.69490512812E+02 -0.24958965365E+03 -0.13664478711E+03  0.29290907194E+03  0.00000000000E+00 0.  1.
          4    1    6    6  503    0 -0.11266674007E+01  0.54763957817E+00 -0.25326358295E+02  0.25357320699E+02  0.00000000000E+00 0. -1.
         -4    1    6    6    0  503 -0.22911342769E+02  0.47777109374E+03 -0.57622084769E+03  0.74887957173E+03  0.00000000000E+00 0.  1.
<mgrwt>
<rscale>  0 0.27519898E+04</rscale>
<asrwt>0</asrwt>
<pdfrwt beam="1">  1        1 0.27302072E+00 0.27519898E+04</pdfrwt>
<pdfrwt beam="2">  1       -2 0.16413883E+00 0.27519898E+04</pdfrwt>
<totfact> 0.76055865E-01</totfact>
</mgrwt>
</event>
<event>
12    4  0.4398275E-008  0.2673726E+04  0.7818608E-02  0.8343581E-01
         -2   -1    0    0    0  501 -0.00000000000E+00  0.00000000000E+00  0.55008416684E+03  0.55008416684E+03  0.00000000000E+00 0.  1.
          1   -1    0    0  501    0  0.00000000000E+00 -0.00000000000E+00 -0.32489613681E+04  0.32489613681E+04  0.00000000000E+00 0. -1.
        -24    2    1    2    0    0  0.93339917229E+03 -0.71172615249E+03 -0.99046984005E+03  0.15379514520E+04  0.80473808279E+02 0.  0.
        254    2    1    2    0    0 -0.93339917229E+03  0.71172615249E+03 -0.17084073613E+04  0.22610940829E+04  0.90338397646E+03 0.  0.
         23    2    4    4    0    0 -0.66561377325E+03 -0.41050892574E+02 -0.69686246969E+03  0.96891402703E+03  0.91925073759E+02 0.  0.
         23    2    4    4    0    0 -0.26778539904E+03  0.75277704506E+03 -0.10115448916E+04  0.12921800559E+04  0.90132844862E+02 0.  0.
          3    1    3    3  502    0  0.88999914406E+03 -0.68719915755E+03 -0.92724670708E+03  0.14574387172E+04  0.00000000000E+00 0. -1.
         -4    1    3    3    0  502  0.43400028228E+02 -0.24526994943E+02 -0.63223132977E+02  0.80512734860E+02  0.00000000000E+00 0.  1.
         11    1    5    5    0    0 -0.10548393180E+02 -0.73656994141E+01 -0.14252887291E+01  0.12944248703E+02  0.00000000000E+00 0.  1.
        -11    1    5    5    0    0 -0.65506538007E+03 -0.33685193160E+02 -0.69543718096E+03  0.95596977832E+03  0.00000000000E+00 0. -1.
          2    1    6    6  503    0 -0.18489216761E+03  0.62088331475E+03 -0.79804509660E+03  0.10278896733E+04  0.00000000000E+00 0. -1.
         -2    1    6    6    0  503 -0.82893231424E+02  0.13189373031E+03 -0.21349979496E+03  0.26429038265E+03  0.00000000000E+00 0.  1.
<mgrwt>
<rscale>  0 0.26737256E+04</rscale>
<asrwt>0</asrwt>
<pdfrwt beam="1">  1        1 0.49984022E+00 0.26737256E+04</pdfrwt>
<pdfrwt beam="2">  1       -2 0.84628331E-01 0.26737256E+04</pdfrwt>
<totfact> 0.36572086E-01</totfact>
</mgrwt>
</event>
<event>
12    4  0.4398275E-008  0.1453206E+04  0.7818608E-02  0.8916181E-01
          1   -1    0    0  501    0  0.00000000000E+00  0.00000000000E+00  0.78805421150E+03  0.78805421150E+03  0.00000000000E+00 0. -1.
         -2   -1    0    0    0  501 -0.00000000000E+00 -0.00000000000E+00 -0.66994394176E+03  0.66994394176E+03  0.00000000000E+00 0.  1.
        -24    2    1    2    0    0 -0.31229998722E+02 -0.29151062936E+03 -0.29703636128E+03  0.42533847243E+03  0.82027168412E+02 0.  0.
        254    2    1    2    0    0  0.31229998722E+02  0.29151062936E+03  0.41514663102E+03  0.10326596808E+04  0.89893577708E+03 0.  0.
         23    2    4    4    0    0  0.35747135781E+03 -0.97268161496E+02  0.16859560447E+02  0.38099399642E+03  0.87323041831E+02 0.  0.
         23    2    4    4    0    0 -0.32624135909E+03  0.38877879086E+03  0.39828707057E+03  0.65166568441E+03  0.91941291332E+02 0.  0.
          3    1    3    3  502    0 -0.15166477271E+02 -0.30813884091E+01 -0.12968302885E+02  0.20191430535E+02  0.00000000000E+00 0. -1.
         -4    1    3    3    0  502 -0.16063521451E+02 -0.28842924095E+03 -0.28406805839E+03  0.40514704189E+03  0.00000000000E+00 0.  1.
         11    1    5    5    0    0  0.33367783488E+03 -0.94271615538E+02 -0.74869640535E+01  0.34681996715E+03  0.00000000000E+00 0. -1.
        -11    1    5    5    0    0  0.23793522934E+02 -0.29965459580E+01  0.24346524500E+02  0.34174029270E+02  0.00000000000E+00 0.  1.
          1    1    6    6  503    0 -0.24482856211E+03  0.33405913183E+03  0.35039093754E+03  0.54250376727E+03  0.00000000000E+00 0. -1.
         -1    1    6    6    0  503 -0.81412796974E+02  0.54719659022E+02  0.47896133030E+02  0.10916191714E+03  0.00000000000E+00 0.  1.
<mgrwt>
<rscale>  0 0.14532063E+04</rscale>
<asrwt>0</asrwt>
<pdfrwt beam="1">  1        1 0.12123911E+00 0.14532063E+04</pdfrwt>
<pdfrwt beam="2">  1       -2 0.10306830E+00 0.14532063E+04</pdfrwt>
<totfact> 0.14806298E+01</totfact>
</mgrwt>
</event>
<event>
12    4  0.4398275E-008  0.1730692E+04  0.7818608E-02  0.8744051E-01
         -2   -1    0    0    0  501 -0.00000000000E+00  0.00000000000E+00  0.27860074722E+03  0.27860074722E+03  0.00000000000E+00 0.  1.
          1   -1    0    0  501    0  0.00000000000E+00 -0.00000000000E+00 -0.26878008022E+04  0.26878008022E+04  0.00000000000E+00 0. -1.
        -24    2    1    2    0    0  0.30757972193E+03  0.17800851372E+02  0.55804074685E+02  0.32309655533E+03  0.79719092232E+02 0.  0.
        254    2    1    2    0    0 -0.30757972193E+03 -0.17800851372E+02 -0.24650041296E+04  0.26433049941E+04  0.90326838585E+03 0.  0.
         23    2    4    4    0    0 -0.15169336508E+03  0.38004383654E+03 -0.64040141080E+03  0.76659851422E+03  0.10057395457E+03 0.  0.
         23    2    4    4    0    0 -0.15588635685E+03 -0.39784468792E+03 -0.18246027188E+04  0.18767064799E+04  0.10134682019E+03 0.  0.
          1    1    3    3  502    0  0.33609019775E+01 -0.75444343584E+01 -0.76963427439E+01  0.11289280027E+02  0.00000000000E+00 0. -1.
         -2    1    3    3    0  502  0.30421881995E+03  0.25345285731E+02  0.63500417429E+02  0.31180727530E+03  0.00000000000E+00 0.  1.
         11    1    5    5    0    0 -0.80576901934E+02  0.24556452261E+03 -0.48237682462E+03  0.54724946124E+03  0.00000000000E+00 0. -1.
        -11    1    5    5    0    0 -0.71116463143E+02  0.13447931394E+03 -0.15802458618E+03  0.21934905298E+03  0.00000000000E+00 0.  1.
          3    1    6    6  503    0 -0.16838741261E+03 -0.33642728861E+03 -0.15407672357E+04  0.15860332013E+04  0.00000000000E+00 0. -1.
         -3    1    6    6    0  503  0.12501055761E+02 -0.61417399305E+02 -0.28383548318E+03  0.29067327852E+03  0.00000000000E+00 0.  1.
<mgrwt>
<rscale>  0 0.17306916E+04</rscale>
<asrwt>0</asrwt>
<pdfrwt beam="1">  1        1 0.41350784E+00 0.17306916E+04</pdfrwt>
<pdfrwt beam="2">  1       -2 0.42861651E-01 0.17306916E+04</pdfrwt>
<totfact> 0.43155189E+00</totfact>
</mgrwt>
</event>
<event>
12    4  0.4398275E-008  0.1576956E+04  0.7818608E-02  0.8834831E-01
         -2   -1    0    0    0  501 -0.00000000000E+00  0.00000000000E+00  0.65057336789E+03  0.65057336789E+03  0.00000000000E+00 0.  1.
          1   -1    0    0  501    0  0.00000000000E+00 -0.00000000000E+00 -0.95561452214E+03  0.95561452214E+03  0.00000000000E+00 0. -1.
        -24    2    1    2    0    0 -0.16886942800E+03  0.19826254620E+03  0.36908861160E+03  0.45881004123E+03  0.80345066938E+02 0.  0.
        254    2    1    2    0    0  0.16886942800E+03 -0.19826254620E+03 -0.67412976585E+03  0.11473778488E+04  0.89117903126E+03 0.  0.
         23    2    4    4    0    0 -0.10007881497E+03 -0.23315719662E+03  0.12578538639E+03  0.29796888079E+03  0.92657665335E+02 0.  0.
         23    2    4    4    0    0  0.26894824297E+03  0.34894650420E+02 -0.79991515224E+03  0.84940896801E+03  0.89891880138E+02 0.  0.
          3    1    3    3  502    0 -0.62502885568E+02  0.21934701119E+02  0.79715464362E+02  0.10364505331E+03  0.00000000000E+00 0. -1.
         -4    1    3    3    0  502 -0.10636654243E+03  0.17632784509E+03  0.28937314724E+03  0.35516498792E+03  0.00000000000E+00 0.  1.
         11    1    5    5    0    0  0.60824692294E+00 -0.17200270735E+02  0.42003349562E+02  0.45392737878E+02  0.00000000000E+00 0. -1.
        -11    1    5    5    0    0 -0.10068706189E+03 -0.21595692589E+03  0.83782036832E+02  0.25257614291E+03  0.00000000000E+00 0.  1.
          2    1    6    6  503    0  0.21126137253E+02 -0.16788129628E+02 -0.14053721659E+03  0.14310438225E+03  0.00000000000E+00 0. -1.
         -2    1    6    6    0  503  0.24782210572E+03  0.51682780047E+02 -0.65937793565E+03  0.70630458575E+03  0.00000000000E+00 0.  1.
<mgrwt>
<rscale>  0 0.15769557E+04</rscale>
<asrwt>0</asrwt>
<pdfrwt beam="1">  1        1 0.14701762E+00 0.15769557E+04</pdfrwt>
<pdfrwt beam="2">  1       -2 0.10008821E+00 0.15769557E+04</pdfrwt>
<totfact> 0.11394272E+01</totfact>
</mgrwt>
</event>
<event>
12    4  0.4398275E-008  0.2358760E+04  0.7818608E-02  0.8455107E-01
          1   -1    0    0  501    0  0.00000000000E+00  0.00000000000E+00  0.21979169991E+04  0.21979169991E+04  0.00000000000E+00 0. -1.
         -2   -1    0    0    0  501 -0.00000000000E+00 -0.00000000000E+00 -0.63284311185E+03  0.63284311185E+03  0.00000000000E+00 0.  1.
        -24    2    1    2    0    0  0.15835932488E+03  0.99029676379E+03  0.58387155552E+03  0.11631224012E+04  0.78628053005E+02 0.  0.
        254    2    1    2    0    0 -0.15835932488E+03 -0.99029676379E+03  0.98120233171E+03  0.16676377097E+04  0.90138346943E+03 0.  0.
         23    2    4    4    0    0  0.26121374733E+02 -0.89504372267E+03  0.29804258826E+03  0.94827021072E+03  0.92743821327E+02 0.  0.
         23    2    4    4    0    0 -0.18448069962E+03 -0.95253041114E+02  0.68315974345E+03  0.71936749900E+03  0.87613316210E+02 0.  0.
          1    1    3    3  502    0  0.27619168091E+02  0.39080630002E+03  0.24709578907E+03  0.46319403230E+03  0.00000000000E+00 0. -1.
         -2    1    3    3    0  502  0.13074015679E+03  0.59949046377E+03  0.33677576644E+03  0.69992836891E+03  0.00000000000E+00 0.  1.
         11    1    5    5    0    0  0.12083570329E+02 -0.66202071915E+03  0.26188975614E+03  0.71204191564E+03  0.00000000000E+00 0.  1.
        -11    1    5    5    0    0  0.14037804404E+02 -0.23302300352E+03  0.36152832122E+02  0.23622829507E+03  0.00000000000E+00 0. -1.
          2    1    6    6  503    0 -0.14140685333E+02 -0.45657844847E+02  0.15556031047E+03  0.16273785046E+03  0.00000000000E+00 0. -1.
         -2    1    6    6    0  503 -0.17034001428E+03 -0.49595196266E+02  0.52759943298E+03  0.55662964854E+03  0.00000000000E+00 0.  1.
<mgrwt>
<rscale>  0 0.23587595E+04</rscale>
<asrwt>0</asrwt>
<pdfrwt beam="1">  1        1 0.33814107E+00 0.23587595E+04</pdfrwt>
<pdfrwt beam="2">  1       -2 0.97360480E-01 0.23587595E+04</pdfrwt>
<totfact> 0.15196269E+00</totfact>
</mgrwt>
</event>
<event>
12    4  0.4398275E-008  0.1758912E+04  0.7818608E-02  0.8728460E-01
          1   -1    0    0  501    0  0.00000000000E+00  0.00000000000E+00  0.12887473642E+04  0.12887473642E+04  0.00000000000E+00 0. -1.
         -2   -1    0    0    0  501 -0.00000000000E+00 -0.00000000000E+00 -0.60015100297E+03  0.60015100297E+03  0.00000000000E+00 0.  1.
        -24    2    1    2    0    0 -0.16846222517E+03 -0.49573141931E+03 -0.15003680141E+03  0.55032100383E+03  0.78822611462E+02 0.  0.
        254    2    1    2    0    0  0.16846222517E+03  0.49573141931E+03  0.83863316263E+03  0.13385773633E+04  0.90241598764E+03 0.  0.
         23    2    4    4    0    0  0.45810974155E+03  0.48956557045E+03  0.34584672316E+03  0.75969253258E+03  0.89352140783E+02 0.  0.
         23    2    4    4    0    0 -0.28964751638E+03  0.61658488574E+01  0.49278643946E+03  0.57888483074E+03  0.91298800127E+02 0.  0.
          1    1    3    3  502    0 -0.72891546329E+01 -0.32773113219E+02  0.93457052102E+01  0.34850407905E+02  0.00000000000E+00 0. -1.
         -2    1    3    3    0  502 -0.16117307053E+03 -0.46295830609E+03 -0.15938250662E+03  0.51547059592E+03  0.00000000000E+00 0.  1.
         11    1    5    5    0    0  0.44945835044E+03  0.49182809189E+03  0.34600026193E+03  0.75074886747E+03  0.00000000000E+00 0. -1.
        -11    1    5    5    0    0  0.86513911081E+01 -0.22625214412E+01 -0.15353877075E+00  0.89436651062E+01  0.00000000000E+00 0.  1.
          1    1    6    6  503    0 -0.25801940245E+03  0.13681685211E+01  0.47895102989E+03  0.54403122424E+03  0.00000000000E+00 0. -1.
         -1    1    6    6    0  503 -0.31628113935E+02  0.47976803363E+01  0.13835409579E+02  0.34853606498E+02  0.00000000000E+00 0.  1.
<mgrwt>
<rscale>  0 0.17589122E+04</rscale>
<asrwt>0</asrwt>
<pdfrwt beam="1">  1        1 0.19826882E+00 0.17589122E+04</pdfrwt>
<pdfrwt beam="2">  1       -2 0.92330924E-01 0.17589122E+04</pdfrwt>
<totfact> 0.76246750E+00</totfact>
</mgrwt>
</event>
<event>
12    4  0.4398275E-008  0.2117821E+04  0.7818608E-02  0.8553433E-01
         -2   -1    0    0    0  501 -0.00000000000E+00  0.00000000000E+00  0.21112664044E+04  0.21112664044E+04  0.00000000000E+00 0.  1.
          1   -1    0    0  501    0  0.00000000000E+00 -0.00000000000E+00 -0.53109908447E+03  0.53109908447E+03  0.00000000000E+00 0. -1.
        -24    2    1    2    0    0 -0.16811583576E+03  0.76051026983E+03  0.17924534470E+03  0.80320945733E+03  0.79860716249E+02 0.  0.
        254    2    1    2    0    0  0.16811583576E+03 -0.76051026983E+03  0.14009219753E+04  0.18391560316E+04  0.90181690102E+03 0.  0.
         23    2    4    4    0    0  0.50764498429E+03 -0.59960334886E+03  0.80435826383E+03  0.11282387835E+04  0.93289495759E+02 0.  0.
         23    2    4    4    0    0 -0.33952914853E+03 -0.16090692097E+03  0.59656371142E+03  0.71091724805E+03  0.91345453464E+02 0.  0.
          3    1    3    3  502    0 -0.10048286293E+03  0.40756205346E+03  0.57009074673E+02  0.42361972069E+03  0.00000000000E+00 0. -1.
         -4    1    3    3    0  502 -0.67632972827E+02  0.35294821637E+03  0.12223627003E+03  0.37958973664E+03  0.00000000000E+00 0.  1.
         11    1    5    5    0    0  0.22274208325E+03 -0.23023771159E+03  0.27036480506E+03  0.41919037120E+03  0.00000000000E+00 0.  1.
        -11    1    5    5    0    0  0.28490290104E+03 -0.36936563727E+03  0.53399345877E+03  0.70904841233E+03  0.00000000000E+00 0. -1.
          1    1    6    6  503    0 -0.17101711297E+03 -0.44730950270E+02  0.21896743162E+03  0.28141507947E+03  0.00000000000E+00 0. -1.
         -1    1    6    6    0  503 -0.16851203556E+03 -0.11617597070E+03  0.37759627980E+03  0.42950216858E+03  0.00000000000E+00 0.  1.
<mgrwt>
<rscale>  0 0.21178212E+04</rscale>
<asrwt>0</asrwt>
<pdfrwt beam="1">  1        1 0.81707552E-01 0.21178212E+04</pdfrwt>
<pdfrwt beam="2">  1       -2 0.32481021E+00 0.21178212E+04</pdfrwt>
<totfact> 0.73351414E-01</totfact>
</mgrwt>
</event>
<event>
12    4  0.4398275E-008  0.1653530E+04  0.7818608E-02  0.8788321E-01
         -2   -1    0    0    0  501 -0.00000000000E+00  0.00000000000E+00  0.10231715259E+04  0.10231715259E+04  0.00000000000E+00 0.  1.
          1   -1    0    0  501    0  0.00000000000E+00 -0.00000000000E+00 -0.66806025198E+03  0.66806025198E+03  0.00000000000E+00 0. -1.
        -24    2    1    2    0    0  0.32002379608E+03 -0.37505487746E+03  0.48541521769E+03  0.69591992226E+03  0.74801159512E+02 0.  0.
        254    2    1    2    0    0 -0.32002379608E+03  0.37505487746E+03 -0.13030394377E+03  0.99531185562E+03  0.85474275721E+03 0.  0.
         23    2    4    4    0    0 -0.13248941604E+03 -0.19070859412E+03 -0.27867167359E+03  0.37436745058E+03  0.92573609403E+02 0.  0.
         23    2    4    4    0    0 -0.18753438004E+03  0.56576347159E+03  0.14836772982E+03  0.62094440504E+03  0.91112685272E+02 0.  0.
          1    1    3    3  502    0  0.19049798955E+03 -0.24010804549E+03  0.34856349574E+03  0.46415284993E+03  0.00000000000E+00 0. -1.
         -2    1    3    3    0  502  0.12952580653E+03 -0.13494683197E+03  0.13685172195E+03  0.23176707233E+03  0.00000000000E+00 0.  1.
         11    1    5    5    0    0  0.11594967727E+01 -0.35460257105E+02 -0.86471757241E+02  0.93467315501E+02  0.00000000000E+00 0. -1.
        -11    1    5    5    0    0 -0.13364891281E+03 -0.15524833702E+03 -0.19219991635E+03  0.28090013508E+03  0.00000000000E+00 0.  1.
          4    1    6    6  503    0 -0.95830773767E+02  0.20555489862E+03  0.19882901874E+02  0.22766572719E+03  0.00000000000E+00 0. -1.
         -4    1    6    6    0  503 -0.91703606275E+02  0.36020857296E+03  0.12848482795E+03  0.39327867785E+03  0.00000000000E+00 0.  1.
<mgrwt>
<rscale>  0 0.16535298E+04</rscale>
<asrwt>0</asrwt>
<pdfrwt beam="1">  1        1 0.10277850E+00 0.16535298E+04</pdfrwt>
<pdfrwt beam="2">  1       -2 0.15741100E+00 0.16535298E+04</pdfrwt>
<totfact> 0.64343762E+00</totfact>
</mgrwt>
</event>
<event>
12    4  0.4398275E-008  0.1241735E+04  0.7818608E-02  0.9077090E-01
          1   -1    0    0  501    0  0.00000000000E+00  0.00000000000E+00  0.39273778948E+03  0.39273778948E+03  0.00000000000E+00 0. -1.
         -2   -1    0    0    0  501 -0.00000000000E+00 -0.00000000000E+00 -0.98151173379E+03  0.98151173379E+03  0.00000000000E+00 0.  1.
        -24    2    1    2    0    0  0.26833188969E+03 -0.45552524308E+02 -0.45456513653E+02  0.28731053186E+03  0.80025068497E+02 0.  0.
        254    2    1    2    0    0 -0.26833188969E+03  0.45552524308E+02 -0.54331743065E+03  0.10869389914E+04  0.90120225537E+03 0.  0.
         23    2    4    4    0    0 -0.10741489079E+03 -0.66518011448E+02 -0.76307651217E+03  0.77946593871E+03  0.96533836410E+02 0.  0.
         23    2    4    4    0    0 -0.16091699891E+03  0.11207053576E+03  0.21975908152E+03  0.30747305270E+03  0.88269693004E+02 0.  0.
          1    1    3    3  502    0  0.16226942682E+03 -0.15968960929E+02 -0.64902476411E+02  0.17549560120E+03  0.00000000000E+00 0. -1.
         -2    1    3    3    0  502  0.10606246287E+03 -0.29583563379E+02  0.19445962759E+02  0.11181493067E+03  0.00000000000E+00 0.  1.
         11    1    5    5    0    0  0.36932626354E+01 -0.34810537062E+02 -0.90453871738E+02  0.96991322250E+02  0.00000000000E+00 0. -1.
        -11    1    5    5    0    0 -0.11110815342E+03 -0.31707474386E+02 -0.67262264043E+03  0.68247461646E+03  0.00000000000E+00 0.  1.
          1    1    6    6  503    0 -0.87390447112E+02  0.76328234859E+02  0.66406474858E+02  0.13368960164E+03  0.00000000000E+00 0. -1.
         -1    1    6    6    0  503 -0.73526551795E+02  0.35742300897E+02  0.15335260666E+03  0.17378345106E+03  0.00000000000E+00 0.  1.
<mgrwt>
<rscale>  0 0.12417355E+04</rscale>
<asrwt>0</asrwt>
<pdfrwt beam="1">  1        1 0.60421199E-01 0.12417355E+04</pdfrwt>
<pdfrwt beam="2">  1       -2 0.15100180E+00 0.12417355E+04</pdfrwt>
<totfact> 0.15585848E+01</totfact>
</mgrwt>
</event>
<event>
12    4  0.4398275E-008  0.1211849E+04  0.7818608E-02  0.9102548E-01
         -2   -1    0    0    0  501 -0.00000000000E+00  0.00000000000E+00  0.29264596524E+03  0.29264596524E+03  0.00000000000E+00 0.  1.
          1   -1    0    0  501    0  0.00000000000E+00 -0.00000000000E+00 -0.12545687298E+04  0.12545687298E+04  0.00000000000E+00 0. -1.
        -24    2    1    2    0    0 -0.23371140284E+03  0.70062451719E+02 -0.34477663736E+03  0.42949374984E+03  0.77872874135E+02 0.  0.
        254    2    1    2    0    0  0.23371140284E+03 -0.70062451719E+02 -0.61714612717E+03  0.11177209452E+04  0.89938923834E+03 0.  0.
         23    2    4    4    0    0 -0.31958536337E+03 -0.11558946814E+03 -0.14584284853E+03  0.38396374762E+03  0.10325838170E+03 0.  0.
         23    2    4    4    0    0  0.55329676620E+03  0.45527016425E+02 -0.47130327864E+03  0.73375719756E+03  0.89793228021E+02 0.  0.
          1    1    3    3  502    0 -0.22745581485E+03  0.76417439802E+02 -0.34538572644E+03  0.42055567152E+03  0.00000000000E+00 0. -1.
         -2    1    3    3    0  502 -0.62555879807E+01 -0.63549880830E+01  0.60908908442E+00  0.89380783188E+01  0.00000000000E+00 0.  1.
         11    1    5    5    0    0 -0.35394643795E+02 -0.16381925353E+02 -0.58913377757E+02  0.70653622458E+02  0.00000000000E+00 0.  1.
        -11    1    5    5    0    0 -0.28419071957E+03 -0.99207542791E+02 -0.86929470773E+02  0.31331012516E+03  0.00000000000E+00 0. -1.
          3    1    6    6  503    0  0.11230097219E+03  0.10330485405E+02 -0.14674172454E+03  0.18507123225E+03  0.00000000000E+00 0. -1.
         -3    1    6    6    0  503  0.44099579401E+03  0.35196531020E+02 -0.32456155410E+03  0.54868596531E+03  0.00000000000E+00 0.  1.
<mgrwt>
<rscale>  0 0.12118490E+04</rscale>
<asrwt>0</asrwt>
<pdfrwt beam="1">  1        1 0.19301057E+00 0.12118490E+04</pdfrwt>
<pdfrwt beam="2">  1       -2 0.45022456E-01 0.12118490E+04</pdfrwt>
<totfact> 0.39567009E+01</totfact>
</mgrwt>
</event>
<event>
12    4  0.4398275E-008  0.1921610E+04  0.7818608E-02  0.8644174E-01
          3   -1    0    0  501    0  0.00000000000E+00  0.00000000000E+00  0.18371511193E+04  0.18371511193E+04  0.00000000000E+00 0. -1.
         -4   -1    0    0    0  501 -0.00000000000E+00 -0.00000000000E+00 -0.50248800936E+03  0.50248800936E+03  0.00000000000E+00 0.  1.
        -24    2    1    2    0    0  0.12394633573E+03 -0.35102839991E+03 -0.26546974515E+03  0.46409898178E+03  0.79561596365E+02 0.  0.
        254    2    1    2    0    0 -0.12394633573E+03  0.35102839991E+03  0.16001328551E+04  0.18755401469E+04  0.90478840453E+03 0.  0.
         23    2    4    4    0    0  0.10820637509E+03  0.35697478434E+03  0.15790090873E+04  0.16251333627E+04  0.93000712397E+02 0.  0.
         23    2    4    4    0    0 -0.23215271082E+03 -0.59463844289E+01  0.21123767867E+02  0.25040678426E+03  0.91252963830E+02 0.  0.
          1    1    3    3  502    0  0.13489804110E+01 -0.10987594748E+01  0.49056019011E+01  0.52049928477E+01  0.00000000000E+00 0. -1.
         -2    1    3    3    0  502  0.12259735532E+03 -0.34992964043E+03 -0.27037534705E+03  0.45889398893E+03  0.00000000000E+00 0.  1.
         11    1    5    5    0    0  0.10676765223E+03  0.19547510220E+03  0.88968285558E+03  0.91713980976E+03  0.00000000000E+00 0.  1.
        -11    1    5    5    0    0  0.14387228623E+01  0.16149968214E+03  0.68932623168E+03  0.70799355289E+03  0.00000000000E+00 0. -1.
          4    1    6    6  503    0 -0.10319281812E+03  0.24548031584E+02 -0.26945603912E+02  0.10944144159E+03  0.00000000000E+00 0. -1.
         -4    1    6    6    0  503 -0.12895989270E+03 -0.30494416013E+02  0.48069371779E+02  0.14096534267E+03  0.00000000000E+00 0.  1.
<mgrwt>
<rscale>  0 0.19216102E+04</rscale>
<asrwt>0</asrwt>
<pdfrwt beam="1">  1        3 0.28263863E+00 0.19216102E+04</pdfrwt>
<pdfrwt beam="2">  1       -4 0.77305849E-01 0.19216102E+04</pdfrwt>
<totfact> 0.15535595E-01</totfact>
</mgrwt>
</event>
<event>
12    4  0.4398275E-008  0.2484027E+04  0.7818608E-02  0.8408698E-01
         -2   -1    0    0    0  501 -0.00000000000E+00  0.00000000000E+00  0.88702192754E+03  0.88702192754E+03  0.00000000000E+00 0.  1.
          1   -1    0    0  501    0  0.00000000000E+00 -0.00000000000E+00 -0.17390753659E+04  0.17390753659E+04  0.00000000000E+00 0. -1.
        -24    2    1    2    0    0  0.24944755728E+02 -0.10770322733E+04 -0.41263624344E+03  0.11563672835E+04  0.79346496089E+02 0.  0.
        254    2    1    2    0    0 -0.24944755728E+02  0.10770322733E+04 -0.43941719488E+03  0.14697300099E+04  0.89799669941E+03 0.  0.
         23    2    4    4    0    0  0.28387604874E+03  0.82150557154E+02  0.52790168188E+02  0.31398615022E+03  0.92011823068E+02 0.  0.
         23    2    4    4    0    0 -0.30882080447E+03  0.99488171616E+03 -0.49220736306E+03  0.11557438596E+04  0.91191350568E+02 0.  0.
          3    1    3    3  502    0  0.86370584597E+01 -0.72369562208E+03 -0.31575054793E+03  0.78962545597E+03  0.00000000000E+00 0. -1.
         -4    1    3    3    0  502  0.16307697268E+02 -0.35333665123E+03 -0.96885695513E+02  0.36674182757E+03  0.00000000000E+00 0.  1.
         11    1    5    5    0    0  0.84527184572E+02  0.69878770725E+02  0.14560594258E+02  0.11063407447E+03  0.00000000000E+00 0. -1.
        -11    1    5    5    0    0  0.19934886417E+03  0.12271786429E+02  0.38229573930E+02  0.20335207575E+03  0.00000000000E+00 0.  1.
          1    1    6    6  503    0 -0.24827384118E+03  0.69178299795E+03 -0.37556283982E+03  0.82537934498E+03  0.00000000000E+00 0. -1.
         -1    1    6    6    0  503 -0.60546963295E+02  0.30309871820E+03 -0.11664452325E+03  0.33036451465E+03  0.00000000000E+00 0.  1.
<mgrwt>
<rscale>  0 0.24840274E+04</rscale>
<asrwt>0</asrwt>
<pdfrwt beam="1">  1        1 0.26755005E+00 0.24840274E+04</pdfrwt>
<pdfrwt beam="2">  1       -2 0.13646491E+00 0.24840274E+04</pdfrwt>
<totfact> 0.13442872E+00</totfact>
</mgrwt>
</event>
<event>
12    4  0.4398275E-008  0.2222172E+04  0.7818608E-02  0.8509256E-01
         -2   -1    0    0    0  501 -0.00000000000E+00  0.00000000000E+00  0.92697340437E+03  0.92697340437E+03  0.00000000000E+00 0.  1.
          1   -1    0    0  501    0  0.00000000000E+00 -0.00000000000E+00 -0.13317659398E+04  0.13317659398E+04  0.00000000000E+00 0. -1.
        -24    2    1    2    0    0  0.18310917454E+03  0.37449626671E+03 -0.10053718342E+04  0.10912398233E+04  0.79091107431E+02 0.  0.
        254    2    1    2    0    0 -0.18310917454E+03 -0.37449626671E+03  0.60057929877E+03  0.11674995209E+04  0.91026546329E+03 0.  0.
         23    2    4    4    0    0  0.31631849743E+03 -0.14775845091E+03  0.47660610670E+03  0.59780826696E+03  0.91276456272E+02 0.  0.
         23    2    4    4    0    0 -0.49942767198E+03 -0.22673781579E+03  0.12397319207E+03  0.56969125395E+03  0.91327629078E+02 0.  0.
          3    1    3    3  502    0  0.11659820000E+03  0.30604734823E+03 -0.81321710079E+03  0.87668818438E+03  0.00000000000E+00 0. -1.
         -4    1    3    3    0  502  0.66510974541E+02  0.68448918477E+02 -0.19215473343E+03  0.21455163890E+03  0.00000000000E+00 0.  1.
         11    1    5    5    0    0  0.11503967507E+03 -0.28156387625E+02  0.22401108303E+03  0.25339272745E+03  0.00000000000E+00 0.  1.
        -11    1    5    5    0    0  0.20127882236E+03 -0.11960206329E+03  0.25259502367E+03  0.34441553951E+03  0.00000000000E+00 0. -1.
          3    1    6    6  503    0 -0.29980474312E+03 -0.12109788772E+03  0.28842769989E+02  0.32462206916E+03  0.00000000000E+00 0. -1.
         -3    1    6    6    0  503 -0.19962292885E+03 -0.10563992807E+03  0.95130422077E+02  0.24506918479E+03  0.00000000000E+00 0.  1.
<mgrwt>
<rscale>  0 0.22221716E+04</rscale>
<asrwt>0</asrwt>
<pdfrwt beam="1">  1        1 0.20488707E+00 0.22221716E+04</pdfrwt>
<pdfrwt beam="2">  1       -2 0.14261129E+00 0.22221716E+04</pdfrwt>
<totfact> 0.23467305E+00</totfact>
</mgrwt>
</event>
<event>
12    4  0.4398275E-008  0.1479948E+04  0.7818608E-02  0.8897898E-01
         -2   -1    0    0    0  501 -0.00000000000E+00  0.00000000000E+00  0.63251972757E+03  0.63251972757E+03  0.00000000000E+00 0.  1.
          1   -1    0    0  501    0  0.00000000000E+00 -0.00000000000E+00 -0.86568347954E+03  0.86568347954E+03  0.00000000000E+00 0. -1.
        -24    2    1    2    0    0  0.16016610091E+03 -0.26715962834E+03 -0.41381820315E+03  0.52412658426E+03  0.80222965403E+02 0.  0.
        254    2    1    2    0    0 -0.16016610091E+03  0.26715962834E+03  0.18065445118E+03  0.97407662284E+03  0.90507557117E+03 0.  0.
         23    2    4    4    0    0 -0.21454968519E+03  0.43473393896E+03 -0.20983061575E+03  0.53604973200E+03  0.91078333187E+02 0.  0.
         23    2    4    4    0    0  0.54383584280E+02 -0.16757431062E+03  0.39048506693E+03  0.43802689083E+03  0.91379679260E+02 0.  0.
          3    1    3    3  502    0  0.99674587234E+02 -0.95295063344E+02 -0.20406953436E+03  0.24629362008E+03  0.00000000000E+00 0. -1.
         -4    1    3    3    0  502  0.60491513679E+02 -0.17186456500E+03 -0.20974866879E+03  0.27783296418E+03  0.00000000000E+00 0.  1.
         11    1    5    5    0    0 -0.90953310208E+02  0.27815719913E+03 -0.14261000538E+03  0.32554806972E+03  0.00000000000E+00 0.  1.
        -11    1    5    5    0    0 -0.12359637498E+03  0.15657673983E+03 -0.67220610374E+02  0.21050166228E+03  0.00000000000E+00 0. -1.
          4    1    6    6  503    0 -0.14671228166E+02  0.25088138961E+01  0.30749180950E+02  0.34162131259E+02  0.00000000000E+00 0. -1.
         -4    1    6    6    0  503  0.69054812445E+02 -0.17008312451E+03  0.35973588598E+03  0.40386475958E+03  0.00000000000E+00 0.  1.
<mgrwt>
<rscale>  0 0.14799485E+04</rscale>
<asrwt>0</asrwt>
<pdfrwt beam="1">  1        1 0.13318207E+00 0.14799485E+04</pdfrwt>
<pdfrwt beam="2">  1       -2 0.97310727E-01 0.14799485E+04</pdfrwt>
<totfact> 0.14531694E+01</totfact>
</mgrwt>
</event>
<event>
12    4  0.4398275E-008  0.1302370E+04  0.7818608E-02  0.9027688E-01
          1   -1    0    0  501    0  0.00000000000E+00  0.00000000000E+00  0.22559075791E+04  0.22559075791E+04  0.00000000000E+00 0. -1.
         -2   -1    0    0    0  501 -0.00000000000E+00 -0.00000000000E+00 -0.18796965638E+03  0.18796965638E+03  0.00000000000E+00 0.  1.
        -24    2    1    2    0    0 -0.14517097880E+03  0.15556630324E+02 -0.14849126932E+02  0.16914613191E+03  0.84102886600E+02 0.  0.
        254    2    1    2    0    0  0.14517097880E+03 -0.15556630324E+02  0.20827870496E+04  0.22747311035E+04  0.90281951549E+03 0.  0.
         23    2    4    4    0    0  0.17107513817E+03  0.23243670813E+02  0.52529920414E+01  0.19461123241E+03  0.89660285074E+02 0.  0.
         23    2    4    4    0    0 -0.25904159369E+02 -0.38800301138E+02  0.20775340576E+04  0.20801198711E+04  0.92598213192E+02 0.  0.
          1    1    3    3  502    0 -0.76359215869E+02 -0.32865730927E+01  0.32990924290E+02  0.83246216108E+02  0.00000000000E+00 0. -1.
         -2    1    3    3    0  502 -0.68811762934E+02  0.18843203417E+02 -0.47840051223E+02  0.85899915798E+02  0.00000000000E+00 0.  1.
         11    1    5    5    0    0  0.20867878101E+02 -0.18058382605E+02  0.25431327855E+02  0.37527669195E+02  0.00000000000E+00 0.  1.
        -11    1    5    5    0    0  0.15020726007E+03  0.41302053419E+02 -0.20178335814E+02  0.15708356321E+03  0.00000000000E+00 0. -1.
          1    1    6    6  503    0  0.16152747025E+01 -0.65287388100E+02  0.13696673684E+04  0.13712234509E+04  0.00000000000E+00 0. -1.
         -1    1    6    6    0  503 -0.27519434072E+02  0.26487086962E+02  0.70786668915E+03  0.70889642025E+03  0.00000000000E+00 0.  1.
<mgrwt>
<rscale>  0 0.13023704E+04</rscale>
<asrwt>0</asrwt>
<pdfrwt beam="1">  1        1 0.34706268E+00 0.13023704E+04</pdfrwt>
<pdfrwt beam="2">  1       -2 0.28918410E-01 0.13023704E+04</pdfrwt>
<totfact> 0.18946095E+01</totfact>
</mgrwt>
</event>
<event>
12    4  0.4398275E-008  0.2429982E+04  0.7818608E-02  0.8428363E-01
         -2   -1    0    0    0  501 -0.00000000000E+00  0.00000000000E+00  0.18889738576E+04  0.18889738576E+04  0.00000000000E+00 0.  1.
          1   -1    0    0  501    0  0.00000000000E+00 -0.00000000000E+00 -0.78148411673E+03  0.78148411673E+03  0.00000000000E+00 0. -1.
        -24    2    1    2    0    0 -0.91733291656E+02  0.32517430216E+03 -0.61641986754E+03  0.70917205884E+03  0.93798893168E+02 0.  0.
        254    2    1    2    0    0  0.91733291656E+02 -0.32517430216E+03  0.17239096084E+04  0.19612859154E+04  0.87213805142E+03 0.  0.
         23    2    4    4    0    0  0.39898240180E+03 -0.95536886664E+02  0.40223810057E+03  0.58199470067E+03  0.92779784388E+02 0.  0.
         23    2    4    4    0    0 -0.30724911015E+03 -0.22963741549E+03  0.13216715078E+04  0.13792912148E+04  0.92159222915E+02 0.  0.
          3    1    3    3  502    0 -0.10385847229E+03  0.20746396334E+03 -0.39410159793E+03  0.45732258620E+03  0.00000000000E+00 0. -1.
         -4    1    3    3    0  502  0.12125180636E+02  0.11771033881E+03 -0.22231826961E+03  0.25184947265E+03  0.00000000000E+00 0.  1.
         11    1    5    5    0    0  0.28413667028E+03 -0.37146615793E+02  0.31800155729E+03  0.42806367389E+03  0.00000000000E+00 0. -1.
        -11    1    5    5    0    0  0.11484573152E+03 -0.58390270871E+02  0.84236543278E+02  0.15393102678E+03  0.00000000000E+00 0.  1.
          1    1    6    6  503    0 -0.18622759338E+03 -0.14813721708E+03  0.65624831237E+03  0.69805959567E+03  0.00000000000E+00 0. -1.
         -1    1    6    6    0  503 -0.12102151677E+03 -0.81500198414E+02  0.66542319543E+03  0.68123161911E+03  0.00000000000E+00 0.  1.
<mgrwt>
<rscale>  0 0.24299819E+04</rscale>
<asrwt>0</asrwt>
<pdfrwt beam="1">  1        1 0.12022833E+00 0.24299819E+04</pdfrwt>
<pdfrwt beam="2">  1       -2 0.29061136E+00 0.24299819E+04</pdfrwt>
<totfact> 0.65255856E-01</totfact>
</mgrwt>
</event>
<event>
12    4  0.4398275E-008  0.1306796E+04  0.7818608E-02  0.9024193E-01
          1   -1    0    0  501    0  0.00000000000E+00  0.00000000000E+00  0.25097570570E+04  0.25097570570E+04  0.00000000000E+00 0. -1.
         -4   -1    0    0    0  501 -0.00000000000E+00 -0.00000000000E+00 -0.17010762980E+03  0.17010762980E+03  0.00000000000E+00 0.  1.
        -24    2    1    2    0    0 -0.61680749184E+02 -0.11427082889E+03 -0.18046946512E+02  0.15370544954E+03  0.80233009317E+02 0.  0.
        254    2    1    2    0    0  0.61680749184E+02  0.11427082889E+03  0.23576963737E+04  0.25261592372E+04  0.89771151502E+03 0.  0.
         23    2    4    4    0    0 -0.39961786922E+02 -0.34765619990E+03  0.57233905302E+03  0.67697584422E+03  0.90898428435E+02 0.  0.
         23    2    4    4    0    0  0.10164253611E+03  0.46192702879E+03  0.17853573206E+04  0.18491833930E+04  0.90943243197E+02 0.  0.
          1    1    3    3  502    0 -0.36637884931E+02 -0.10383908491E+02  0.16351128411E+02  0.41442967655E+02  0.00000000000E+00 0. -1.
         -2    1    3    3    0  502 -0.25042864253E+02 -0.10388692040E+03 -0.34398074923E+02  0.11226248188E+03  0.00000000000E+00 0.  1.
         11    1    5    5    0    0 -0.27508787837E+02 -0.30246127500E+03  0.42504070432E+03  0.52239750824E+03  0.00000000000E+00 0.  1.
        -11    1    5    5    0    0 -0.12452999085E+02 -0.45194924899E+02  0.14729834870E+03  0.15457833598E+03  0.00000000000E+00 0. -1.
          1    1    6    6  503    0  0.80711622850E+02  0.25883157553E+03  0.86698698752E+03  0.90839120818E+03  0.00000000000E+00 0. -1.
         -1    1    6    6    0  503  0.20930913256E+02  0.20309545326E+03  0.91837033312E+03  0.94079218482E+03  0.00000000000E+00 0.  1.
<mgrwt>
<rscale>  0 0.13067958E+04</rscale>
<asrwt>0</asrwt>
<pdfrwt beam="1">  1        1 0.38611644E+00 0.13067958E+04</pdfrwt>
<pdfrwt beam="2">  1       -4 0.26170406E-01 0.13067958E+04</pdfrwt>
<totfact> 0.91800550E+00</totfact>
</mgrwt>
</event>
<event>
12    4  0.4398275E-008  0.2425043E+04  0.7818608E-02  0.8430187E-01
         -2   -1    0    0    0  501 -0.00000000000E+00  0.00000000000E+00  0.65019727950E+03  0.65019727950E+03  0.00000000000E+00 0.  1.
          1   -1    0    0  501    0  0.00000000000E+00 -0.00000000000E+00 -0.22611734439E+04  0.22611734439E+04  0.00000000000E+00 0. -1.
        -24    2    1    2    0    0  0.89943549064E+03  0.21024883679E+03 -0.15386721182E+03  0.93984808152E+03  0.80315143492E+02 0.  0.
        254    2    1    2    0    0 -0.89943549064E+03 -0.21024883679E+03 -0.14571089525E+04  0.19715226419E+04  0.95422547259E+03 0.  0.
         23    2    4    4    0    0 -0.47949445784E+03  0.33237574112E+03 -0.92959203621E+03  0.11013454862E+04  0.91825692389E+02 0.  0.
         23    2    4    4    0    0 -0.41994103280E+03 -0.54262457791E+03 -0.52751691634E+03  0.87017715566E+03  0.90234592231E+02 0.  0.
          3    1    3    3  502    0  0.14179492766E+03  0.83097602523E+01 -0.39756518741E+02  0.14749723526E+03  0.00000000000E+00 0. -1.
         -4    1    3    3    0  502  0.75764056298E+03  0.20193907654E+03 -0.11411069308E+03  0.79235084627E+03  0.00000000000E+00 0.  1.
         11    1    5    5    0    0 -0.35887202714E+03  0.29431780274E+03 -0.73146100634E+03  0.86628361676E+03  0.00000000000E+00 0. -1.
        -11    1    5    5    0    0 -0.12062243070E+03  0.38057938372E+02 -0.19813102987E+03  0.23506186943E+03  0.00000000000E+00 0.  1.
          4    1    6    6  503    0 -0.30265501790E+03 -0.33815137656E+03 -0.38174446220E+03  0.59302213091E+03  0.00000000000E+00 0. -1.
         -4    1    6    6    0  503 -0.11728601491E+03 -0.20447320135E+03 -0.14577245415E+03  0.27715502476E+03  0.00000000000E+00 0.  1.
<mgrwt>
<rscale>  0 0.24250434E+04</rscale>
<asrwt>0</asrwt>
<pdfrwt beam="1">  1        1 0.34787284E+00 0.24250434E+04</pdfrwt>
<pdfrwt beam="2">  1       -2 0.10003035E+00 0.24250434E+04</pdfrwt>
<totfact> 0.12833623E+00</totfact>
</mgrwt>
</event>
<event>
12    4  0.4398275E-008  0.1346002E+04  0.7818608E-02  0.8993860E-01
          1   -1    0    0  501    0  0.00000000000E+00  0.00000000000E+00  0.32861499806E+03  0.32861499806E+03  0.00000000000E+00 0. -1.
         -2   -1    0    0    0  501 -0.00000000000E+00 -0.00000000000E+00 -0.13783014351E+04  0.13783014351E+04  0.00000000000E+00 0.  1.
        -24    2    1    2    0    0 -0.62478409152E+02 -0.34561493340E+03 -0.64798413806E+03  0.74138237845E+03  0.80069682741E+02 0.  0.
        254    2    1    2    0    0  0.62478409152E+02  0.34561493340E+03 -0.40170229901E+03  0.96553405474E+03  0.80469748355E+03 0.  0.
         23    2    4    4    0    0  0.17591371081E+03  0.86389397715E+02  0.19984594615E+03  0.29428216515E+03  0.90856088661E+02 0.  0.
         23    2    4    4    0    0 -0.11343530165E+03  0.25922553569E+03 -0.60154824517E+03  0.67125188959E+03  0.93023448652E+02 0.  0.
          3    1    3    3  502    0  0.12758350012E+02 -0.12727899816E+03 -0.20067277501E+03  0.23797538002E+03  0.00000000000E+00 0. -1.
         -4    1    3    3    0  502 -0.75236759164E+02 -0.21833593525E+03 -0.44731136305E+03  0.50340699843E+03  0.00000000000E+00 0.  1.
         11    1    5    5    0    0  0.17434887112E+03  0.94828618446E+02  0.20411333842E+03  0.28469676967E+03  0.00000000000E+00 0.  1.
        -11    1    5    5    0    0  0.15648396835E+01 -0.84392207318E+01 -0.42673922702E+01  0.95853954839E+01  0.00000000000E+00 0. -1.
          2    1    6    6  503    0 -0.13581464294E+02  0.89553359600E+02 -0.27933269162E+03  0.29365117571E+03  0.00000000000E+00 0. -1.
         -2    1    6    6    0  503 -0.99853837361E+02  0.16967217609E+03 -0.32221555354E+03  0.37760071388E+03  0.00000000000E+00 0.  1.
<mgrwt>
<rscale>  0 0.13460023E+04</rscale>
<asrwt>0</asrwt>
<pdfrwt beam="1">  1        1 0.50556153E-01 0.13460023E+04</pdfrwt>
<pdfrwt beam="2">  1       -2 0.21204638E+00 0.13460023E+04</pdfrwt>
<totfact> 0.73870751E+00</totfact>
</mgrwt>
</event>
<event>
12    4  0.4398275E-008  0.1299914E+04  0.7818608E-02  0.9029633E-01
         -2   -1    0    0    0  501 -0.00000000000E+00  0.00000000000E+00  0.43768821982E+03  0.43768821982E+03  0.00000000000E+00 0.  1.
          1   -1    0    0  501    0  0.00000000000E+00 -0.00000000000E+00 -0.96517120324E+03  0.96517120324E+03  0.00000000000E+00 0. -1.
        -24    2    1    2    0    0 -0.15947538550E+03 -0.21396222298E+03  0.10553118949E+03  0.29830628384E+03  0.81471317546E+02 0.  0.
        254    2    1    2    0    0  0.15947538550E+03  0.21396222298E+03 -0.63301417291E+03  0.11045531392E+04  0.86493841563E+03 0.  0.
         23    2    4    4    0    0 -0.29982361292E+03  0.14560953052E+03 -0.44519526138E+02  0.34893095938E+03  0.93136952732E+02 0.  0.
         23    2    4    4    0    0  0.45929899842E+03  0.68352692456E+02 -0.58849464677E+03  0.75562217984E+03  0.94927703436E+02 0.  0.
          3    1    3    3  502    0 -0.29436865561E+02 -0.13601269252E+02 -0.86449301570E+01  0.33559773490E+02  0.00000000000E+00 0. -1.
         -4    1    3    3    0  502 -0.13003851994E+03 -0.20036095373E+03  0.11417611965E+03  0.26474651035E+03  0.00000000000E+00 0.  1.
         11    1    5    5    0    0 -0.24182668334E+03  0.11562098488E+03 -0.72833902650E+02  0.27776453030E+03  0.00000000000E+00 0.  1.
        -11    1    5    5    0    0 -0.57996929585E+02  0.29988545644E+02  0.28314376512E+02  0.71166429083E+02  0.00000000000E+00 0. -1.
          3    1    6    6  503    0  0.25697241559E+03  0.20984176165E+02 -0.25460992781E+03  0.36235531369E+03  0.00000000000E+00 0.  1.
         -3    1    6    6    0  503  0.20232658283E+03  0.47368516291E+02 -0.33388471896E+03  0.39326686615E+03  0.00000000000E+00 0. -1.
<mgrwt>
<rscale>  0 0.12999139E+04</rscale>
<asrwt>0</asrwt>
<pdfrwt beam="1">  1        1 0.14848788E+00 0.12999139E+04</pdfrwt>
<pdfrwt beam="2">  1       -2 0.67336649E-01 0.12999139E+04</pdfrwt>
<totfact> 0.28084935E+01</totfact>
</mgrwt>
</event>
<event>
12    4  0.4398275E-008  0.1576062E+04  0.7818608E-02  0.8835391E-01
          1   -1    0    0  501    0  0.00000000000E+00  0.00000000000E+00  0.36114956871E+03  0.36114956871E+03  0.00000000000E+00 0. -1.
         -2   -1    0    0    0  501 -0.00000000000E+00 -0.00000000000E+00 -0.17194885481E+04  0.17194885481E+04  0.00000000000E+00 0.  1.
        -24    2    1    2    0    0  0.45962066951E+03 -0.21827464514E+02 -0.79148663603E+03  0.92020623650E+03  0.92740630871E+02 0.  0.
        254    2    1    2    0    0 -0.45962066951E+03  0.21827464514E+02 -0.56685234341E+03  0.11604318804E+04  0.90197171334E+03 0.  0.
         23    2    4    4    0    0 -0.56590251690E+03  0.33863445479E+03 -0.38800090751E+03  0.77056203774E+03  0.91116393586E+02 0.  0.
         23    2    4    4    0    0  0.10628184738E+03 -0.31680699028E+03 -0.17885143590E+03  0.38986984261E+03  0.91368254241E+02 0.  0.
          1    1    3    3  502    0  0.52653135822E+02  0.21400392184E+02 -0.64739530733E+02  0.86148339143E+02  0.00000000000E+00 0. -1.
         -2    1    3    3    0  502  0.40696753369E+03 -0.43227856698E+02 -0.72674710530E+03  0.83405789735E+03  0.00000000000E+00 0.  1.
         11    1    5    5    0    0 -0.13404282769E+03  0.76255275775E+02 -0.48016120864E+02  0.16151747460E+03  0.00000000000E+00 0.  1.
        -11    1    5    5    0    0 -0.43185968921E+03  0.26237917902E+03 -0.33998478664E+03  0.60904456315E+03  0.00000000000E+00 0. -1.
          3    1    6    6  503    0  0.67821553313E+02 -0.23856939019E+03 -0.86009683679E+02  0.26251244297E+03  0.00000000000E+00 0. -1.
         -3    1    6    6    0  503  0.38460294072E+02 -0.78237600090E+02 -0.92841752221E+02  0.12735739964E+03  0.00000000000E+00 0.  1.
<mgrwt>
<rscale>  0 0.15760616E+04</rscale>
<asrwt>0</asrwt>
<pdfrwt beam="1">  1        1 0.55561473E-01 0.15760616E+04</pdfrwt>
<pdfrwt beam="2">  1       -2 0.26453669E+00 0.15760616E+04</pdfrwt>
<totfact> 0.30250647E+00</totfact>
</mgrwt>
</event>
<event>
12    4  0.4398275E-008  0.3228070E+04  0.7818608E-02  0.8181443E-01
          1   -1    0    0  501    0  0.00000000000E+00  0.00000000000E+00  0.37690373944E+04  0.37690373944E+04  0.00000000000E+00 0. -1.
         -2   -1    0    0    0  501 -0.00000000000E+00 -0.00000000000E+00 -0.69118660881E+03  0.69118660881E+03  0.00000000000E+00 0.  1.
        -24    2    1    2    0    0  0.13389999869E+04 -0.63385753053E+03  0.12252828872E+04  0.19240159249E+04  0.76307219158E+02 0.  0.
        254    2    1    2    0    0 -0.13389999869E+04  0.63385753053E+03  0.18525678984E+04  0.25362080783E+04  0.89757855615E+03 0.  0.
         23    2    4    4    0    0 -0.16569325338E+03  0.76722936562E+02 -0.65505687805E+02  0.21794453143E+03  0.99338615013E+02 0.  0.
         23    2    4    4    0    0 -0.11733067335E+04  0.55713459397E+03  0.19180735862E+04  0.23182635469E+04  0.91060112446E+02 0.  0.
          1    1    3    3  502    0  0.18019380624E+03 -0.73979825785E+02  0.19281576454E+03  0.27408163289E+03  0.00000000000E+00 0. -1.
         -4    1    3    3    0  502  0.11588061807E+04 -0.55987770475E+03  0.10324671227E+04  0.16499342920E+04  0.00000000000E+00 0.  1.
         11    1    5    5    0    0 -0.29361719568E+02  0.83750777464E+01 -0.57651474530E+02  0.65237604330E+02  0.00000000000E+00 0.  1.
        -11    1    5    5    0    0 -0.13633153381E+03  0.68347858815E+02 -0.78542132749E+01  0.15270692710E+03  0.00000000000E+00 0. -1.
          1    1    6    6  503    0 -0.11478580858E+04  0.53198074404E+03  0.18478453154E+04  0.22394450220E+04  0.00000000000E+00 0.  1.
         -1    1    6    6    0  503 -0.25448647677E+02  0.25153849938E+02  0.70228270831E+02  0.78818524848E+02  0.00000000000E+00 0. -1.
<mgrwt>
<rscale>  0 0.32280695E+04</rscale>
<asrwt>0</asrwt>
<pdfrwt beam="1">  1        1 0.57985189E+00 0.32280695E+04</pdfrwt>
<pdfrwt beam="2">  1       -2 0.10633640E+00 0.32280695E+04</pdfrwt>
<totfact> 0.79166380E-02</totfact>
</mgrwt>
</event>
<event>
12    4  0.4398275E-008  0.1987172E+04  0.7818608E-02  0.8612642E-01
          1   -1    0    0  501    0  0.00000000000E+00  0.00000000000E+00  0.25663307125E+04  0.25663307125E+04  0.00000000000E+00 0. -1.
         -2   -1    0    0    0  501 -0.00000000000E+00 -0.00000000000E+00 -0.38467899897E+03  0.38467899897E+03  0.00000000000E+00 0.  1.
        -24    2    1    2    0    0 -0.41998710863E+03  0.38008301503E+03  0.16428181674E+04  0.17395745917E+04  0.80099683811E+02 0.  0.
        254    2    1    2    0    0  0.41998710863E+03 -0.38008301503E+03  0.53883354609E+03  0.12114351197E+04  0.92540866061E+03 0.  0.
         23    2    4    4    0    0  0.29137569210E+03 -0.11123155097E+02  0.71180919900E+03  0.77445855202E+03  0.89945508479E+02 0.  0.
         23    2    4    4    0    0  0.12861141653E+03 -0.36895985993E+03 -0.17297565291E+03  0.43697656768E+03  0.91409351288E+02 0.  0.
          3    1    3    3  502    0 -0.28770321791E+03  0.20824317645E+03  0.10082981381E+04  0.10690198770E+04  0.00000000000E+00 0. -1.
         -4    1    3    3    0  502 -0.13228389072E+03  0.17183983858E+03  0.63452002926E+03  0.67055471469E+03  0.00000000000E+00 0.  1.
         11    1    5    5    0    0  0.11015973372E+03 -0.47524085870E+02  0.26258783031E+03  0.28869720175E+03  0.00000000000E+00 0.  1.
        -11    1    5    5    0    0  0.18121595838E+03  0.36400930772E+02  0.44922136868E+03  0.48576135027E+03  0.00000000000E+00 0. -1.
          3    1    6    6  503    0  0.11435663827E+02 -0.12488835269E+03 -0.23103882583E+02  0.12752123131E+03  0.00000000000E+00 0. -1.
         -3    1    6    6    0  503  0.11717575270E+03 -0.24407150724E+03 -0.14987177032E+03  0.30945533636E+03  0.00000000000E+00 0.  1.
<mgrwt>
<rscale>  0 0.19871724E+04</rscale>
<asrwt>0</asrwt>
<pdfrwt beam="1">  1        1 0.39482010E+00 0.19871724E+04</pdfrwt>
<pdfrwt beam="2">  1       -2 0.59181386E-01 0.19871724E+04</pdfrwt>
<totfact> 0.26513399E+00</totfact>
</mgrwt>
</event>
<event>
12    4  0.4398275E-008  0.1070241E+04  0.7818608E-02  0.9234692E-01
          1   -1    0    0  501    0  0.00000000000E+00  0.00000000000E+00  0.38808055592E+03  0.38808055592E+03  0.00000000000E+00 0. -1.
         -2   -1    0    0    0  501 -0.00000000000E+00 -0.00000000000E+00 -0.73787239346E+03  0.73787239346E+03  0.00000000000E+00 0.  1.
        -24    2    1    2    0    0 -0.14339228103E+03  0.72068918217E+02 -0.21067922637E+03  0.27650033698E+03  0.79444475555E+02 0.  0.
        254    2    1    2    0    0  0.14339228103E+03 -0.72068918217E+02 -0.13911261117E+03  0.84945261240E+03  0.82247318917E+03 0.  0.
         23    2    4    4    0    0  0.22600384084E+03 -0.40916415740E+03 -0.40598129834E+02  0.47739709422E+03  0.88129073803E+02 0.  0.
         23    2    4    4    0    0 -0.82611559812E+02  0.33709523919E+03 -0.98514481332E+02  0.37205551818E+03  0.90897389839E+02 0.  0.
          3    1    3    3  502    0 -0.65652394884E+02  0.47801973231E+02 -0.16305082327E+03  0.18215607749E+03  0.00000000000E+00 0. -1.
         -4    1    3    3    0  502 -0.77739886143E+02  0.24266944985E+02 -0.47628403098E+02  0.94344259486E+02  0.00000000000E+00 0.  1.
         11    1    5    5    0    0  0.10244873121E+03 -0.12055093574E+03 -0.41075053411E+02  0.16344855658E+03  0.00000000000E+00 0.  1.
        -11    1    5    5    0    0  0.12355510963E+03 -0.28861322166E+03  0.47692357685E+00  0.31394853765E+03  0.00000000000E+00 0. -1.
          3    1    6    6  503    0 -0.97689027740E+02  0.28964128272E+03 -0.10174204429E+03  0.32215937418E+03  0.00000000000E+00 0. -1.
         -3    1    6    6    0  503  0.15077467927E+02  0.47453956468E+02  0.32275629560E+01  0.49896144001E+02  0.00000000000E+00 0.  1.
<mgrwt>
<rscale>  0 0.10702410E+04</rscale>
<asrwt>0</asrwt>
<pdfrwt beam="1">  1        1 0.59704702E-01 0.10702410E+04</pdfrwt>
<pdfrwt beam="2">  1       -2 0.11351883E+00 0.10702410E+04</pdfrwt>
<totfact> 0.33148226E+01</totfact>
</mgrwt>
</event>
<event>
12    4  0.4398275E-008  0.1280465E+04  0.7818608E-02  0.9045202E-01
          1   -1    0    0  501    0  0.00000000000E+00  0.00000000000E+00  0.97862241618E+03  0.97862241618E+03  0.00000000000E+00 0. -1.
         -2   -1    0    0    0  501 -0.00000000000E+00 -0.00000000000E+00 -0.41885155850E+03  0.41885155850E+03  0.00000000000E+00 0.  1.
        -24    2    1    2    0    0 -0.20975609446E+02 -0.27646654294E+03  0.33559214590E+03  0.44106993235E+03  0.71041334970E+02 0.  0.
        254    2    1    2    0    0  0.20975609446E+02  0.27646654294E+03  0.22417871178E+03  0.95640404233E+03  0.88745640559E+03 0.  0.
         23    2    4    4    0    0  0.16469728035E+03 -0.28493629346E+03  0.10756473359E+03  0.35836132547E+03  0.92405531176E+02 0.  0.
         23    2    4    4    0    0 -0.14372167091E+03  0.56140283640E+03  0.11661397819E+03  0.59804271686E+03  0.90703957330E+02 0.  0.
          1    1    3    3  502    0 -0.10667398092E+02 -0.52353433031E+02  0.11318464278E+03  0.12516165025E+03  0.00000000000E+00 0. -1.
         -4    1    3    3    0  502 -0.10308211355E+02 -0.22411310991E+03  0.22240750313E+03  0.31590828210E+03  0.00000000000E+00 0.  1.
         11    1    5    5    0    0  0.48677714344E+02 -0.13292659186E+03  0.86701145212E+02  0.16600026289E+03  0.00000000000E+00 0. -1.
        -11    1    5    5    0    0  0.11601956601E+03 -0.15200970160E+03  0.20863588382E+02  0.19236106258E+03  0.00000000000E+00 0.  1.
          4    1    6    6  503    0 -0.71428230403E+02  0.41679878550E+03  0.61983417658E+02  0.42739345311E+03  0.00000000000E+00 0. -1.
         -4    1    6    6    0  503 -0.72293440504E+02  0.14460405090E+03  0.54630560527E+02  0.17064926375E+03  0.00000000000E+00 0.  1.
<mgrwt>
<rscale>  0 0.12804648E+04</rscale>
<asrwt>0</asrwt>
<pdfrwt beam="1">  1        1 0.15055729E+00 0.12804648E+04</pdfrwt>
<pdfrwt beam="2">  1       -2 0.64438701E-01 0.12804648E+04</pdfrwt>
<totfact> 0.30177769E+01</totfact>
</mgrwt>
</event>
<event>
12    4  0.4398275E-008  0.2132233E+04  0.7818608E-02  0.8547176E-01
         -2   -1    0    0    0  501 -0.00000000000E+00  0.00000000000E+00  0.11824526610E+04  0.11824526610E+04  0.00000000000E+00 0.  1.
          1   -1    0    0  501    0  0.00000000000E+00 -0.00000000000E+00 -0.96122612652E+03  0.96122612652E+03  0.00000000000E+00 0. -1.
        -24    2    1    2    0    0  0.58193910343E+03  0.37032765657E+03 -0.45128919972E+03  0.82841292385E+03  0.82524767768E+02 0.  0.
        254    2    1    2    0    0 -0.58193910343E+03 -0.37032765657E+03  0.67251573419E+03  0.13152658637E+04  0.89546143752E+03 0.  0.
         23    2    4    4    0    0 -0.36701655370E+03 -0.64628087172E+03  0.56243696766E+03  0.93647644429E+03  0.90954231774E+02 0.  0.
         23    2    4    4    0    0 -0.21492254973E+03  0.27595321515E+03  0.11007876652E+03  0.37878941938E+03  0.94985314967E+02 0.  0.
          3    1    3    3  502    0  0.52155040473E+03  0.30167905708E+03 -0.40452891707E+03  0.72571945193E+03  0.00000000000E+00 0. -1.
         -4    1    3    3    0  502  0.60388698699E+02  0.68648599486E+02 -0.46760282643E+02  0.10269347192E+03  0.00000000000E+00 0.  1.
         11    1    5    5    0    0 -0.25603578614E+03 -0.36030011778E+03  0.33227578025E+03  0.55297169258E+03  0.00000000000E+00 0.  1.
        -11    1    5    5    0    0 -0.11098076756E+03 -0.28598075394E+03  0.23016118741E+03  0.38350475171E+03  0.00000000000E+00 0. -1.
          4    1    6    6  503    0 -0.17730497351E+03  0.20365410476E+03  0.43398822318E+02  0.27348767028E+03  0.00000000000E+00 0. -1.
         -4    1    6    6    0  503 -0.37617576223E+02  0.72299110387E+02  0.66679944206E+02  0.10530174910E+03  0.00000000000E+00 0.  1.
<mgrwt>
<rscale>  0 0.21322330E+04</rscale>
<asrwt>0</asrwt>
<pdfrwt beam="1">  1        1 0.14788094E+00 0.21322330E+04</pdfrwt>
<pdfrwt beam="2">  1       -2 0.18191579E+00 0.21322330E+04</pdfrwt>
<totfact> 0.22956078E+00</totfact>
</mgrwt>
</event>
<event>
12    4  0.4398275E-008  0.2038746E+04  0.7818608E-02  0.8588717E-01
          1   -1    0    0  501    0  0.00000000000E+00  0.00000000000E+00  0.16854072108E+04  0.16854072108E+04  0.00000000000E+00 0. -1.
         -2   -1    0    0    0  501 -0.00000000000E+00 -0.00000000000E+00 -0.61654050291E+03  0.61654050291E+03  0.00000000000E+00 0.  1.
        -24    2    1    2    0    0 -0.71720771686E+03  0.20737289897E+03  0.45380924686E+02  0.75079954641E+03  0.65192808002E+02 0.  0.
        254    2    1    2    0    0  0.71720771686E+03 -0.20737289897E+03  0.10234857832E+04  0.15511481673E+04  0.89506818742E+03 0.  0.
         23    2    4    4    0    0  0.13194265190E+03 -0.48382264296E+03  0.40513517683E+03  0.65103548228E+03  0.90661317297E+02 0.  0.
         23    2    4    4    0    0  0.58526506496E+03  0.27644974399E+03  0.61835060635E+03  0.90011268500E+03  0.94264076452E+02 0.  0.
          1    1    3    3  502    0 -0.31116099321E+03  0.61590012769E+02  0.36427684203E+02  0.31928274232E+03  0.00000000000E+00 0. -1.
         -2    1    3    3    0  502 -0.40604672365E+03  0.14578288620E+03  0.89532404837E+01  0.43151680409E+03  0.00000000000E+00 0.  1.
         11    1    5    5    0    0  0.93651956315E+02 -0.34492218569E+03  0.33859971413E+03  0.49233298641E+03  0.00000000000E+00 0. -1.
        -11    1    5    5    0    0  0.38290695586E+02 -0.13890045727E+03  0.66535462700E+02  0.15870249586E+03  0.00000000000E+00 0.  1.
          2    1    6    6  503    0  0.44823039831E+03  0.18651146240E+03  0.41318632168E+03  0.63751074657E+03  0.00000000000E+00 0. -1.
         -2    1    6    6    0  503  0.13703466664E+03  0.89938281587E+02  0.20516428468E+03  0.26260193842E+03  0.00000000000E+00 0.  1.
<mgrwt>
<rscale>  0 0.20387465E+04</rscale>
<asrwt>0</asrwt>
<pdfrwt beam="1">  1        1 0.25929342E+00 0.20387465E+04</pdfrwt>
<pdfrwt beam="2">  1       -2 0.94852386E-01 0.20387465E+04</pdfrwt>
<totfact> 0.37028186E+00</totfact>
</mgrwt>
</event>
<event>
12    4  0.4398275E-008  0.1526714E+04  0.7818608E-02  0.8866880E-01
         -2   -1    0    0    0  501 -0.00000000000E+00  0.00000000000E+00  0.55085143227E+03  0.55085143227E+03  0.00000000000E+00 0.  1.
          1   -1    0    0  501    0  0.00000000000E+00 -0.00000000000E+00 -0.10578418875E+04  0.10578418875E+04  0.00000000000E+00 0. -1.
        -24    2    1    2    0    0 -0.40534308996E+03  0.12242579582E+03 -0.22243424107E+03  0.48491084076E+03  0.79815010037E+02 0.  0.
        254    2    1    2    0    0  0.40534308996E+03 -0.12242579582E+03 -0.28455621415E+03  0.11237824790E+04  0.10013110032E+04 0.  0.
         23    2    4    4    0    0  0.55863914644E+03 -0.33348462384E+03 -0.45502448122E+03  0.79867726687E+03  0.86881573569E+02 0.  0.
         23    2    4    4    0    0 -0.15329605648E+03  0.21105882802E+03  0.17046826707E+03  0.32510521214E+03  0.92673939511E+02 0.  0.
          1    1    3    3  502    0 -0.26296966946E+03  0.99513122839E+02 -0.18276396205E+03  0.33534843745E+03  0.00000000000E+00 0. -1.
         -2    1    3    3    0  502 -0.14237342049E+03  0.22912672984E+02 -0.39670279014E+02  0.14956240331E+03  0.00000000000E+00 0.  1.
         11    1    5    5    0    0  0.98246243894E+02 -0.62392861242E+02 -0.12449726357E+03  0.17042523935E+03  0.00000000000E+00 0.  1.
        -11    1    5    5    0    0  0.46039290254E+03 -0.27109176260E+03 -0.33052721766E+03  0.62825202751E+03  0.00000000000E+00 0. -1.
          1    1    6    6  503    0 -0.13070534515E+03  0.11257263439E+03  0.13109165636E+03  0.21665988930E+03  0.00000000000E+00 0. -1.
         -1    1    6    6    0  503 -0.22590711327E+02  0.98486193632E+02  0.39376610710E+02  0.10844532284E+03  0.00000000000E+00 0.  1.
<mgrwt>
<rscale>  0 0.15267138E+04</rscale>
<asrwt>0</asrwt>
<pdfrwt beam="1">  1        1 0.16274490E+00 0.15267138E+04</pdfrwt>
<pdfrwt beam="2">  1       -2 0.84746376E-01 0.15267138E+04</pdfrwt>
<totfact> 0.14014268E+01</totfact>
</mgrwt>
</event>
<event>
12    4  0.4398275E-008  0.3295314E+04  0.7818608E-02  0.8164089E-01
         -2   -1    0    0    0  501 -0.00000000000E+00  0.00000000000E+00  0.13521085276E+04  0.13521085276E+04  0.00000000000E+00 0.  1.
          1   -1    0    0  501    0  0.00000000000E+00 -0.00000000000E+00 -0.20078078518E+04  0.20078078518E+04  0.00000000000E+00 0. -1.
        -24    2    1    2    0    0 -0.98309007397E+02  0.15191864369E+04 -0.21679152915E+03  0.15398398746E+04  0.80722867135E+02 0.  0.
        254    2    1    2    0    0  0.98309007397E+02 -0.15191864369E+04 -0.43890779507E+03  0.18200765049E+04  0.89579369294E+03 0.  0.
         23    2    4    4    0    0  0.33325256376E+03 -0.13979010321E+04 -0.51534337979E+03  0.15295049596E+04  0.92855024696E+02 0.  0.
         23    2    4    4    0    0 -0.23494355636E+03 -0.12128540476E+03  0.76435584720E+02  0.29057154530E+03  0.93170812184E+02 0.  0.
          1    1    3    3  502    0  0.67991595009E+01  0.26583012495E+03 -0.57200032355E+02  0.27199949927E+03  0.00000000000E+00 0. -1.
         -2    1    3    3    0  502 -0.10510816690E+03  0.12533563119E+04 -0.15959149679E+03  0.12678403753E+04  0.00000000000E+00 0.  1.
         11    1    5    5    0    0  0.84895557917E+02 -0.22616874657E+03 -0.10488468521E+03  0.26336354127E+03  0.00000000000E+00 0. -1.
        -11    1    5    5    0    0  0.24835700584E+03 -0.11717322855E+04 -0.41045869458E+03  0.12661414183E+04  0.00000000000E+00 0.  1.
          4    1    6    6  503    0 -0.48337583131E+02 -0.66062181930E+02  0.10214888335E+01  0.81864383365E+02  0.00000000000E+00 0. -1.
         -4    1    6    6    0  503 -0.18660597323E+03 -0.55223222835E+02  0.75414095886E+02  0.20870716194E+03  0.00000000000E+00 0.  1.
<mgrwt>
<rscale>  0 0.32953143E+04</rscale>
<asrwt>0</asrwt>
<pdfrwt beam="1">  1        1 0.30889351E+00 0.32953143E+04</pdfrwt>
<pdfrwt beam="2">  1       -2 0.20801670E+00 0.32953143E+04</pdfrwt>
<totfact> 0.25334549E-01</totfact>
</mgrwt>
</event>
<event>
12    4  0.4398275E-008  0.1700921E+04  0.7818608E-02  0.8760839E-01
         -2   -1    0    0    0  501 -0.00000000000E+00  0.00000000000E+00  0.10600234982E+04  0.10600234982E+04  0.00000000000E+00 0.  1.
          1   -1    0    0  501    0  0.00000000000E+00 -0.00000000000E+00 -0.68232759010E+03  0.68232759010E+03  0.00000000000E+00 0. -1.
        -24    2    1    2    0    0  0.29017924929E+03 -0.20844713997E+03 -0.35736837814E+03  0.51156489268E+03  0.79575592018E+02 0.  0.
        254    2    1    2    0    0 -0.29017924929E+03  0.20844713997E+03  0.73506428628E+03  0.12307861957E+04  0.92025048090E+03 0.  0.
         23    2    4    4    0    0 -0.46841043596E+03  0.37187113962E+03  0.75939751805E+03  0.97091815627E+03  0.91109794999E+02 0.  0.
         23    2    4    4    0    0  0.17823118667E+03 -0.16342399965E+03 -0.24333231773E+02  0.25986803940E+03  0.92008326646E+02 0.  0.
          3    1    3    3  502    0  0.16109915784E+03 -0.68533409106E+02 -0.15649267119E+03  0.23481848939E+03  0.00000000000E+00 0. -1.
         -4    1    3    3    0  502  0.12908009145E+03 -0.13991373087E+03 -0.20087570695E+03  0.27674640329E+03  0.00000000000E+00 0.  1.
         11    1    5    5    0    0 -0.37706177307E+02  0.61728912742E+02  0.67837250745E+02  0.99167066428E+02  0.00000000000E+00 0.  1.
        -11    1    5    5    0    0 -0.43070425866E+03  0.31014222688E+03  0.69156026731E+03  0.87175108984E+03  0.00000000000E+00 0. -1.
          2    1    6    6  503    0  0.13990227854E+03 -0.75768283268E+02 -0.37044753330E+02  0.16335787106E+03  0.00000000000E+00 0. -1.
         -2    1    6    6    0  503  0.38328908134E+02 -0.87655716379E+02  0.12711521558E+02  0.96510168340E+02  0.00000000000E+00 0.  1.
<mgrwt>
<rscale>  0 0.17009213E+04</rscale>
<asrwt>0</asrwt>
<pdfrwt beam="1">  1        1 0.10497348E+00 0.17009213E+04</pdfrwt>
<pdfrwt beam="2">  1       -2 0.16308054E+00 0.17009213E+04</pdfrwt>
<totfact> 0.56378886E+00</totfact>
</mgrwt>
</event>
<event>
12    4  0.4398275E-008  0.1035197E+04  0.7818608E-02  0.9270762E-01
          1   -1    0    0  501    0  0.00000000000E+00  0.00000000000E+00  0.58309505083E+03  0.58309505083E+03  0.00000000000E+00 0. -1.
         -2   -1    0    0    0  501 -0.00000000000E+00 -0.00000000000E+00 -0.45945893255E+03  0.45945893255E+03  0.00000000000E+00 0.  1.
        -24    2    1    2    0    0  0.26052791783E+02  0.68957074343E+02  0.87455188980E+02  0.14025124685E+03  0.81167580370E+02 0.  0.
        254    2    1    2    0    0 -0.26052791783E+02 -0.68957074343E+02  0.36180929302E+02  0.90230273653E+03  0.89855848036E+03 0.  0.
         23    2    4    4    0    0 -0.44422681172E+03 -0.92928555560E+02  0.73840499693E+02  0.46930293693E+03  0.93912994481E+02 0.  0.
         23    2    4    4    0    0  0.41817401993E+03  0.23971481217E+02 -0.37659570391E+02  0.43299979959E+03  0.10308462711E+03 0.  0.
          3    1    3    3  502    0  0.26119888058E+02  0.19250473732E+01  0.64138146399E+02  0.69279550973E+02  0.00000000000E+00 0. -1.
         -4    1    3    3    0  502 -0.67096274718E-01  0.67032026970E+02  0.23317042582E+02  0.70971695882E+02  0.00000000000E+00 0.  1.
         11    1    5    5    0    0 -0.46924292152E+02 -0.12203833171E+02 -0.21158646054E+02  0.52900955009E+02  0.00000000000E+00 0.  1.
        -11    1    5    5    0    0 -0.39730251956E+03 -0.80724722389E+02  0.94999145747E+02  0.41640198192E+03  0.00000000000E+00 0. -1.
          1    1    6    6  503    0  0.33458754232E+03 -0.72613912659E+01 -0.62329748206E+02  0.34042113447E+03  0.00000000000E+00 0. -1.
         -1    1    6    6    0  503  0.83586477612E+02  0.31232872482E+02  0.24670177815E+02  0.92578665126E+02  0.00000000000E+00 0.  1.
<mgrwt>
<rscale>  0 0.10351970E+04</rscale>
<asrwt>0</asrwt>
<pdfrwt beam="1">  1        1 0.89706931E-01 0.10351970E+04</pdfrwt>
<pdfrwt beam="2">  1       -2 0.70685990E-01 0.10351970E+04</pdfrwt>
<totfact> 0.56898774E+01</totfact>
</mgrwt>
</event>
<event>
12    4  0.4398275E-008  0.1239226E+04  0.7818608E-02  0.9079199E-01
         -2   -1    0    0    0  501 -0.00000000000E+00  0.00000000000E+00  0.15835740773E+04  0.15835740773E+04  0.00000000000E+00 0.  1.
          1   -1    0    0  501    0  0.00000000000E+00 -0.00000000000E+00 -0.24243900740E+03  0.24243900740E+03  0.00000000000E+00 0. -1.
        -24    2    1    2    0    0  0.57765810264E+01  0.78073778175E+02 -0.61259801971E+02  0.12837070522E+03  0.81224324519E+02 0.  0.
        254    2    1    2    0    0 -0.57765810264E+01 -0.78073778175E+02  0.14023948719E+04  0.16976423795E+04  0.95349325549E+03 0.  0.
         23    2    4    4    0    0  0.43921839197E+03 -0.17634142448E+03  0.83419846353E+03  0.96344964832E+03  0.91318423488E+02 0.  0.
         23    2    4    4    0    0 -0.44499497300E+03  0.98267646309E+02  0.56819640835E+03  0.73419273117E+03  0.92275412452E+02 0.  0.
          3    1    3    3  502    0 -0.25909824565E+02  0.74823078033E+02 -0.53575771074E+02  0.95604263825E+02  0.00000000000E+00 0. -1.
         -4    1    3    3    0  502  0.31686405591E+02  0.32507001419E+01 -0.76840308972E+01  0.32766441393E+02  0.00000000000E+00 0.  1.
         11    1    5    5    0    0  0.17418784615E+03 -0.75486809632E+02  0.42636714604E+03  0.46672112380E+03  0.00000000000E+00 0. -1.
        -11    1    5    5    0    0  0.26503054582E+03 -0.10085461485E+03  0.40783131748E+03  0.49672852453E+03  0.00000000000E+00 0.  1.
          2    1    6    6  503    0 -0.60283275564E+02  0.31015331106E+02  0.45255642133E+02  0.81511331858E+02  0.00000000000E+00 0. -1.
         -2    1    6    6    0  503 -0.38471169743E+03  0.67252315203E+02  0.52294076622E+03  0.65268139931E+03  0.00000000000E+00 0.  1.
<mgrwt>
<rscale>  0 0.12392258E+04</rscale>
<asrwt>0</asrwt>
<pdfrwt beam="1">  1        1 0.37298310E-01 0.12392258E+04</pdfrwt>
<pdfrwt beam="2">  1       -2 0.24362677E+00 0.12392258E+04</pdfrwt>
<totfact> 0.70219773E+00</totfact>
</mgrwt>
</event>
<event>
12    4  0.4398275E-008  0.1330016E+04  0.7818608E-02  0.9006095E-01
          1   -1    0    0  501    0  0.00000000000E+00  0.00000000000E+00  0.11318600175E+04  0.11318600175E+04  0.00000000000E+00 0. -1.
         -2   -1    0    0    0  501 -0.00000000000E+00 -0.00000000000E+00 -0.39071579523E+03  0.39071579523E+03  0.00000000000E+00 0.  1.
        -24    2    1    2    0    0  0.18231253699E+03  0.25441965952E+03  0.19384428400E+02  0.32335901171E+03  0.78854740476E+02 0.  0.
        254    2    1    2    0    0 -0.18231253699E+03 -0.25441965952E+03  0.72175979387E+03  0.11992168010E+04  0.90510580128E+03 0.  0.
         23    2    4    4    0    0  0.13829296356E+03 -0.22948615789E+03  0.80650726443E+03  0.85487526409E+03  0.92568402441E+02 0.  0.
         23    2    4    4    0    0 -0.32060550055E+03 -0.24933501627E+02 -0.84747470560E+02  0.34434153693E+03  0.89327452688E+02 0.  0.
          3    1    3    3  502    0  0.69306543468E+02  0.10031546777E+03  0.46201474583E+02  0.13038852056E+03  0.00000000000E+00 0. -1.
         -4    1    3    3    0  502  0.11300599352E+03  0.15410419175E+03 -0.26817046183E+02  0.19297049115E+03  0.00000000000E+00 0.  1.
         11    1    5    5    0    0  0.54220286013E+02 -0.11972236727E+03  0.26237328785E+03  0.29345021182E+03  0.00000000000E+00 0. -1.
        -11    1    5    5    0    0  0.84072677551E+02 -0.10976379063E+03  0.54413397658E+03  0.56142505227E+03  0.00000000000E+00 0.  1.
          3    1    6    6  503    0 -0.25798238737E+03 -0.36423079204E+02 -0.33650973117E+02  0.26270504541E+03  0.00000000000E+00 0. -1.
         -3    1    6    6    0  503 -0.62623113187E+02  0.11489577578E+02 -0.51096497443E+02  0.81636491529E+02  0.00000000000E+00 0.  1.
<mgrwt>
<rscale>  0 0.13300159E+04</rscale>
<asrwt>0</asrwt>
<pdfrwt beam="1">  1        1 0.17413231E+00 0.13300159E+04</pdfrwt>
<pdfrwt beam="2">  1       -2 0.60110123E-01 0.13300159E+04</pdfrwt>
<totfact> 0.26613669E+01</totfact>
</mgrwt>
</event>
<event>
12    4  0.4398275E-008  0.2711418E+04  0.7818608E-02  0.8331310E-01
          1   -1    0    0  501    0  0.00000000000E+00  0.00000000000E+00  0.26085099142E+04  0.26085099142E+04  0.00000000000E+00 0. -1.
         -2   -1    0    0    0  501 -0.00000000000E+00 -0.00000000000E+00 -0.70459672316E+03  0.70459672316E+03  0.00000000000E+00 0.  1.
        -24    2    1    2    0    0 -0.10192043598E+04  0.20218626049E+03  0.15896373146E+04  0.19007429541E+04  0.78868081459E+02 0.  0.
        254    2    1    2    0    0  0.10192043598E+04 -0.20218626049E+03  0.31427587643E+03  0.14123636833E+04  0.90351814395E+03 0.  0.
         23    2    4    4    0    0  0.45303246425E+03 -0.28375333354E+03 -0.25564736149E+03  0.59948906781E+03  0.90979124115E+02 0.  0.
         23    2    4    4    0    0  0.56617189559E+03  0.81567073056E+02  0.56992323792E+03  0.81287461553E+03  0.93535237600E+02 0.  0.
          3    1    3    3  502    0 -0.99356865816E+03  0.19464546424E+03  0.15674910547E+04  0.18660369079E+04  0.00000000000E+00 0. -1.
         -4    1    3    3    0  502 -0.25635701674E+02  0.75407962474E+01  0.22146259973E+02  0.34706046147E+02  0.00000000000E+00 0.  1.
         11    1    5    5    0    0  0.17652454612E+03 -0.62093012565E+02 -0.10327177342E+03  0.21373234846E+03  0.00000000000E+00 0. -1.
        -11    1    5    5    0    0  0.27650791813E+03 -0.22166032098E+03 -0.15237558807E+03  0.38575671935E+03  0.00000000000E+00 0.  1.
          2    1    6    6  503    0  0.43078213114E+02  0.41844498487E+01  0.13666484841E+02  0.45387386723E+02  0.00000000000E+00 0. -1.
         -2    1    6    6    0  503  0.52309368248E+03  0.77382623208E+02  0.55625675308E+03  0.76748722880E+03  0.00000000000E+00 0.  1.
<mgrwt>
<rscale>  0 0.27114185E+04</rscale>
<asrwt>0</asrwt>
<pdfrwt beam="1">  1        1 0.40130921E+00 0.27114185E+04</pdfrwt>
<pdfrwt beam="2">  1       -2 0.10839950E+00 0.27114185E+04</pdfrwt>
<totfact> 0.59417051E-01</totfact>
</mgrwt>
</event>
<event>
12    4  0.4398275E-008  0.9918663E+03  0.7818608E-02  0.9317511E-01
         -2   -1    0    0    0  501 -0.00000000000E+00  0.00000000000E+00  0.53485620461E+03  0.53485620461E+03  0.00000000000E+00 0.  1.
          1   -1    0    0  501    0  0.00000000000E+00 -0.00000000000E+00 -0.45984267850E+03  0.45984267850E+03  0.00000000000E+00 0. -1.
        -24    2    1    2    0    0  0.12997900107E+03  0.13350213262E+02  0.40990078487E+02  0.15754233285E+03  0.77888581914E+02 0.  0.
        254    2    1    2    0    0 -0.12997900107E+03 -0.13350213262E+02  0.34023447619E+02  0.83715655026E+03  0.82619654184E+03 0.  0.
         23    2    4    4    0    0  0.34032261611E+03 -0.29771491882E+02  0.50725174726E+02  0.35695021625E+03  0.90191955091E+02 0.  0.
         23    2    4    4    0    0 -0.47030161718E+03  0.16421278620E+02 -0.16701727108E+02  0.48020633402E+03  0.94158940259E+02 0.  0.
          3    1    3    3  502    0  0.89655697817E+02  0.23749866405E+02 -0.81795990899E+01  0.93108034812E+02  0.00000000000E+00 0. -1.
         -4    1    3    3    0  502  0.40323303251E+02 -0.10399653143E+02  0.49169677577E+02  0.64434298038E+02  0.00000000000E+00 0.  1.
         11    1    5    5    0    0  0.18207332799E+02  0.12619290160E+02 -0.13257980968E+02  0.25817194099E+02  0.00000000000E+00 0.  1.
        -11    1    5    5    0    0  0.32211528331E+03 -0.42390782042E+02  0.63983155694E+02  0.33113302215E+03  0.00000000000E+00 0. -1.
          3    1    6    6  503    0 -0.45063872738E+03  0.31935845992E+02 -0.32597587385E+01  0.45178068452E+03  0.00000000000E+00 0. -1.
         -3    1    6    6    0  503 -0.19662889795E+02 -0.15514567372E+02 -0.13441968369E+02  0.28425649500E+02  0.00000000000E+00 0.  1.
<mgrwt>
<rscale>  0 0.99186634E+03</rscale>
<asrwt>0</asrwt>
<pdfrwt beam="1">  1        1 0.70745027E-01 0.99186634E+03</pdfrwt>
<pdfrwt beam="2">  1       -2 0.82285570E-01 0.99186634E+03</pdfrwt>
<totfact> 0.56591458E+01</totfact>
</mgrwt>
</event>
<event>
12    4  0.4398275E-008  0.1600655E+04  0.7818608E-02  0.8820145E-01
          3   -1    0    0  501    0  0.00000000000E+00  0.00000000000E+00  0.52071204422E+03  0.52071204422E+03  0.00000000000E+00 0. -1.
         -4   -1    0    0    0  501 -0.00000000000E+00 -0.00000000000E+00 -0.12300933790E+04  0.12300933790E+04  0.00000000000E+00 0.  1.
        -24    2    1    2    0    0 -0.60039755841E+02 -0.74799626881E+02  0.34682030832E+03  0.36858668602E+03  0.79825198920E+02 0.  0.
        254    2    1    2    0    0  0.60039755841E+02  0.74799626881E+02 -0.10562016431E+04  0.13822187372E+04  0.88643497796E+03 0.  0.
         23    2    4    4    0    0 -0.75573764879E+02 -0.19676980175E+03  0.45742963052E+02  0.23566671012E+03  0.94955941222E+02 0.  0.
         23    2    4    4    0    0  0.13561352072E+03  0.27156942863E+03 -0.11019446062E+04  0.11465520271E+04  0.90325268993E+02 0.  0.
          3    1    3    3  502    0 -0.22272502789E+02 -0.51733504014E+02  0.29550455279E+03  0.30082446798E+03  0.00000000000E+00 0. -1.
         -4    1    3    3    0  502 -0.37767253052E+02 -0.23066122867E+02  0.51315755533E+02  0.67762218036E+02  0.00000000000E+00 0.  1.
         11    1    5    5    0    0 -0.70892813912E+02 -0.12582495525E+03 -0.10799868098E+02  0.14482523116E+03  0.00000000000E+00 0.  1.
        -11    1    5    5    0    0 -0.46809509663E+01 -0.70944846493E+02  0.56542831150E+02  0.90841478964E+02  0.00000000000E+00 0. -1.
          1    1    6    6  503    0  0.35762045557E+02  0.22765276254E+02 -0.24530402187E+03  0.24894024354E+03  0.00000000000E+00 0. -1.
         -1    1    6    6    0  503  0.99851475162E+02  0.24880415237E+03 -0.85664058431E+03  0.89761178358E+03  0.00000000000E+00 0.  1.
<mgrwt>
<rscale>  0 0.16006554E+04</rscale>
<asrwt>0</asrwt>
<pdfrwt beam="1">  1        3 0.80109546E-01 0.16006554E+04</pdfrwt>
<pdfrwt beam="2">  1       -4 0.18924513E+00 0.16006554E+04</pdfrwt>
<totfact> 0.49414130E-01</totfact>
</mgrwt>
</event>
<event>
12    4  0.4398275E-008  0.1159515E+04  0.7818608E-02  0.9149050E-01
          1   -1    0    0  501    0  0.00000000000E+00  0.00000000000E+00  0.22615033110E+04  0.22615033110E+04  0.00000000000E+00 0. -1.
         -2   -1    0    0    0  501 -0.00000000000E+00 -0.00000000000E+00 -0.14862626662E+03  0.14862626662E+03  0.00000000000E+00 0.  1.
        -24    2    1    2    0    0 -0.82699063093E+02 -0.97462098761E+02  0.48146984996E+02  0.15772521877E+03  0.78874056195E+02 0.  0.
        254    2    1    2    0    0  0.82699063093E+02  0.97462098761E+02  0.20647300594E+04  0.22524043588E+04  0.89099785740E+03 0.  0.
         23    2    4    4    0    0  0.65018802877E+02  0.48329210287E+03  0.10009205366E+04  0.11170990425E+04  0.90937609015E+02 0.  0.
         23    2    4    4    0    0  0.17680260216E+02 -0.38583000411E+03  0.10638095228E+04  0.11353053163E+04  0.89722220716E+02 0.  0.
          1    1    3    3  502    0 -0.22044734855E+02 -0.55276123284E+02  0.58108141280E+02  0.83174372394E+02  0.00000000000E+00 0. -1.
         -2    1    3    3    0  502 -0.60654328238E+02 -0.42185975477E+02 -0.99611562836E+01  0.74550846376E+02  0.00000000000E+00 0.  1.
         11    1    5    5    0    0  0.51649078516E+02  0.32631453535E+03  0.57756889782E+03  0.66538307389E+03  0.00000000000E+00 0.  1.
        -11    1    5    5    0    0  0.13369724362E+02  0.15697756753E+03  0.42335163881E+03  0.45171596863E+03  0.00000000000E+00 0. -1.
          2    1    6    6  503    0 -0.36337743444E+02 -0.17601138927E+03  0.49714104652E+03  0.52862998486E+03  0.00000000000E+00 0.  1.
         -2    1    6    6    0  503  0.54018003660E+02 -0.20981861484E+03  0.56666847624E+03  0.60667533147E+03  0.00000000000E+00 0. -1.
<mgrwt>
<rscale>  0 0.11595151E+04</rscale>
<asrwt>0</asrwt>
<pdfrwt beam="1">  1        1 0.34792356E+00 0.11595151E+04</pdfrwt>
<pdfrwt beam="2">  1       -2 0.22865581E-01 0.11595151E+04</pdfrwt>
<totfact> 0.29172281E+01</totfact>
</mgrwt>
</event>
<event>
12    4  0.4398275E-008  0.1456958E+04  0.7818608E-02  0.8913591E-01
          1   -1    0    0  501    0  0.00000000000E+00  0.00000000000E+00  0.85228030623E+03  0.85228030623E+03  0.00000000000E+00 0. -1.
         -2   -1    0    0    0  501 -0.00000000000E+00 -0.00000000000E+00 -0.62266116001E+03  0.62266116001E+03  0.00000000000E+00 0.  1.
        -24    2    1    2    0    0  0.34107482049E+02  0.33114683314E+03 -0.22859210281E+03  0.41155486994E+03  0.79382089131E+02 0.  0.
        254    2    1    2    0    0 -0.34107482049E+02 -0.33114683314E+03  0.45821124903E+03  0.10633865963E+04  0.90000664387E+03 0.  0.
         23    2    4    4    0    0 -0.14472782061E+03 -0.28408935388E+03 -0.20048287454E+03  0.38764001627E+03  0.91752363366E+02 0.  0.
         23    2    4    4    0    0  0.11062033856E+03 -0.47057479261E+02  0.65869412357E+03  0.67574658002E+03  0.91127527815E+02 0.  0.
          1    1    3    3  502    0  0.40293190913E+01  0.77689202872E+02 -0.16098317769E+02  0.79441824565E+02  0.00000000000E+00 0. -1.
         -2    1    3    3    0  502  0.30078162957E+02  0.25345763027E+03 -0.21249378504E+03  0.33211304538E+03  0.00000000000E+00 0.  1.
         11    1    5    5    0    0 -0.15100204396E+03 -0.25119786633E+03 -0.19872449169E+03  0.35410931777E+03  0.00000000000E+00 0. -1.
        -11    1    5    5    0    0  0.62742233583E+01 -0.32891487548E+02 -0.17583828519E+01  0.33530698503E+02  0.00000000000E+00 0.  1.
          1    1    6    6  503    0  0.49743109642E+02  0.10784563835E+02  0.41242490252E+03  0.41555382803E+03  0.00000000000E+00 0. -1.
         -1    1    6    6    0  503  0.60877228916E+02 -0.57842043097E+02  0.24626922105E+03  0.26019275199E+03  0.00000000000E+00 0.  1.
<mgrwt>
<rscale>  0 0.14569583E+04</rscale>
<asrwt>0</asrwt>
<pdfrwt beam="1">  1        1 0.13112005E+00 0.14569583E+04</pdfrwt>
<pdfrwt beam="2">  1       -2 0.95794025E-01 0.14569583E+04</pdfrwt>
<totfact> 0.15501919E+01</totfact>
</mgrwt>
</event>
<event>
12    4  0.4398275E-008  0.1995805E+04  0.7818608E-02  0.8608585E-01
         -2   -1    0    0    0  501 -0.00000000000E+00  0.00000000000E+00  0.56664439075E+03  0.56664439075E+03  0.00000000000E+00 0.  1.
          1   -1    0    0  501    0  0.00000000000E+00 -0.00000000000E+00 -0.17573789639E+04  0.17573789639E+04  0.00000000000E+00 0. -1.
        -24    2    1    2    0    0  0.14613758162E+03 -0.73894732094E+03 -0.19588443437E+03  0.78378585748E+03  0.92467415180E+02 0.  0.
        254    2    1    2    0    0 -0.14613758162E+03  0.73894732094E+03 -0.99485013873E+03  0.15402374971E+04  0.90288726490E+03 0.  0.
         23    2    4    4    0    0 -0.26046359831E+03  0.86588333167E+03 -0.56946924160E+03  0.10727587723E+04  0.94450708480E+02 0.  0.
         23    2    4    4    0    0  0.11432601669E+03 -0.12693601073E+03 -0.42538089713E+03  0.46747872481E+03  0.91674759878E+02 0.  0.
          1    1    3    3  502    0  0.82545558764E+02 -0.49131604041E+03 -0.17178222914E+03  0.52698610521E+03  0.00000000000E+00 0. -1.
         -4    1    3    3    0  502  0.63592022858E+02 -0.24763128053E+03 -0.24102205222E+02  0.25679975227E+03  0.00000000000E+00 0.  1.
         11    1    5    5    0    0 -0.91154399732E+02  0.19020058358E+03 -0.10566764502E+03  0.23590472184E+03  0.00000000000E+00 0. -1.
        -11    1    5    5    0    0 -0.16930919858E+03  0.67568274810E+03 -0.46380159659E+03  0.83685405047E+03  0.00000000000E+00 0.  1.
          3    1    6    6  503    0  0.86490066443E+02 -0.49433830588E+02 -0.31079872910E+03  0.32637414912E+03  0.00000000000E+00 0. -1.
         -3    1    6    6    0  503  0.27835950242E+02 -0.77502180139E+02 -0.11458216802E+03  0.14110457569E+03  0.00000000000E+00 0.  1.
<mgrwt>
<rscale>  0 0.19958045E+04</rscale>
<asrwt>0</asrwt>
<pdfrwt beam="1">  1        1 0.27036599E+00 0.19958045E+04</pdfrwt>
<pdfrwt beam="2">  1       -2 0.87176063E-01 0.19958045E+04</pdfrwt>
<totfact> 0.40356368E+00</totfact>
</mgrwt>
</event>
<event>
12    4  0.4398275E-008  0.3213024E+04  0.7818608E-02  0.8185386E-01
         -2   -1    0    0    0  501 -0.00000000000E+00  0.00000000000E+00  0.20696910053E+04  0.20696910053E+04  0.00000000000E+00 0.  1.
          1   -1    0    0  501    0  0.00000000000E+00 -0.00000000000E+00 -0.12469884433E+04  0.12469884433E+04  0.00000000000E+00 0. -1.
        -24    2    1    2    0    0  0.11263787296E+04  0.47116564863E+03  0.12398461241E+04  0.17408190118E+04  0.50063053075E+02 0.  0.
        254    2    1    2    0    0 -0.11263787296E+04 -0.47116564863E+03 -0.41714356213E+03  0.15758604368E+04  0.90476585583E+03 0.  0.
         23    2    4    4    0    0 -0.50191174510E+03 -0.88405311898E+02  0.25541647759E+03  0.57713981344E+03  0.90121518982E+02 0.  0.
         23    2    4    4    0    0 -0.62446698451E+03 -0.38276033674E+03 -0.67256003972E+03  0.99872062337E+03  0.92959057568E+02 0.  0.
          3    1    3    3  502    0  0.41731895967E+03  0.15123071633E+03  0.46586159072E+03  0.64346939739E+03  0.00000000000E+00 0. -1.
         -4    1    3    3    0  502  0.70905976994E+03  0.31993493230E+03  0.77398453338E+03  0.10973496144E+04  0.00000000000E+00 0.  1.
         11    1    5    5    0    0 -0.97685601233E+02 -0.20986944584E+02  0.92421635109E+02  0.13610542666E+03  0.00000000000E+00 0. -1.
        -11    1    5    5    0    0 -0.40422614387E+03 -0.67418367313E+02  0.16299484248E+03  0.44103438677E+03  0.00000000000E+00 0.  1.
          3    1    6    6  503    0 -0.34805657721E+03 -0.22155319698E+03 -0.31647764099E+03  0.51998778571E+03  0.00000000000E+00 0. -1.
         -3    1    6    6    0  503 -0.27641040729E+03 -0.16120713976E+03 -0.35608239873E+03  0.47873283766E+03  0.00000000000E+00 0.  1.
<mgrwt>
<rscale>  0 0.32130240E+04</rscale>
<asrwt>0</asrwt>
<pdfrwt beam="1">  1        1 0.19184438E+00 0.32130240E+04</pdfrwt>
<pdfrwt beam="2">  1       -2 0.31841400E+00 0.32130240E+04</pdfrwt>
<totfact> 0.17742313E-01</totfact>
</mgrwt>
</event>
<event>
12    4  0.4398275E-008  0.1362234E+04  0.7818608E-02  0.8981618E-01
         -2   -1    0    0    0  501 -0.00000000000E+00  0.00000000000E+00  0.64643913576E+03  0.64643913576E+03  0.00000000000E+00 0.  1.
          1   -1    0    0  501    0  0.00000000000E+00 -0.00000000000E+00 -0.71765545498E+03  0.71765545498E+03  0.00000000000E+00 0. -1.
        -24    2    1    2    0    0 -0.62796698434E+02  0.20484290207E+02  0.32295060041E+03  0.33930019613E+03  0.80402122548E+02 0.  0.
        254    2    1    2    0    0  0.62796698434E+02 -0.20484290207E+02 -0.39416691962E+03  0.10247943946E+04  0.94364874780E+03 0.  0.
         23    2    4    4    0    0 -0.18339375692E+03 -0.34038335376E+03  0.68890135494E+02  0.40418552230E+03  0.95530037567E+02 0.  0.
         23    2    4    4    0    0  0.24619045535E+03  0.31989906355E+03 -0.46305705512E+03  0.62060887231E+03  0.88251826721E+02 0.  0.
          3    1    3    3  502    0 -0.32681702017E+02 -0.24750434155E+02  0.75088910257E+02  0.85551283341E+02  0.00000000000E+00 0. -1.
         -4    1    3    3    0  502 -0.30114996416E+02  0.45234724362E+02  0.24786169015E+03  0.25374891279E+03  0.00000000000E+00 0.  1.
         11    1    5    5    0    0 -0.76668159661E+02 -0.11874495668E+03 -0.19726952186E+02  0.14271483485E+03  0.00000000000E+00 0. -1.
        -11    1    5    5    0    0 -0.10672559726E+03 -0.22163839708E+03  0.88617087680E+02  0.26147068746E+03  0.00000000000E+00 0.  1.
          4    1    6    6  503    0  0.62061114805E+01  0.12418772926E+02  0.15641994563E+01  0.13970986387E+02  0.00000000000E+00 0. -1.
         -4    1    6    6    0  503  0.23998434387E+03  0.30748029063E+03 -0.46462125457E+03  0.60663788592E+03  0.00000000000E+00 0.  1.
<mgrwt>
<rscale>  0 0.13622343E+04</rscale>
<asrwt>0</asrwt>
<pdfrwt beam="1">  1        1 0.11040853E+00 0.13622343E+04</pdfrwt>
<pdfrwt beam="2">  1       -2 0.99452175E-01 0.13622343E+04</pdfrwt>
<totfact> 0.18795013E+01</totfact>
</mgrwt>
</event>
<event>
12    4  0.4398275E-008  0.2263199E+04  0.7818608E-02  0.8492574E-01
         -2   -1    0    0    0  501 -0.00000000000E+00  0.00000000000E+00  0.42622420128E+03  0.42622420128E+03  0.00000000000E+00 0.  1.
          1   -1    0    0  501    0  0.00000000000E+00 -0.00000000000E+00 -0.30043278221E+04  0.30043278221E+04  0.00000000000E+00 0. -1.
        -24    2    1    2    0    0  0.39399049833E+02 -0.48636361663E+03  0.15210930212E+03  0.51674159301E+03  0.76044601663E+02 0.  0.
        254    2    1    2    0    0 -0.39399049833E+02  0.48636361663E+03 -0.27302129229E+04  0.29138104303E+04  0.89337940812E+03 0.  0.
         23    2    4    4    0    0  0.11535585088E+03  0.39676929837E+03 -0.26706909455E+04  0.27040072584E+04  0.91281315353E+02 0.  0.
         23    2    4    4    0    0 -0.15475490071E+03  0.89594318266E+02 -0.59521977386E+02  0.20980317194E+03  0.92186137820E+02 0.  0.
          1    1    3    3  502    0 -0.13840643735E+01  0.70016588954E+00  0.65909795155E+01  0.67710322283E+01  0.00000000000E+00 0. -1.
         -2    1    3    3    0  502  0.40783114207E+02 -0.48706378252E+03  0.14551832260E+03  0.50997056078E+03  0.00000000000E+00 0.  1.
         11    1    5    5    0    0 -0.67934800003E+00  0.12573075701E+03 -0.66792893299E+03  0.67966002111E+03  0.00000000000E+00 0.  1.
        -11    1    5    5    0    0  0.11603519888E+03  0.27103854135E+03 -0.20027620125E+04  0.20243472373E+04  0.00000000000E+00 0. -1.
          1    1    6    6  503    0 -0.16155810446E+03  0.74484792518E+02 -0.68882497235E+02  0.19077160129E+03  0.00000000000E+00 0. -1.
         -1    1    6    6    0  503  0.68032037528E+01  0.15109525748E+02  0.93605198485E+01  0.19031570652E+02  0.00000000000E+00 0.  1.
<mgrwt>
<rscale>  0 0.22631988E+04</rscale>
<asrwt>0</asrwt>
<pdfrwt beam="1">  1        1 0.46220427E+00 0.22631988E+04</pdfrwt>
<pdfrwt beam="2">  1       -2 0.65572955E-01 0.22631988E+04</pdfrwt>
<totfact> 0.10138385E+00</totfact>
</mgrwt>
</event>
<event>
12    4  0.4398275E-008  0.2588328E+04  0.7818608E-02  0.8372177E-01
          1   -1    0    0  501    0  0.00000000000E+00  0.00000000000E+00  0.89322817496E+03  0.89322817496E+03  0.00000000000E+00 0. -1.
         -2   -1    0    0    0  501 -0.00000000000E+00 -0.00000000000E+00 -0.18750641144E+04  0.18750641144E+04  0.00000000000E+00 0.  1.
        -24    2    1    2    0    0  0.53169158240E+03 -0.85395640196E+02 -0.15026258722E+04  0.15983137599E+04  0.82061009339E+02 0.  0.
        254    2    1    2    0    0 -0.53169158240E+03  0.85395640196E+02  0.52078993274E+03  0.11699785294E+04  0.89868751585E+03 0.  0.
         23    2    4    4    0    0 -0.46987649083E+03  0.18040561843E+02 -0.13780642123E+03  0.49890811901E+03  0.93857993653E+02 0.  0.
         23    2    4    4    0    0 -0.61815091567E+02  0.67355078353E+02  0.65859635397E+03  0.67107041042E+03  0.90711223970E+02 0.  0.
          1    1    3    3  502    0  0.33501050944E+03 -0.91342137131E+02 -0.91933051219E+03  0.98272275749E+03  0.00000000000E+00 0. -1.
         -2    1    3    3    0  502  0.19668107296E+03  0.59464969353E+01 -0.58329535998E+03  0.61559100242E+03  0.00000000000E+00 0.  1.
         11    1    5    5    0    0 -0.24584476396E+03  0.15390638674E+02 -0.23661926647E+02  0.24745990887E+03  0.00000000000E+00 0.  1.
        -11    1    5    5    0    0 -0.22403172687E+03  0.26499231693E+01 -0.11414449459E+03  0.25144821014E+03  0.00000000000E+00 0. -1.
          3    1    6    6  503    0 -0.88239914383E+01  0.41603024100E+02  0.50132178914E+03  0.50312246095E+03  0.00000000000E+00 0. -1.
         -3    1    6    6    0  503 -0.52991100129E+02  0.25752054253E+02  0.15727456483E+03  0.16794794947E+03  0.00000000000E+00 0.  1.
<mgrwt>
<rscale>  0 0.25883277E+04</rscale>
<asrwt>0</asrwt>
<pdfrwt beam="1">  1        1 0.13741972E+00 0.25883277E+04</pdfrwt>
<pdfrwt beam="2">  1       -2 0.28847140E+00 0.25883277E+04</pdfrwt>
<totfact> 0.53280886E-01</totfact>
</mgrwt>
</event>
<event>
12    4  0.4398275E-008  0.1567989E+04  0.7818608E-02  0.8840459E-01
          1   -1    0    0  501    0  0.00000000000E+00  0.00000000000E+00  0.38139951649E+04  0.38139951649E+04  0.00000000000E+00 0. -1.
         -2   -1    0    0    0  501 -0.00000000000E+00 -0.00000000000E+00 -0.16115573799E+03  0.16115573799E+03  0.00000000000E+00 0.  1.
        -24    2    1    2    0    0 -0.20467629488E+03 -0.40855617004E+03  0.18363526297E+04  0.18955533457E+04  0.11009530501E+03 0.  0.
        254    2    1    2    0    0  0.20467629488E+03  0.40855617004E+03  0.18164867973E+04  0.20795975572E+04  0.90348834279E+03 0.  0.
         23    2    4    4    0    0  0.25434648679E+03  0.44955559099E+03  0.40089570928E+03  0.65975466960E+03  0.88127689244E+02 0.  0.
         23    2    4    4    0    0 -0.49670191905E+02 -0.40999420951E+02  0.14155910880E+04  0.14198428876E+04  0.88924780721E+02 0.  0.
          1    1    3    3  502    0 -0.20539934166E+03 -0.39931025060E+03  0.16815602792E+04  0.17404834209E+04  0.00000000000E+00 0. -1.
         -2    1    3    3    0  502  0.72304677669E+00 -0.92459194435E+01  0.15479235047E+03  0.15506992483E+03  0.00000000000E+00 0.  1.
         11    1    5    5    0    0  0.41412324422E+02  0.11283628190E+03  0.13511020884E+03  0.18083632284E+03  0.00000000000E+00 0.  1.
        -11    1    5    5    0    0  0.21293416236E+03  0.33671930910E+03  0.26578550044E+03  0.47891834676E+03  0.00000000000E+00 0. -1.
          2    1    6    6  503    0 -0.41995242856E+02  0.94774660100E+01  0.10283038093E+04  0.10292046187E+04  0.00000000000E+00 0. -1.
         -2    1    6    6    0  503 -0.76749490485E+01 -0.50476886961E+02  0.38728727865E+03  0.39063826894E+03  0.00000000000E+00 0.  1.
<mgrwt>
<rscale>  0 0.15679888E+04</rscale>
<asrwt>0</asrwt>
<pdfrwt beam="1">  1        1 0.58676842E+00 0.15679888E+04</pdfrwt>
<pdfrwt beam="2">  1       -2 0.24793193E-01 0.15679888E+04</pdfrwt>
<totfact> 0.17316871E+00</totfact>
</mgrwt>
</event>
<event>
12    4  0.4398275E-008  0.1490023E+04  0.7818608E-02  0.8891115E-01
          1   -1    0    0  501    0  0.00000000000E+00  0.00000000000E+00  0.15057290480E+04  0.15057290480E+04  0.00000000000E+00 0. -1.
         -4   -1    0    0    0  501 -0.00000000000E+00 -0.00000000000E+00 -0.36862018315E+03  0.36862018315E+03  0.00000000000E+00 0.  1.
        -24    2    1    2    0    0 -0.91399002755E+02 -0.45521281405E+03  0.30255591710E+03  0.55978707361E+03  0.79050623230E+02 0.  0.
        254    2    1    2    0    0  0.91399002755E+02  0.45521281405E+03  0.83455294774E+03  0.13145621575E+04  0.90333967012E+03 0.  0.
         23    2    4    4    0    0 -0.10909252912E+01  0.65914946971E+03  0.84138680265E+03  0.10726867718E+04  0.90807186329E+02 0.  0.
         23    2    4    4    0    0  0.92489928046E+02 -0.20393665566E+03 -0.68338549158E+01  0.24187538575E+03  0.91172662280E+02 0.  0.
          1    1    3    3  502    0 -0.20720322070E+02 -0.15569680762E+03  0.60740816631E+02  0.16840509035E+03  0.00000000000E+00 0. -1.
         -2    1    3    3    0  502 -0.70678680685E+02 -0.29951600643E+03  0.24181510047E+03  0.39138198326E+03  0.00000000000E+00 0.  1.
         11    1    5    5    0    0 -0.22649381615E+02  0.35199487462E+03  0.38504492259E+03  0.52218098266E+03  0.00000000000E+00 0.  1.
        -11    1    5    5    0    0  0.21558456324E+02  0.30715459509E+03  0.45634188006E+03  0.55050578910E+03  0.00000000000E+00 0. -1.
          2    1    6    6  503    0 -0.18505325868E+02 -0.35763995062E+02 -0.20169582948E+01  0.40318464121E+02  0.00000000000E+00 0. -1.
         -2    1    6    6    0  503  0.11099525391E+03 -0.16817266060E+03 -0.48168966209E+01  0.20155692163E+03  0.00000000000E+00 0.  1.
<mgrwt>
<rscale>  0 0.14900230E+04</rscale>
<asrwt>0</asrwt>
<pdfrwt beam="1">  1        1 0.23165062E+00 0.14900230E+04</pdfrwt>
<pdfrwt beam="2">  1       -4 0.56710798E-01 0.14900230E+04</pdfrwt>
<totfact> 0.91200750E+00</totfact>
</mgrwt>
</event>
<event>
12    4  0.4398275E-008  0.1241043E+04  0.7818608E-02  0.9077671E-01
          1   -1    0    0  501    0  0.00000000000E+00  0.00000000000E+00  0.66800476016E+03  0.66800476016E+03  0.00000000000E+00 0. -1.
         -2   -1    0    0    0  501 -0.00000000000E+00 -0.00000000000E+00 -0.57641333674E+03  0.57641333674E+03  0.00000000000E+00 0.  1.
        -24    2    1    2    0    0 -0.24301480025E+03  0.12847729184E+03 -0.53456738621E+02  0.29247728393E+03  0.84396273910E+02 0.  0.
        254    2    1    2    0    0  0.24301480025E+03 -0.12847729184E+03  0.14504816204E+03  0.95194081298E+03  0.89977204582E+03 0.  0.
         23    2    4    4    0    0  0.32068367676E+03 -0.24247960288E+03 -0.27845899446E+03  0.49751407719E+03  0.91359000919E+02 0.  0.
         23    2    4    4    0    0 -0.77668876512E+02  0.11400231103E+03  0.42350715650E+03  0.45442673579E+03  0.90090872437E+02 0.  0.
          3    1    3    3  502    0 -0.10181015046E+01 -0.67717555321E+01 -0.96164084246E+01  0.11805444280E+02  0.00000000000E+00 0. -1.
         -4    1    3    3    0  502 -0.24199669874E+03  0.13524904738E+03 -0.43840330196E+02  0.28067183965E+03  0.00000000000E+00 0.  1.
         11    1    5    5    0    0  0.71933206678E+02 -0.51849398927E+02 -0.19073667205E+02  0.90700337225E+02  0.00000000000E+00 0. -1.
        -11    1    5    5    0    0  0.24875047008E+03 -0.19063020395E+03 -0.25938532726E+03  0.40681373996E+03  0.00000000000E+00 0.  1.
          1    1    6    6  503    0 -0.70126937660E+02  0.47658561623E+02  0.14448251903E+03  0.16752410031E+03  0.00000000000E+00 0. -1.
         -1    1    6    6    0  503 -0.75419388513E+01  0.66343749408E+02  0.27902463747E+03  0.28690263548E+03  0.00000000000E+00 0.  1.
<mgrwt>
<rscale>  0 0.12410429E+04</rscale>
<asrwt>0</asrwt>
<pdfrwt beam="1">  1        1 0.10276996E+00 0.12410429E+04</pdfrwt>
<pdfrwt beam="2">  1       -2 0.88678975E-01 0.12410429E+04</pdfrwt>
<totfact> 0.27629885E+01</totfact>
</mgrwt>
</event>
<event>
12    4  0.4398275E-008  0.1183487E+04  0.7818608E-02  0.9127434E-01
         -2   -1    0    0    0  501 -0.00000000000E+00  0.00000000000E+00  0.45911245363E+03  0.45911245363E+03  0.00000000000E+00 0.  1.
          1   -1    0    0  501    0  0.00000000000E+00 -0.00000000000E+00 -0.76269023395E+03  0.76269023395E+03  0.00000000000E+00 0. -1.
        -24    2    1    2    0    0  0.19089285564E+03  0.26224475907E+02  0.83750738016E+02  0.22526232256E+03  0.81247291482E+02 0.  0.
        254    2    1    2    0    0 -0.19089285564E+03 -0.26224475907E+02 -0.38732851833E+03  0.99654036503E+03  0.89774245335E+03 0.  0.
         23    2    4    4    0    0 -0.47722522390E+03 -0.53782856294E+02  0.19690328300E+02  0.49032218745E+03  0.96910414930E+02 0.  0.
         23    2    4    4    0    0  0.28633236826E+03  0.27558380387E+02 -0.40701884663E+03  0.50621817757E+03  0.88582234958E+02 0.  0.
          3    1    3    3  502    0  0.96319319015E+01  0.13538276507E+02 -0.11402308148E+02  0.20151220163E+02  0.00000000000E+00 0. -1.
         -4    1    3    3    0  502  0.18126092374E+03  0.12686199399E+02  0.95153046164E+02  0.20511110239E+03  0.00000000000E+00 0.  1.
         11    1    5    5    0    0 -0.10242697875E+03 -0.39159278361E+02  0.34470715428E+02  0.11494766322E+03  0.00000000000E+00 0. -1.
        -11    1    5    5    0    0 -0.37479824515E+03 -0.14623577933E+02 -0.14780387128E+02  0.37537452423E+03  0.00000000000E+00 0.  1.
          3    1    6    6  503    0  0.16258224553E+03  0.44200328530E+02 -0.28831572650E+03  0.33393504421E+03  0.00000000000E+00 0. -1.
         -3    1    6    6    0  503  0.12375012272E+03 -0.16641948143E+02 -0.11870312014E+03  0.17228313337E+03  0.00000000000E+00 0.  1.
<mgrwt>
<rscale>  0 0.11834874E+04</rscale>
<asrwt>0</asrwt>
<pdfrwt beam="1">  1        1 0.11733696E+00 0.11834874E+04</pdfrwt>
<pdfrwt beam="2">  1       -2 0.70632686E-01 0.11834874E+04</pdfrwt>
<totfact> 0.37752086E+01</totfact>
</mgrwt>
</event>
<event>
12    4  0.4398275E-008  0.2113480E+04  0.7818608E-02  0.8555328E-01
          1   -1    0    0  501    0  0.00000000000E+00  0.00000000000E+00  0.17204659710E+04  0.17204659710E+04  0.00000000000E+00 0. -1.
         -2   -1    0    0    0  501 -0.00000000000E+00 -0.00000000000E+00 -0.64906810735E+03  0.64906810735E+03  0.00000000000E+00 0.  1.
        -24    2    1    2    0    0  0.80394105034E+03  0.30231929013E+03  0.50099946256E+03  0.99716284516E+03  0.74934055556E+02 0.  0.
        254    2    1    2    0    0 -0.80394105034E+03 -0.30231929013E+03  0.57039840107E+03  0.13723712332E+04  0.90572087314E+03 0.  0.
         23    2    4    4    0    0 -0.25361313898E+03 -0.38963372614E+03  0.64907758974E+03  0.80249219002E+03  0.80981064078E+02 0.  0.
         23    2    4    4    0    0 -0.55032791136E+03  0.87314436006E+02 -0.78679188666E+02  0.56987904314E+03  0.89928239832E+02 0.  0.
          1    1    3    3  502    0  0.41303951036E+03  0.14820419169E+03  0.29852781537E+03  0.53074002685E+03  0.00000000000E+00 0. -1.
         -2    1    3    3    0  502  0.39090153999E+03  0.15411509843E+03  0.20247164719E+03  0.46642281831E+03  0.00000000000E+00 0.  1.
         11    1    5    5    0    0 -0.78388661551E+01 -0.57264009177E+02  0.95098499712E+02  0.11128494605E+03  0.00000000000E+00 0.  1.
        -11    1    5    5    0    0 -0.24577427283E+03 -0.33236971696E+03  0.55397909002E+03  0.69120724397E+03  0.00000000000E+00 0. -1.
          1    1    6    6  503    0 -0.51028342008E+03  0.65414876120E+02 -0.52170331502E+02  0.51709768740E+03  0.00000000000E+00 0. -1.
         -1    1    6    6    0  503 -0.40044491282E+02  0.21899559887E+02 -0.26508857164E+02  0.52781355737E+02  0.00000000000E+00 0.  1.
<mgrwt>
<rscale>  0 0.21134802E+04</rscale>
<asrwt>0</asrwt>
<pdfrwt beam="1">  1        1 0.26468707E+00 0.21134802E+04</pdfrwt>
<pdfrwt beam="2">  1       -2 0.99856632E-01 0.21134802E+04</pdfrwt>
<totfact> 0.30854028E+00</totfact>
</mgrwt>
</event>
<event>
12    4  0.4398275E-008  0.1309137E+04  0.7818608E-02  0.9022350E-01
          1   -1    0    0  501    0  0.00000000000E+00  0.00000000000E+00  0.75068943640E+03  0.75068943640E+03  0.00000000000E+00 0. -1.
         -2   -1    0    0    0  501 -0.00000000000E+00 -0.00000000000E+00 -0.57075556119E+03  0.57075556119E+03  0.00000000000E+00 0.  1.
        -24    2    1    2    0    0  0.88778733191E+02  0.21590955894E+03  0.23431112684E+03  0.34005459032E+03  0.78973534325E+02 0.  0.
        254    2    1    2    0    0 -0.88778733191E+02 -0.21590955894E+03 -0.54377251633E+02  0.98139040726E+03  0.95166782275E+03 0.  0.
         23    2    4    4    0    0  0.32959071275E+03 -0.26432884433E+03  0.20412659530E+03  0.47803468622E+03  0.91376793796E+02 0.  0.
         23    2    4    4    0    0 -0.41836944595E+03  0.48419285383E+02 -0.25850384693E+03  0.50335572104E+03  0.95735691005E+02 0.  0.
          3    1    3    3  502    0 -0.12097182785E+02  0.29836815777E+02  0.49596083654E+02  0.59129932529E+02  0.00000000000E+00 0. -1.
         -4    1    3    3    0  502  0.10087591598E+03  0.18607274317E+03  0.18471504319E+03  0.28092465779E+03  0.00000000000E+00 0.  1.
         11    1    5    5    0    0  0.29968705261E+03 -0.22431794768E+03  0.20743885337E+03  0.42797400510E+03  0.00000000000E+00 0. -1.
        -11    1    5    5    0    0  0.29903660149E+02 -0.40010896647E+02 -0.33122580767E+01  0.50060681121E+02  0.00000000000E+00 0.  1.
          1    1    6    6  503    0 -0.29084638601E+03 -0.10052810131E+02 -0.18668826772E+03  0.34575307453E+03  0.00000000000E+00 0. -1.
         -1    1    6    6    0  503 -0.12752305994E+03  0.58472095514E+02 -0.71815579208E+02  0.15760264651E+03  0.00000000000E+00 0.  1.
<mgrwt>
<rscale>  0 0.13091374E+04</rscale>
<asrwt>0</asrwt>
<pdfrwt beam="1">  1        1 0.11549068E+00 0.13091374E+04</pdfrwt>
<pdfrwt beam="2">  1       -2 0.87808548E-01 0.13091374E+04</pdfrwt>
<totfact> 0.23530594E+01</totfact>
</mgrwt>
</event>
<event>
12    4  0.4398275E-008  0.2411451E+04  0.7818608E-02  0.8435229E-01
          1   -1    0    0  501    0  0.00000000000E+00  0.00000000000E+00  0.78760760658E+03  0.78760760658E+03  0.00000000000E+00 0. -1.
         -2   -1    0    0    0  501 -0.00000000000E+00 -0.00000000000E+00 -0.18458100698E+04  0.18458100698E+04  0.00000000000E+00 0.  1.
        -24    2    1    2    0    0 -0.77442906181E+03  0.68200041731E+03 -0.55852137545E+03  0.11760625221E+04  0.79448021176E+02 0.  0.
        254    2    1    2    0    0  0.77442906181E+03 -0.68200041731E+03 -0.49968108774E+03  0.14573551542E+04  0.89963209991E+03 0.  0.
         23    2    4    4    0    0  0.52443731146E+03 -0.10717625267E+03 -0.60759749926E+03  0.81461779652E+03  0.88916761708E+02 0.  0.
         23    2    4    4    0    0  0.24999175035E+03 -0.57482416463E+03  0.10791641152E+03  0.64273735773E+03  0.92448167404E+02 0.  0.
          3    1    3    3  502    0 -0.70434756892E+03  0.60098926476E+03 -0.47765855436E+03  0.10418499358E+04  0.00000000000E+00 0. -1.
         -4    1    3    3    0  502 -0.70081492881E+02  0.81011152544E+02 -0.80862821089E+02  0.13421258628E+03  0.00000000000E+00 0.  1.
         11    1    5    5    0    0  0.13910389665E+03 -0.17111206223E+02 -0.10603211415E+03  0.17574270020E+03  0.00000000000E+00 0.  1.
        -11    1    5    5    0    0  0.38533341481E+03 -0.90065046451E+02 -0.50156538511E+03  0.63887509632E+03  0.00000000000E+00 0. -1.
          3    1    6    6  503    0  0.25792946040E+03 -0.55186164569E+03  0.10102143479E+03  0.61748215586E+03  0.00000000000E+00 0. -1.
         -3    1    6    6    0  503 -0.79377100492E+01 -0.22962518944E+02  0.68949767355E+01  0.25255201866E+02  0.00000000000E+00 0.  1.
<mgrwt>
<rscale>  0 0.24114511E+04</rscale>
<asrwt>0</asrwt>
<pdfrwt beam="1">  1        1 0.12117040E+00 0.24114511E+04</pdfrwt>
<pdfrwt beam="2">  1       -2 0.28397078E+00 0.24114511E+04</pdfrwt>
<totfact> 0.70866891E-01</totfact>
</mgrwt>
</event>
<event>
12    4  0.4398275E-008  0.1597070E+04  0.7818608E-02  0.8822350E-01
         -2   -1    0    0    0  501 -0.00000000000E+00  0.00000000000E+00  0.85383568890E+03  0.85383568890E+03  0.00000000000E+00 0.  1.
          1   -1    0    0  501    0  0.00000000000E+00 -0.00000000000E+00 -0.74681555015E+03  0.74681555015E+03  0.00000000000E+00 0. -1.
        -24    2    1    2    0    0  0.18818530783E+03 -0.14202944313E+03 -0.45351260057E+03  0.51729791652E+03  0.79607680316E+02 0.  0.
        254    2    1    2    0    0 -0.18818530783E+03  0.14202944313E+03  0.56053273931E+03  0.10833533225E+04  0.89658875567E+03 0.  0.
         23    2    4    4    0    0  0.11091035110E+03  0.10044624283E+01 -0.20273208061E+03  0.24780888676E+03  0.89480908139E+02 0.  0.
         23    2    4    4    0    0 -0.29909565893E+03  0.14102498070E+03  0.76326481992E+03  0.83554443577E+03  0.78835654592E+02 0.  0.
          1    1    3    3  502    0  0.16649075631E+03 -0.92804098686E+02 -0.38983837053E+03  0.43394207886E+03  0.00000000000E+00 0. -1.
         -2    1    3    3    0  502  0.21694551522E+02 -0.49225344442E+02 -0.63674230039E+02  0.83355837662E+02  0.00000000000E+00 0.  1.
         11    1    5    5    0    0  0.77860334026E+02 -0.11382958115E+02 -0.19689218575E+03  0.21203380900E+03  0.00000000000E+00 0. -1.
        -11    1    5    5    0    0  0.33050017075E+02  0.12387420543E+02 -0.58398948586E+01  0.35775077755E+02  0.00000000000E+00 0.  1.
          3    1    6    6  503    0 -0.21186938191E+03  0.10960083295E+03  0.62593820747E+03  0.66985044386E+03  0.00000000000E+00 0. -1.
         -3    1    6    6    0  503 -0.87226277022E+02  0.31424147744E+02  0.13732661246E+03  0.16569399191E+03  0.00000000000E+00 0.  1.
<mgrwt>
<rscale>  0 0.15970695E+04</rscale>
<asrwt>0</asrwt>
<pdfrwt beam="1">  1        1 0.11489470E+00 0.15970695E+04</pdfrwt>
<pdfrwt beam="2">  1       -2 0.13135934E+00 0.15970695E+04</pdfrwt>
<totfact> 0.87635802E+00</totfact>
</mgrwt>
</event>
<event>
12    4  0.4398275E-008  0.2370225E+04  0.7818608E-02  0.8450736E-01
          1   -1    0    0  501    0  0.00000000000E+00  0.00000000000E+00  0.20995772867E+04  0.20995772867E+04  0.00000000000E+00 0. -1.
         -2   -1    0    0    0  501 -0.00000000000E+00 -0.00000000000E+00 -0.66894017396E+03  0.66894017396E+03  0.00000000000E+00 0.  1.
        -24    2    1    2    0    0 -0.20921015562E+03 -0.98098977551E+03  0.77083181875E+03  0.12675238996E+04  0.79531844778E+02 0.  0.
        254    2    1    2    0    0  0.20921015562E+03  0.98098977551E+03  0.65980529395E+03  0.15009935610E+04  0.90084894156E+03 0.  0.
         23    2    4    4    0    0  0.55500135109E+03  0.67356976183E+03  0.40282731185E+03  0.96544068219E+03  0.89906306167E+02 0.  0.
         23    2    4    4    0    0 -0.34579119547E+03  0.30742001368E+03  0.25697798210E+03  0.53555287886E+03  0.81857113904E+02 0.  0.
          1    1    3    3  502    0 -0.20563250748E+03 -0.89299022869E+03  0.72343640081E+03  0.11675086735E+04  0.00000000000E+00 0. -1.
         -2    1    3    3    0  502 -0.35776481327E+01 -0.87999546816E+02  0.47395417943E+02  0.10001522608E+03  0.00000000000E+00 0.  1.
         11    1    5    5    0    0  0.18122262256E+03  0.19619326746E+03  0.81419391822E+02  0.27921775461E+03  0.00000000000E+00 0.  1.
        -11    1    5    5    0    0  0.37377872852E+03  0.47737649437E+03  0.32140792003E+03  0.68622292758E+03  0.00000000000E+00 0. -1.
          1    1    6    6  503    0 -0.31207100511E+03  0.24457907100E+03  0.23510635230E+03  0.46095794938E+03  0.00000000000E+00 0. -1.
         -1    1    6    6    0  503 -0.33720190354E+02  0.62840942673E+02  0.21871629801E+02  0.74594929477E+02  0.00000000000E+00 0.  1.
<mgrwt>
<rscale>  0 0.23702250E+04</rscale>
<asrwt>0</asrwt>
<pdfrwt beam="1">  1        1 0.32301189E+00 0.23702250E+04</pdfrwt>
<pdfrwt beam="2">  1       -2 0.10291387E+00 0.23702250E+04</pdfrwt>
<totfact> 0.15526967E+00</totfact>
</mgrwt>
</event>
<event>
12    4  0.4398275E-008  0.1042798E+04  0.7818608E-02  0.9262811E-01
          1   -1    0    0  501    0  0.00000000000E+00  0.00000000000E+00  0.79886584428E+03  0.79886584428E+03  0.00000000000E+00 0. -1.
         -2   -1    0    0    0  501 -0.00000000000E+00 -0.00000000000E+00 -0.34030371883E+03  0.34030371883E+03  0.00000000000E+00 0.  1.
        -24    2    1    2    0    0 -0.22701855552E+02 -0.10017337739E+03  0.19621797890E+03  0.23375358106E+03  0.74760695740E+02 0.  0.
        254    2    1    2    0    0  0.22701855552E+02  0.10017337739E+03  0.26234414655E+03  0.90541598205E+03  0.86046706476E+03 0.  0.
         23    2    4    4    0    0  0.36246869101E+03  0.23276870204E+03 -0.10765944060E+02  0.44083118136E+03  0.93012925433E+02 0.  0.
         23    2    4    4    0    0 -0.33976683546E+03 -0.13259532465E+03  0.27311009061E+03  0.46458480069E+03  0.90702220711E+02 0.  0.
          3    1    3    3  502    0 -0.32192913088E+02 -0.94135090736E+02  0.19871711691E+03  0.22223026687E+03  0.00000000000E+00 0. -1.
         -4    1    3    3    0  502  0.94910575362E+01 -0.60382866584E+01 -0.24991380100E+01  0.11523314181E+02  0.00000000000E+00 0.  1.
         11    1    5    5    0    0 -0.44936251067E+01  0.68270013053E+01  0.50350722997E+01  0.95996128299E+01  0.00000000000E+00 0. -1.
        -11    1    5    5    0    0  0.36696231611E+03  0.22594170074E+03 -0.15801016360E+02  0.43123156853E+03  0.00000000000E+00 0.  1.
          3    1    6    6  503    0 -0.11912548031E+03 -0.40894902381E+01  0.69261999359E+02  0.13785800138E+03  0.00000000000E+00 0. -1.
         -3    1    6    6    0  503 -0.22064135515E+03 -0.12850583441E+03  0.20384809125E+03  0.32672679930E+03  0.00000000000E+00 0.  1.
<mgrwt>
<rscale>  0 0.10427982E+04</rscale>
<asrwt>0</asrwt>
<pdfrwt beam="1">  1        1 0.12290244E+00 0.10427982E+04</pdfrwt>
<pdfrwt beam="2">  1       -2 0.52354419E-01 0.10427982E+04</pdfrwt>
<totfact> 0.66863886E+01</totfact>
</mgrwt>
</event>
<event>
12    4  0.4398275E-008  0.1521702E+04  0.7818608E-02  0.8870148E-01
         -2   -1    0    0    0  501 -0.00000000000E+00  0.00000000000E+00  0.91819963328E+03  0.91819963328E+03  0.00000000000E+00 0.  1.
          1   -1    0    0  501    0  0.00000000000E+00 -0.00000000000E+00 -0.63046687169E+03  0.63046687169E+03  0.00000000000E+00 0. -1.
        -24    2    1    2    0    0 -0.26647635448E+03 -0.36337551763E+03 -0.71570063452E+02  0.46306208066E+03  0.79074662502E+02 0.  0.
        254    2    1    2    0    0  0.26647635448E+03  0.36337551763E+03  0.35930282505E+03  0.10856044243E+04  0.91999295197E+03 0.  0.
         23    2    4    4    0    0  0.21473746420E+03  0.56764793819E+03  0.52075728300E+03  0.80496619489E+03  0.91902485586E+02 0.  0.
         23    2    4    4    0    0  0.51738890283E+02 -0.20427242056E+03 -0.16145445796E+03  0.28063822942E+03  0.91028233252E+02 0.  0.
          3    1    3    3  502    0 -0.26329262559E+03 -0.35209917745E+03 -0.82162570551E+02  0.44726672741E+03  0.00000000000E+00 0. -1.
         -4    1    3    3    0  502 -0.31837288907E+01 -0.11276340187E+02  0.10592507098E+02  0.15795353250E+02  0.00000000000E+00 0.  1.
         11    1    5    5    0    0  0.24129355301E+02  0.11883341923E+03  0.65278908771E+02  0.13771326459E+03  0.00000000000E+00 0. -1.
        -11    1    5    5    0    0  0.19060810890E+03  0.44881451896E+03  0.45547837423E+03  0.66725293030E+03  0.00000000000E+00 0.  1.
          3    1    6    6  503    0  0.27592120723E+02 -0.84380193108E+02 -0.12443697886E+03  0.15285909794E+03  0.00000000000E+00 0. -1.
         -3    1    6    6    0  503  0.24146769560E+02 -0.11989222745E+03 -0.37017479095E+02  0.12777913148E+03  0.00000000000E+00 0.  1.
<mgrwt>
<rscale>  0 0.15217023E+04</rscale>
<asrwt>0</asrwt>
<pdfrwt beam="1">  1        1 0.96994903E-01 0.15217023E+04</pdfrwt>
<pdfrwt beam="2">  1       -2 0.14126148E+00 0.15217023E+04</pdfrwt>
<totfact> 0.94433508E+00</totfact>
</mgrwt>
</event>
<event>
12    4  0.4398275E-008  0.2405892E+04  0.7818608E-02  0.8437301E-01
          1   -1    0    0  501    0  0.00000000000E+00  0.00000000000E+00  0.26539621024E+04  0.26539621024E+04  0.00000000000E+00 0. -1.
         -4   -1    0    0    0  501 -0.00000000000E+00 -0.00000000000E+00 -0.54525253915E+03  0.54525253915E+03  0.00000000000E+00 0.  1.
        -24    2    1    2    0    0  0.35245193239E+03 -0.96119707927E+03  0.75042101092E+03  0.12718731206E+04  0.80045933782E+02 0.  0.
        254    2    1    2    0    0 -0.35245193239E+03  0.96119707927E+03  0.13582885523E+04  0.19273415209E+04  0.90640794180E+03 0.  0.
         23    2    4    4    0    0  0.22013950872E+03  0.73481563286E+00  0.31756624919E+03  0.39696876117E+03  0.90961153588E+02 0.  0.
         23    2    4    4    0    0 -0.57259144112E+03  0.96046226364E+03  0.10407223031E+04  0.15303727597E+04  0.92677684318E+02 0.  0.
          3    1    3    3  502    0  0.21623005397E+03 -0.60624020233E+03  0.42379422995E+03  0.77063880548E+03  0.00000000000E+00 0. -1.
         -4    1    3    3    0  502  0.13622187842E+03 -0.35495687694E+03  0.32662678097E+03  0.50123431516E+03  0.00000000000E+00 0.  1.
         11    1    5    5    0    0  0.36017272198E+02  0.22541702740E+02  0.21452691519E+02  0.47598216694E+02  0.00000000000E+00 0. -1.
        -11    1    5    5    0    0  0.18412223653E+03 -0.21806887107E+02  0.29611355767E+03  0.34937054447E+03  0.00000000000E+00 0.  1.
          1    1    6    6  503    0 -0.19926848084E+03  0.35158188144E+03  0.31749933526E+03  0.51392954255E+03  0.00000000000E+00 0. -1.
         -1    1    6    6    0  503 -0.37332296028E+03  0.60888038220E+03  0.72322296786E+03  0.10164432172E+04  0.00000000000E+00 0.  1.
<mgrwt>
<rscale>  0 0.24058924E+04</rscale>
<asrwt>0</asrwt>
<pdfrwt beam="1">  1        1 0.40830185E+00 0.24058924E+04</pdfrwt>
<pdfrwt beam="2">  1       -4 0.83885008E-01 0.24058924E+04</pdfrwt>
<totfact> 0.58342090E-01</totfact>
</mgrwt>
</event>
<event>
12    4  0.4398275E-008  0.1581248E+04  0.7818608E-02  0.8832151E-01
         -2   -1    0    0    0  501 -0.00000000000E+00  0.00000000000E+00  0.20646024220E+03  0.20646024220E+03  0.00000000000E+00 0.  1.
          1   -1    0    0  501    0  0.00000000000E+00 -0.00000000000E+00 -0.30276363222E+04  0.30276363222E+04  0.00000000000E+00 0. -1.
        -24    2    1    2    0    0  0.33817643510E+03  0.22599816222E+03 -0.18806663740E+04  0.19257919823E+04  0.79563047585E+02 0.  0.
        254    2    1    2    0    0 -0.33817643510E+03 -0.22599816222E+03 -0.94050970608E+03  0.13083045821E+04  0.81342725656E+03 0.  0.
         23    2    4    4    0    0  0.72299805908E+02 -0.13808554497E+03 -0.85097180288E+03  0.86982631457E+03  0.90276954749E+02 0.  0.
         23    2    4    4    0    0 -0.41047624101E+03 -0.87912617252E+02 -0.89537903203E+02  0.43847826753E+03  0.89592311499E+02 0.  0.
          3    1    3    3  502    0  0.21924753156E+03  0.12654914669E+03 -0.13217193532E+04  0.13457437406E+04  0.00000000000E+00 0. -1.
         -4    1    3    3    0  502  0.11892890355E+03  0.99449015523E+02 -0.55894702075E+03  0.58004824178E+03  0.00000000000E+00 0.  1.
         11    1    5    5    0    0  0.78377796884E+02 -0.53212766875E+02 -0.42319589775E+03  0.43366974240E+03  0.00000000000E+00 0. -1.
        -11    1    5    5    0    0 -0.60779909764E+01 -0.84872778091E+02 -0.42777590513E+03  0.43615657216E+03  0.00000000000E+00 0.  1.
          4    1    6    6  503    0 -0.18609447774E+03 -0.48455420646E+02 -0.85929322763E+02  0.21062509571E+03  0.00000000000E+00 0. -1.
         -4    1    6    6    0  503 -0.22438176327E+03 -0.39457196606E+02 -0.36085804405E+01  0.22785317181E+03  0.00000000000E+00 0.  1.
<mgrwt>
<rscale>  0 0.15812483E+04</rscale>
<asrwt>0</asrwt>
<pdfrwt beam="1">  1        1 0.46579020E+00 0.15812483E+04</pdfrwt>
<pdfrwt beam="2">  1       -2 0.31763115E-01 0.15812483E+04</pdfrwt>
<totfact> 0.44600051E+00</totfact>
</mgrwt>
</event>
<event>
12    4  0.4398275E-008  0.1392249E+04  0.7818608E-02  0.8959449E-01
          1   -1    0    0  501    0  0.00000000000E+00  0.00000000000E+00  0.33144817386E+03  0.33144817386E+03  0.00000000000E+00 0. -1.
         -2   -1    0    0    0  501 -0.00000000000E+00 -0.00000000000E+00 -0.14620355399E+04  0.14620355399E+04  0.00000000000E+00 0.  1.
        -24    2    1    2    0    0 -0.53377821406E+02 -0.34692626844E+03 -0.57283388288E+03  0.67660225510E+03  0.80280300695E+02 0.  0.
        254    2    1    2    0    0  0.53377821406E+02  0.34692626844E+03 -0.55775348316E+03  0.11168814587E+04  0.90173622371E+03 0.  0.
         23    2    4    4    0    0 -0.30303821774E+01  0.55026560576E+03 -0.51401729153E+02  0.56077326561E+03  0.94989986647E+02 0.  0.
         23    2    4    4    0    0  0.56408203583E+02 -0.20333933732E+03 -0.50635175401E+03  0.55610819305E+03  0.91298696877E+02 0.  0.
          3    1    3    3  502    0 -0.50288505278E+02 -0.18849127341E+03 -0.25124953353E+03  0.31809467461E+03  0.00000000000E+00 0. -1.
         -2    1    3    3    0  502 -0.30893161279E+01 -0.15843499503E+03 -0.32158434934E+03  0.35850758049E+03  0.00000000000E+00 0.  1.
         11    1    5    5    0    0  0.44060478618E+02  0.20287489283E+03 -0.27074255726E+02  0.20936227750E+03  0.00000000000E+00 0. -1.
        -11    1    5    5    0    0 -0.47090860795E+02  0.34739071293E+03 -0.24327473427E+02  0.35141098811E+03  0.00000000000E+00 0.  1.
          2    1    6    6  503    0  0.41432578231E+02 -0.20624517836E+03 -0.49232169431E+03  0.53538246406E+03  0.00000000000E+00 0. -1.
         -2    1    6    6    0  503  0.14975625352E+02  0.29058410382E+01 -0.14030059699E+02  0.20725728986E+02  0.00000000000E+00 0.  1.
<mgrwt>
<rscale>  0 0.13922486E+04</rscale>
<asrwt>0</asrwt>
<pdfrwt beam="1">  1        1 0.50992026E-01 0.13922486E+04</pdfrwt>
<pdfrwt beam="2">  1       -2 0.22492855E+00 0.13922486E+04</pdfrwt>
<totfact> 0.60306197E+00</totfact>
</mgrwt>
</event>
<event>
12    4  0.4398275E-008  0.1169011E+04  0.7818608E-02  0.9140422E-01
         -2   -1    0    0    0  501 -0.00000000000E+00  0.00000000000E+00  0.33797195229E+03  0.33797195229E+03  0.00000000000E+00 0.  1.
          1   -1    0    0  501    0  0.00000000000E+00 -0.00000000000E+00 -0.10108728618E+04  0.10108728618E+04  0.00000000000E+00 0. -1.
        -24    2    1    2    0    0  0.87874731456E+02 -0.30485269570E+02  0.10866145592E+03  0.15108373936E+03  0.48658649888E+02 0.  0.
        254    2    1    2    0    0 -0.87874731456E+02  0.30485269570E+02 -0.78156236543E+03  0.11977610747E+04  0.90285133935E+03 0.  0.
         23    2    4    4    0    0 -0.48703230683E+03  0.46796122442E+02 -0.43313510767E+03  0.65976780997E+03  0.91088948840E+02 0.  0.
         23    2    4    4    0    0  0.39915757537E+03 -0.16310852872E+02 -0.34842725776E+03  0.53799326475E+03  0.91882452452E+02 0.  0.
          3    1    3    3  502    0 -0.19155051797E+01  0.67273391050E+01  0.32884979236E+01  0.77291959556E+01  0.00000000000E+00 0. -1.
         -4    1    3    3    0  502  0.89790236636E+02 -0.37212608675E+02  0.10537295799E+03  0.14335454341E+03  0.00000000000E+00 0.  1.
         11    1    5    5    0    0 -0.23916341542E+02 -0.76067300266E+01 -0.28205983600E+01  0.25254890805E+02  0.00000000000E+00 0. -1.
        -11    1    5    5    0    0 -0.46311596529E+03  0.54402852469E+02 -0.43031450931E+03  0.63451291916E+03  0.00000000000E+00 0.  1.
          4    1    6    6  503    0  0.28243951553E+03 -0.32350531701E+02 -0.19582816545E+03  0.34520618073E+03  0.00000000000E+00 0.  1.
         -4    1    6    6    0  503  0.11671805985E+03  0.16039678829E+02 -0.15259909230E+03  0.19278708402E+03  0.00000000000E+00 0. -1.
<mgrwt>
<rscale>  0 0.11690110E+04</rscale>
<asrwt>0</asrwt>
<pdfrwt beam="1">  1        1 0.15551890E+00 0.11690110E+04</pdfrwt>
<pdfrwt beam="2">  1       -2 0.51995686E-01 0.11690110E+04</pdfrwt>
<totfact> 0.45057624E+01</totfact>
</mgrwt>
</event>
<event>
12    4  0.4398275E-008  0.4749483E+04  0.7818608E-02  0.7868358E-01
          1   -1    0    0  501    0  0.00000000000E+00  0.00000000000E+00  0.33116917778E+04  0.33116917778E+04  0.00000000000E+00 0. -1.
         -2   -1    0    0    0  501 -0.00000000000E+00 -0.00000000000E+00 -0.17028752224E+04  0.17028752224E+04  0.00000000000E+00 0.  1.
        -24    2    1    2    0    0  0.21974925924E+03 -0.19186517281E+04  0.20732298128E+04  0.28344594309E+04  0.79776051255E+02 0.  0.
        254    2    1    2    0    0 -0.21974925924E+03  0.19186517281E+04 -0.46441325733E+03  0.21801075693E+04  0.89870748832E+03 0.  0.
         23    2    4    4    0    0 -0.53580638101E+03  0.12038832390E+04 -0.13750418153E+03  0.13279437241E+04  0.90021126550E+02 0.  0.
         23    2    4    4    0    0  0.31605712177E+03  0.71476848903E+03 -0.32690907580E+03  0.85216384522E+03  0.92344886763E+02 0.  0.
          1    1    3    3  502    0  0.13170773126E+03 -0.14389248889E+04  0.15339354090E+04  0.21073228517E+04  0.00000000000E+00 0. -1.
         -2    1    3    3    0  502  0.88041527977E+02 -0.47972683917E+03  0.53929440373E+03  0.72713657916E+03  0.00000000000E+00 0.  1.
         11    1    5    5    0    0 -0.11517265035E+03  0.33774749772E+03 -0.13290324600E+02  0.35709206702E+03  0.00000000000E+00 0.  1.
        -11    1    5    5    0    0 -0.42063373066E+03  0.86613574131E+03 -0.12421385693E+03  0.97085165705E+03  0.00000000000E+00 0. -1.
          2    1    6    6  503    0  0.21780364883E+03  0.58242691698E+03 -0.26819503769E+03  0.67719134763E+03  0.00000000000E+00 0. -1.
         -2    1    6    6    0  503  0.98253472942E+02  0.13234157205E+03 -0.58714038118E+02  0.17497249758E+03  0.00000000000E+00 0.  1.
<mgrwt>
<rscale>  0 0.47494833E+04</rscale>
<asrwt>0</asrwt>
<pdfrwt beam="1">  1        1 0.50949104E+00 0.47494833E+04</pdfrwt>
<pdfrwt beam="2">  1       -2 0.26198080E+00 0.47494833E+04</pdfrwt>
<totfact> 0.12299670E-02</totfact>
</mgrwt>
</event>
<event>
12    4  0.4398275E-008  0.1468919E+04  0.7818608E-02  0.8905389E-01
         -2   -1    0    0    0  501 -0.00000000000E+00  0.00000000000E+00  0.26440801491E+03  0.26440801491E+03  0.00000000000E+00 0.  1.
          1   -1    0    0  501    0  0.00000000000E+00 -0.00000000000E+00 -0.20401442850E+04  0.20401442850E+04  0.00000000000E+00 0. -1.
        -24    2    1    2    0    0 -0.60270134009E+02 -0.76907235071E+02 -0.12720905874E+04  0.12783618398E+04  0.80295199574E+02 0.  0.
        254    2    1    2    0    0  0.60270134009E+02  0.76907235071E+02 -0.50364568270E+03  0.10261904601E+04  0.88874106177E+03 0.  0.
         23    2    4    4    0    0 -0.38665274044E+03  0.60335049638E+02 -0.38206291664E+03  0.55396109028E+03  0.88091755396E+02 0.  0.
         23    2    4    4    0    0  0.44692287445E+03  0.16572185433E+02 -0.12158276605E+03  0.47222936983E+03  0.90573261505E+02 0.  0.
          3    1    3    3  502    0 -0.38747123127E+02 -0.92227900934E+02 -0.10139454748E+04  0.10188683680E+04  0.00000000000E+00 0. -1.
         -4    1    3    3    0  502 -0.21523010882E+02  0.15320665863E+02 -0.25814511259E+03  0.25949347189E+03  0.00000000000E+00 0.  1.
         11    1    5    5    0    0 -0.25536020357E+03  0.81531111058E+02 -0.25040444020E+03  0.36682221758E+03  0.00000000000E+00 0. -1.
        -11    1    5    5    0    0 -0.13129253687E+03 -0.21196061420E+02 -0.13165847644E+03  0.18713887270E+03  0.00000000000E+00 0.  1.
          3    1    6    6  503    0  0.54007766750E+02 -0.16325999909E+02 -0.41113403876E+02  0.69811812186E+02  0.00000000000E+00 0. -1.
         -3    1    6    6    0  503  0.39291510770E+03  0.32898185342E+02 -0.80469362178E+02  0.40241755765E+03  0.00000000000E+00 0.  1.
<mgrwt>
<rscale>  0 0.14689187E+04</rscale>
<asrwt>0</asrwt>
<pdfrwt beam="1">  1        1 0.31386835E+00 0.14689187E+04</pdfrwt>
<pdfrwt beam="2">  1       -2 0.40678156E-01 0.14689187E+04</pdfrwt>
<totfact> 0.13645828E+01</totfact>
</mgrwt>
</event>
<event>
12    4  0.4398275E-008  0.1724594E+04  0.7818608E-02  0.8747460E-01
          1   -1    0    0  501    0  0.00000000000E+00  0.00000000000E+00  0.16394808649E+04  0.16394808649E+04  0.00000000000E+00 0. -1.
         -2   -1    0    0    0  501 -0.00000000000E+00 -0.00000000000E+00 -0.45353158907E+03  0.45353158907E+03  0.00000000000E+00 0.  1.
        -24    2    1    2    0    0 -0.22715948376E+03  0.57535286345E+03  0.53837543069E+03  0.82422562132E+03  0.82869909739E+02 0.  0.
        254    2    1    2    0    0  0.22715948376E+03 -0.57535286345E+03  0.64757384516E+03  0.12687868327E+04  0.89879685875E+03 0.  0.
         23    2    4    4    0    0 -0.22753275962E+02 -0.61343755965E+02 -0.20899969689E+03  0.23501714850E+03  0.85272614753E+02 0.  0.
         23    2    4    4    0    0  0.24991275972E+03 -0.51400910748E+03  0.85657354205E+03  0.10337696842E+04  0.91103111480E+02 0.  0.
          3    1    3    3  502    0 -0.10674763624E+03  0.37658956993E+03  0.34970900324E+03  0.52489155925E+03  0.00000000000E+00 0. -1.
         -4    1    3    3    0  502 -0.12041184752E+03  0.19876329352E+03  0.18866642745E+03  0.29933406207E+03  0.00000000000E+00 0.  1.
         11    1    5    5    0    0 -0.10095300048E+01 -0.14277578095E+02  0.47412420183E+01  0.15078055676E+02  0.00000000000E+00 0.  1.
        -11    1    5    5    0    0 -0.21743745957E+02 -0.47066177870E+02 -0.21374093891E+03  0.21993909283E+03  0.00000000000E+00 0. -1.
          1    1    6    6  503    0  0.18809679604E+03 -0.45864732008E+03  0.73874395000E+03  0.88965183783E+03  0.00000000000E+00 0. -1.
         -1    1    6    6    0  503  0.61815963680E+02 -0.55361787403E+02  0.11782959205E+03  0.14411784634E+03  0.00000000000E+00 0.  1.
<mgrwt>
<rscale>  0 0.17245943E+04</rscale>
<asrwt>0</asrwt>
<pdfrwt beam="1">  1        1 0.25222782E+00 0.17245943E+04</pdfrwt>
<pdfrwt beam="2">  1       -2 0.69774092E-01 0.17245943E+04</pdfrwt>
<totfact> 0.81804901E+00</totfact>
</mgrwt>
</event>
<event>
12    4  0.4398275E-008  0.1755659E+04  0.7818608E-02  0.8730242E-01
          1   -1    0    0  501    0  0.00000000000E+00  0.00000000000E+00  0.53106127609E+03  0.53106127609E+03  0.00000000000E+00 0. -1.
         -2   -1    0    0    0  501 -0.00000000000E+00 -0.00000000000E+00 -0.14510269224E+04  0.14510269224E+04  0.00000000000E+00 0.  1.
        -24    2    1    2    0    0 -0.54747526032E+03 -0.17409635670E+03 -0.66439327368E+03  0.88197912516E+03  0.80187611490E+02 0.  0.
        254    2    1    2    0    0  0.54747526032E+03  0.17409635670E+03 -0.25557237267E+03  0.11001090734E+04  0.90270927410E+03 0.  0.
         23    2    4    4    0    0  0.50326901314E+03  0.97385907869E+02 -0.56354777918E+03  0.76712987603E+03  0.90213261979E+02 0.  0.
         23    2    4    4    0    0  0.44206247185E+02  0.76710448832E+02  0.30797540652E+03  0.33297919734E+03  0.90485410930E+02 0.  0.
          1    1    3    3  502    0 -0.55017027344E+02 -0.30749377631E+02 -0.43213611248E+02  0.76418673893E+02  0.00000000000E+00 0. -1.
         -2    1    3    3    0  502 -0.49245823298E+03 -0.14334697907E+03 -0.62117966243E+03  0.80556045127E+03  0.00000000000E+00 0.  1.
         11    1    5    5    0    0  0.30805931819E+03  0.24167764341E+02 -0.29561267297E+03  0.42763474692E+03  0.00000000000E+00 0.  1.
        -11    1    5    5    0    0  0.19520969495E+03  0.73218143528E+02 -0.26793510622E+03  0.33949512911E+03  0.00000000000E+00 0. -1.
          4    1    6    6  503    0  0.40806092254E+02  0.39603859594E+02  0.28170637545E+03  0.28738838673E+03  0.00000000000E+00 0. -1.
         -4    1    6    6    0  503  0.34001549309E+01  0.37106589238E+02  0.26269031064E+02  0.45590810604E+02  0.00000000000E+00 0.  1.
<mgrwt>
<rscale>  0 0.17556585E+04</rscale>
<asrwt>0</asrwt>
<pdfrwt beam="1">  1        1 0.81701736E-01 0.17556585E+04</pdfrwt>
<pdfrwt beam="2">  1       -2 0.22323491E+00 0.17556585E+04</pdfrwt>
<totfact> 0.31830524E+00</totfact>
</mgrwt>
</event>
<event>
12    4  0.4398275E-008  0.1076049E+04  0.7818608E-02  0.9228855E-01
          1   -1    0    0  501    0  0.00000000000E+00  0.00000000000E+00  0.37476316821E+03  0.37476316821E+03  0.00000000000E+00 0. -1.
         -2   -1    0    0    0  501 -0.00000000000E+00 -0.00000000000E+00 -0.77240925956E+03  0.77240925956E+03  0.00000000000E+00 0.  1.
        -24    2    1    2    0    0  0.58571287256E+02 -0.92356575055E+02 -0.15551194091E+03  0.20622342894E+03  0.79898724832E+02 0.  0.
        254    2    1    2    0    0 -0.58571287256E+02  0.92356575055E+02 -0.24213415044E+03  0.94094899883E+03  0.90266036744E+03 0.  0.
         23    2    4    4    0    0 -0.34271391620E+03 -0.69052350679E+02  0.17603031680E+03  0.40190781119E+03  0.91225877717E+02 0.  0.
         23    2    4    4    0    0  0.28414262895E+03  0.16140892573E+03 -0.41816446725E+03  0.53904118765E+03  0.94414010713E+02 0.  0.
          3    1    3    3  502    0 -0.32900050268E+01  0.71489209813E+01  0.35770151887E+01  0.86444341592E+01  0.00000000000E+00 0. -1.
         -4    1    3    3    0  502  0.61861292283E+02 -0.99505496036E+02 -0.15908895610E+03  0.19757899478E+03  0.00000000000E+00 0.  1.
         11    1    5    5    0    0 -0.26676037560E+03 -0.34121789509E+02  0.16984928574E+03  0.31807888075E+03  0.00000000000E+00 0. -1.
        -11    1    5    5    0    0 -0.75953540604E+02 -0.34930561170E+02  0.61810310613E+01  0.83828930441E+02  0.00000000000E+00 0.  1.
          3    1    6    6  503    0  0.34191557860E+02  0.55191972699E+02 -0.11466973533E+03  0.13177391502E+03  0.00000000000E+00 0. -1.
         -3    1    6    6    0  503  0.24995107109E+03  0.10621695303E+03 -0.30349473191E+03  0.40726727262E+03  0.00000000000E+00 0.  1.
<mgrwt>
<rscale>  0 0.10760493E+04</rscale>
<asrwt>0</asrwt>
<pdfrwt beam="1">  1        1 0.57655872E-01 0.10760493E+04</pdfrwt>
<pdfrwt beam="2">  1       -2 0.11883219E+00 0.10760493E+04</pdfrwt>
<totfact> 0.31017636E+01</totfact>
</mgrwt>
</event>
<event>
12    4  0.4398275E-008  0.1284903E+04  0.7818608E-02  0.9041624E-01
          1   -1    0    0  501    0  0.00000000000E+00  0.00000000000E+00  0.74258971857E+03  0.74258971857E+03  0.00000000000E+00 0. -1.
         -2   -1    0    0    0  501 -0.00000000000E+00 -0.00000000000E+00 -0.55581650264E+03  0.55581650264E+03  0.00000000000E+00 0.  1.
        -24    2    1    2    0    0 -0.21227539282E+03 -0.20492119479E+02 -0.23212380629E+03  0.32449960242E+03  0.77056869713E+02 0.  0.
        254    2    1    2    0    0  0.21227539282E+03  0.20492119479E+02  0.41889702222E+03  0.97390661879E+03  0.85295874317E+03 0.  0.
         23    2    4    4    0    0 -0.72878316238E+02  0.18385319793E+02  0.60819704282E+03  0.61947993080E+03  0.90567504121E+02 0.  0.
         23    2    4    4    0    0  0.28515370905E+03  0.21067996859E+01 -0.18930002060E+03  0.35442668800E+03  0.92014688900E+02 0.  0.
          3    1    3    3  502    0 -0.59362965368E+02  0.28953866500E+02 -0.67991912042E+02  0.94790232333E+02  0.00000000000E+00 0. -1.
         -4    1    3    3    0  502 -0.15291242745E+03 -0.49445985980E+02 -0.16413189425E+03  0.22970937009E+03  0.00000000000E+00 0.  1.
         11    1    5    5    0    0 -0.64912046147E+02  0.46068734108E+02  0.53377244898E+03  0.53967483663E+03  0.00000000000E+00 0.  1.
        -11    1    5    5    0    0 -0.79662700911E+01 -0.27683414314E+02  0.74424593840E+02  0.79805094170E+02  0.00000000000E+00 0. -1.
          3    1    6    6  503    0  0.38745566444E+02  0.13808124724E+02 -0.68141168660E+02  0.79593354583E+02  0.00000000000E+00 0. -1.
         -3    1    6    6    0  503  0.24640814261E+03 -0.11701325038E+02 -0.12115885194E+03  0.27483333341E+03  0.00000000000E+00 0.  1.
<mgrwt>
<rscale>  0 0.12849025E+04</rscale>
<asrwt>0</asrwt>
<pdfrwt beam="1">  1        1 0.11424457E+00 0.12849025E+04</pdfrwt>
<pdfrwt beam="2">  1       -2 0.85510231E-01 0.12849025E+04</pdfrwt>
<totfact> 0.25476737E+01</totfact>
</mgrwt>
</event>
<event>
12    4  0.4398275E-008  0.1679095E+04  0.7818608E-02  0.8773378E-01
         -4   -1    0    0    0  501 -0.00000000000E+00  0.00000000000E+00  0.11047368660E+04  0.11047368660E+04  0.00000000000E+00 0.  1.
          3   -1    0    0  501    0  0.00000000000E+00 -0.00000000000E+00 -0.63801601725E+03  0.63801601725E+03  0.00000000000E+00 0. -1.
        -24    2    1    2    0    0 -0.14589434103E+03  0.44667896784E+03 -0.20947868646E+03  0.52060877850E+03  0.79655013128E+02 0.  0.
        254    2    1    2    0    0  0.14589434103E+03 -0.44667896784E+03  0.67619953524E+03  0.12221441048E+04  0.90309641920E+03 0.  0.
         23    2    4    4    0    0 -0.17236689073E+03  0.20397935259E+03  0.24640564125E+03  0.37429302366E+03  0.89786447858E+02 0.  0.
         23    2    4    4    0    0  0.31826123176E+03 -0.65065832043E+03  0.42979389399E+03  0.84785108113E+03  0.97376603383E+02 0.  0.
          1    1    3    3  502    0 -0.15492292998E+03  0.41773251309E+03 -0.20300046111E+03  0.48960264903E+03  0.00000000000E+00 0. -1.
         -2    1    3    3    0  502  0.90285889527E+01  0.28946454747E+02 -0.64782253485E+01  0.31006129467E+02  0.00000000000E+00 0.  1.
         11    1    5    5    0    0 -0.17169312634E+03  0.19197087032E+03  0.25261524141E+03  0.36075726587E+03  0.00000000000E+00 0.  1.
        -11    1    5    5    0    0 -0.67376438531E+00  0.12008482269E+02 -0.62096001592E+01  0.13535757792E+02  0.00000000000E+00 0. -1.
          2    1    6    6  503    0  0.27248430227E+03 -0.51357572580E+03  0.30306529236E+03  0.65563426737E+03  0.00000000000E+00 0.  1.
         -2    1    6    6    0  503  0.45776929486E+02 -0.13708259463E+03  0.12672860162E+03  0.19221681376E+03  0.00000000000E+00 0. -1.
<mgrwt>
<rscale>  0 0.16790948E+04</rscale>
<asrwt>0</asrwt>
<pdfrwt beam="1">  1        3 0.98156310E-01 0.16790948E+04</pdfrwt>
<pdfrwt beam="2">  1       -4 0.16995952E+00 0.16790948E+04</pdfrwt>
<totfact> 0.42158862E-01</totfact>
</mgrwt>
</event>
<event>
12    4  0.4398275E-008  0.1846742E+04  0.7818608E-02  0.8681830E-01
          1   -1    0    0  501    0  0.00000000000E+00  0.00000000000E+00  0.52471287650E+03  0.52471287650E+03  0.00000000000E+00 0. -1.
         -2   -1    0    0    0  501 -0.00000000000E+00 -0.00000000000E+00 -0.16249158608E+04  0.16249158608E+04  0.00000000000E+00 0.  1.
        -24    2    1    2    0    0  0.58938571717E+03  0.82577011470E+02 -0.85375963234E+03  0.10437831915E+04  0.79895897972E+02 0.  0.
        254    2    1    2    0    0 -0.58938571717E+03 -0.82577011470E+02 -0.24644335193E+03  0.11058455458E+04  0.89886904443E+03 0.  0.
         23    2    4    4    0    0 -0.40735915194E+02  0.34598157141E+03 -0.17489939551E+03  0.40007660137E+03  0.90049019312E+02 0.  0.
         23    2    4    4    0    0 -0.54864980198E+03 -0.42855858288E+03 -0.71543956423E+02  0.70576894443E+03  0.91171273201E+02 0.  0.
          1    1    3    3  502    0  0.55053307283E+03  0.94795853580E+02 -0.81047980894E+03  0.98435280202E+03  0.00000000000E+00 0. -1.
         -2    1    3    3    0  502  0.38852644345E+02 -0.12218842110E+02 -0.43279823395E+02  0.59430389434E+02  0.00000000000E+00 0.  1.
         11    1    5    5    0    0 -0.85356925512E+01  0.25629212833E+03 -0.16345155122E+03  0.30409689687E+03  0.00000000000E+00 0. -1.
        -11    1    5    5    0    0 -0.32200222643E+02  0.89689443078E+02 -0.11447844289E+02  0.95979704504E+02  0.00000000000E+00 0.  1.
          3    1    6    6  503    0 -0.30646534158E+03 -0.24948998576E+03  0.41770466065E+01  0.39520084300E+03  0.00000000000E+00 0. -1.
         -3    1    6    6    0  503 -0.24218446040E+03 -0.17906859711E+03 -0.75721003029E+02  0.31056810144E+03  0.00000000000E+00 0.  1.
<mgrwt>
<rscale>  0 0.18467423E+04</rscale>
<asrwt>0</asrwt>
<pdfrwt beam="1">  1        1 0.80725059E-01 0.18467423E+04</pdfrwt>
<pdfrwt beam="2">  1       -2 0.24998705E+00 0.18467423E+04</pdfrwt>
<totfact> 0.21910295E+00</totfact>
</mgrwt>
</event>
<event>
12    4  0.4398275E-008  0.1478742E+04  0.7818608E-02  0.8898714E-01
          1   -1    0    0  501    0  0.00000000000E+00  0.00000000000E+00  0.13279033439E+04  0.13279033439E+04  0.00000000000E+00 0. -1.
         -2   -1    0    0    0  501 -0.00000000000E+00 -0.00000000000E+00 -0.41167865244E+03  0.41167865244E+03  0.00000000000E+00 0.  1.
        -24    2    1    2    0    0  0.18434099417E+03  0.39343923834E+03  0.48227723725E+03  0.65453941158E+03  0.83990900368E+02 0.  0.
        254    2    1    2    0    0 -0.18434099417E+03 -0.39343923834E+03  0.43394745424E+03  0.10850425848E+04  0.89455630419E+03 0.  0.
         23    2    4    4    0    0 -0.13770246343E+03  0.17601322473E+03  0.44616097860E+03  0.50739623420E+03  0.91916788159E+02 0.  0.
         23    2    4    4    0    0 -0.46638530740E+02 -0.56945246307E+03 -0.12213524362E+02  0.57764635059E+03  0.84112281631E+02 0.  0.
          3    1    3    3  502    0  0.12998224419E+03  0.32044884098E+03  0.42104214096E+03  0.54484798609E+03  0.00000000000E+00 0. -1.
         -2    1    3    3    0  502  0.54358749988E+02  0.72990397366E+02  0.61235096288E+02  0.10969142549E+03  0.00000000000E+00 0.  1.
         11    1    5    5    0    0 -0.14575748434E+03  0.17947935996E+03  0.41540976093E+03  0.47541913547E+03  0.00000000000E+00 0. -1.
        -11    1    5    5    0    0  0.80550209104E+01 -0.34661352345E+01  0.30751217673E+02  0.31977098738E+02  0.00000000000E+00 0.  1.
          3    1    6    6  503    0 -0.23009034759E+02 -0.42431920511E+03 -0.43972016884E+02  0.42721158900E+03  0.00000000000E+00 0. -1.
         -3    1    6    6    0  503 -0.23629495981E+02 -0.14513325796E+03  0.31758492522E+02  0.15043476159E+03  0.00000000000E+00 0.  1.
<mgrwt>
<rscale>  0 0.14787420E+04</rscale>
<asrwt>0</asrwt>
<pdfrwt beam="1">  1        1 0.20429282E+00 0.14787420E+04</pdfrwt>
<pdfrwt beam="2">  1       -2 0.63335178E-01 0.14787420E+04</pdfrwt>
<totfact> 0.16952493E+01</totfact>
</mgrwt>
</event>
<event>
12    4  0.4398275E-008  0.1261123E+04  0.7818608E-02  0.9060976E-01
          1   -1    0    0  501    0  0.00000000000E+00  0.00000000000E+00  0.13572676103E+04  0.13572676103E+04  0.00000000000E+00 0. -1.
         -2   -1    0    0    0  501 -0.00000000000E+00 -0.00000000000E+00 -0.29294746046E+03  0.29294746046E+03  0.00000000000E+00 0.  1.
        -24    2    1    2    0    0  0.16855975379E+03 -0.64767277303E+02 -0.59554409268E+02  0.20568799123E+03  0.78445084402E+02 0.  0.
        254    2    1    2    0    0 -0.16855975379E+03  0.64767277303E+02  0.11238745592E+04  0.14445270796E+04  0.88935778409E+03 0.  0.
         23    2    4    4    0    0 -0.20281107799E+03  0.43615088175E+03  0.43129326915E+03  0.65271942922E+03  0.93106628389E+02 0.  0.
         23    2    4    4    0    0  0.34251324203E+02 -0.37138360445E+03  0.69258129000E+03  0.79180765036E+03  0.90507331437E+02 0.  0.
          3    1    3    3  502    0  0.37002073002E+02  0.51162540942E+01  0.13568312002E+02  0.39742025024E+02  0.00000000000E+00 0. -1.
         -4    1    3    3    0  502  0.13155768079E+03 -0.69883531397E+02 -0.73122721270E+02  0.16594596621E+03  0.00000000000E+00 0.  1.
         11    1    5    5    0    0 -0.46953796205E+02  0.41242974730E+02  0.81030123043E+02  0.10233045873E+03  0.00000000000E+00 0.  1.
        -11    1    5    5    0    0 -0.15585728179E+03  0.39490790702E+03  0.35026314611E+03  0.55038897049E+03  0.00000000000E+00 0. -1.
          1    1    6    6  503    0  0.42077082828E+02 -0.36496633488E+03  0.68943127809E+03  0.78120829086E+03  0.00000000000E+00 0. -1.
         -1    1    6    6    0  503 -0.78257586249E+01 -0.64172695673E+01  0.31500119084E+01  0.10599359498E+02  0.00000000000E+00 0.  1.
<mgrwt>
<rscale>  0 0.12611235E+04</rscale>
<asrwt>0</asrwt>
<pdfrwt beam="1">  1        1 0.20881040E+00 0.12611235E+04</pdfrwt>
<pdfrwt beam="2">  1       -2 0.45068841E-01 0.12611235E+04</pdfrwt>
<totfact> 0.33230967E+01</totfact>
</mgrwt>
</event>
<event>
12    4  0.4398275E-008  0.1660368E+04  0.7818608E-02  0.8784296E-01
          3   -1    0    0  501    0  0.00000000000E+00  0.00000000000E+00  0.51918690823E+03  0.51918690823E+03  0.00000000000E+00 0. -1.
         -4   -1    0    0    0  501 -0.00000000000E+00 -0.00000000000E+00 -0.13274707569E+04  0.13274707569E+04  0.00000000000E+00 0.  1.
        -24    2    1    2    0    0 -0.27477776054E+03  0.69515100240E+02 -0.82682936811E+03  0.87702759460E+03  0.72079337384E+02 0.  0.
        254    2    1    2    0    0  0.27477776054E+03 -0.69515100240E+02  0.18545519436E+02  0.96963007053E+03  0.92709404623E+03 0.  0.
         23    2    4    4    0    0 -0.42366992291E+02  0.33714976128E+03 -0.19858004422E+03  0.40299556702E+03  0.86639884043E+02 0.  0.
         23    2    4    4    0    0  0.31714475283E+03 -0.40666486152E+03  0.21712556366E+03  0.56663450352E+03  0.89297515906E+02 0.  0.
          1    1    3    3  502    0 -0.12228754118E+03  0.68056455956E+02 -0.39915923008E+03  0.42298228672E+03  0.00000000000E+00 0. -1.
         -2    1    3    3    0  502 -0.15249021936E+03  0.14586442848E+01 -0.42767013803E+03  0.45404530788E+03  0.00000000000E+00 0.  1.
         11    1    5    5    0    0 -0.22845872406E+02  0.32480413501E+02 -0.48869915429E+02  0.62969673504E+02  0.00000000000E+00 0. -1.
        -11    1    5    5    0    0 -0.19521119885E+02  0.30466934777E+03 -0.14971012879E+03  0.34002589351E+03  0.00000000000E+00 0.  1.
          1    1    6    6  503    0  0.27421674855E+02 -0.74693780849E+02  0.56769487712E+02  0.97743971089E+02  0.00000000000E+00 0. -1.
         -1    1    6    6    0  503  0.28972307797E+03 -0.33197108067E+03  0.16035607595E+03  0.46889053243E+03  0.00000000000E+00 0.  1.
<mgrwt>
<rscale>  0 0.16603680E+04</rscale>
<asrwt>0</asrwt>
<pdfrwt beam="1">  1        3 0.79874910E-01 0.16603680E+04</pdfrwt>
<pdfrwt beam="2">  1       -4 0.20422627E+00 0.16603680E+04</pdfrwt>
<totfact> 0.39332569E-01</totfact>
</mgrwt>
</event>
<event>
12    4  0.4398275E-008  0.1154638E+04  0.7818608E-02  0.9153515E-01
          1   -1    0    0  501    0  0.00000000000E+00  0.00000000000E+00  0.92797815300E+03  0.92797815300E+03  0.00000000000E+00 0. -1.
         -2   -1    0    0    0  501 -0.00000000000E+00 -0.00000000000E+00 -0.35916490022E+03  0.35916490022E+03  0.00000000000E+00 0.  1.
        -24    2    1    2    0    0  0.10420330337E+03 -0.37555835595E+02 -0.10156173883E+03  0.16987118653E+03  0.79200151515E+02 0.  0.
        254    2    1    2    0    0 -0.10420330337E+03  0.37555835595E+02  0.67037499161E+03  0.11172718667E+04  0.88691883818E+03 0.  0.
         23    2    4    4    0    0  0.28556693698E+03  0.28283508949E+03  0.22126042415E+03  0.46802894118E+03  0.92470271667E+02 0.  0.
         23    2    4    4    0    0 -0.38977024035E+03 -0.24527925389E+03  0.44911456746E+03  0.64924292552E+03  0.87918877267E+02 0.  0.
          3    1    3    3  502    0 -0.70682564373E+01  0.12009841361E+02 -0.14740514559E+02  0.20284952749E+02  0.00000000000E+00 0. -1.
         -4    1    3    3    0  502  0.11127155981E+03 -0.49565676956E+02 -0.86821224267E+02  0.14958623378E+03  0.00000000000E+00 0.  1.
         11    1    5    5    0    0  0.53574030468E+01  0.95848145369E+01  0.30923076899E+02  0.32814739402E+02  0.00000000000E+00 0. -1.
        -11    1    5    5    0    0  0.28020953393E+03  0.27325027495E+03  0.19033734725E+03  0.43521420178E+03  0.00000000000E+00 0.  1.
          2    1    6    6  503    0 -0.90361880221E+02 -0.31887041509E+02  0.13567208336E+03  0.16609926856E+03  0.00000000000E+00 0. -1.
         -2    1    6    6    0  503 -0.29940836013E+03 -0.21339221239E+03  0.31344248410E+03  0.48314365696E+03  0.00000000000E+00 0.  1.
<mgrwt>
<rscale>  0 0.11546379E+04</rscale>
<asrwt>0</asrwt>
<pdfrwt beam="1">  1        1 0.14276587E+00 0.11546379E+04</pdfrwt>
<pdfrwt beam="2">  1       -2 0.55256139E-01 0.11546379E+04</pdfrwt>
<totfact> 0.46264246E+01</totfact>
</mgrwt>
</event>
<event>
12    4  0.4398275E-008  0.1722639E+04  0.7818608E-02  0.8748557E-01
          1   -1    0    0  501    0  0.00000000000E+00  0.00000000000E+00  0.57548567692E+03  0.57548567692E+03  0.00000000000E+00 0. -1.
         -2   -1    0    0    0  501 -0.00000000000E+00 -0.00000000000E+00 -0.12891224547E+04  0.12891224547E+04  0.00000000000E+00 0.  1.
        -24    2    1    2    0    0  0.45642961734E+03  0.37947793406E+03 -0.43070461870E+02  0.60029543395E+03  0.78536904190E+02 0.  0.
        254    2    1    2    0    0 -0.45642961734E+03 -0.37947793406E+03 -0.67056631588E+03  0.12643126976E+04  0.89246619847E+03 0.  0.
         23    2    4    4    0    0 -0.66017340316E+03 -0.77136583722E+02 -0.29524961896E+03  0.73312895527E+03  0.92340417822E+02 0.  0.
         23    2    4    4    0    0  0.20374378582E+03 -0.30234135034E+03 -0.37531669692E+03  0.53118374238E+03  0.91497119039E+02 0.  0.
          1    1    3    3  502    0  0.43337356760E+03  0.37535651681E+03 -0.31554277781E+02  0.57419581699E+03  0.00000000000E+00 0. -1.
         -2    1    3    3    0  502  0.23056049734E+02  0.41214172516E+01 -0.11516184088E+02  0.26099616960E+02  0.00000000000E+00 0.  1.
         11    1    5    5    0    0 -0.43352225998E+03 -0.52722848448E+02 -0.24099904230E+03  0.49880034787E+03  0.00000000000E+00 0. -1.
        -11    1    5    5    0    0 -0.22665114318E+03 -0.24413735274E+02 -0.54250576656E+02  0.23432860739E+03  0.00000000000E+00 0.  1.
          1    1    6    6  503    0  0.15462081643E+03 -0.15071155062E+03 -0.20123605281E+03  0.29515676735E+03  0.00000000000E+00 0. -1.
         -1    1    6    6    0  503  0.49122969391E+02 -0.15162979972E+03 -0.17408064411E+03  0.23602697502E+03  0.00000000000E+00 0.  1.
<mgrwt>
<rscale>  0 0.17226393E+04</rscale>
<asrwt>0</asrwt>
<pdfrwt beam="1">  1        1 0.88536258E-01 0.17226393E+04</pdfrwt>
<pdfrwt beam="2">  1       -2 0.19832653E+00 0.17226393E+04</pdfrwt>
<totfact> 0.41208289E+00</totfact>
</mgrwt>
</event>
<event>
12    4  0.4398275E-008  0.1241422E+04  0.7818608E-02  0.9077353E-01
         -2   -1    0    0    0  501 -0.00000000000E+00  0.00000000000E+00  0.21856057939E+03  0.21856057939E+03  0.00000000000E+00 0.  1.
          1   -1    0    0  501    0  0.00000000000E+00 -0.00000000000E+00 -0.17628170582E+04  0.17628170582E+04  0.00000000000E+00 0. -1.
        -24    2    1    2    0    0  0.13893001858E+03 -0.12827943268E+03 -0.69834091815E+03  0.72788336394E+03  0.79856061866E+02 0.  0.
        254    2    1    2    0    0 -0.13893001858E+03  0.12827943268E+03 -0.84591556063E+03  0.12534942736E+04  0.90549301233E+03 0.  0.
         23    2    4    4    0    0 -0.53230551399E+02  0.23877989511E+03  0.10975769653E+03  0.28342780232E+03  0.91843547763E+02 0.  0.
         23    2    4    4    0    0 -0.85699467186E+02 -0.11050046244E+03 -0.95567325716E+03  0.97006647131E+03  0.90348400269E+02 0.  0.
          1    1    3    3  502    0  0.72684987030E+02 -0.11428176095E+03 -0.41393958749E+03  0.43553347783E+03  0.00000000000E+00 0. -1.
         -4    1    3    3    0  502  0.66245031554E+02 -0.13997671727E+02 -0.28440133067E+03  0.29234988610E+03  0.00000000000E+00 0.  1.
         11    1    5    5    0    0 -0.55755311702E+02  0.24286095218E+03  0.92953767717E+02  0.26595206299E+03  0.00000000000E+00 0.  1.
        -11    1    5    5    0    0  0.25247603031E+01 -0.40810570682E+01  0.16803928811E+02  0.17475739322E+02  0.00000000000E+00 0. -1.
          2    1    6    6  503    0 -0.34413965482E+02  0.17710573877E+01 -0.36569133264E+03  0.36731132359E+03  0.00000000000E+00 0. -1.
         -2    1    6    6    0  503 -0.51285501704E+02 -0.11227151982E+03 -0.58998192452E+03  0.60275514772E+03  0.00000000000E+00 0.  1.
<mgrwt>
<rscale>  0 0.12414223E+04</rscale>
<asrwt>0</asrwt>
<pdfrwt beam="1">  1        1 0.27120262E+00 0.12414223E+04</pdfrwt>
<pdfrwt beam="2">  1       -2 0.33624705E-01 0.12414223E+04</pdfrwt>
<totfact> 0.30948177E+01</totfact>
</mgrwt>
</event>
<event>
12    4  0.4398275E-008  0.1229777E+04  0.7818608E-02  0.9087185E-01
         -2   -1    0    0    0  501 -0.00000000000E+00  0.00000000000E+00  0.19722656296E+03  0.19722656296E+03  0.00000000000E+00 0.  1.
          1   -1    0    0  501    0  0.00000000000E+00 -0.00000000000E+00 -0.19170239594E+04  0.19170239594E+04  0.00000000000E+00 0. -1.
        -24    2    1    2    0    0 -0.17376141471E+03  0.46507826052E+02 -0.76920074830E+03  0.79399390128E+03  0.80003230920E+02 0.  0.
        254    2    1    2    0    0  0.17376141471E+03 -0.46507826052E+02 -0.95059664815E+03  0.13202566211E+04  0.89838051567E+03 0.  0.
         23    2    4    4    0    0 -0.24551589531E+03 -0.31215319342E+03 -0.50240602505E+03  0.64684018997E+03  0.90954638931E+02 0.  0.
         23    2    4    4    0    0  0.41927731002E+03  0.26564536737E+03 -0.44819062310E+03  0.67341643112E+03  0.79081800491E+02 0.  0.
          1    1    3    3  502    0 -0.17253689863E+03  0.29268889314E+02 -0.63458572353E+03  0.65827402332E+03  0.00000000000E+00 0. -1.
         -2    1    3    3    0  502 -0.12245160829E+01  0.17238936738E+02 -0.13461502477E+03  0.13571987796E+03  0.00000000000E+00 0.  1.
         11    1    5    5    0    0 -0.20663891477E+03 -0.30414978077E+03 -0.45142820610E+03  0.58223204609E+03  0.00000000000E+00 0. -1.
        -11    1    5    5    0    0 -0.38876980541E+02 -0.80034126513E+01 -0.50977818953E+02  0.64608143877E+02  0.00000000000E+00 0.  1.
          2    1    6    6  503    0  0.21238456421E+03  0.88050928978E+02 -0.20119360096E+03  0.30551437655E+03  0.00000000000E+00 0.  1.
         -2    1    6    6    0  503  0.20689274581E+03  0.17759443839E+03 -0.24699702214E+03  0.36790205457E+03  0.00000000000E+00 0. -1.
<mgrwt>
<rscale>  0 0.12297773E+04</rscale>
<asrwt>0</asrwt>
<pdfrwt beam="1">  1        1 0.29492678E+00 0.12297773E+04</pdfrwt>
<pdfrwt beam="2">  1       -2 0.30342547E-01 0.12297773E+04</pdfrwt>
<totfact> 0.29562996E+01</totfact>
</mgrwt>
</event>
<event>
12    4  0.4398275E-008  0.1371337E+04  0.7818608E-02  0.8974832E-01
          1   -1    0    0  501    0  0.00000000000E+00  0.00000000000E+00  0.26875614324E+04  0.26875614324E+04  0.00000000000E+00 0. -1.
         -2   -1    0    0    0  501 -0.00000000000E+00 -0.00000000000E+00 -0.17493225788E+03  0.17493225788E+03  0.00000000000E+00 0.  1.
        -24    2    1    2    0    0  0.27124278765E+03  0.25485959887E+03  0.86217658480E+03  0.94338396842E+03  0.89993241484E+02 0.  0.
        254    2    1    2    0    0 -0.27124278765E+03 -0.25485959887E+03  0.16504525897E+04  0.19191097218E+04  0.90579374509E+03 0.  0.
         23    2    4    4    0    0 -0.56572616522E+03 -0.32785817625E+03  0.11992493589E+04  0.13688930363E+04  0.90177837107E+02 0.  0.
         23    2    4    4    0    0  0.29448337757E+03  0.72998577378E+02  0.45120323079E+03  0.55021668552E+03  0.84289937615E+02 0.  0.
          1    1    3    3  502    0  0.12903925585E+02  0.50387088733E+02  0.14803897740E+03  0.15691051220E+03  0.00000000000E+00 0. -1.
         -2    1    3    3    0  502  0.25833886206E+03  0.20447251014E+03  0.71413760739E+03  0.78647345622E+03  0.00000000000E+00 0.  1.
         11    1    5    5    0    0 -0.55409709769E+03 -0.33367839539E+03  0.11803185375E+04  0.13459259694E+04  0.00000000000E+00 0. -1.
        -11    1    5    5    0    0 -0.11629067529E+02  0.58202191443E+01  0.18930821414E+02  0.22967066898E+02  0.00000000000E+00 0.  1.
          2    1    6    6  503    0  0.28020372542E+03  0.58021697991E+02  0.37768941520E+03  0.47384590273E+03  0.00000000000E+00 0. -1.
         -2    1    6    6    0  503  0.14279652152E+02  0.14976879386E+02  0.73513815589E+02  0.76370782792E+02  0.00000000000E+00 0.  1.
<mgrwt>
<rscale>  0 0.13713369E+04</rscale>
<asrwt>0</asrwt>
<pdfrwt beam="1">  1        1 0.41347096E+00 0.13713369E+04</pdfrwt>
<pdfrwt beam="2">  1       -2 0.26912657E-01 0.13713369E+04</pdfrwt>
<totfact> 0.10832491E+01</totfact>
</mgrwt>
</event>
<event>
12    4  0.4398275E-008  0.2409160E+04  0.7818608E-02  0.8436082E-01
          1   -1    0    0  501    0  0.00000000000E+00  0.00000000000E+00  0.47258785346E+04  0.47258785346E+04  0.00000000000E+00 0. -1.
         -2   -1    0    0    0  501 -0.00000000000E+00 -0.00000000000E+00 -0.30703567846E+03  0.30703567846E+03  0.00000000000E+00 0.  1.
        -24    2    1    2    0    0  0.44441160275E+03 -0.12128436236E+03  0.38546123249E+04  0.38828781846E+04  0.80593127580E+02 0.  0.
        254    2    1    2    0    0 -0.44441160275E+03  0.12128436236E+03  0.56423053125E+03  0.11500360284E+04  0.88995236113E+03 0.  0.
         23    2    4    4    0    0 -0.43815223304E+03  0.25275428217E+03 -0.48521481399E+02  0.51656801812E+03  0.92876674709E+02 0.  0.
         23    2    4    4    0    0 -0.62593697041E+01 -0.13146991981E+03  0.61275201265E+03  0.63346801032E+03  0.92158404726E+02 0.  0.
          1    1    3    3  502    0  0.18025946882E+03 -0.33616009552E+02  0.18438632654E+04  0.18529585137E+04  0.00000000000E+00 0. -1.
         -2    1    3    3    0  502  0.26415213393E+03 -0.87668352813E+02  0.20107490595E+04  0.20299196709E+04  0.00000000000E+00 0.  1.
         11    1    5    5    0    0 -0.15055405945E+03  0.13825759818E+03 -0.10291424294E+02  0.20466460780E+03  0.00000000000E+00 0. -1.
        -11    1    5    5    0    0 -0.28759817360E+03  0.11449668399E+03 -0.38230057106E+02  0.31190341032E+03  0.00000000000E+00 0.  1.
          4    1    6    6  503    0  0.52539995167E+01 -0.72049330706E+02  0.50275319477E+03  0.50791680954E+03  0.00000000000E+00 0.  1.
         -4    1    6    6    0  503 -0.11513369221E+02 -0.59420589102E+02  0.10999881789E+03  0.12555120078E+03  0.00000000000E+00 0. -1.
<mgrwt>
<rscale>  0 0.24091603E+04</rscale>
<asrwt>0</asrwt>
<pdfrwt beam="1">  1        1 0.72705819E+00 0.24091603E+04</pdfrwt>
<pdfrwt beam="2">  1       -2 0.47236262E-01 0.24091603E+04</pdfrwt>
<totfact> 0.62105157E-02</totfact>
</mgrwt>
</event>
<event>
12    4  0.4398275E-008  0.1668465E+04  0.7818608E-02  0.8779557E-01
          1   -1    0    0  501    0  0.00000000000E+00  0.00000000000E+00  0.14777315949E+04  0.14777315949E+04  0.00000000000E+00 0. -1.
         -2   -1    0    0    0  501 -0.00000000000E+00 -0.00000000000E+00 -0.47095419966E+03  0.47095419966E+03  0.00000000000E+00 0.  1.
        -24    2    1    2    0    0 -0.44028151411E+03  0.32308104720E+03  0.60858403521E+03  0.82151354453E+03  0.79251506091E+02 0.  0.
        254    2    1    2    0    0  0.44028151411E+03 -0.32308104720E+03  0.39819336000E+03  0.11271722500E+04  0.90206992771E+03 0.  0.
         23    2    4    4    0    0  0.46671876458E+03 -0.13326591118E+03  0.63714798750E+03  0.80676312402E+03  0.96555538492E+02 0.  0.
         23    2    4    4    0    0 -0.26437250466E+02 -0.18981513602E+03 -0.23895462750E+03  0.32040912597E+03  0.93989254334E+02 0.  0.
          1    1    3    3  502    0 -0.32562103923E+03  0.22726360848E+03  0.38873625696E+03  0.55569207877E+03  0.00000000000E+00 0. -1.
         -2    1    3    3    0  502 -0.11466047488E+03  0.95817438713E+02  0.21984777825E+03  0.26582146577E+03  0.00000000000E+00 0.  1.
         11    1    5    5    0    0  0.29590282008E+03 -0.93348265159E+02  0.32933996698E+03  0.45247894027E+03  0.00000000000E+00 0. -1.
        -11    1    5    5    0    0  0.17081594450E+03 -0.39917646018E+02  0.30780802052E+03  0.35428418375E+03  0.00000000000E+00 0.  1.
          2    1    6    6  503    0 -0.61866370074E+02 -0.12778888996E+03 -0.15582884565E+03  0.21080815278E+03  0.00000000000E+00 0. -1.
         -2    1    6    6    0  503  0.35429119608E+02 -0.62026246063E+02 -0.83125781846E+02  0.10960097319E+03  0.00000000000E+00 0.  1.
<mgrwt>
<rscale>  0 0.16684650E+04</rscale>
<asrwt>0</asrwt>
<pdfrwt beam="1">  1        1 0.22734332E+00 0.16684650E+04</pdfrwt>
<pdfrwt beam="2">  1       -2 0.72454493E-01 0.16684650E+04</pdfrwt>
<totfact> 0.97815761E+00</totfact>
</mgrwt>
</event>
<event>
12    4  0.4398275E-008  0.1925248E+04  0.7818608E-02  0.8642390E-01
          1   -1    0    0  501    0  0.00000000000E+00  0.00000000000E+00  0.24304614669E+04  0.24304614669E+04  0.00000000000E+00 0. -1.
         -2   -1    0    0    0  501 -0.00000000000E+00 -0.00000000000E+00 -0.38126292164E+03  0.38126292164E+03  0.00000000000E+00 0.  1.
        -24    2    1    2    0    0 -0.88589688724E+02  0.13339629255E+03 -0.26667111397E+03  0.32110801275E+03  0.79713041664E+02 0.  0.
        254    2    1    2    0    0  0.88589688724E+02 -0.13339629255E+03  0.23158696592E+04  0.24906163758E+04  0.90237184630E+03 0.  0.
         23    2    4    4    0    0  0.46165342998E+02 -0.36501436910E+03  0.37399801267E+03  0.53232821262E+03  0.90178067845E+02 0.  0.
         23    2    4    4    0    0  0.42424345726E+02  0.23161807654E+03  0.19418716466E+04  0.19582881632E+04  0.92629799917E+02 0.  0.
          1    1    3    3  502    0 -0.18237476445E+02 -0.77120744513E+01 -0.44151638717E+02  0.48388519721E+02  0.00000000000E+00 0. -1.
         -2    1    3    3    0  502 -0.70352212280E+02  0.14110836701E+03 -0.22251947526E+03  0.27271949303E+03  0.00000000000E+00 0.  1.
         11    1    5    5    0    0  0.11274609246E+02 -0.10767181006E+03  0.56399845388E+02  0.12207079116E+03  0.00000000000E+00 0. -1.
        -11    1    5    5    0    0  0.34890733752E+02 -0.25734255904E+03  0.31759816729E+03  0.41025742145E+03  0.00000000000E+00 0.  1.
          2    1    6    6  503    0  0.42972402434E+02  0.14001880830E+03  0.14928979947E+04  0.15000654374E+04  0.00000000000E+00 0. -1.
         -2    1    6    6    0  503 -0.54805670717E+00  0.91599268247E+02  0.44897365186E+03  0.45822272573E+03  0.00000000000E+00 0.  1.
<mgrwt>
<rscale>  0 0.19252479E+04</rscale>
<asrwt>0</asrwt>
<pdfrwt beam="1">  1        1 0.37391714E+00 0.19252479E+04</pdfrwt>
<pdfrwt beam="2">  1       -2 0.58655836E-01 0.19252479E+04</pdfrwt>
<totfact> 0.33741996E+00</totfact>
</mgrwt>
</event>
<event>
12    4  0.4398275E-008  0.1394431E+04  0.7818608E-02  0.8957860E-01
         -2   -1    0    0    0  501 -0.00000000000E+00  0.00000000000E+00  0.72308857684E+03  0.72308857684E+03  0.00000000000E+00 0.  1.
          1   -1    0    0  501    0  0.00000000000E+00 -0.00000000000E+00 -0.67226805122E+03  0.67226805122E+03  0.00000000000E+00 0. -1.
        -24    2    1    2    0    0 -0.44654668901E+01 -0.82050609363E+02  0.41938960328E+03  0.43513628455E+03  0.81876149805E+02 0.  0.
        254    2    1    2    0    0  0.44654668901E+01  0.82050609363E+02 -0.36856907765E+03  0.96022034351E+03  0.88285202621E+03 0.  0.
         23    2    4    4    0    0  0.18965884747E+02  0.27972453187E+03 -0.58393588975E+03  0.65410169168E+03  0.90897641376E+02 0.  0.
         23    2    4    4    0    0 -0.14500417857E+02 -0.19767392251E+03  0.21536681210E+03  0.30611865183E+03  0.89668966118E+02 0.  0.
          3    1    3    3  502    0 -0.97787500077E+01  0.13386932094E+02  0.11222521694E+03  0.11344308362E+03  0.00000000000E+00 0. -1.
         -2    1    3    3    0  502  0.53132831177E+01 -0.95437541457E+02  0.30716438633E+03  0.32169320093E+03  0.00000000000E+00 0.  1.
         11    1    5    5    0    0 -0.20964856037E+02  0.20784708662E+03 -0.36985881735E+03  0.42477697839E+03  0.00000000000E+00 0. -1.
        -11    1    5    5    0    0  0.39930740783E+02  0.71877445251E+02 -0.21407707240E+03  0.22932471329E+03  0.00000000000E+00 0.  1.
          1    1    6    6  503    0 -0.10986670399E+02 -0.19588128233E+03  0.22330998113E+03  0.29724994762E+03  0.00000000000E+00 0. -1.
         -1    1    6    6    0  503 -0.35137474577E+01 -0.17926401791E+01 -0.79431690268E+01  0.88687042005E+01  0.00000000000E+00 0.  1.
<mgrwt>
<rscale>  0 0.13944308E+04</rscale>
<asrwt>0</asrwt>
<pdfrwt beam="1">  1        1 0.10342585E+00 0.13944308E+04</pdfrwt>
<pdfrwt beam="2">  1       -2 0.11124440E+00 0.13944308E+04</pdfrwt>
<totfact> 0.15811820E+01</totfact>
</mgrwt>
</event>
<event>
12    4  0.4398275E-008  0.1660995E+04  0.7818608E-02  0.8783928E-01
         -2   -1    0    0    0  501 -0.00000000000E+00  0.00000000000E+00  0.59867701996E+03  0.59867701996E+03  0.00000000000E+00 0.  1.
          1   -1    0    0  501    0  0.00000000000E+00 -0.00000000000E+00 -0.11520836591E+04  0.11520836591E+04  0.00000000000E+00 0. -1.
        -24    2    1    2    0    0 -0.56817949051E+03 -0.14325129435E+03 -0.13261235383E+03  0.60595398861E+03  0.79027420221E+02 0.  0.
        254    2    1    2    0    0  0.56817949051E+03  0.14325129435E+03 -0.42079428535E+03  0.11448066905E+04  0.88891262857E+03 0.  0.
         23    2    4    4    0    0 -0.22322307182E+03  0.22958036121E+01 -0.17941902739E+03  0.30064198423E+03  0.91436342794E+02 0.  0.
         23    2    4    4    0    0  0.79140256233E+03  0.14095549074E+03 -0.24137525796E+03  0.84416470626E+03  0.90363544051E+02 0.  0.
          3    1    3    3  502    0 -0.36669474692E+03 -0.10818495264E+03 -0.50787913931E+02  0.38567918481E+03  0.00000000000E+00 0. -1.
         -4    1    3    3    0  502 -0.20148474360E+03 -0.35066341716E+02 -0.81824439899E+02  0.22027480380E+03  0.00000000000E+00 0.  1.
         11    1    5    5    0    0  0.72260013733E+01  0.36680118632E+01 -0.16605413625E+02  0.18477260850E+02  0.00000000000E+00 0. -1.
        -11    1    5    5    0    0 -0.23044907319E+03 -0.13722082511E+01 -0.16281361377E+03  0.28216472338E+03  0.00000000000E+00 0.  1.
          4    1    6    6  503    0  0.90738689905E+02 -0.43735929678E+01 -0.67070463035E+01  0.91091287351E+02  0.00000000000E+00 0. -1.
         -4    1    6    6    0  503  0.70066387243E+03  0.14532908371E+03 -0.23466821165E+03  0.75307341890E+03  0.00000000000E+00 0.  1.
<mgrwt>
<rscale>  0 0.16609949E+04</rscale>
<asrwt>0</asrwt>
<pdfrwt beam="1">  1        1 0.17724364E+00 0.16609949E+04</pdfrwt>
<pdfrwt beam="2">  1       -2 0.92104158E-01 0.16609949E+04</pdfrwt>
<totfact> 0.97219564E+00</totfact>
</mgrwt>
</event>
<event>
12    4  0.4398275E-008  0.1314187E+04  0.7818608E-02  0.9018390E-01
          1   -1    0    0  501    0  0.00000000000E+00  0.00000000000E+00  0.24592279653E+04  0.24592279653E+04  0.00000000000E+00 0. -1.
         -2   -1    0    0    0  501 -0.00000000000E+00 -0.00000000000E+00 -0.17557205094E+03  0.17557205094E+03  0.00000000000E+00 0.  1.
        -24    2    1    2    0    0  0.31068930099E+03 -0.89525204211E+02  0.41865292861E+03  0.53508942589E+03  0.80671030313E+02 0.  0.
        254    2    1    2    0    0 -0.31068930099E+03  0.89525204211E+02  0.18650029858E+04  0.20997105904E+04  0.90884862460E+03 0.  0.
         23    2    4    4    0    0  0.27428257377E+03  0.20712925849E+03  0.57964022565E+03  0.67980050587E+03  0.89512438183E+02 0.  0.
         23    2    4    4    0    0 -0.58497187475E+03 -0.11760405428E+03  0.12853627601E+04  0.14199100845E+04  0.89243571922E+02 0.  0.
          3    1    3    3  502    0  0.33548237485E+02 -0.12670722902E+02  0.13676783864E+02  0.38380800852E+02  0.00000000000E+00 0. -1.
         -4    1    3    3    0  502  0.27714106350E+03 -0.76854481309E+02  0.40497614474E+03  0.49670862504E+03  0.00000000000E+00 0.  1.
         11    1    5    5    0    0  0.25502724383E+03  0.15483425378E+03  0.50665319099E+03  0.58797108533E+03  0.00000000000E+00 0. -1.
        -11    1    5    5    0    0  0.19255329939E+02  0.52295004706E+02  0.72987034663E+02  0.91829420542E+02  0.00000000000E+00 0.  1.
          2    1    6    6  503    0 -0.51100472447E+03 -0.72437053191E+02  0.10787887983E+04  0.11958922303E+04  0.00000000000E+00 0. -1.
         -2    1    6    6    0  503 -0.73967150286E+02 -0.45167001087E+02  0.20657396180E+03  0.22401785421E+03  0.00000000000E+00 0.  1.
<mgrwt>
<rscale>  0 0.13141867E+04</rscale>
<asrwt>0</asrwt>
<pdfrwt beam="1">  1        1 0.37834274E+00 0.13141867E+04</pdfrwt>
<pdfrwt beam="2">  1       -2 0.27011087E-01 0.13141867E+04</pdfrwt>
<totfact> 0.15583249E+01</totfact>
</mgrwt>
</event>
<event>
12    4  0.4398275E-008  0.1013897E+04  0.7818608E-02  0.9293432E-01
          1   -1    0    0  501    0  0.00000000000E+00  0.00000000000E+00  0.12679649319E+03  0.12679649319E+03  0.00000000000E+00 0. -1.
         -2   -1    0    0    0  501 -0.00000000000E+00 -0.00000000000E+00 -0.20268460614E+04  0.20268460614E+04  0.00000000000E+00 0.  1.
        -24    2    1    2    0    0 -0.25361035343E+02  0.71079373600E+02 -0.16894396039E+03  0.20118214930E+03  0.78973007917E+02 0.  0.
        254    2    1    2    0    0  0.25361035343E+02 -0.71079373600E+02 -0.17311056078E+04  0.19524604053E+04  0.89982195423E+03 0.  0.
         23    2    4    4    0    0 -0.34228341781E+03 -0.29626617277E+03 -0.85906604305E+03  0.97538750658E+03  0.91949651678E+02 0.  0.
         23    2    4    4    0    0  0.36764445315E+03  0.22518679917E+03 -0.87203956474E+03  0.97707289867E+03  0.91361416357E+02 0.  0.
          1    1    3    3  502    0  0.12910627104E+02  0.23379953227E+02 -0.63283306646E+01  0.27447299942E+02  0.00000000000E+00 0. -1.
         -2    1    3    3    0  502 -0.38271662447E+02  0.47699420373E+02 -0.16261562972E+03  0.17373484936E+03  0.00000000000E+00 0.  1.
         11    1    5    5    0    0 -0.27964940501E+03 -0.20459046078E+03 -0.70423353205E+03  0.78486044239E+03  0.00000000000E+00 0.  1.
        -11    1    5    5    0    0 -0.62634012796E+02 -0.91675711984E+02 -0.15483251100E+03  0.19052706419E+03  0.00000000000E+00 0. -1.
          3    1    6    6  503    0  0.25275096480E+02 -0.29461013646E+01 -0.88551117202E+02  0.92134740316E+02  0.00000000000E+00 0. -1.
         -3    1    6    6    0  503  0.34236935667E+03  0.22813290053E+03 -0.78348844753E+03  0.88493815835E+03  0.00000000000E+00 0.  1.
<mgrwt>
<rscale>  0 0.10138974E+04</rscale>
<asrwt>0</asrwt>
<pdfrwt beam="1">  1        1 0.19507156E-01 0.10138974E+04</pdfrwt>
<pdfrwt beam="2">  1       -2 0.31182243E+00 0.10138974E+04</pdfrwt>
<totfact> 0.64617897E+00</totfact>
</mgrwt>
</event>
<event>
12    4  0.4398275E-008  0.2323893E+04  0.7818608E-02  0.8468560E-01
          1   -1    0    0  501    0  0.00000000000E+00  0.00000000000E+00  0.22232958641E+04  0.22232958641E+04  0.00000000000E+00 0. -1.
         -2   -1    0    0    0  501 -0.00000000000E+00 -0.00000000000E+00 -0.60726032432E+03  0.60726032432E+03  0.00000000000E+00 0.  1.
        -24    2    1    2    0    0 -0.69582360932E+03 -0.60907615823E+03  0.10937549981E+04  0.14344841186E+04  0.79375240451E+02 0.  0.
        254    2    1    2    0    0  0.69582360932E+03  0.60907615823E+03  0.52228054168E+03  0.13960720698E+04  0.90614347544E+03 0.  0.
         23    2    4    4    0    0  0.53118709333E+03  0.16615674828E+03 -0.13648685223E+03  0.58018293889E+03  0.90640987580E+02 0.  0.
         23    2    4    4    0    0  0.16463651599E+03  0.44291940995E+03  0.65876739390E+03  0.81588913092E+03  0.91748616203E+02 0.  0.
          1    1    3    3  502    0 -0.99425071246E+02 -0.12516160228E+03  0.17561103909E+03  0.23746580496E+03  0.00000000000E+00 0. -1.
         -2    1    3    3    0  502 -0.59639853808E+03 -0.48391455595E+03  0.91814395899E+03  0.11970183136E+04  0.00000000000E+00 0.  1.
         11    1    5    5    0    0  0.11698294064E+03  0.64770205576E+02 -0.45018493802E+01  0.13379258043E+03  0.00000000000E+00 0.  1.
        -11    1    5    5    0    0  0.41420415270E+03  0.10138654271E+03 -0.13198500285E+03  0.44639035846E+03  0.00000000000E+00 0. -1.
          2    1    6    6  503    0  0.15069711872E+03  0.41307286486E+03  0.64399463570E+03  0.77978708894E+03  0.00000000000E+00 0. -1.
         -2    1    6    6    0  503  0.13939397269E+02  0.29846545088E+02  0.14772758208E+02  0.36102041978E+02  0.00000000000E+00 0.  1.
<mgrwt>
<rscale>  0 0.23238927E+04</rscale>
<asrwt>0</asrwt>
<pdfrwt beam="1">  1        1 0.34204551E+00 0.23238927E+04</pdfrwt>
<pdfrwt beam="2">  1       -2 0.93424666E-01 0.23238927E+04</pdfrwt>
<totfact> 0.16131245E+00</totfact>
</mgrwt>
</event>
<event>
12    4  0.4398275E-008  0.1220050E+04  0.7818608E-02  0.9095485E-01
          1   -1    0    0  501    0  0.00000000000E+00  0.00000000000E+00  0.47462739600E+03  0.47462739600E+03  0.00000000000E+00 0. -1.
         -2   -1    0    0    0  501 -0.00000000000E+00 -0.00000000000E+00 -0.78404811627E+03  0.78404811627E+03  0.00000000000E+00 0.  1.
        -24    2    1    2    0    0  0.13833764308E+02  0.99730928509E+02 -0.32763290993E+03  0.35577244090E+03  0.95357615823E+02 0.  0.
        254    2    1    2    0    0 -0.13833764308E+02 -0.99730928509E+02  0.18212189664E+02  0.90290307138E+03  0.89708675239E+03 0.  0.
         23    2    4    4    0    0 -0.68998019852E+02  0.38487861713E+03 -0.41922610307E+02  0.40299563555E+03  0.88066454150E+02 0.  0.
         23    2    4    4    0    0  0.55164255544E+02 -0.48460954564E+03  0.60134799971E+02  0.49990743583E+03  0.91661024502E+02 0.  0.
          3    1    3    3  502    0 -0.81446241164E+01 -0.17284236329E+02 -0.56700129499E+02  0.59832970950E+02  0.00000000000E+00 0. -1.
         -4    1    3    3    0  502  0.21978388424E+02  0.11701516484E+03 -0.27093278043E+03  0.29593946995E+03  0.00000000000E+00 0.  1.
         11    1    5    5    0    0 -0.64480196292E+02  0.36760725797E+03 -0.18678039124E+02  0.37368658121E+03  0.00000000000E+00 0. -1.
        -11    1    5    5    0    0 -0.45178235603E+01  0.17271359160E+02 -0.23244571183E+02  0.29309054342E+02  0.00000000000E+00 0.  1.
          1    1    6    6  503    0  0.69400304503E+02 -0.46409071067E+03  0.46753020213E+02  0.47157442138E+03  0.00000000000E+00 0. -1.
         -1    1    6    6    0  503 -0.14236048958E+02 -0.20518834967E+02  0.13381779758E+02  0.28333014450E+02  0.00000000000E+00 0.  1.
<mgrwt>
<rscale>  0 0.12200504E+04</rscale>
<asrwt>0</asrwt>
<pdfrwt beam="1">  1        1 0.73019599E-01 0.12200504E+04</pdfrwt>
<pdfrwt beam="2">  1       -2 0.12062279E+00 0.12200504E+04</pdfrwt>
<totfact> 0.21559840E+01</totfact>
</mgrwt>
</event>
<event>
12    4  0.4398275E-008  0.1236500E+04  0.7818608E-02  0.9081495E-01
          3   -1    0    0  501    0  0.00000000000E+00  0.00000000000E+00  0.93499963106E+03  0.93499963106E+03  0.00000000000E+00 0. -1.
         -4   -1    0    0    0  501 -0.00000000000E+00 -0.00000000000E+00 -0.40880548641E+03  0.40880548641E+03  0.00000000000E+00 0.  1.
        -24    2    1    2    0    0  0.28798798716E+03  0.41955372421E+02  0.36727310659E+02  0.30395720859E+03  0.79647694775E+02 0.  0.
        254    2    1    2    0    0 -0.28798798716E+03 -0.41955372421E+02  0.48946683399E+03  0.10398479089E+04  0.87006238742E+03 0.  0.
         23    2    4    4    0    0 -0.11427975482E+02  0.38595091454E+03  0.25695437902E+03  0.47258217813E+03  0.90662313726E+02 0.  0.
         23    2    4    4    0    0 -0.27656001168E+03 -0.42790628697E+03  0.23251245497E+03  0.56726573075E+03  0.90217166231E+02 0.  0.
          3    1    3    3  502    0  0.46811092535E+02 -0.67478735552E+01  0.33381739798E+02  0.57889141761E+02  0.00000000000E+00 0. -1.
         -4    1    3    3    0  502  0.24117689463E+03  0.48703245976E+02  0.33455708609E+01  0.24606806683E+03  0.00000000000E+00 0.  1.
         11    1    5    5    0    0  0.27284224672E+02  0.30917522671E+03  0.20818445950E+03  0.37373054318E+03  0.00000000000E+00 0. -1.
        -11    1    5    5    0    0 -0.38712200154E+02  0.76775687831E+02  0.48769919523E+02  0.98851634953E+02  0.00000000000E+00 0.  1.
          4    1    6    6  503    0 -0.25451806975E+03 -0.41476515026E+03  0.23690033973E+03  0.54123132638E+03  0.00000000000E+00 0. -1.
         -4    1    6    6    0  503 -0.22041941933E+02 -0.13141136710E+02 -0.43878847568E+01  0.26034404369E+02  0.00000000000E+00 0.  1.
<mgrwt>
<rscale>  0 0.12364999E+04</rscale>
<asrwt>0</asrwt>
<pdfrwt beam="1">  1        3 0.14384610E+00 0.12364999E+04</pdfrwt>
<pdfrwt beam="2">  1       -4 0.62893152E-01 0.12364999E+04</pdfrwt>
<totfact> 0.19230633E+00</totfact>
</mgrwt>
</event>
<event>
12    4  0.4398275E-008  0.1569326E+04  0.7818608E-02  0.8839617E-01
         -2   -1    0    0    0  501 -0.00000000000E+00  0.00000000000E+00  0.35662696477E+03  0.35662696477E+03  0.00000000000E+00 0.  1.
          1   -1    0    0  501    0  0.00000000000E+00 -0.00000000000E+00 -0.17264420185E+04  0.17264420185E+04  0.00000000000E+00 0. -1.
        -24    2    1    2    0    0 -0.90907001603E+02  0.47785116767E+03 -0.72656662616E+03  0.87790449248E+03  0.78812526215E+02 0.  0.
        254    2    1    2    0    0  0.90907001603E+02 -0.47785116767E+03 -0.64324842762E+03  0.12051644908E+04  0.89557081738E+03 0.  0.
         23    2    4    4    0    0 -0.13179810875E+03  0.16582624439E+02 -0.63616117795E+03  0.65594675757E+03  0.88990895748E+02 0.  0.
         23    2    4    4    0    0  0.22270511035E+03 -0.49443379210E+03 -0.70872496642E+01  0.54921773327E+03  0.86761445790E+02 0.  0.
          3    1    3    3  502    0 -0.44392964538E+02  0.26137891230E+03 -0.46440298310E+03  0.53475209378E+03  0.00000000000E+00 0. -1.
         -4    1    3    3    0  502 -0.46514037065E+02  0.21647225537E+03 -0.26216364305E+03  0.34315239869E+03  0.00000000000E+00 0.  1.
         11    1    5    5    0    0 -0.12098960193E+03  0.40977405218E+02 -0.57814720859E+03  0.59209106252E+03  0.00000000000E+00 0.  1.
        -11    1    5    5    0    0 -0.10808506812E+02 -0.24394780779E+02 -0.58013969358E+02  0.63855695043E+02  0.00000000000E+00 0. -1.
          4    1    6    6  503    0  0.54954718178E+02 -0.69862640468E+02  0.22694326419E+02  0.91737898574E+02  0.00000000000E+00 0. -1.
         -4    1    6    6    0  503  0.16775039217E+03 -0.42457115164E+03 -0.29781576083E+02  0.45747983469E+03  0.00000000000E+00 0.  1.
<mgrwt>
<rscale>  0 0.15693257E+04</rscale>
<asrwt>0</asrwt>
<pdfrwt beam="1">  1        1 0.26560646E+00 0.15693257E+04</pdfrwt>
<pdfrwt beam="2">  1       -2 0.54865688E-01 0.15693257E+04</pdfrwt>
<totfact> 0.12063528E+01</totfact>
</mgrwt>
</event>
<event>
12    4  0.4398275E-008  0.1888372E+04  0.7818608E-02  0.8660666E-01
          1   -1    0    0  501    0  0.00000000000E+00  0.00000000000E+00  0.20567741908E+04  0.20567741908E+04  0.00000000000E+00 0. -1.
         -2   -1    0    0    0  501 -0.00000000000E+00 -0.00000000000E+00 -0.43343937393E+03  0.43343937393E+03  0.00000000000E+00 0.  1.
        -24    2    1    2    0    0 -0.40846233600E+03 -0.15582213474E+03  0.13691940465E+04  0.14395182562E+04  0.79990345467E+02 0.  0.
        254    2    1    2    0    0  0.40846233600E+03  0.15582213474E+03  0.25414077035E+03  0.10506953085E+04  0.92100547368E+03 0.  0.
         23    2    4    4    0    0  0.65422535820E+03 -0.70816666398E+02  0.10162076056E+03  0.67238240723E+03  0.93517394267E+02 0.  0.
         23    2    4    4    0    0 -0.24576302220E+03  0.22663880114E+03  0.15252000979E+03  0.37831290127E+03  0.89964929965E+02 0.  0.
          3    1    3    3  502    0 -0.27529561882E+03 -0.12099306961E+03  0.10426814591E+04  0.10851781539E+04  0.00000000000E+00 0. -1.
         -4    1    3    3    0  502 -0.13316671719E+03 -0.34829065125E+02  0.32651258740E+03  0.35434010227E+03  0.00000000000E+00 0.  1.
         11    1    5    5    0    0  0.47978501796E+03 -0.16933583585E+02  0.96802927139E+02  0.48974607340E+03  0.00000000000E+00 0.  1.
        -11    1    5    5    0    0  0.17444034024E+03 -0.53883082813E+02  0.48178334234E+01  0.18263633383E+03  0.00000000000E+00 0. -1.
          4    1    6    6  503    0 -0.12103774566E+03  0.63567467092E+02  0.32579000653E+02  0.14054305401E+03  0.00000000000E+00 0.  1.
         -4    1    6    6    0  503 -0.12472527653E+03  0.16307133404E+03  0.11994100914E+03  0.23776984726E+03  0.00000000000E+00 0. -1.
<mgrwt>
<rscale>  0 0.18883717E+04</rscale>
<asrwt>0</asrwt>
<pdfrwt beam="1">  1        1 0.31642679E+00 0.18883717E+04</pdfrwt>
<pdfrwt beam="2">  1       -2 0.66682982E-01 0.18883717E+04</pdfrwt>
<totfact> 0.46336457E+00</totfact>
</mgrwt>
</event>
<event>
12    4  0.4398275E-008  0.1969649E+04  0.7818608E-02  0.8620944E-01
         -2   -1    0    0    0  501 -0.00000000000E+00  0.00000000000E+00  0.59390437833E+03  0.59390437833E+03  0.00000000000E+00 0.  1.
          1   -1    0    0  501    0  0.00000000000E+00 -0.00000000000E+00 -0.16330561970E+04  0.16330561970E+04  0.00000000000E+00 0. -1.
        -24    2    1    2    0    0  0.39039824065E+03 -0.59912445623E+03 -0.22326132844E+03  0.75330258358E+03  0.79109173305E+02 0.  0.
        254    2    1    2    0    0 -0.39039824065E+03  0.59912445623E+03 -0.81589049023E+03  0.14736579918E+04  0.99731122738E+03 0.  0.
         23    2    4    4    0    0  0.98440324078E+02 -0.22195645225E+03 -0.11587519843E+03  0.28569204847E+03  0.96113062850E+02 0.  0.
         23    2    4    4    0    0 -0.48883856473E+03  0.82108090847E+03 -0.70001529180E+03  0.11879659433E+04  0.90025957517E+02 0.  0.
          1    1    3    3  502    0  0.84233223023E+02 -0.99093860415E+02 -0.68074811752E+02  0.14679580726E+03  0.00000000000E+00 0. -1.
         -2    1    3    3    0  502  0.30616501763E+03 -0.50003059581E+03 -0.15518651669E+03  0.60650677633E+03  0.00000000000E+00 0.  1.
         11    1    5    5    0    0 -0.44667165527E+01 -0.86341205545E+02 -0.14817400309E+02  0.87717219995E+02  0.00000000000E+00 0.  1.
        -11    1    5    5    0    0  0.10290704063E+03 -0.13561524670E+03 -0.10105779812E+03  0.19797482848E+03  0.00000000000E+00 0. -1.
          1    1    6    6  503    0 -0.49123025672E+03  0.80606005064E+03 -0.69398682024E+03  0.11716047444E+04  0.00000000000E+00 0. -1.
         -1    1    6    6    0  503  0.23916919952E+01  0.15020857830E+02 -0.60284715538E+01  0.16361198911E+02  0.00000000000E+00 0.  1.
<mgrwt>
<rscale>  0 0.19696489E+04</rscale>
<asrwt>0</asrwt>
<pdfrwt beam="1">  1        1 0.25123941E+00 0.19696489E+04</pdfrwt>
<pdfrwt beam="2">  1       -2 0.91369905E-01 0.19696489E+04</pdfrwt>
<totfact> 0.44126896E+00</totfact>
</mgrwt>
</event>
<event>
12    4  0.4398275E-008  0.1487123E+04  0.7818608E-02  0.8893062E-01
          1   -1    0    0  501    0  0.00000000000E+00  0.00000000000E+00  0.12929314648E+04  0.12929314648E+04  0.00000000000E+00 0. -1.
         -2   -1    0    0    0  501 -0.00000000000E+00 -0.00000000000E+00 -0.42762017042E+03  0.42762017042E+03  0.00000000000E+00 0.  1.
        -24    2    1    2    0    0  0.46665337797E+02 -0.21640454971E+03 -0.19912378082E+03  0.30878926792E+03  0.81804333651E+02 0.  0.
        254    2    1    2    0    0 -0.46665337797E+02  0.21640454971E+03  0.10644350752E+04  0.14117623673E+04  0.90057890799E+03 0.  0.
         23    2    4    4    0    0  0.11998308396E+03  0.29217453338E+03  0.11462201913E+04  0.11924229034E+04  0.91048093220E+02 0.  0.
         23    2    4    4    0    0 -0.16664842176E+03 -0.75769983667E+02 -0.81785116103E+02  0.21933946387E+03  0.88928107441E+02 0.  0.
          1    1    3    3  502    0  0.21874686066E+02 -0.57109939917E+01 -0.10555482350E+02  0.24950662326E+02  0.00000000000E+00 0. -1.
         -2    1    3    3    0  502  0.24790651731E+02 -0.21069355572E+03 -0.18856829847E+03  0.28383860559E+03  0.00000000000E+00 0.  1.
         11    1    5    5    0    0  0.50824448886E+02  0.60466408736E+02  0.40903343942E+03  0.41659052528E+03  0.00000000000E+00 0. -1.
        -11    1    5    5    0    0  0.69158635076E+02  0.23170812464E+03  0.73718675190E+03  0.77583237816E+03  0.00000000000E+00 0.  1.
          3    1    6    6  503    0 -0.16651213203E+02 -0.48233859088E+01 -0.46600626986E+02  0.49720683707E+02  0.00000000000E+00 0. -1.
         -3    1    6    6    0  503 -0.14999720856E+03 -0.70946597759E+02 -0.35184489117E+02  0.16961878016E+03  0.00000000000E+00 0.  1.
<mgrwt>
<rscale>  0 0.14871228E+04</rscale>
<asrwt>0</asrwt>
<pdfrwt beam="1">  1        1 0.19891253E+00 0.14871228E+04</pdfrwt>
<pdfrwt beam="2">  1       -2 0.65787719E-01 0.14871228E+04</pdfrwt>
<totfact> 0.16536199E+01</totfact>
</mgrwt>
</event>
<event>
12    4  0.4398275E-008  0.2950192E+04  0.7818608E-02  0.8258099E-01
          1   -1    0    0  501    0  0.00000000000E+00  0.00000000000E+00  0.21212451873E+04  0.21212451873E+04  0.00000000000E+00 0. -1.
         -2   -1    0    0    0  501 -0.00000000000E+00 -0.00000000000E+00 -0.10257694439E+04  0.10257694439E+04  0.00000000000E+00 0.  1.
        -24    2    1    2    0    0 -0.22377173119E+02 -0.13289823690E+04  0.35620380813E+03  0.13784717132E+04  0.81291057701E+02 0.  0.
        254    2    1    2    0    0  0.22377173119E+02  0.13289823690E+04  0.73927193523E+03  0.17685429180E+04  0.90251104342E+03 0.  0.
         23    2    4    4    0    0  0.14117377936E+03  0.84368382494E+03  0.89095155258E+03  0.12386619550E+04  0.93575303336E+02 0.  0.
         23    2    4    4    0    0 -0.11879660625E+03  0.48529854409E+03 -0.15167961735E+03  0.52988096294E+03  0.90220940034E+02 0.  0.
          1    1    3    3  502    0 -0.47689860693E+02 -0.11383012739E+04  0.30430291347E+03  0.11792388970E+04  0.00000000000E+00 0. -1.
         -2    1    3    3    0  502  0.25312687574E+02 -0.19068109510E+03  0.51900894658E+02  0.19923281619E+03  0.00000000000E+00 0.  1.
         11    1    5    5    0    0  0.13371540601E+03  0.81251699824E+03  0.82653946184E+03  0.11667181169E+04  0.00000000000E+00 0. -1.
        -11    1    5    5    0    0  0.74583733506E+01  0.31166826700E+02  0.64412090739E+02  0.71943838187E+02  0.00000000000E+00 0.  1.
          3    1    6    6  503    0 -0.13019283694E+03  0.37822905306E+03 -0.12162089745E+03  0.41808974404E+03  0.00000000000E+00 0. -1.
         -3    1    6    6    0  503  0.11396230697E+02  0.10706949103E+03 -0.30058719896E+02  0.11179121891E+03  0.00000000000E+00 0.  1.
<mgrwt>
<rscale>  0 0.29501922E+04</rscale>
<asrwt>0</asrwt>
<pdfrwt beam="1">  1        1 0.32634541E+00 0.29501922E+04</pdfrwt>
<pdfrwt beam="2">  1       -2 0.15781068E+00 0.29501922E+04</pdfrwt>
<totfact> 0.48441783E-01</totfact>
</mgrwt>
</event>
<event>
12    4  0.4398275E-008  0.3085330E+04  0.7818608E-02  0.8219776E-01
          1   -1    0    0  501    0  0.00000000000E+00  0.00000000000E+00  0.19344718005E+04  0.19344718005E+04  0.00000000000E+00 0. -1.
         -2   -1    0    0    0  501 -0.00000000000E+00 -0.00000000000E+00 -0.12302143226E+04  0.12302143226E+04  0.00000000000E+00 0.  1.
        -24    2    1    2    0    0  0.83937468591E+03  0.48837709663E+03 -0.72622722726E+03  0.12150265019E+04  0.76297855415E+02 0.  0.
        254    2    1    2    0    0 -0.83937468591E+03 -0.48837709663E+03  0.14304847051E+04  0.19496596213E+04  0.90101281652E+03 0.  0.
         23    2    4    4    0    0  0.29663908699E+02 -0.33255787100E+03  0.11912592430E+03  0.36614727827E+03  0.91641467139E+02 0.  0.
         23    2    4    4    0    0 -0.86903859461E+03 -0.15581922563E+03  0.13113587808E+04  0.15835123431E+04  0.91333337473E+02 0.  0.
          1    1    3    3  502    0  0.10183192132E+03  0.38432434069E+02 -0.62131127218E+02  0.12532784670E+03  0.00000000000E+00 0. -1.
         -2    1    3    3    0  502  0.73754276459E+03  0.44994466256E+03 -0.66409610004E+03  0.10896986552E+04  0.00000000000E+00 0.  1.
         11    1    5    5    0    0  0.52607891137E+02 -0.11241187673E+03  0.31122538285E+02  0.12795558851E+03  0.00000000000E+00 0. -1.
        -11    1    5    5    0    0 -0.22943982438E+02 -0.22014599426E+03  0.88003386011E+02  0.23819168976E+03  0.00000000000E+00 0.  1.
          1    1    6    6  503    0 -0.45348309630E+02  0.11551405335E+02  0.60489890875E+02  0.76478304437E+02  0.00000000000E+00 0. -1.
         -1    1    6    6    0  503 -0.82369028498E+03 -0.16737063097E+03  0.12508688900E+04  0.15070340386E+04  0.00000000000E+00 0.  1.
<mgrwt>
<rscale>  0 0.30853297E+04</rscale>
<asrwt>0</asrwt>
<pdfrwt beam="1">  1        1 0.29761104E+00 0.30853297E+04</pdfrwt>
<pdfrwt beam="2">  1       -2 0.18926374E+00 0.30853297E+04</pdfrwt>
<totfact> 0.38442588E-01</totfact>
</mgrwt>
</event>
<event>
12    4  0.4398275E-008  0.2017834E+04  0.7818608E-02  0.8598328E-01
         -2   -1    0    0    0  501 -0.00000000000E+00  0.00000000000E+00  0.49856948692E+03  0.49856948692E+03  0.00000000000E+00 0.  1.
          1   -1    0    0  501    0  0.00000000000E+00 -0.00000000000E+00 -0.20416678645E+04  0.20416678645E+04  0.00000000000E+00 0. -1.
        -24    2    1    2    0    0  0.70838790485E+03 -0.38492692354E+03 -0.69104292595E+03  0.10648341593E+04  0.79682501227E+02 0.  0.
        254    2    1    2    0    0 -0.70838790485E+03  0.38492692354E+03 -0.85205545160E+03  0.14754031921E+04  0.89489324870E+03 0.  0.
         23    2    4    4    0    0 -0.74702158866E+03  0.14654346296E+03 -0.22683098500E+03  0.79893350019E+03  0.85593232869E+02 0.  0.
         23    2    4    4    0    0  0.38633683805E+02  0.23838346058E+03 -0.62522446660E+03  0.67646969195E+03  0.91577151576E+02 0.  0.
          3    1    3    3  502    0  0.60915785498E+03 -0.29922850026E+03 -0.56749336707E+03  0.88468056909E+03  0.00000000000E+00 0. -1.
         -4    1    3    3    0  502  0.99230049866E+02 -0.85698423279E+02 -0.12354955888E+03  0.18015359016E+03  0.00000000000E+00 0.  1.
         11    1    5    5    0    0 -0.50004502303E+03  0.13162277832E+03 -0.12947104229E+03  0.53304064725E+03  0.00000000000E+00 0. -1.
        -11    1    5    5    0    0 -0.24697656562E+03  0.14920684639E+02 -0.97359942714E+02  0.26589285294E+03  0.00000000000E+00 0.  1.
          4    1    6    6  503    0  0.51525771596E+02  0.23857628712E+03 -0.57588775991E+03  0.62547602825E+03  0.00000000000E+00 0. -1.
         -4    1    6    6    0  503 -0.12892087790E+02 -0.19282653737E+00 -0.49336706693E+02  0.50993663695E+02  0.00000000000E+00 0.  1.
<mgrwt>
<rscale>  0 0.20178338E+04</rscale>
<asrwt>0</asrwt>
<pdfrwt beam="1">  1        1 0.31410274E+00 0.20178338E+04</pdfrwt>
<pdfrwt beam="2">  1       -2 0.76702999E-01 0.20178338E+04</pdfrwt>
<totfact> 0.34500138E+00</totfact>
</mgrwt>
</event>
<event>
12    4  0.4398275E-008  0.1206151E+04  0.7818608E-02  0.9107490E-01
          1   -1    0    0  501    0  0.00000000000E+00  0.00000000000E+00  0.11774679356E+04  0.11774679356E+04  0.00000000000E+00 0. -1.
         -2   -1    0    0    0  501 -0.00000000000E+00 -0.00000000000E+00 -0.30888305248E+03  0.30888305248E+03  0.00000000000E+00 0.  1.
        -24    2    1    2    0    0  0.98490050340E+02  0.23382178223E+03  0.27723642809E+03  0.38435875971E+03  0.80614534940E+02 0.  0.
        254    2    1    2    0    0 -0.98490050340E+02 -0.23382178223E+03  0.59134845507E+03  0.11019922284E+04  0.89460659527E+03 0.  0.
         23    2    4    4    0    0  0.20126154446E+03  0.14205994794E+03  0.55168205195E+03  0.61111736312E+03  0.91782933993E+02 0.  0.
         23    2    4    4    0    0 -0.29975159480E+03 -0.37588173017E+03  0.39666403112E+02  0.49087486529E+03  0.90810881367E+02 0.  0.
          3    1    3    3  502    0  0.82898099149E+01  0.73116545203E+02  0.12619574317E+03  0.14608256476E+03  0.00000000000E+00 0. -1.
         -4    1    3    3    0  502  0.90200240426E+02  0.16070523703E+03  0.15104068492E+03  0.23827619495E+03  0.00000000000E+00 0.  1.
         11    1    5    5    0    0  0.47798637839E+02  0.86575944459E+02  0.18533729979E+03  0.21007146077E+03  0.00000000000E+00 0. -1.
        -11    1    5    5    0    0  0.15346290662E+03  0.55484003477E+02  0.36634475217E+03  0.40104590235E+03  0.00000000000E+00 0.  1.
          3    1    6    6  503    0 -0.35139018233E+02 -0.84644784501E+02  0.32731279005E+02  0.97318172870E+02  0.00000000000E+00 0. -1.
         -3    1    6    6    0  503 -0.26461257657E+03 -0.29123694567E+03  0.69351241078E+01  0.39355669242E+03  0.00000000000E+00 0.  1.
<mgrwt>
<rscale>  0 0.12061507E+04</rscale>
<asrwt>0</asrwt>
<pdfrwt beam="1">  1        1 0.18114891E+00 0.12061507E+04</pdfrwt>
<pdfrwt beam="2">  1       -2 0.47520470E-01 0.12061507E+04</pdfrwt>
<totfact> 0.40410301E+01</totfact>
</mgrwt>
</event>
<event>
12    4  0.4398275E-008  0.1646949E+04  0.7818608E-02  0.8792214E-01
          1   -1    0    0  501    0  0.00000000000E+00  0.00000000000E+00  0.21869320036E+04  0.21869320036E+04  0.00000000000E+00 0. -1.
         -4   -1    0    0    0  501 -0.00000000000E+00 -0.00000000000E+00 -0.31007364257E+03  0.31007364257E+03  0.00000000000E+00 0.  1.
        -24    2    1    2    0    0  0.29261697171E+03  0.82472136284E+02  0.13996642539E+04  0.14345388954E+04  0.80096651221E+02 0.  0.
        254    2    1    2    0    0 -0.29261697171E+03 -0.82472136284E+02  0.47719410715E+03  0.10624667507E+04  0.89927472728E+03 0.  0.
         23    2    4    4    0    0 -0.42467709219E+03 -0.27542016348E+03  0.59397275391E+03  0.78539858297E+03  0.88546048286E+02 0.  0.
         23    2    4    4    0    0  0.13206012049E+03  0.19294802719E+03 -0.11677864676E+03  0.27706816776E+03  0.91982066872E+02 0.  0.
          1    1    3    3  502    0  0.25124109775E+03  0.95970513596E+02  0.12537614183E+04  0.12822831679E+04  0.00000000000E+00 0. -1.
         -2    1    3    3    0  502  0.41375873953E+02 -0.13498377312E+02  0.14590283561E+03  0.15225572756E+03  0.00000000000E+00 0.  1.
         11    1    5    5    0    0 -0.32443079597E+03 -0.17375210471E+03  0.46478629435E+03  0.59285026329E+03  0.00000000000E+00 0.  1.
        -11    1    5    5    0    0 -0.10024629622E+03 -0.10166805877E+03  0.12918645955E+03  0.19254831968E+03  0.00000000000E+00 0. -1.
          2    1    6    6  503    0 -0.24621950973E+01 -0.34853342834E+01 -0.19364809325E+02  0.19829417540E+02  0.00000000000E+00 0. -1.
         -2    1    6    6    0  503  0.13452231558E+03  0.19643336148E+03 -0.97413837433E+02  0.25723875022E+03  0.00000000000E+00 0.  1.
<mgrwt>
<rscale>  0 0.16469487E+04</rscale>
<asrwt>0</asrwt>
<pdfrwt beam="1">  1        1 0.33645107E+00 0.16469487E+04</pdfrwt>
<pdfrwt beam="2">  1       -4 0.47703639E-01 0.16469487E+04</pdfrwt>
<totfact> 0.44814266E+00</totfact>
</mgrwt>
</event>
<event>
12    4  0.4398275E-008  0.1242108E+04  0.7818608E-02  0.9076777E-01
         -2   -1    0    0    0  501 -0.00000000000E+00  0.00000000000E+00  0.22767874098E+03  0.22767874098E+03  0.00000000000E+00 0.  1.
          1   -1    0    0  501    0  0.00000000000E+00 -0.00000000000E+00 -0.16940898295E+04  0.16940898295E+04  0.00000000000E+00 0. -1.
        -24    2    1    2    0    0 -0.24712714555E+03  0.15310224201E+03 -0.27639838461E+03  0.40827572685E+03  0.76032095485E+02 0.  0.
        254    2    1    2    0    0  0.24712714555E+03 -0.15310224201E+03 -0.11900127039E+04  0.15134928437E+04  0.88882969668E+03 0.  0.
         23    2    4    4    0    0 -0.24100633656E+03 -0.28343543881E+03 -0.72807602438E+03  0.82281938329E+03  0.92289425211E+02 0.  0.
         23    2    4    4    0    0  0.48813348211E+03  0.13033319680E+03 -0.46193667956E+03  0.69067346037E+03  0.91560332006E+02 0.  0.
          3    1    3    3  502    0 -0.49395295335E+02  0.76322430276E+01 -0.78034632968E+02  0.92669036238E+02  0.00000000000E+00 0. -1.
         -4    1    3    3    0  502 -0.19773185021E+03  0.14546999898E+03 -0.19836375164E+03  0.31560669061E+03  0.00000000000E+00 0.  1.
         11    1    5    5    0    0 -0.15947564762E+03 -0.19601791142E+03 -0.57896672984E+03  0.63171035929E+03  0.00000000000E+00 0. -1.
        -11    1    5    5    0    0 -0.81530688941E+02 -0.87417527384E+02 -0.14910929454E+03  0.19110902400E+03  0.00000000000E+00 0.  1.
          1    1    6    6  503    0  0.32247335696E+03  0.76249784925E+02 -0.35776506822E+03  0.48764632644E+03  0.00000000000E+00 0. -1.
         -1    1    6    6    0  503  0.16566012515E+03  0.54083411872E+02 -0.10417161133E+03  0.20302713393E+03  0.00000000000E+00 0.  1.
<mgrwt>
<rscale>  0 0.12421083E+04</rscale>
<asrwt>0</asrwt>
<pdfrwt beam="1">  1        1 0.26062921E+00 0.12421083E+04</pdfrwt>
<pdfrwt beam="2">  1       -2 0.35027498E-01 0.12421083E+04</pdfrwt>
<totfact> 0.31875777E+01</totfact>
</mgrwt>
</event>
<event>
12    4  0.4398275E-008  0.1228776E+04  0.7818608E-02  0.9088035E-01
         -2   -1    0    0    0  501 -0.00000000000E+00  0.00000000000E+00  0.83566671454E+03  0.83566671454E+03  0.00000000000E+00 0.  1.
          1   -1    0    0  501    0  0.00000000000E+00 -0.00000000000E+00 -0.45170262052E+03  0.45170262052E+03  0.00000000000E+00 0. -1.
        -24    2    1    2    0    0 -0.14218067372E+03 -0.15904391815E+03  0.26505004533E+03  0.34950895325E+03  0.79966680540E+02 0.  0.
        254    2    1    2    0    0  0.14218067372E+03  0.15904391815E+03  0.11891404869E+03  0.93786038181E+03  0.90550054274E+03 0.  0.
         23    2    4    4    0    0  0.49105374523E+03 -0.69454974673E+02  0.73783583034E+02  0.50961895200E+03  0.91157473109E+02 0.  0.
         23    2    4    4    0    0 -0.34887307151E+03  0.22849889282E+03  0.45130465658E+02  0.42824142980E+03  0.86196283111E+02 0.  0.
          3    1    3    3  502    0 -0.35765460551E+02 -0.25424858302E+02  0.14392316702E+02  0.46181493784E+02  0.00000000000E+00 0. -1.
         -4    1    3    3    0  502 -0.10641521317E+03 -0.13361905985E+03  0.25065772862E+03  0.30332745947E+03  0.00000000000E+00 0.  1.
         11    1    5    5    0    0  0.11269571171E+03 -0.54754056701E+02  0.26127810931E+02  0.12798825206E+03  0.00000000000E+00 0. -1.
        -11    1    5    5    0    0  0.37835803352E+03 -0.14700917972E+02  0.47655772103E+02  0.38163069994E+03  0.00000000000E+00 0.  1.
          2    1    6    6  503    0 -0.28892029091E+03  0.21131196422E+03  0.62805858489E+02  0.36341746873E+03  0.00000000000E+00 0. -1.
         -2    1    6    6    0  503 -0.59952780607E+02  0.17186928604E+02 -0.17675392831E+02  0.64823961072E+02  0.00000000000E+00 0.  1.
<mgrwt>
<rscale>  0 0.12287764E+04</rscale>
<asrwt>0</asrwt>
<pdfrwt beam="1">  1        1 0.69492711E-01 0.12287764E+04</pdfrwt>
<pdfrwt beam="2">  1       -2 0.12856411E+00 0.12287764E+04</pdfrwt>
<totfact> 0.19634762E+01</totfact>
</mgrwt>
</event>
<event>
12    4  0.4398275E-008  0.1503579E+04  0.7818608E-02  0.8882076E-01
         -2   -1    0    0    0  501 -0.00000000000E+00  0.00000000000E+00  0.35739143237E+03  0.35739143237E+03  0.00000000000E+00 0.  1.
          1   -1    0    0  501    0  0.00000000000E+00 -0.00000000000E+00 -0.15814251286E+04  0.15814251286E+04  0.00000000000E+00 0. -1.
        -24    2    1    2    0    0  0.14308385153E+03 -0.39318429890E+02  0.19389468552E+03  0.25682703393E+03  0.79662091307E+02 0.  0.
        254    2    1    2    0    0 -0.14308385153E+03  0.39318429890E+02 -0.14179283818E+04  0.16819895270E+04  0.89249590801E+03 0.  0.
         23    2    4    4    0    0 -0.48307179859E+01 -0.22495011645E+03 -0.14343034331E+02  0.24367137482E+03  0.92434439196E+02 0.  0.
         23    2    4    4    0    0 -0.13825313354E+03  0.26426854634E+03 -0.14035853474E+04  0.14383181522E+04  0.98769863820E+02 0.  0.
          3    1    3    3  502    0 -0.78679146365E+00 -0.23120955550E+02  0.34007956080E+02  0.41130751307E+02  0.00000000000E+00 0. -1.
         -4    1    3    3    0  502  0.14387064299E+03 -0.16197474340E+02  0.15988672944E+03  0.21569628263E+03  0.00000000000E+00 0.  1.
         11    1    5    5    0    0 -0.21445378500E+02 -0.13835149759E+03  0.32639108164E+02  0.14375796508E+03  0.00000000000E+00 0.  1.
        -11    1    5    5    0    0  0.16614660514E+02 -0.86598618860E+02 -0.46982142495E+02  0.99913409741E+02  0.00000000000E+00 0. -1.
          2    1    6    6  503    0 -0.85824387136E+02  0.21674469666E+03 -0.89623539034E+03  0.92605721413E+03  0.00000000000E+00 0. -1.
         -2    1    6    6    0  503 -0.52428746404E+02  0.47523849679E+02 -0.50734995708E+03  0.51226093809E+03  0.00000000000E+00 0.  1.
<mgrwt>
<rscale>  0 0.15035795E+04</rscale>
<asrwt>0</asrwt>
<pdfrwt beam="1">  1        1 0.24329617E+00 0.15035795E+04</pdfrwt>
<pdfrwt beam="2">  1       -2 0.54983297E-01 0.15035795E+04</pdfrwt>
<totfact> 0.15172222E+01</totfact>
</mgrwt>
</event>
<event>
12    4  0.4398275E-008  0.1564720E+04  0.7818608E-02  0.8842520E-01
          1   -1    0    0  501    0  0.00000000000E+00  0.00000000000E+00  0.79408364992E+03  0.79408364992E+03  0.00000000000E+00 0. -1.
         -2   -1    0    0    0  501 -0.00000000000E+00 -0.00000000000E+00 -0.77080952006E+03  0.77080952006E+03  0.00000000000E+00 0.  1.
        -24    2    1    2    0    0 -0.13527847366E+03  0.49531816091E+03 -0.43019822637E+02  0.52127578866E+03  0.78977191214E+02 0.  0.
        254    2    1    2    0    0  0.13527847366E+03 -0.49531816091E+03  0.66293952500E+02  0.10436173813E+04  0.90614678970E+03 0.  0.
         23    2    4    4    0    0 -0.36066438966E+03 -0.28277642668E+03  0.14740751082E+03  0.49011955787E+03  0.91907003541E+02 0.  0.
         23    2    4    4    0    0  0.49594286333E+03 -0.21254173423E+03 -0.81113558319E+02  0.55349782345E+03  0.92989885206E+02 0.  0.
          1    1    3    3  502    0 -0.12257502666E+03  0.47316417647E+03 -0.23888089724E+02  0.48936654553E+03  0.00000000000E+00 0. -1.
         -2    1    3    3    0  502 -0.12703447004E+02  0.22153984441E+02 -0.19131732912E+02  0.31909243122E+02  0.00000000000E+00 0.  1.
         11    1    5    5    0    0 -0.18186770409E+03 -0.89205317461E+02  0.82568484579E+02  0.21874872594E+03  0.00000000000E+00 0.  1.
        -11    1    5    5    0    0 -0.17879668557E+03 -0.19357110922E+03  0.64839026239E+02  0.27137083193E+03  0.00000000000E+00 0. -1.
          3    1    6    6  503    0  0.30309354815E+03 -0.80083258501E+02 -0.50817613210E+02  0.31758692831E+03  0.00000000000E+00 0. -1.
         -3    1    6    6    0  503  0.19284931518E+03 -0.13245847573E+03 -0.30295945109E+02  0.23591089514E+03  0.00000000000E+00 0.  1.
<mgrwt>
<rscale>  0 0.15647201E+04</rscale>
<asrwt>0</asrwt>
<pdfrwt beam="1">  1        1 0.12216672E+00 0.15647201E+04</pdfrwt>
<pdfrwt beam="2">  1       -2 0.11858608E+00 0.15647201E+04</pdfrwt>
<totfact> 0.10312928E+01</totfact>
</mgrwt>
</event>
<event>
12    4  0.4398275E-008  0.1001947E+04  0.7818608E-02  0.9306412E-01
         -2   -1    0    0    0  501 -0.00000000000E+00  0.00000000000E+00  0.97503253441E+02  0.97503253441E+02  0.00000000000E+00 0.  1.
          1   -1    0    0  501    0  0.00000000000E+00 -0.00000000000E+00 -0.25740093975E+04  0.25740093975E+04  0.00000000000E+00 0. -1.
        -24    2    1    2    0    0  0.30362278116E+02 -0.54103176220E+02 -0.20467966728E+03  0.22805610872E+03  0.79163128529E+02 0.  0.
        254    2    1    2    0    0 -0.30362278116E+02  0.54103176220E+02 -0.22718264768E+04  0.24434565422E+04  0.89746047908E+03 0.  0.
         23    2    4    4    0    0 -0.12898511980E+03 -0.25822825547E+03 -0.19539012090E+04  0.19774442720E+04  0.96108903128E+02 0.  0.
         23    2    4    4    0    0  0.98622841682E+02  0.31233143169E+03 -0.31792526775E+03  0.46601227019E+03  0.93880626190E+02 0.  0.
          3    1    3    3  502    0 -0.42562548804E+01 -0.31351962213E+00 -0.12854740914E+03  0.12861823509E+03  0.00000000000E+00 0. -1.
         -4    1    3    3    0  502  0.34618532996E+02 -0.53789656598E+02 -0.76132258138E+02  0.99437873634E+02  0.00000000000E+00 0.  1.
         11    1    5    5    0    0 -0.63558401457E+01 -0.11369532961E+03 -0.66471105237E+03  0.67439440079E+03  0.00000000000E+00 0.  1.
        -11    1    5    5    0    0 -0.12262927965E+03 -0.14453292587E+03 -0.12891901567E+04  0.13030498712E+04  0.00000000000E+00 0. -1.
          1    1    6    6  503    0  0.62304454096E+02  0.10594515946E+03 -0.16882338734E+03  0.20882422735E+03  0.00000000000E+00 0. -1.
         -1    1    6    6    0  503  0.36318387585E+02  0.20638627223E+03 -0.14910188041E+03  0.25718804285E+03  0.00000000000E+00 0.  1.
<mgrwt>
<rscale>  0 0.10019467E+04</rscale>
<asrwt>0</asrwt>
<pdfrwt beam="1">  1        1 0.39600149E+00 0.10019467E+04</pdfrwt>
<pdfrwt beam="2">  1       -2 0.15000499E-01 0.10019467E+04</pdfrwt>
<totfact> 0.37702758E+01</totfact>
</mgrwt>
</event>
<event>
12    4  0.4398275E-008  0.2158405E+04  0.7818608E-02  0.8535943E-01
         -2   -1    0    0    0  501 -0.00000000000E+00  0.00000000000E+00  0.21410435461E+04  0.21410435461E+04  0.00000000000E+00 0.  1.
          1   -1    0    0  501    0  0.00000000000E+00 -0.00000000000E+00 -0.54397693296E+03  0.54397693296E+03  0.00000000000E+00 0. -1.
        -24    2    1    2    0    0 -0.50485959439E+03 -0.54066107875E+03  0.12637111663E+04  0.14662531161E+04  0.75727647407E+02 0.  0.
        254    2    1    2    0    0  0.50485959439E+03  0.54066107875E+03  0.33335544685E+03  0.12187673630E+04  0.90943412017E+03 0.  0.
         23    2    4    4    0    0  0.16846029019E+02  0.65534248132E+03  0.17748327305E+03  0.68568371221E+03  0.94362516206E+02 0.  0.
         23    2    4    4    0    0  0.48801356537E+03 -0.11468140256E+03  0.15587217380E+03  0.53308365074E+03  0.92590388521E+02 0.  0.
          1    1    3    3  502    0 -0.28122771712E+02 -0.14969185688E+02  0.35037474651E+02  0.47356007421E+02  0.00000000000E+00 0. -1.
         -2    1    3    3    0  502 -0.47673682267E+03 -0.52569189307E+03  0.12286736917E+04  0.14188971087E+04  0.00000000000E+00 0.  1.
         11    1    5    5    0    0  0.14626496375E+02  0.64477699198E+03  0.15895962434E+03  0.66424352910E+03  0.00000000000E+00 0.  1.
        -11    1    5    5    0    0  0.22195326435E+01  0.10565489339E+02  0.18523648715E+02  0.21440183111E+02  0.00000000000E+00 0. -1.
          1    1    6    6  503    0  0.87259237869E+02 -0.57561597531E+02  0.41089462521E+02  0.11232032779E+03  0.00000000000E+00 0. -1.
         -1    1    6    6    0  503  0.40075432750E+03 -0.57119805031E+02  0.11478271128E+03  0.42076332295E+03  0.00000000000E+00 0.  1.
<mgrwt>
<rscale>  0 0.21584052E+04</rscale>
<asrwt>0</asrwt>
<pdfrwt beam="1">  1        1 0.83688760E-01 0.21584052E+04</pdfrwt>
<pdfrwt beam="2">  1       -2 0.32939131E+00 0.21584052E+04</pdfrwt>
<totfact> 0.66196350E-01</totfact>
</mgrwt>
</event>
<event>
12    4  0.4398275E-008  0.1973318E+04  0.7818608E-02  0.8619198E-01
          1   -1    0    0  501    0  0.00000000000E+00  0.00000000000E+00  0.21003847525E+04  0.21003847525E+04  0.00000000000E+00 0. -1.
         -2   -1    0    0    0  501 -0.00000000000E+00 -0.00000000000E+00 -0.46348466798E+03  0.46348466798E+03  0.00000000000E+00 0.  1.
        -24    2    1    2    0    0 -0.25716276266E+03  0.70002512778E+03  0.93177558280E+03  0.11962921186E+04  0.82104995028E+02 0.  0.
        254    2    1    2    0    0  0.25716276266E+03 -0.70002512778E+03  0.70512450169E+03  0.13675773019E+04  0.90382478816E+03 0.  0.
         23    2    4    4    0    0  0.17185976684E+03  0.13841971420E+03  0.39698019162E+03  0.46571584677E+03  0.10296689110E+03 0.  0.
         23    2    4    4    0    0  0.85302995828E+02 -0.83844484198E+03  0.30814431007E+03  0.90186145510E+03  0.90193204994E+02 0.  0.
          3    1    3    3  502    0 -0.83667382122E+01  0.52852792158E+01  0.36410791365E+01  0.10544853815E+02  0.00000000000E+00 0. -1.
         -2    1    3    3    0  502 -0.24879602445E+03  0.69473984857E+03  0.92813450366E+03  0.11857472647E+04  0.00000000000E+00 0.  1.
         11    1    5    5    0    0 -0.10302571958E+02  0.19614849177E+01  0.47573881993E+02  0.48716164257E+02  0.00000000000E+00 0. -1.
        -11    1    5    5    0    0  0.18216233879E+03  0.13645822928E+03  0.34940630963E+03  0.41699968252E+03  0.00000000000E+00 0.  1.
          3    1    6    6  503    0  0.32713953071E+02 -0.80083739491E+02  0.44316940818E+02  0.97198761822E+02  0.00000000000E+00 0. -1.
         -3    1    6    6    0  503  0.52589042757E+02 -0.75836110249E+03  0.26382736925E+03  0.80466269328E+03  0.00000000000E+00 0.  1.
<mgrwt>
<rscale>  0 0.19733181E+04</rscale>
<asrwt>0</asrwt>
<pdfrwt beam="1">  1        1 0.32313611E+00 0.19733181E+04</pdfrwt>
<pdfrwt beam="2">  1       -2 0.71305335E-01 0.19733181E+04</pdfrwt>
<totfact> 0.37129688E+00</totfact>
</mgrwt>
</event>
<event>
12    4  0.4398275E-008  0.1960359E+04  0.7818608E-02  0.8625382E-01
         -2   -1    0    0    0  501 -0.00000000000E+00  0.00000000000E+00  0.43242647556E+03  0.43242647556E+03  0.00000000000E+00 0.  1.
          1   -1    0    0  501    0  0.00000000000E+00 -0.00000000000E+00 -0.22217697933E+04  0.22217697933E+04  0.00000000000E+00 0. -1.
        -24    2    1    2    0    0 -0.43953263097E+03 -0.61994581174E+03 -0.52152914777E+03  0.92358411110E+03  0.59103427414E+02 0.  0.
        254    2    1    2    0    0  0.43953263097E+03  0.61994581174E+03 -0.12678141700E+04  0.17306121578E+04  0.90007995634E+03 0.  0.
         23    2    4    4    0    0  0.40609004709E+03  0.29070850496E+03 -0.10474519792E+03  0.51741856438E+03  0.85614561133E+02 0.  0.
         23    2    4    4    0    0  0.33442583878E+02  0.32923730679E+03 -0.11630689721E+04  0.12131935934E+04  0.97947183018E+02 0.  0.
          3    1    3    3  502    0 -0.55595677644E+02 -0.10693023506E+03 -0.99841118374E+02  0.15650304617E+03  0.00000000000E+00 0. -1.
         -4    1    3    3    0  502 -0.38393695332E+03 -0.51301557668E+03 -0.42168802939E+03  0.76708106493E+03  0.00000000000E+00 0.  1.
         11    1    5    5    0    0  0.36922896269E+03  0.24027045596E+03 -0.11197180172E+03  0.45453009061E+03  0.00000000000E+00 0.  1.
        -11    1    5    5    0    0  0.36861084402E+02  0.50438049001E+02  0.72266037973E+01  0.62888473767E+02  0.00000000000E+00 0. -1.
          1    1    6    6  503    0  0.21536991987E+02  0.94827043749E+01 -0.54356643185E+02  0.59231818852E+02  0.00000000000E+00 0. -1.
         -1    1    6    6    0  503  0.11905591891E+02  0.31975460241E+03 -0.11087123289E+04  0.11539617745E+04  0.00000000000E+00 0.  1.
<mgrwt>
<rscale>  0 0.19603592E+04</rscale>
<asrwt>0</asrwt>
<pdfrwt beam="1">  1        1 0.34181073E+00 0.19603592E+04</pdfrwt>
<pdfrwt beam="2">  1       -2 0.66527151E-01 0.19603592E+04</pdfrwt>
<totfact> 0.35744727E+00</totfact>
</mgrwt>
</event>
<event>
12    4  0.4398275E-008  0.1851639E+04  0.7818608E-02  0.8679310E-01
         -2   -1    0    0    0  501 -0.00000000000E+00  0.00000000000E+00  0.10816934342E+04  0.10816934342E+04  0.00000000000E+00 0.  1.
          1   -1    0    0  501    0  0.00000000000E+00 -0.00000000000E+00 -0.79240724067E+03  0.79240724067E+03  0.00000000000E+00 0. -1.
        -24    2    1    2    0    0  0.20976719133E+03 -0.42686373548E+03  0.62827593616E+03  0.79215151390E+03  0.80984231700E+02 0.  0.
        254    2    1    2    0    0 -0.20976719133E+03  0.42686373548E+03 -0.33898974258E+03  0.10819491610E+04  0.91076068109E+03 0.  0.
         23    2    4    4    0    0  0.73668569545E+02  0.62138855040E+03 -0.35634234891E+03  0.72512514942E+03  0.85298440713E+02 0.  0.
         23    2    4    4    0    0 -0.28343576087E+03 -0.19452481492E+03  0.17352606327E+02  0.35682401159E+03  0.94055984061E+02 0.  0.
          1    1    3    3  502    0  0.78845869181E+02 -0.82848218541E+02  0.14675022468E+03  0.18605409656E+03  0.00000000000E+00 0. -1.
         -2    1    3    3    0  502  0.13092132215E+03 -0.34401551694E+03  0.48152571148E+03  0.60609741734E+03  0.00000000000E+00 0.  1.
         11    1    5    5    0    0 -0.58996136031E+00  0.35303902642E+03 -0.19454708737E+03  0.40309486655E+03  0.00000000000E+00 0.  1.
        -11    1    5    5    0    0  0.74258530905E+02  0.26834952398E+03 -0.16179526154E+03  0.32203028288E+03  0.00000000000E+00 0. -1.
          2    1    6    6  503    0 -0.15179506293E+03 -0.78151109233E+02 -0.33332089036E+02  0.17395506651E+03  0.00000000000E+00 0. -1.
         -2    1    6    6    0  503 -0.13164069794E+03 -0.11637370569E+03  0.50684695363E+02  0.18286894508E+03  0.00000000000E+00 0.  1.
<mgrwt>
<rscale>  0 0.18516390E+04</rscale>
<asrwt>0</asrwt>
<pdfrwt beam="1">  1        1 0.12190881E+00 0.18516390E+04</pdfrwt>
<pdfrwt beam="2">  1       -2 0.16641437E+00 0.18516390E+04</pdfrwt>
<totfact> 0.41762525E+00</totfact>
</mgrwt>
</event>
<event>
12    4  0.4398275E-008  0.1996711E+04  0.7818608E-02  0.8608160E-01
         -2   -1    0    0    0  501 -0.00000000000E+00  0.00000000000E+00  0.44893870589E+03  0.44893870589E+03  0.00000000000E+00 0.  1.
          1   -1    0    0  501    0  0.00000000000E+00 -0.00000000000E+00 -0.22201552757E+04  0.22201552757E+04  0.00000000000E+00 0. -1.
        -24    2    1    2    0    0  0.20253376158E+02 -0.27374209445E+03  0.28288514163E+03  0.40262449736E+03  0.82082574244E+02 0.  0.
        254    2    1    2    0    0 -0.20253376158E+02  0.27374209445E+03 -0.20541017114E+04  0.22664694842E+04  0.91771735762E+03 0.  0.
         23    2    4    4    0    0 -0.54253458944E+02  0.59145860702E+02  0.58676178071E+02  0.14045086062E+03  0.99206248445E+02 0.  0.
         23    2    4    4    0    0  0.34000082787E+02  0.21459623375E+03 -0.21127778895E+04  0.21260186236E+04  0.94431077220E+02 0.  0.
          3    1    3    3  502    0 -0.12104356918E+01 -0.11495537900E+03  0.17527177229E+03  0.20961011063E+03  0.00000000000E+00 0. -1.
         -4    1    3    3    0  502  0.21463811849E+02 -0.15878671545E+03  0.10761336934E+03  0.19301438673E+03  0.00000000000E+00 0.  1.
         11    1    5    5    0    0 -0.33803437329E+02 -0.16036408849E+02  0.49425563744E+02  0.61989717981E+02  0.00000000000E+00 0. -1.
        -11    1    5    5    0    0 -0.20450021615E+02  0.75182269550E+02  0.92506143275E+01  0.78461142639E+02  0.00000000000E+00 0.  1.
          1    1    6    6  503    0  0.26938168721E+02  0.17567858082E+03 -0.12774323756E+04  0.12897372224E+04  0.00000000000E+00 0. -1.
         -1    1    6    6    0  503  0.70619140659E+01  0.38917652929E+02 -0.83534551395E+03  0.83628140121E+03  0.00000000000E+00 0.  1.
<mgrwt>
<rscale>  0 0.19967109E+04</rscale>
<asrwt>0</asrwt>
<pdfrwt beam="1">  1        1 0.34156236E+00 0.19967109E+04</pdfrwt>
<pdfrwt beam="2">  1       -2 0.69067492E-01 0.19967109E+04</pdfrwt>
<totfact> 0.32931702E+00</totfact>
</mgrwt>
</event>
<event>
12    4  0.4398275E-008  0.1846800E+04  0.7818608E-02  0.8681800E-01
          1   -1    0    0  501    0  0.00000000000E+00  0.00000000000E+00  0.17454423644E+04  0.17454423644E+04  0.00000000000E+00 0. -1.
         -2   -1    0    0    0  501 -0.00000000000E+00 -0.00000000000E+00 -0.48851105346E+03  0.48851105346E+03  0.00000000000E+00 0.  1.
        -24    2    1    2    0    0 -0.40925780763E+02 -0.60646448217E+03  0.86652152055E+03  0.10613752409E+04  0.78636943335E+02 0.  0.
        254    2    1    2    0    0  0.40925780763E+02  0.60646448217E+03  0.39040979039E+03  0.11725781769E+04  0.92360472546E+03 0.  0.
         23    2    4    4    0    0 -0.42564024029E+03  0.37210833957E+03  0.24661190074E+03  0.62380765853E+03  0.93189778001E+02 0.  0.
         23    2    4    4    0    0  0.46656602105E+03  0.23435614259E+03  0.14379788965E+03  0.54877051839E+03  0.88682553017E+02 0.  0.
          1    1    3    3  502    0  0.19991252696E+02 -0.10755727471E+03  0.17773078015E+03  0.20870181537E+03  0.00000000000E+00 0. -1.
         -2    1    3    3    0  502 -0.60917033459E+02 -0.49890720746E+03  0.68879074040E+03  0.85267342558E+03  0.00000000000E+00 0.  1.
         11    1    5    5    0    0 -0.42480771245E+02  0.59456082179E+02  0.45586820198E+01  0.73214911155E+02  0.00000000000E+00 0. -1.
        -11    1    5    5    0    0 -0.38315946905E+03  0.31265225739E+03  0.24205321872E+03  0.55059274738E+03  0.00000000000E+00 0.  1.
          4    1    6    6  503    0  0.54664547543E+02  0.34521296435E+02  0.49294263221E+02  0.81301027374E+02  0.00000000000E+00 0. -1.
         -4    1    6    6    0  503  0.41190147351E+03  0.19983484616E+03  0.94503626432E+02  0.46746949101E+03  0.00000000000E+00 0.  1.
<mgrwt>
<rscale>  0 0.18468004E+04</rscale>
<asrwt>0</asrwt>
<pdfrwt beam="1">  1        1 0.26852959E+00 0.18468004E+04</pdfrwt>
<pdfrwt beam="2">  1       -2 0.75155548E-01 0.18468004E+04</pdfrwt>
<totfact> 0.58196223E+00</totfact>
</mgrwt>
</event>
<event>
12    4  0.4398275E-008  0.1918391E+04  0.7818608E-02  0.8645756E-01
          1   -1    0    0  501    0  0.00000000000E+00  0.00000000000E+00  0.11095694073E+04  0.11095694073E+04  0.00000000000E+00 0. -1.
         -2   -1    0    0    0  501 -0.00000000000E+00 -0.00000000000E+00 -0.82920064865E+03  0.82920064865E+03  0.00000000000E+00 0.  1.
        -24    2    1    2    0    0 -0.88944637602E+02 -0.58354883764E+02  0.84504952839E+03  0.85569258880E+03  0.82369048087E+02 0.  0.
        254    2    1    2    0    0  0.88944637602E+02  0.58354883764E+02 -0.56468076972E+03  0.10830774672E+04  0.91808277796E+03 0.  0.
         23    2    4    4    0    0 -0.10909519194E+03  0.17778929513E+03  0.18541045522E+03  0.29295139659E+03  0.89065647098E+02 0.  0.
         23    2    4    4    0    0  0.19803982955E+03 -0.11943441137E+03 -0.75009122494E+03  0.79012607058E+03  0.90432344718E+02 0.  0.
          1    1    3    3  502    0 -0.98437372571E+02 -0.28119792248E+02  0.61316084899E+03  0.62164850660E+03  0.00000000000E+00 0. -1.
         -2    1    3    3    0  502  0.94927349697E+01 -0.30235091516E+02  0.23188867940E+03  0.23404408220E+03  0.00000000000E+00 0.  1.
         11    1    5    5    0    0 -0.55818046681E+02  0.47986471811E+02  0.20466514812E+02  0.76401793439E+02  0.00000000000E+00 0. -1.
        -11    1    5    5    0    0 -0.53277145263E+02  0.12980282332E+03  0.16494394041E+03  0.21654960316E+03  0.00000000000E+00 0.  1.
          1    1    6    6  503    0  0.17632551564E+03 -0.13324324912E+03 -0.69557173958E+03  0.72983867793E+03  0.00000000000E+00 0. -1.
         -1    1    6    6    0  503  0.21714313908E+02  0.13808837750E+02 -0.54519485365E+02  0.60287392653E+02  0.00000000000E+00 0.  1.
<mgrwt>
<rscale>  0 0.19183907E+04</rscale>
<asrwt>0</asrwt>
<pdfrwt beam="1">  1        1 0.17070298E+00 0.19183907E+04</pdfrwt>
<pdfrwt beam="2">  1       -2 0.12756933E+00 0.19183907E+04</pdfrwt>
<totfact> 0.46535145E+00</totfact>
</mgrwt>
</event>
<event>
12    4  0.4398275E-008  0.2371868E+04  0.7818608E-02  0.8450112E-01
          1   -1    0    0  501    0  0.00000000000E+00  0.00000000000E+00  0.57831827789E+03  0.57831827789E+03  0.00000000000E+00 0. -1.
         -2   -1    0    0    0  501 -0.00000000000E+00 -0.00000000000E+00 -0.24319464693E+04  0.24319464693E+04  0.00000000000E+00 0.  1.
        -24    2    1    2    0    0  0.20425562139E+03  0.21108302957E+03 -0.20233304758E+04  0.20461063877E+04  0.80054552958E+02 0.  0.
        254    2    1    2    0    0 -0.20425562139E+03 -0.21108302957E+03  0.16970228437E+03  0.96415835946E+03  0.90251098196E+03 0.  0.
         23    2    4    4    0    0  0.11064404100E+03  0.27060823987E+03  0.22276677581E+03  0.37903854744E+03  0.92597304182E+02 0.  0.
         23    2    4    4    0    0 -0.31489966239E+03 -0.48169126944E+03 -0.53064491442E+02  0.58511981203E+03  0.91438929046E+02 0.  0.
          1    1    3    3  502    0  0.88153962322E+01  0.92332172185E+01 -0.27910681484E+03  0.27939859985E+03  0.00000000000E+00 0. -1.
         -2    1    3    3    0  502  0.19544022516E+03  0.20184981235E+03 -0.17442236609E+04  0.17667077879E+04  0.00000000000E+00 0.  1.
         11    1    5    5    0    0  0.13605123904E+02  0.37533346929E+02  0.78977340669E+02  0.88494473654E+02  0.00000000000E+00 0.  1.
        -11    1    5    5    0    0  0.97038917091E+02  0.23307489294E+03  0.14378943514E+03  0.29054407378E+03  0.00000000000E+00 0. -1.
          1    1    6    6  503    0 -0.24043667502E+03 -0.42720063305E+03 -0.38731909473E+02  0.49174214420E+03  0.00000000000E+00 0. -1.
         -1    1    6    6    0  503 -0.74462987369E+02 -0.54490636389E+02 -0.14332581969E+02  0.93377667822E+02  0.00000000000E+00 0.  1.
<mgrwt>
<rscale>  0 0.23718677E+04</rscale>
<asrwt>0</asrwt>
<pdfrwt beam="1">  1        1 0.88972041E-01 0.23718677E+04</pdfrwt>
<pdfrwt beam="2">  1       -2 0.37414562E+00 0.23718677E+04</pdfrwt>
<totfact> 0.31068942E-01</totfact>
</mgrwt>
</event>
<event>
12    4  0.4398275E-008  0.2222543E+04  0.7818608E-02  0.8509103E-01
          1   -1    0    0  501    0  0.00000000000E+00  0.00000000000E+00  0.18875545057E+04  0.18875545057E+04  0.00000000000E+00 0. -1.
         -2   -1    0    0    0  501 -0.00000000000E+00 -0.00000000000E+00 -0.65424560829E+03  0.65424560829E+03  0.00000000000E+00 0.  1.
        -24    2    1    2    0    0  0.79525975665E+03 -0.10494451105E+03 -0.95869342585E+01  0.80611575711E+03  0.79241867797E+02 0.  0.
        254    2    1    2    0    0 -0.79525975665E+03  0.10494451105E+03  0.12428958317E+04  0.17356843569E+04  0.90794201766E+03 0.  0.
         23    2    4    4    0    0 -0.43310275727E+03 -0.87150152392E+02  0.12357267082E+04  0.13155175505E+04  0.91612121193E+02 0.  0.
         23    2    4    4    0    0 -0.36215699938E+03  0.19209466345E+03  0.71691234700E+01  0.42016680644E+03  0.91818826957E+02 0.  0.
          3    1    3    3  502    0  0.20914281843E+03 -0.31723293802E+02  0.32176771415E+02  0.21396829318E+03  0.00000000000E+00 0. -1.
         -4    1    3    3    0  502  0.58611693822E+03 -0.73221217252E+02 -0.41763705673E+02  0.59214746393E+03  0.00000000000E+00 0.  1.
         11    1    5    5    0    0 -0.26793690002E+03 -0.70178655856E+02  0.64623872824E+03  0.70309296683E+03  0.00000000000E+00 0. -1.
        -11    1    5    5    0    0 -0.16516585725E+03 -0.16971496536E+02  0.58948797997E+03  0.61242458363E+03  0.00000000000E+00 0.  1.
          4    1    6    6  503    0 -0.35389617841E+03  0.16467053383E+03 -0.11794744592E+01  0.39033355091E+03  0.00000000000E+00 0.  1.
         -4    1    6    6    0  503 -0.82608209639E+01  0.27424129619E+02  0.83485979291E+01  0.29833255533E+02  0.00000000000E+00 0. -1.
<mgrwt>
<rscale>  0 0.22225429E+04</rscale>
<asrwt>0</asrwt>
<pdfrwt beam="1">  1        1 0.29039300E+00 0.22225429E+04</pdfrwt>
<pdfrwt beam="2">  1       -2 0.10065317E+00 0.22225429E+04</pdfrwt>
<totfact> 0.23092337E+00</totfact>
</mgrwt>
</event>
<event>
12    4  0.4398275E-008  0.1671453E+04  0.7818608E-02  0.8777816E-01
         -2   -1    0    0    0  501 -0.00000000000E+00  0.00000000000E+00  0.11942660747E+04  0.11942660747E+04  0.00000000000E+00 0.  1.
          1   -1    0    0  501    0  0.00000000000E+00 -0.00000000000E+00 -0.58482647428E+03  0.58482647428E+03  0.00000000000E+00 0. -1.
        -24    2    1    2    0    0  0.43941376244E+03  0.31124848613E+03  0.47181805949E+03  0.72027695214E+03  0.78908375858E+02 0.  0.
        254    2    1    2    0    0 -0.43941376244E+03 -0.31124848613E+03  0.13762154094E+03  0.10588155969E+04  0.90121623646E+03 0.  0.
         23    2    4    4    0    0 -0.11599919171E+03 -0.58033757395E+03  0.18072187227E+03  0.62558873019E+03  0.91942112250E+02 0.  0.
         23    2    4    4    0    0 -0.32341457073E+03  0.26908908782E+03 -0.43100331328E+02  0.43322686667E+03  0.93925277206E+02 0.  0.
          3    1    3    3  502    0 -0.75731777708E+00  0.51825252450E+01 -0.11317453212E+01  0.53584461929E+01  0.00000000000E+00 0. -1.
         -4    1    3    3    0  502  0.44017108022E+03  0.30606596089E+03  0.47294980481E+03  0.71491850595E+03  0.00000000000E+00 0.  1.
         11    1    5    5    0    0 -0.90937848342E+02 -0.26846787013E+03  0.11496406858E+03  0.30587812380E+03  0.00000000000E+00 0.  1.
        -11    1    5    5    0    0 -0.25061343369E+02 -0.31186970382E+03  0.65757803690E+02  0.31971060639E+03  0.00000000000E+00 0. -1.
          3    1    6    6  503    0 -0.26877678758E+03  0.22351656884E+03  0.89732593151E+00  0.34957320161E+03  0.00000000000E+00 0. -1.
         -3    1    6    6    0  503 -0.54637783147E+02  0.45572518976E+02 -0.43997657260E+02  0.83653665057E+02  0.00000000000E+00 0.  1.
<mgrwt>
<rscale>  0 0.16714526E+04</rscale>
<asrwt>0</asrwt>
<pdfrwt beam="1">  1        1 0.89973304E-01 0.16714526E+04</pdfrwt>
<pdfrwt beam="2">  1       -2 0.18373324E+00 0.16714526E+04</pdfrwt>
<totfact> 0.50664551E+00</totfact>
</mgrwt>
</event>
<event>
12    4  0.4398275E-008  0.3496029E+04  0.7818608E-02  0.8114732E-01
         -2   -1    0    0    0  501 -0.00000000000E+00  0.00000000000E+00  0.16320448428E+04  0.16320448428E+04  0.00000000000E+00 0.  1.
          1   -1    0    0  501    0  0.00000000000E+00 -0.00000000000E+00 -0.18722247441E+04  0.18722247441E+04  0.00000000000E+00 0. -1.
        -24    2    1    2    0    0 -0.14572786651E+04  0.68736926586E+03 -0.36340425331E+03  0.16536348851E+04  0.79423338654E+02 0.  0.
        254    2    1    2    0    0  0.14572786651E+04 -0.68736926586E+03  0.12322435204E+03  0.18506347018E+04  0.90195728458E+03 0.  0.
         23    2    4    4    0    0  0.44538868901E+03 -0.39195246452E+03 -0.34643075909E+03  0.69298364734E+03  0.90632477057E+02 0.  0.
         23    2    4    4    0    0  0.10118899760E+04 -0.29541680134E+03  0.46965511113E+03  0.11576510544E+04  0.91584006737E+02 0.  0.
          1    1    3    3  502    0 -0.41927095441E+03  0.16886442266E+03 -0.77079167137E+02  0.45852428993E+03  0.00000000000E+00 0. -1.
         -2    1    3    3    0  502 -0.10380077106E+04  0.51850484320E+03 -0.28632508617E+03  0.11951105952E+04  0.00000000000E+00 0.  1.
         11    1    5    5    0    0  0.11537419536E+02  0.41672085423E+01 -0.35982227581E+01  0.12783774231E+02  0.00000000000E+00 0. -1.
        -11    1    5    5    0    0  0.43385126947E+03 -0.39611967306E+03 -0.34283253633E+03  0.68019987311E+03  0.00000000000E+00 0.  1.
          3    1    6    6  503    0  0.87578880572E+02 -0.53609772384E+02  0.45161462205E+02  0.11217676090E+03  0.00000000000E+00 0. -1.
         -3    1    6    6    0  503  0.92431109547E+03 -0.24180702896E+03  0.42449364892E+03  0.10454742935E+04  0.00000000000E+00 0.  1.
<mgrwt>
<rscale>  0 0.34960290E+04</rscale>
<asrwt>0</asrwt>
<pdfrwt beam="1">  1        1 0.28803458E+00 0.34960290E+04</pdfrwt>
<pdfrwt beam="2">  1       -2 0.25108382E+00 0.34960290E+04</pdfrwt>
<totfact> 0.16518709E-01</totfact>
</mgrwt>
</event>
<event>
12    4  0.4398275E-008  0.2207651E+04  0.7818608E-02  0.8515250E-01
         -2   -1    0    0    0  501 -0.00000000000E+00  0.00000000000E+00  0.65561768968E+03  0.65561768968E+03  0.00000000000E+00 0.  1.
          1   -1    0    0  501    0  0.00000000000E+00 -0.00000000000E+00 -0.18584476219E+04  0.18584476219E+04  0.00000000000E+00 0. -1.
        -24    2    1    2    0    0  0.65521261255E+03  0.58890856825E+03 -0.79499461609E+03  0.11893487590E+04  0.80107187805E+02 0.  0.
        254    2    1    2    0    0 -0.65521261255E+03 -0.58890856825E+03 -0.40783531617E+03  0.13247165526E+04  0.90134756350E+03 0.  0.
         23    2    4    4    0    0 -0.16801557771E+02 -0.10636476380E+03 -0.49444324081E+03  0.51459208695E+03  0.93461982903E+02 0.  0.
         23    2    4    4    0    0 -0.63841105478E+03 -0.48254380445E+03  0.86607924645E+02  0.81012446565E+03  0.91561559405E+02 0.  0.
          1    1    3    3  502    0  0.33412275866E+03  0.31158865806E+03 -0.35946589522E+03  0.58132713639E+03  0.00000000000E+00 0. -1.
         -2    1    3    3    0  502  0.32108985389E+03  0.27731991020E+03 -0.43552872087E+03  0.60802162262E+03  0.00000000000E+00 0.  1.
         11    1    5    5    0    0 -0.23555005088E+02 -0.28277609981E+02 -0.33406454450E+03  0.33608567566E+03  0.00000000000E+00 0. -1.
        -11    1    5    5    0    0  0.67534473167E+01 -0.78087153821E+02 -0.16037869631E+03  0.17850641129E+03  0.00000000000E+00 0.  1.
          2    1    6    6  503    0 -0.60090982367E+03 -0.42392562105E+03  0.87101719706E+02  0.74053511594E+03  0.00000000000E+00 0. -1.
         -2    1    6    6    0  503 -0.37501231106E+02 -0.58618183396E+02 -0.49379506095E+00  0.69589349708E+02  0.00000000000E+00 0.  1.
<mgrwt>
<rscale>  0 0.22076514E+04</rscale>
<asrwt>0</asrwt>
<pdfrwt beam="1">  1        1 0.28591502E+00 0.22076514E+04</pdfrwt>
<pdfrwt beam="2">  1       -2 0.10086426E+00 0.22076514E+04</pdfrwt>
<totfact> 0.24077430E+00</totfact>
</mgrwt>
</event>
<event>
12    4  0.4398275E-008  0.2303668E+04  0.7818608E-02  0.8476476E-01
          1   -1    0    0  501    0  0.00000000000E+00  0.00000000000E+00  0.48510578245E+03  0.48510578245E+03  0.00000000000E+00 0. -1.
         -2   -1    0    0    0  501 -0.00000000000E+00 -0.00000000000E+00 -0.27349109251E+04  0.27349109251E+04  0.00000000000E+00 0.  1.
        -24    2    1    2    0    0 -0.95503287847E+03  0.78444016908E+02 -0.11855044183E+04  0.15264449602E+04  0.79826235593E+02 0.  0.
        254    2    1    2    0    0  0.95503287847E+03 -0.78444016908E+02 -0.10643007243E+04  0.16935717474E+04  0.90399555798E+03 0.  0.
         23    2    4    4    0    0 -0.11108646999E+03 -0.72714092812E+02 -0.40689706205E+03  0.43769654627E+03  0.91572399804E+02 0.  0.
         23    2    4    4    0    0  0.10661193485E+04 -0.57299240958E+01 -0.65740366229E+03  0.12558752011E+04  0.91649595222E+02 0.  0.
          3    1    3    3  502    0 -0.92692531248E+03  0.83750441312E+02 -0.11294167327E+04  0.14634844814E+04  0.00000000000E+00 0. -1.
         -4    1    3    3    0  502 -0.28107565995E+02 -0.53064244048E+01 -0.56087685593E+02  0.62960478725E+02  0.00000000000E+00 0.  1.
         11    1    5    5    0    0  0.34166245789E+01 -0.30994390212E+01  0.36185945509E+01  0.58629405833E+01  0.00000000000E+00 0. -1.
        -11    1    5    5    0    0 -0.11450309457E+03 -0.69614653791E+02 -0.41051565660E+03  0.43183360569E+03  0.00000000000E+00 0.  1.
          1    1    6    6  503    0  0.37993770416E+03  0.19796670686E+02 -0.27960494299E+03  0.47214774315E+03  0.00000000000E+00 0. -1.
         -1    1    6    6    0  503  0.68618164430E+03 -0.25526594782E+02 -0.37779871929E+03  0.78372745793E+03  0.00000000000E+00 0.  1.
<mgrwt>
<rscale>  0 0.23036676E+04</rscale>
<asrwt>0</asrwt>
<pdfrwt beam="1">  1        1 0.74631660E-01 0.23036676E+04</pdfrwt>
<pdfrwt beam="2">  1       -2 0.42075552E+00 0.23036676E+04</pdfrwt>
<totfact> 0.19837690E-01</totfact>
</mgrwt>
</event>
<event>
12    4  0.4398275E-008  0.2916253E+04  0.7818608E-02  0.8268058E-01
         -2   -1    0    0    0  501 -0.00000000000E+00  0.00000000000E+00  0.26900447248E+04  0.26900447248E+04  0.00000000000E+00 0.  1.
          3   -1    0    0  501    0  0.00000000000E+00 -0.00000000000E+00 -0.79037103819E+03  0.79037103819E+03  0.00000000000E+00 0. -1.
        -24    2    1    2    0    0  0.32486420236E+03 -0.38226435670E+03 -0.59545377470E+03  0.78313744807E+03  0.84120606155E+02 0.  0.
        254    2    1    2    0    0 -0.32486420236E+03  0.38226435670E+03  0.24951274613E+04  0.26972783149E+04  0.89330088524E+03 0.  0.
         23    2    4    4    0    0  0.10240338036E+03  0.48415680003E+03  0.81155553735E+03  0.95490327083E+03  0.91233804707E+02 0.  0.
         23    2    4    4    0    0 -0.42726758273E+03 -0.10189244333E+03  0.16835719240E+04  0.17423750441E+04  0.92286043621E+02 0.  0.
          1    1    3    3  502    0  0.98155205945E+02 -0.16978953904E+03 -0.26323987912E+03  0.32826538956E+03  0.00000000000E+00 0. -1.
         -2    1    3    3    0  502  0.22670899642E+03 -0.21247481766E+03 -0.33221389558E+03  0.45487205851E+03  0.00000000000E+00 0.  1.
         11    1    5    5    0    0  0.72461368799E+02  0.45713500777E+03  0.74349857438E+03  0.87579289527E+03  0.00000000000E+00 0.  1.
        -11    1    5    5    0    0  0.29942011566E+02  0.27021792260E+02  0.68056962965E+02  0.79110375562E+02  0.00000000000E+00 0. -1.
          2    1    6    6  503    0 -0.38987493832E+03 -0.11469701492E+03  0.15825120415E+04  0.16338611429E+04  0.00000000000E+00 0.  1.
         -2    1    6    6    0  503 -0.37392644404E+02  0.12804571596E+02  0.10105988250E+03  0.10851390123E+03  0.00000000000E+00 0. -1.
<mgrwt>
<rscale>  0 0.29162534E+04</rscale>
<asrwt>0</asrwt>
<pdfrwt beam="1">  1        3 0.12159555E+00 0.29162534E+04</pdfrwt>
<pdfrwt beam="2">  1       -2 0.41385303E+00 0.29162534E+04</pdfrwt>
<totfact> 0.11867920E-02</totfact>
</mgrwt>
</event>
<event>
12    4  0.4398275E-008  0.1705175E+04  0.7818608E-02  0.8758418E-01
          1   -1    0    0  501    0  0.00000000000E+00  0.00000000000E+00  0.38738233540E+03  0.38738233540E+03  0.00000000000E+00 0. -1.
         -2   -1    0    0    0  501 -0.00000000000E+00 -0.00000000000E+00 -0.18764550753E+04  0.18764550753E+04  0.00000000000E+00 0.  1.
        -24    2    1    2    0    0 -0.54512872189E+03  0.20889863598E+03 -0.32025000267E+03  0.67060307464E+03  0.79652093231E+02 0.  0.
        254    2    1    2    0    0  0.54512872189E+03 -0.20889863598E+03 -0.11688227372E+04  0.15932343360E+04  0.91183611191E+03 0.  0.
         23    2    4    4    0    0  0.25446921112E+03 -0.39336185840E+03 -0.11399397540E+04  0.12358067470E+04  0.90926024359E+02 0.  0.
         23    2    4    4    0    0  0.29065951078E+03  0.18446322242E+03 -0.28882983149E+02  0.35742758908E+03  0.91709449315E+02 0.  0.
          3    1    3    3  502    0 -0.50760990428E+03  0.17843896805E+03 -0.31076054324E+03  0.62135367986E+03  0.00000000000E+00 0. -1.
         -4    1    3    3    0  502 -0.37518817610E+02  0.30459667939E+02 -0.94894594362E+01  0.49249394780E+02  0.00000000000E+00 0.  1.
         11    1    5    5    0    0  0.26999670320E+02 -0.31540195616E+02 -0.18483273020E+03  0.18943839180E+03  0.00000000000E+00 0. -1.
        -11    1    5    5    0    0  0.22746954080E+03 -0.36182166278E+03 -0.95510702385E+03  0.10463683552E+04  0.00000000000E+00 0.  1.
          2    1    6    6  503    0  0.12283977932E+02  0.41547441522E+02 -0.24398129303E+01  0.43393993800E+02  0.00000000000E+00 0. -1.
         -2    1    6    6    0  503  0.27837553284E+03  0.14291578089E+03 -0.26443170219E+02  0.31403359528E+03  0.00000000000E+00 0.  1.
<mgrwt>
<rscale>  0 0.17051751E+04</rscale>
<asrwt>0</asrwt>
<pdfrwt beam="1">  1        1 0.59597282E-01 0.17051751E+04</pdfrwt>
<pdfrwt beam="2">  1       -2 0.28868540E+00 0.17051751E+04</pdfrwt>
<totfact> 0.19442399E+00</totfact>
</mgrwt>
</event>
<event>
12    4  0.4398275E-008  0.1733355E+04  0.7818608E-02  0.8742566E-01
          1   -1    0    0  501    0  0.00000000000E+00  0.00000000000E+00  0.87142589003E+03  0.87142589003E+03  0.00000000000E+00 0. -1.
         -2   -1    0    0    0  501 -0.00000000000E+00 -0.00000000000E+00 -0.86195499069E+03  0.86195499069E+03  0.00000000000E+00 0.  1.
        -24    2    1    2    0    0  0.20934104299E+01  0.14298734942E+03 -0.62245253250E+03  0.64369435092E+03  0.80283857183E+02 0.  0.
        254    2    1    2    0    0 -0.20934104299E+01 -0.14298734942E+03  0.63192343184E+03  0.10896865298E+04  0.87615052648E+03 0.  0.
         23    2    4    4    0    0 -0.40741555452E+03 -0.20785584289E+03  0.33635337295E+03  0.57511949107E+03  0.91855059865E+02 0.  0.
         23    2    4    4    0    0  0.40532214409E+03  0.64868493465E+02  0.29557005889E+03  0.51456703873E+03  0.94464891374E+02 0.  0.
          1    1    3    3  502    0 -0.20029598822E+01 -0.34201187074E+01 -0.12661823297E+03  0.12668025095E+03  0.00000000000E+00 0. -1.
         -2    1    3    3    0  502  0.40963703121E+01  0.14640746813E+03 -0.49583429953E+03  0.51701409997E+03  0.00000000000E+00 0.  1.
         11    1    5    5    0    0 -0.10250109020E+03 -0.28324824861E+02  0.40167679735E+02  0.11367590638E+03  0.00000000000E+00 0. -1.
        -11    1    5    5    0    0 -0.30491446432E+03 -0.17953101803E+03  0.29618569321E+03  0.46144358469E+03  0.00000000000E+00 0.  1.
          4    1    6    6  503    0  0.38518051127E+03  0.37185591579E+02  0.27097553290E+03  0.47241352004E+03  0.00000000000E+00 0.  1.
         -4    1    6    6    0  503  0.20141632815E+02  0.27682901886E+02  0.24594525996E+02  0.42153518694E+02  0.00000000000E+00 0. -1.
<mgrwt>
<rscale>  0 0.17333550E+04</rscale>
<asrwt>0</asrwt>
<pdfrwt beam="1">  1        1 0.13406552E+00 0.17333550E+04</pdfrwt>
<pdfrwt beam="2">  1       -2 0.13260846E+00 0.17333550E+04</pdfrwt>
<totfact> 0.65963315E+00</totfact>
</mgrwt>
</event>
<event>
12    4  0.4398275E-008  0.1844390E+04  0.7818608E-02  0.8683043E-01
          1   -1    0    0  501    0  0.00000000000E+00  0.00000000000E+00  0.10964258210E+04  0.10964258210E+04  0.00000000000E+00 0. -1.
         -2   -1    0    0    0  501 -0.00000000000E+00 -0.00000000000E+00 -0.77565055611E+03  0.77565055611E+03  0.00000000000E+00 0.  1.
        -24    2    1    2    0    0  0.23450147690E+03  0.59508838061E+03 -0.16202786069E+03  0.66446559214E+03  0.78360526378E+02 0.  0.
        254    2    1    2    0    0 -0.23450147690E+03 -0.59508838061E+03  0.48280312557E+03  0.12076107850E+04  0.90338465037E+03 0.  0.
         23    2    4    4    0    0  0.12319739338E+02  0.22461581077E+03  0.68568577941E+02  0.25319806755E+03  0.93827357961E+02 0.  0.
         23    2    4    4    0    0 -0.24682121623E+03 -0.81970419138E+03  0.41423454763E+03  0.95441271743E+03  0.80484163568E+02 0.  0.
          1    1    3    3  502    0  0.53989356636E+02  0.99023130564E+02 -0.56452247126E+02  0.12612409453E+03  0.00000000000E+00 0. -1.
         -4    1    3    3    0  502  0.18051212026E+03  0.49606525004E+03 -0.10557561356E+03  0.53834149760E+03  0.00000000000E+00 0.  1.
         11    1    5    5    0    0 -0.38396862345E+02  0.11539165402E+03  0.19524823281E+02  0.12316968612E+03  0.00000000000E+00 0. -1.
        -11    1    5    5    0    0  0.50716601683E+02  0.10922415675E+03  0.49043754660E+02  0.13002838143E+03  0.00000000000E+00 0.  1.
          3    1    6    6  503    0 -0.16108667143E+02 -0.22220616987E+02  0.26478306840E+02  0.38135884800E+02  0.00000000000E+00 0. -1.
         -3    1    6    6    0  503 -0.23071254909E+03 -0.79748357439E+03  0.38775624079E+03  0.91627683263E+03  0.00000000000E+00 0.  1.
<mgrwt>
<rscale>  0 0.18443897E+04</rscale>
<asrwt>0</asrwt>
<pdfrwt beam="1">  1        1 0.16868090E+00 0.18443897E+04</pdfrwt>
<pdfrwt beam="2">  1       -2 0.11933085E+00 0.18443897E+04</pdfrwt>
<totfact> 0.56624615E+00</totfact>
</mgrwt>
</event>
<event>
12    4  0.4398275E-008  0.3212967E+04  0.7818608E-02  0.8185401E-01
         -2   -1    0    0    0  501 -0.00000000000E+00  0.00000000000E+00  0.24256759511E+04  0.24256759511E+04  0.00000000000E+00 0.  1.
          1   -1    0    0  501    0  0.00000000000E+00 -0.00000000000E+00 -0.10639460860E+04  0.10639460860E+04  0.00000000000E+00 0. -1.
        -24    2    1    2    0    0  0.11042944722E+04  0.34433055928E+03 -0.37177438878E+03  0.12183765798E+04  0.90528882649E+02 0.  0.
        254    2    1    2    0    0 -0.11042944722E+04 -0.34433055928E+03  0.17335042538E+04  0.22712454573E+04  0.90304435864E+03 0.  0.
         23    2    4    4    0    0 -0.55090389716E+03  0.28241437062E+03  0.77115241572E+03  0.99315027442E+03  0.91752049916E+02 0.  0.
         23    2    4    4    0    0 -0.55339057508E+03 -0.62674492990E+03  0.96235183809E+03  0.12780951828E+04  0.91410614216E+02 0.  0.
          1    1    3    3  502    0  0.64893115062E+03  0.18874592895E+03 -0.17214831143E+03  0.69740354535E+03  0.00000000000E+00 0. -1.
         -4    1    3    3    0  502  0.45536332163E+03  0.15558463034E+03 -0.19962607735E+03  0.52097303446E+03  0.00000000000E+00 0.  1.
         11    1    5    5    0    0 -0.56909348003E+01 -0.65590528645E+01  0.88052288754E+01  0.12366890027E+02  0.00000000000E+00 0. -1.
        -11    1    5    5    0    0 -0.54521296236E+03  0.28897342348E+03  0.76234718685E+03  0.98078338439E+03  0.00000000000E+00 0.  1.
          1    1    6    6  503    0 -0.46184531497E+03 -0.52312486966E+03  0.85125459164E+03  0.11007248085E+04  0.00000000000E+00 0. -1.
         -1    1    6    6    0  503 -0.91545260118E+02 -0.10362006024E+03  0.11109724645E+03  0.17737037436E+03  0.00000000000E+00 0.  1.
<mgrwt>
<rscale>  0 0.32129665E+04</rscale>
<asrwt>0</asrwt>
<pdfrwt beam="1">  1        1 0.16368401E+00 0.32129665E+04</pdfrwt>
<pdfrwt beam="2">  1       -2 0.37318091E+00 0.32129665E+04</pdfrwt>
<totfact> 0.10964284E-01</totfact>
</mgrwt>
</event>
<event>
12    4  0.4398275E-008  0.1749017E+04  0.7818608E-02  0.8733892E-01
         -2   -1    0    0    0  501 -0.00000000000E+00  0.00000000000E+00  0.25275485209E+03  0.25275485209E+03  0.00000000000E+00 0.  1.
          1   -1    0    0  501    0  0.00000000000E+00 -0.00000000000E+00 -0.30257192074E+04  0.30257192074E+04  0.00000000000E+00 0. -1.
        -24    2    1    2    0    0  0.36534895242E+03  0.50928223408E+03 -0.15138031593E+04  0.16404124283E+04  0.80651588671E+02 0.  0.
        254    2    1    2    0    0 -0.36534895242E+03 -0.50928223408E+03 -0.12591611960E+04  0.16380616312E+04  0.83958962542E+03 0.  0.
         23    2    4    4    0    0  0.12623444114E+03 -0.45800365840E+03 -0.34387087884E+03  0.59368644054E+03  0.92270922488E+02 0.  0.
         23    2    4    4    0    0 -0.49158339356E+03 -0.51278575689E+02 -0.91529031716E+03  0.10443751907E+04  0.93163560650E+02 0.  0.
          1    1    3    3  502    0  0.33723730823E+03  0.45303174726E+03 -0.12959848597E+04  0.14136985261E+04  0.00000000000E+00 0. -1.
         -2    1    3    3    0  502  0.28111644193E+02  0.56250486821E+02 -0.21781829957E+03  0.22671390216E+03  0.00000000000E+00 0.  1.
         11    1    5    5    0    0  0.11946244969E+03 -0.44114151730E+03 -0.30133087372E+03  0.54742799584E+03  0.00000000000E+00 0.  1.
        -11    1    5    5    0    0  0.67719914450E+01 -0.16862141095E+02 -0.42540005127E+02  0.46258444706E+02  0.00000000000E+00 0. -1.
          4    1    6    6  503    0 -0.19031665948E+03  0.24644537542E+02 -0.36890451696E+03  0.41583449440E+03  0.00000000000E+00 0.  1.
         -4    1    6    6    0  503 -0.30126673408E+03 -0.75923113231E+02 -0.54638580021E+03  0.62854069626E+03  0.00000000000E+00 0. -1.
<mgrwt>
<rscale>  0 0.17490171E+04</rscale>
<asrwt>0</asrwt>
<pdfrwt beam="1">  1        1 0.46549525E+00 0.17490171E+04</pdfrwt>
<pdfrwt beam="2">  1       -2 0.38885363E-01 0.17490171E+04</pdfrwt>
<totfact> 0.29891205E+00</totfact>
</mgrwt>
</event>
<event>
12    4  0.4398275E-008  0.2349173E+04  0.7818608E-02  0.8458782E-01
          1   -1    0    0  501    0  0.00000000000E+00  0.00000000000E+00  0.10926647239E+04  0.10926647239E+04  0.00000000000E+00 0. -1.
         -2   -1    0    0    0  501 -0.00000000000E+00 -0.00000000000E+00 -0.12626497856E+04  0.12626497856E+04  0.00000000000E+00 0.  1.
        -24    2    1    2    0    0 -0.63872309759E+03 -0.67211197394E+03 -0.45913770762E+03  0.10378077669E+04  0.80844453311E+02 0.  0.
        254    2    1    2    0    0  0.63872309759E+03  0.67211197394E+03  0.28915264591E+03  0.13175067426E+04  0.89023202769E+03 0.  0.
         23    2    4    4    0    0  0.40568093161E+03 -0.92354512499E+02 -0.78822151430E+02  0.43300242844E+03  0.90397993461E+02 0.  0.
         23    2    4    4    0    0  0.23304216598E+03  0.76446648644E+03  0.36797479734E+03  0.88450431412E+03  0.90690518794E+02 0.  0.
          3    1    3    3  502    0 -0.39970365750E+03 -0.45170199240E+03 -0.33373043631E+03  0.68932844702E+03  0.00000000000E+00 0. -1.
         -4    1    3    3    0  502 -0.23901944010E+03 -0.22040998155E+03 -0.12540727130E+03  0.34847931991E+03  0.00000000000E+00 0.  1.
         11    1    5    5    0    0  0.16502365528E+03 -0.47019513160E+02  0.11524560438E+02  0.17197807102E+03  0.00000000000E+00 0.  1.
        -11    1    5    5    0    0  0.24065727634E+03 -0.45334999339E+02 -0.90346711868E+02  0.26102435742E+03  0.00000000000E+00 0. -1.
          4    1    6    6  503    0  0.14764057152E+03  0.58594565680E+03  0.30471141909E+03  0.67674153116E+03  0.00000000000E+00 0. -1.
         -4    1    6    6    0  503  0.85401594462E+02  0.17852082965E+03  0.63263378253E+02  0.20776278296E+03  0.00000000000E+00 0.  1.
<mgrwt>
<rscale>  0 0.23491725E+04</rscale>
<asrwt>0</asrwt>
<pdfrwt beam="1">  1        1 0.16810227E+00 0.23491725E+04</pdfrwt>
<pdfrwt beam="2">  1       -2 0.19425381E+00 0.23491725E+04</pdfrwt>
<totfact> 0.14715650E+00</totfact>
</mgrwt>
</event>
<event>
12    4  0.4398275E-008  0.1385211E+04  0.7818608E-02  0.8964594E-01
          1   -1    0    0  501    0  0.00000000000E+00  0.00000000000E+00  0.12588823258E+04  0.12588823258E+04  0.00000000000E+00 0. -1.
         -2   -1    0    0    0  501 -0.00000000000E+00 -0.00000000000E+00 -0.38105414406E+03  0.38105414406E+03  0.00000000000E+00 0.  1.
        -24    2    1    2    0    0 -0.30971071097E+03  0.23333794643E+03  0.17547959282E+03  0.43353922776E+03  0.82436962429E+02 0.  0.
        254    2    1    2    0    0  0.30971071097E+03 -0.23333794643E+03  0.70234858896E+03  0.12063972422E+04  0.90096250961E+03 0.  0.
         23    2    4    4    0    0 -0.11157277576E+03  0.25898392970E+03  0.88035171671E+02  0.30878531887E+03  0.89872251377E+02 0.  0.
         23    2    4    4    0    0  0.42128348673E+03 -0.49232187613E+03  0.61431341729E+03  0.89761192328E+03  0.92008609626E+02 0.  0.
          1    1    3    3  502    0 -0.25389654019E+02  0.17808731819E+02 -0.84453995648E+01  0.32142032201E+02  0.00000000000E+00 0. -1.
         -2    1    3    3    0  502 -0.28432105695E+03  0.21552921461E+03  0.18392499239E+03  0.40139719556E+03  0.00000000000E+00 0.  1.
         11    1    5    5    0    0  0.21524440261E+01  0.17909984440E+02 -0.14548559086E+02  0.23174579380E+02  0.00000000000E+00 0.  1.
        -11    1    5    5    0    0 -0.11372521979E+03  0.24107394526E+03  0.10258373076E+03  0.28561073949E+03  0.00000000000E+00 0. -1.
          4    1    6    6  503    0  0.36855312691E+03 -0.46200536100E+03  0.57859920740E+03  0.82707762861E+03  0.00000000000E+00 0. -1.
         -4    1    6    6    0  503  0.52730359816E+02 -0.30316515127E+02  0.35714209892E+02  0.70534294666E+02  0.00000000000E+00 0.  1.
<mgrwt>
<rscale>  0 0.13852109E+04</rscale>
<asrwt>0</asrwt>
<pdfrwt beam="1">  1        1 0.19367420E+00 0.13852109E+04</pdfrwt>
<pdfrwt beam="2">  1       -2 0.58623715E-01 0.13852109E+04</pdfrwt>
<totfact> 0.22550390E+01</totfact>
</mgrwt>
</event>
<event>
12    4  0.4398275E-008  0.1579543E+04  0.7818608E-02  0.8833215E-01
         -2   -1    0    0    0  501 -0.00000000000E+00  0.00000000000E+00  0.62360048539E+03  0.62360048539E+03  0.00000000000E+00 0.  1.
          1   -1    0    0  501    0  0.00000000000E+00 -0.00000000000E+00 -0.10002215413E+04  0.10002215413E+04  0.00000000000E+00 0. -1.
        -24    2    1    2    0    0 -0.21019151449E+03 -0.45320852065E+03  0.58650050020E+02  0.50950845764E+03  0.81120922589E+02 0.  0.
        254    2    1    2    0    0  0.21019151449E+03  0.45320852065E+03 -0.43527110597E+03  0.11143135691E+04  0.89591035189E+03 0.  0.
         23    2    4    4    0    0 -0.27063875841E+03  0.37065938759E+03 -0.40066229607E+03  0.61568585550E+03  0.88910505643E+02 0.  0.
         23    2    4    4    0    0  0.48083027290E+03  0.82549133067E+02 -0.34608809900E+02  0.49862771359E+03  0.97055223082E+02 0.  0.
          3    1    3    3  502    0 -0.76095338286E+02 -0.18678703659E+03  0.62706611277E+02  0.21121556913E+03  0.00000000000E+00 0. -1.
         -4    1    3    3    0  502 -0.13409617621E+03 -0.26642148407E+03 -0.40565612568E+01  0.29829288851E+03  0.00000000000E+00 0.  1.
         11    1    5    5    0    0 -0.75895244667E+02  0.53076732828E+02 -0.56381712473E+02  0.10842566685E+03  0.00000000000E+00 0.  1.
        -11    1    5    5    0    0 -0.19474351375E+03  0.31758265476E+03 -0.34428058359E+03  0.50726018865E+03  0.00000000000E+00 0. -1.
          2    1    6    6  503    0  0.75012147828E+02 -0.19774801130E+02 -0.18745949521E+02  0.79807742136E+02  0.00000000000E+00 0.  1.
         -2    1    6    6    0  503  0.40581812508E+03  0.10232393420E+03 -0.15862860380E+02  0.41881997146E+03  0.00000000000E+00 0. -1.
<mgrwt>
<rscale>  0 0.15795425E+04</rscale>
<asrwt>0</asrwt>
<pdfrwt beam="1">  1        1 0.15388024E+00 0.15795425E+04</pdfrwt>
<pdfrwt beam="2">  1       -2 0.95938537E-01 0.15795425E+04</pdfrwt>
<totfact> 0.11607508E+01</totfact>
</mgrwt>
</event>
<event>
12    4  0.4398275E-008  0.1341232E+04  0.7818608E-02  0.8997492E-01
         -4   -1    0    0    0  501 -0.00000000000E+00  0.00000000000E+00  0.52897017790E+03  0.52897017790E+03  0.00000000000E+00 0.  1.
          3   -1    0    0  501    0  0.00000000000E+00 -0.00000000000E+00 -0.85019099251E+03  0.85019099251E+03  0.00000000000E+00 0. -1.
        -24    2    1    2    0    0 -0.17671540018E+03 -0.26564312238E+03 -0.24834085449E+03  0.41191435418E+03  0.78775973800E+02 0.  0.
        254    2    1    2    0    0  0.17671540018E+03  0.26564312238E+03 -0.72879960118E+02  0.96724681623E+03  0.91019795308E+03 0.  0.
         23    2    4    4    0    0 -0.15005798405E+03 -0.27402295439E+03 -0.15711469142E+02  0.32682146635E+03  0.94654331625E+02 0.  0.
         23    2    4    4    0    0  0.32677338423E+03  0.53966607676E+03 -0.57168490976E+02  0.64042534988E+03  0.94106712649E+02 0.  0.
          3    1    3    3  502    0 -0.14113486743E+03 -0.24258637475E+03 -0.23869612514E+03  0.36843322350E+03  0.00000000000E+00 0. -1.
         -4    1    3    3    0  502 -0.35580532747E+02 -0.23056747621E+02 -0.96447293526E+01  0.43481130686E+02  0.00000000000E+00 0.  1.
         11    1    5    5    0    0 -0.61736989469E+02 -0.19638522684E+03  0.11282221717E+02  0.20616959455E+03  0.00000000000E+00 0. -1.
        -11    1    5    5    0    0 -0.88320994582E+02 -0.77637727547E+02 -0.26993690859E+02  0.12065187180E+03  0.00000000000E+00 0.  1.
          4    1    6    6  503    0  0.18921216517E+02  0.29860177734E+01 -0.21983043621E+01  0.19281111967E+02  0.00000000000E+00 0.  1.
         -4    1    6    6    0  503  0.30785216771E+03  0.53668005899E+03 -0.54970186614E+02  0.62114423792E+03  0.00000000000E+00 0. -1.
<mgrwt>
<rscale>  0 0.13412318E+04</rscale>
<asrwt>0</asrwt>
<pdfrwt beam="1">  1        3 0.13079861E+00 0.13412318E+04</pdfrwt>
<pdfrwt beam="2">  1       -4 0.81380028E-01 0.13412318E+04</pdfrwt>
<totfact> 0.13681904E+00</totfact>
</mgrwt>
</event>
<event>
12    4  0.4398275E-008  0.1866682E+04  0.7818608E-02  0.8671621E-01
          1   -1    0    0  501    0  0.00000000000E+00  0.00000000000E+00  0.28988249481E+04  0.28988249481E+04  0.00000000000E+00 0. -1.
         -2   -1    0    0    0  501 -0.00000000000E+00 -0.00000000000E+00 -0.30050981423E+03  0.30050981423E+03  0.00000000000E+00 0.  1.
        -24    2    1    2    0    0 -0.24897308021E+03  0.26332113423E+03 -0.65004770778E+02  0.37669151561E+03  0.79657161048E+02 0.  0.
        254    2    1    2    0    0  0.24897308021E+03 -0.26332113423E+03  0.26633199047E+04  0.28226432468E+04  0.86180993807E+03 0.  0.
         23    2    4    4    0    0 -0.20884726762E+03  0.15448374373E+03  0.11934793940E+04  0.12249403788E+04  0.92754835725E+02 0.  0.
         23    2    4    4    0    0  0.45782034783E+03 -0.41780487796E+03  0.14698405107E+04  0.15977028680E+04  0.89793876995E+02 0.  0.
          3    1    3    3  502    0 -0.63645428902E+02  0.32395150136E+02 -0.33628949841E+02  0.78937270284E+02  0.00000000000E+00 0. -1.
         -4    1    3    3    0  502 -0.18532765131E+03  0.23092598410E+03 -0.31375820936E+02  0.29775424533E+03  0.00000000000E+00 0.  1.
         11    1    5    5    0    0 -0.92451074541E+02  0.63397634465E+02  0.32052845630E+03  0.33956582946E+03  0.00000000000E+00 0.  1.
        -11    1    5    5    0    0 -0.11639619308E+03  0.91086109265E+02  0.87295093766E+03  0.88537454935E+03  0.00000000000E+00 0. -1.
          1    1    6    6  503    0  0.20148517136E+03 -0.16337971136E+03  0.51038554024E+03  0.57252301617E+03  0.00000000000E+00 0. -1.
         -1    1    6    6    0  503  0.25633517647E+03 -0.25442516660E+03  0.95945497049E+03  0.10251798518E+04  0.00000000000E+00 0.  1.
<mgrwt>
<rscale>  0 0.18666819E+04</rscale>
<asrwt>0</asrwt>
<pdfrwt beam="1">  1        1 0.44597305E+00 0.18666819E+04</pdfrwt>
<pdfrwt beam="2">  1       -2 0.46232281E-01 0.18666819E+04</pdfrwt>
<totfact> 0.25936742E+00</totfact>
</mgrwt>
</event>
<event>
12    4  0.4398275E-008  0.1299536E+04  0.7818608E-02  0.9029933E-01
          1   -1    0    0  501    0  0.00000000000E+00  0.00000000000E+00  0.12856594975E+04  0.12856594975E+04  0.00000000000E+00 0. -1.
         -2   -1    0    0    0  501 -0.00000000000E+00 -0.00000000000E+00 -0.32839074708E+03  0.32839074708E+03  0.00000000000E+00 0.  1.
        -24    2    1    2    0    0 -0.21029444052E+03  0.37598235460E+02 -0.84495135807E+02  0.24268499617E+03  0.78225317959E+02 0.  0.
        254    2    1    2    0    0  0.21029444052E+03 -0.37598235460E+02  0.10417638862E+04  0.13713652484E+04  0.86587139395E+03 0.  0.
         23    2    4    4    0    0 -0.73052155966E+01 -0.38744674532E+02  0.11187118548E+04  0.11230201030E+04  0.90019006301E+02 0.  0.
         23    2    4    4    0    0  0.21759965611E+03  0.11464390716E+01 -0.76947968610E+02  0.24834514546E+03  0.91670042732E+02 0.  0.
          1    1    3    3  502    0 -0.10443438769E+03  0.22359554934E+02 -0.67831629670E+00  0.10680332926E+03  0.00000000000E+00 0. -1.
         -4    1    3    3    0  502 -0.10586005283E+03  0.15238680527E+02 -0.83816819510E+02  0.13588166691E+03  0.00000000000E+00 0.  1.
         11    1    5    5    0    0 -0.44129836509E+02 -0.46965961986E+01  0.37452177114E+03  0.37714195940E+03  0.00000000000E+00 0.  1.
        -11    1    5    5    0    0  0.36824620912E+02 -0.34048078333E+02  0.74419008370E+03  0.74587814355E+03  0.00000000000E+00 0. -1.
          3    1    6    6  503    0  0.37773906436E+02  0.34957422598E+02 -0.29476677360E+02  0.59310740261E+02  0.00000000000E+00 0. -1.
         -3    1    6    6    0  503  0.17982574968E+03 -0.33810983526E+02 -0.47471291251E+02  0.18903440520E+03  0.00000000000E+00 0.  1.
<mgrwt>
<rscale>  0 0.12995364E+04</rscale>
<asrwt>0</asrwt>
<pdfrwt beam="1">  1        1 0.19779377E+00 0.12995364E+04</pdfrwt>
<pdfrwt beam="2">  1       -2 0.50521654E-01 0.12995364E+04</pdfrwt>
<totfact> 0.29571795E+01</totfact>
</mgrwt>
</event>
<event>
12    4  0.4398275E-008  0.2284828E+04  0.7818608E-02  0.8483927E-01
         -2   -1    0    0    0  501 -0.00000000000E+00  0.00000000000E+00  0.49690385723E+03  0.49690385723E+03  0.00000000000E+00 0.  1.
          1   -1    0    0  501    0  0.00000000000E+00 -0.00000000000E+00 -0.26264845198E+04  0.26264845198E+04  0.00000000000E+00 0. -1.
        -24    2    1    2    0    0  0.37632067171E+03 -0.66392066318E+03 -0.17033680279E+04  0.18681707513E+04  0.78685592518E+02 0.  0.
        254    2    1    2    0    0 -0.37632067171E+03  0.66392066318E+03 -0.42621263468E+03  0.12552176258E+04  0.90083637978E+03 0.  0.
         23    2    4    4    0    0 -0.14659750091E+03 -0.19312312191E+03 -0.21949417714E+03  0.33966774080E+03  0.91701215117E+02 0.  0.
         23    2    4    4    0    0 -0.22972317080E+03  0.85704378509E+03 -0.20671845755E+03  0.91554988497E+03  0.90566475193E+02 0.  0.
          1    1    3    3  502    0  0.19519574358E+03 -0.34498729629E+03 -0.98010239123E+03  0.10572219777E+04  0.00000000000E+00 0. -1.
         -2    1    3    3    0  502  0.18112492813E+03 -0.31893336689E+03 -0.72326563666E+03  0.81094877352E+03  0.00000000000E+00 0.  1.
         11    1    5    5    0    0 -0.26870646412E+02  0.11042932387E+01 -0.45014396046E+02  0.52436122602E+02  0.00000000000E+00 0. -1.
        -11    1    5    5    0    0 -0.11972685450E+03 -0.19422741515E+03 -0.17447978109E+03  0.28723161820E+03  0.00000000000E+00 0.  1.
          1    1    6    6  503    0 -0.18945591958E+03  0.54531270518E+03 -0.12247486578E+03  0.59013522573E+03  0.00000000000E+00 0. -1.
         -1    1    6    6    0  503 -0.40267251221E+02  0.31173107991E+03 -0.84243591762E+02  0.32541465925E+03  0.00000000000E+00 0.  1.
<mgrwt>
<rscale>  0 0.22848285E+04</rscale>
<asrwt>0</asrwt>
<pdfrwt beam="1">  1        1 0.40407455E+00 0.22848285E+04</pdfrwt>
<pdfrwt beam="2">  1       -2 0.76446746E-01 0.22848285E+04</pdfrwt>
<totfact> 0.13459287E+00</totfact>
</mgrwt>
</event>
<event>
12    4  0.4398275E-008  0.3364480E+04  0.7818608E-02  0.8146680E-01
         -2   -1    0    0    0  501 -0.00000000000E+00  0.00000000000E+00  0.16838527841E+04  0.16838527841E+04  0.00000000000E+00 0.  1.
          1   -1    0    0  501    0  0.00000000000E+00 -0.00000000000E+00 -0.16806284403E+04  0.16806284403E+04  0.00000000000E+00 0. -1.
        -24    2    1    2    0    0 -0.55287609493E+03 -0.10461567435E+04  0.10165624957E+04  0.15619557646E+04  0.78680332538E+02 0.  0.
        254    2    1    2    0    0  0.55287609493E+03  0.10461567435E+04 -0.10133381519E+04  0.18025254598E+04  0.90671269702E+03 0.  0.
         23    2    4    4    0    0  0.58343172541E+03  0.55758051112E+03 -0.10200384092E+04  0.13039396712E+04  0.92150449957E+02 0.  0.
         23    2    4    4    0    0 -0.30555630482E+02  0.48857623237E+03  0.67002572708E+01  0.49858578859E+03  0.94353133220E+02 0.  0.
          1    1    3    3  502    0 -0.11264339466E+03 -0.27990507696E+03  0.27757662622E+03  0.40998069453E+03  0.00000000000E+00 0. -1.
         -2    1    3    3    0  502 -0.44023270026E+03 -0.76625166653E+03  0.73898586948E+03  0.11519750701E+04  0.00000000000E+00 0.  1.
         11    1    5    5    0    0  0.57120819058E+03  0.54284549440E+03 -0.10133027822E+04  0.12836442483E+04  0.00000000000E+00 0. -1.
        -11    1    5    5    0    0  0.12223534829E+02  0.14735016716E+02 -0.67356269802E+01  0.20295422936E+02  0.00000000000E+00 0.  1.
          1    1    6    6  503    0 -0.32174938494E+02  0.17436049461E+03  0.42518166046E+02  0.18233102641E+03  0.00000000000E+00 0. -1.
         -1    1    6    6    0  503  0.16193080117E+01  0.31421573776E+03 -0.35817908775E+02  0.31625476219E+03  0.00000000000E+00 0.  1.
<mgrwt>
<rscale>  0 0.33644797E+04</rscale>
<asrwt>0</asrwt>
<pdfrwt beam="1">  1        1 0.25855822E+00 0.33644797E+04</pdfrwt>
<pdfrwt beam="2">  1       -2 0.25905428E+00 0.33644797E+04</pdfrwt>
<totfact> 0.20142384E-01</totfact>
</mgrwt>
</event>
<event>
12    4  0.4398275E-008  0.1160785E+04  0.7818608E-02  0.9147891E-01
          1   -1    0    0  501    0  0.00000000000E+00  0.00000000000E+00  0.10924918552E+04  0.10924918552E+04  0.00000000000E+00 0. -1.
         -2   -1    0    0    0  501 -0.00000000000E+00 -0.00000000000E+00 -0.30833667247E+03  0.30833667247E+03  0.00000000000E+00 0.  1.
        -24    2    1    2    0    0  0.11486085379E+03  0.65452172332E+02  0.36310627562E+03  0.39269775627E+03  0.69916791898E+02 0.  0.
        254    2    1    2    0    0 -0.11486085379E+03 -0.65452172332E+02  0.42104890711E+03  0.10081307714E+04  0.90640414135E+03 0.  0.
         23    2    4    4    0    0 -0.51235419387E+02 -0.24423117959E+03  0.64758787406E+03  0.70018961210E+03  0.92852038105E+02 0.  0.
         23    2    4    4    0    0 -0.63625434404E+02  0.17877900726E+03 -0.22653896695E+03  0.30794115929E+03  0.86589402905E+02 0.  0.
          1    1    3    3  502    0  0.59221992226E+02  0.13502060951E+02  0.85741014496E+02  0.10507650346E+03  0.00000000000E+00 0. -1.
         -2    1    3    3    0  502  0.55638861565E+02  0.51950111382E+02  0.27736526113E+03  0.28762125281E+03  0.00000000000E+00 0.  1.
         11    1    5    5    0    0 -0.22863571984E+02 -0.74334951111E+01  0.10126719182E+03  0.10408190963E+03  0.00000000000E+00 0. -1.
        -11    1    5    5    0    0 -0.28371847403E+02 -0.23679768448E+03  0.54632068224E+03  0.59610770247E+03  0.00000000000E+00 0.  1.
          3    1    6    6  503    0 -0.41416285212E+02  0.97318377647E+02 -0.60954725368E+02  0.12207233042E+03  0.00000000000E+00 0. -1.
         -3    1    6    6    0  503 -0.22209149192E+02  0.81460629612E+02 -0.16558424159E+03  0.18586882887E+03  0.00000000000E+00 0.  1.
<mgrwt>
<rscale>  0 0.11607847E+04</rscale>
<asrwt>0</asrwt>
<pdfrwt beam="1">  1        1 0.16807567E+00 0.11607847E+04</pdfrwt>
<pdfrwt beam="2">  1       -2 0.47436412E-01 0.11607847E+04</pdfrwt>
<totfact> 0.47069779E+01</totfact>
</mgrwt>
</event>
<event>
12    4  0.4398275E-008  0.1300070E+04  0.7818608E-02  0.9029509E-01
         -2   -1    0    0    0  501 -0.00000000000E+00  0.00000000000E+00  0.38174608120E+03  0.38174608120E+03  0.00000000000E+00 0.  1.
          1   -1    0    0  501    0  0.00000000000E+00 -0.00000000000E+00 -0.11068762256E+04  0.11068762256E+04  0.00000000000E+00 0. -1.
        -24    2    1    2    0    0 -0.11446053378E+03  0.31222932594E+03 -0.14228436756E+03  0.37061164640E+03  0.80745188259E+02 0.  0.
        254    2    1    2    0    0  0.11446053378E+03 -0.31222932594E+03 -0.58284577684E+03  0.11180106604E+04  0.89423166540E+03 0.  0.
         23    2    4    4    0    0  0.49782632953E+03 -0.16245964512E+03 -0.30451156959E+03  0.61280648557E+03  0.92629920022E+02 0.  0.
         23    2    4    4    0    0 -0.38336579575E+03 -0.14976968081E+03 -0.27833420726E+03  0.50520417482E+03  0.91438704541E+02 0.  0.
          1    1    3    3  502    0 -0.32274795347E+02  0.13551027004E+03 -0.99195636070E+02  0.17101014566E+03  0.00000000000E+00 0. -1.
         -2    1    3    3    0  502 -0.82185738437E+02  0.17671905589E+03 -0.43088731491E+02  0.19960150074E+03  0.00000000000E+00 0.  1.
         11    1    5    5    0    0 -0.39801879515E+01  0.83976833352E+00 -0.19099661238E+01  0.44938933652E+01  0.00000000000E+00 0.  1.
        -11    1    5    5    0    0  0.50180651748E+03 -0.16329941346E+03 -0.30260160346E+03  0.60831259221E+03  0.00000000000E+00 0. -1.
          2    1    6    6  503    0 -0.64002693695E+02 -0.62657869085E+02 -0.45267526659E+02  0.10035687484E+03  0.00000000000E+00 0.  1.
         -2    1    6    6    0  503 -0.31936310205E+03 -0.87111811728E+02 -0.23306668060E+03  0.40484729998E+03  0.00000000000E+00 0. -1.
<mgrwt>
<rscale>  0 0.13000702E+04</rscale>
<asrwt>0</asrwt>
<pdfrwt beam="1">  1        1 0.17028865E+00 0.13000702E+04</pdfrwt>
<pdfrwt beam="2">  1       -2 0.58730167E-01 0.13000702E+04</pdfrwt>
<totfact> 0.29247842E+01</totfact>
</mgrwt>
</event>
<event>
12    4  0.4398275E-008  0.1278231E+04  0.7818608E-02  0.9047009E-01
          1   -1    0    0  501    0  0.00000000000E+00  0.00000000000E+00  0.17535736050E+04  0.17535736050E+04  0.00000000000E+00 0. -1.
         -2   -1    0    0    0  501 -0.00000000000E+00 -0.00000000000E+00 -0.23293496853E+03  0.23293496853E+03  0.00000000000E+00 0.  1.
        -24    2    1    2    0    0  0.25637122351E+03 -0.76059146278E+02  0.11095574990E+03  0.29996276555E+03  0.78455619974E+02 0.  0.
        254    2    1    2    0    0 -0.25637122351E+03  0.76059146278E+02  0.14096828865E+04  0.16865458080E+04  0.88640832789E+03 0.  0.
         23    2    4    4    0    0 -0.10711409934E+02  0.86175604269E+02  0.14186749966E+04  0.14240919412E+04  0.88646162441E+02 0.  0.
         23    2    4    4    0    0 -0.24565981358E+03 -0.10116457990E+02 -0.89921100320E+01  0.26245386672E+03  0.91378812552E+02 0.  0.
          1    1    3    3  502    0  0.23461041245E+02  0.12721664771E+02  0.24236754865E+02  0.36051095645E+02  0.00000000000E+00 0. -1.
         -2    1    3    3    0  502  0.23291018227E+03 -0.88780811050E+02  0.86718995032E+02  0.26391166991E+03  0.00000000000E+00 0.  1.
         11    1    5    5    0    0 -0.95376552072E+01  0.99876713735E+02  0.13650383071E+04  0.13687205356E+04  0.00000000000E+00 0. -1.
        -11    1    5    5    0    0 -0.11737547264E+01 -0.13701109466E+02  0.53636689485E+02  0.55371405614E+02  0.00000000000E+00 0.  1.
          3    1    6    6  503    0 -0.19747936787E+03  0.28050857743E+02  0.45498752208E+01  0.19951354019E+03  0.00000000000E+00 0. -1.
         -3    1    6    6    0  503 -0.48180445705E+02 -0.38167315734E+02 -0.13541985253E+02  0.62940326526E+02  0.00000000000E+00 0.  1.
<mgrwt>
<rscale>  0 0.12782310E+04</rscale>
<asrwt>0</asrwt>
<pdfrwt beam="1">  1        1 0.26978055E+00 0.12782310E+04</pdfrwt>
<pdfrwt beam="2">  1       -2 0.35836150E-01 0.12782310E+04</pdfrwt>
<totfact> 0.27719326E+01</totfact>
</mgrwt>
</event>
<event>
12    4  0.4398275E-008  0.2460281E+04  0.7818608E-02  0.8417274E-01
          1   -1    0    0  501    0  0.00000000000E+00  0.00000000000E+00  0.18912917852E+04  0.18912917852E+04  0.00000000000E+00 0. -1.
         -2   -1    0    0    0  501 -0.00000000000E+00 -0.00000000000E+00 -0.80011217919E+03  0.80011217919E+03  0.00000000000E+00 0.  1.
        -24    2    1    2    0    0 -0.62187821566E+03 -0.92405435862E+02 -0.46429061027E+03  0.78552732786E+03  0.78842452757E+02 0.  0.
        254    2    1    2    0    0  0.62187821566E+03  0.92405435862E+02  0.15554702163E+04  0.19058766366E+04  0.90421616899E+03 0.  0.
         23    2    4    4    0    0  0.11717295573E+03 -0.25848904139E+03  0.86052539733E+02  0.31048845502E+03  0.91934514913E+02 0.  0.
         23    2    4    4    0    0  0.50470525993E+03  0.35089447725E+03  0.14694176766E+04  0.15953881816E+04  0.90668671527E+02 0.  0.
          1    1    3    3  502    0 -0.18136097893E+03 -0.59824503436E+02 -0.16001938873E+03  0.24915252489E+03  0.00000000000E+00 0. -1.
         -2    1    3    3    0  502 -0.44051723673E+03 -0.32580932426E+02 -0.30427122154E+03  0.53637480297E+03  0.00000000000E+00 0.  1.
         11    1    5    5    0    0 -0.53473927597E+01 -0.42778758268E+01 -0.10237598656E+02  0.12316787615E+02  0.00000000000E+00 0. -1.
        -11    1    5    5    0    0  0.12252034849E+03 -0.25421116556E+03  0.96290138390E+02  0.29817166740E+03  0.00000000000E+00 0.  1.
          1    1    6    6  503    0  0.23944425712E+03  0.17911740046E+03  0.82807732114E+03  0.88041390561E+03  0.00000000000E+00 0. -1.
         -1    1    6    6    0  503  0.26526100281E+03  0.17177707679E+03  0.64134035545E+03  0.71497427594E+03  0.00000000000E+00 0.  1.
<mgrwt>
<rscale>  0 0.24602810E+04</rscale>
<asrwt>0</asrwt>
<pdfrwt beam="1">  1        1 0.29096797E+00 0.24602810E+04</pdfrwt>
<pdfrwt beam="2">  1       -2 0.12309418E+00 0.24602810E+04</pdfrwt>
<totfact> 0.13784747E+00</totfact>
</mgrwt>
</event>
<event>
12    4  0.4398275E-008  0.3172743E+04  0.7818608E-02  0.8196053E-01
          1   -1    0    0  501    0  0.00000000000E+00  0.00000000000E+00  0.17487966078E+04  0.17487966078E+04  0.00000000000E+00 0. -1.
         -2   -1    0    0    0  501 -0.00000000000E+00 -0.00000000000E+00 -0.14390323009E+04  0.14390323009E+04  0.00000000000E+00 0.  1.
        -24    2    1    2    0    0 -0.80853574682E+03  0.78880245008E+03  0.10682797007E+04  0.15568259680E+04  0.80908692338E+02 0.  0.
        254    2    1    2    0    0  0.80853574682E+03 -0.78880245008E+03 -0.75851539384E+03  0.16310029408E+04  0.89938069299E+03 0.  0.
         23    2    4    4    0    0  0.65245246683E+03 -0.40017271645E+03 -0.11431123054E+02  0.77078302136E+03  0.90240628209E+02 0.  0.
         23    2    4    4    0    0  0.15608327999E+03 -0.38862973363E+03 -0.74708427079E+03  0.86021991940E+03  0.80301568545E+02 0.  0.
          3    1    3    3  502    0 -0.75565046820E+03  0.75916251392E+03  0.99805024003E+03  0.14640490546E+04  0.00000000000E+00 0. -1.
         -4    1    3    3    0  502 -0.52885278614E+02  0.29639936163E+02  0.70229460709E+02  0.92776913407E+02  0.00000000000E+00 0.  1.
         11    1    5    5    0    0  0.71534298320E+02 -0.47519674424E+02  0.27258914516E+02  0.90101740905E+02  0.00000000000E+00 0. -1.
        -11    1    5    5    0    0  0.58091816851E+03 -0.35265304202E+03 -0.38690037570E+02  0.68068128045E+03  0.00000000000E+00 0.  1.
          2    1    6    6  503    0  0.23406319561E+02 -0.54215977273E+02 -0.57477782708E+02  0.82407059723E+02  0.00000000000E+00 0. -1.
         -2    1    6    6    0  503  0.13267696043E+03 -0.33441375636E+03 -0.68960648808E+03  0.77781285967E+03  0.00000000000E+00 0.  1.
<mgrwt>
<rscale>  0 0.31727432E+04</rscale>
<asrwt>0</asrwt>
<pdfrwt beam="1">  1        1 0.26904563E+00 0.31727432E+04</pdfrwt>
<pdfrwt beam="2">  1       -2 0.22138958E+00 0.31727432E+04</pdfrwt>
<totfact> 0.31509340E-01</totfact>
</mgrwt>
</event>
<event>
12    4  0.4398275E-008  0.1322579E+04  0.7818608E-02  0.9011849E-01
         -2   -1    0    0    0  501 -0.00000000000E+00  0.00000000000E+00  0.62239554874E+03  0.62239554874E+03  0.00000000000E+00 0.  1.
          1   -1    0    0  501    0  0.00000000000E+00 -0.00000000000E+00 -0.70261414564E+03  0.70261414564E+03  0.00000000000E+00 0. -1.
        -24    2    1    2    0    0  0.10115841960E+03  0.92731242745E+02  0.30585826643E+03  0.34450407718E+03  0.79383063771E+02 0.  0.
        254    2    1    2    0    0 -0.10115841960E+03 -0.92731242745E+02 -0.38607686332E+03  0.98050561721E+03  0.89078830916E+03 0.  0.
         23    2    4    4    0    0 -0.23500704563E+02  0.37130794110E+03 -0.32046336101E+02  0.38459107272E+03  0.91986169203E+02 0.  0.
         23    2    4    4    0    0 -0.77657715038E+02 -0.46403918384E+03 -0.35403052722E+03  0.59591454448E+03  0.91724834570E+02 0.  0.
          3    1    3    3  502    0 -0.10141508115E+02 -0.35317673848E+01  0.13972651174E+02  0.17622671436E+02  0.00000000000E+00 0. -1.
         -4    1    3    3    0  502  0.11129992772E+03  0.96263010130E+02  0.29188561525E+03  0.32688140574E+03  0.00000000000E+00 0.  1.
         11    1    5    5    0    0  0.24695908780E+02  0.20582101553E+03 -0.43632827622E+02  0.21183956664E+03  0.00000000000E+00 0. -1.
        -11    1    5    5    0    0 -0.48196613344E+02  0.16548692556E+03  0.11586491521E+02  0.17275150609E+03  0.00000000000E+00 0.  1.
          1    1    6    6  503    0 -0.39598025722E+02 -0.59599864442E+02 -0.36588164105E+02  0.80366916298E+02  0.00000000000E+00 0. -1.
         -1    1    6    6    0  503 -0.38059689315E+02 -0.40443931940E+03 -0.31744236312E+03  0.51554762819E+03  0.00000000000E+00 0.  1.
<mgrwt>
<rscale>  0 0.13225792E+04</rscale>
<asrwt>0</asrwt>
<pdfrwt beam="1">  1        1 0.10809448E+00 0.13225792E+04</pdfrwt>
<pdfrwt beam="2">  1       -2 0.95753162E-01 0.13225792E+04</pdfrwt>
<totfact> 0.21290763E+01</totfact>
</mgrwt>
</event>
<event>
12    4  0.4398275E-008  0.1254467E+04  0.7818608E-02  0.9066474E-01
          1   -1    0    0  501    0  0.00000000000E+00  0.00000000000E+00  0.25888067495E+03  0.25888067495E+03  0.00000000000E+00 0. -1.
         -2   -1    0    0    0  501 -0.00000000000E+00 -0.00000000000E+00 -0.15197034031E+04  0.15197034031E+04  0.00000000000E+00 0.  1.
        -24    2    1    2    0    0  0.25781466834E+03  0.10685073799E+03 -0.31487403308E+03  0.42859177920E+03  0.81607432713E+02 0.  0.
        254    2    1    2    0    0 -0.25781466834E+03 -0.10685073799E+03 -0.94594869507E+03  0.13499922988E+04  0.92183230027E+03 0.  0.
         23    2    4    4    0    0 -0.34902251101E+03  0.31453990741E+03 -0.69201807806E+03  0.84149271206E+03  0.92026613176E+02 0.  0.
         23    2    4    4    0    0  0.91207842678E+02 -0.42139064540E+03 -0.25393061701E+03  0.50849958679E+03  0.90565583481E+02 0.  0.
          3    1    3    3  502    0 -0.42885271225E+01  0.81216136725E+01 -0.36147673592E+01  0.98700869595E+01  0.00000000000E+00 0. -1.
         -4    1    3    3    0  502  0.26210319546E+03  0.98729124316E+02 -0.31125926572E+03  0.41872169224E+03  0.00000000000E+00 0.  1.
         11    1    5    5    0    0 -0.59159884269E+02  0.61772587492E+02 -0.71622078072E+02  0.11155925125E+03  0.00000000000E+00 0. -1.
        -11    1    5    5    0    0 -0.28986262675E+03  0.25276731992E+03 -0.62039599999E+03  0.72993346081E+03  0.00000000000E+00 0.  1.
          3    1    6    6  503    0 -0.51280776569E+01 -0.15690075659E+03 -0.11495431315E+03  0.19457296500E+03  0.00000000000E+00 0. -1.
         -3    1    6    6    0  503  0.96335920335E+02 -0.26448988881E+03 -0.13897630386E+03  0.31392662179E+03  0.00000000000E+00 0.  1.
<mgrwt>
<rscale>  0 0.12544670E+04</rscale>
<asrwt>0</asrwt>
<pdfrwt beam="1">  1        1 0.39827797E-01 0.12544670E+04</pdfrwt>
<pdfrwt beam="2">  1       -2 0.23380052E+00 0.12544670E+04</pdfrwt>
<totfact> 0.74052348E+00</totfact>
</mgrwt>
</event>
<event>
12    4  0.4398275E-008  0.1769366E+04  0.7818608E-02  0.8722762E-01
          3   -1    0    0  501    0  0.00000000000E+00  0.00000000000E+00  0.92509846403E+03  0.92509846403E+03  0.00000000000E+00 0. -1.
         -4   -1    0    0    0  501 -0.00000000000E+00 -0.00000000000E+00 -0.84603287971E+03  0.84603287971E+03  0.00000000000E+00 0.  1.
        -24    2    1    2    0    0 -0.57743397308E+02  0.64866186674E+03  0.53380142382E+02  0.65960197917E+03  0.90159935880E+02 0.  0.
        254    2    1    2    0    0  0.57743397308E+02 -0.64866186674E+03  0.25685441944E+02  0.11115293646E+04  0.90041172198E+03 0.  0.
         23    2    4    4    0    0 -0.20863276316E+03 -0.75746318202E+03 -0.71759309788E+02  0.79402284192E+03  0.89692658373E+02 0.  0.
         23    2    4    4    0    0  0.26637616046E+03  0.10880131529E+03  0.97444751732E+02  0.31750652265E+03  0.92308868541E+02 0.  0.
          1    1    3    3  502    0 -0.54624674572E+02  0.60355019163E+03  0.72828937138E+02  0.61037754134E+03  0.00000000000E+00 0. -1.
         -2    1    3    3    0  502 -0.31187227363E+01  0.45111675103E+02 -0.19448794756E+02  0.49224437829E+02  0.00000000000E+00 0.  1.
         11    1    5    5    0    0 -0.16907911015E+03 -0.70089849058E+03 -0.75201232263E+02  0.72491493634E+03  0.00000000000E+00 0. -1.
        -11    1    5    5    0    0 -0.39553653002E+02 -0.56564691440E+02  0.34419224757E+01  0.69107905581E+02  0.00000000000E+00 0.  1.
          4    1    6    6  503    0  0.14867062238E+03  0.53734532331E+02  0.52434292511E+01  0.15817031161E+03  0.00000000000E+00 0. -1.
         -4    1    6    6    0  503  0.11770553808E+03  0.55066782957E+02  0.92201322481E+02  0.15933621103E+03  0.00000000000E+00 0.  1.
<mgrwt>
<rscale>  0 0.17693657E+04</rscale>
<asrwt>0</asrwt>
<pdfrwt beam="1">  1        3 0.14232284E+00 0.17693657E+04</pdfrwt>
<pdfrwt beam="2">  1       -4 0.13015891E+00 0.17693657E+04</pdfrwt>
<totfact> 0.34599528E-01</totfact>
</mgrwt>
</event>
<event>
12    4  0.4398275E-008  0.2240371E+04  0.7818608E-02  0.8501810E-01
          3   -1    0    0  501    0  0.00000000000E+00  0.00000000000E+00  0.13803391099E+04  0.13803391099E+04  0.00000000000E+00 0. -1.
         -4   -1    0    0    0  501 -0.00000000000E+00 -0.00000000000E+00 -0.90906316395E+03  0.90906316395E+03  0.00000000000E+00 0.  1.
        -24    2    1    2    0    0 -0.15165865921E+03  0.10199675829E+03 -0.74485212226E+03  0.77111271141E+03  0.80040252641E+02 0.  0.
        254    2    1    2    0    0  0.15165865921E+03 -0.10199675829E+03  0.12161280682E+04  0.15182895624E+04  0.89041115757E+03 0.  0.
         23    2    4    4    0    0 -0.19440304131E+03 -0.28819002227E+03  0.17187262465E+03  0.39852395920E+03  0.91842885137E+02 0.  0.
         23    2    4    4    0    0  0.34606170052E+03  0.18619326398E+03  0.10442554436E+04  0.11197656032E+04  0.94757283003E+02 0.  0.
          1    1    3    3  502    0 -0.67771629105E+02  0.48058319377E+00 -0.26212980994E+03  0.27074944493E+03  0.00000000000E+00 0. -1.
         -2    1    3    3    0  502 -0.83887030108E+02  0.10151617510E+03 -0.48272231232E+03  0.50036326648E+03  0.00000000000E+00 0.  1.
         11    1    5    5    0    0 -0.17448702074E+03 -0.27776246577E+03  0.13369741448E+03  0.35422126762E+03  0.00000000000E+00 0. -1.
        -11    1    5    5    0    0 -0.19916020564E+02 -0.10427556497E+02  0.38175210169E+02  0.44302691578E+02  0.00000000000E+00 0.  1.
          3    1    6    6  503    0  0.33336538070E+03  0.16858997527E+03  0.10242456862E+04  0.10902450561E+04  0.00000000000E+00 0. -1.
         -3    1    6    6    0  503  0.12696319825E+02  0.17603288706E+02  0.20009757401E+02  0.29520547109E+02  0.00000000000E+00 0.  1.
<mgrwt>
<rscale>  0 0.22403709E+04</rscale>
<asrwt>0</asrwt>
<pdfrwt beam="1">  1        3 0.21235986E+00 0.22403709E+04</pdfrwt>
<pdfrwt beam="2">  1       -4 0.13985587E+00 0.22403709E+04</pdfrwt>
<totfact> 0.92142116E-02</totfact>
</mgrwt>
</event>
<event>
12    4  0.4398275E-008  0.1956621E+04  0.7818608E-02  0.8627174E-01
          1   -1    0    0  501    0  0.00000000000E+00  0.00000000000E+00  0.17408918046E+04  0.17408918046E+04  0.00000000000E+00 0. -1.
         -2   -1    0    0    0  501 -0.00000000000E+00 -0.00000000000E+00 -0.54977094943E+03  0.54977094943E+03  0.00000000000E+00 0.  1.
        -24    2    1    2    0    0  0.20367703458E+03  0.10807371513E+03  0.13265409233E+04  0.13489298257E+04  0.82076738458E+02 0.  0.
        254    2    1    2    0    0 -0.20367703458E+03 -0.10807371513E+03 -0.13542006813E+03  0.94173292839E+03  0.90297178873E+03 0.  0.
         23    2    4    4    0    0  0.25352545293E+03  0.13865705484E+03  0.15420967788E+03  0.34018701049E+03  0.91900180716E+02 0.  0.
         23    2    4    4    0    0 -0.45720248750E+03 -0.24673076997E+03 -0.28962974601E+03  0.60154591790E+03  0.89788162579E+02 0.  0.
          3    1    3    3  502    0  0.20769397278E+03  0.11329830642E+03  0.13086445336E+04  0.13298585669E+04  0.00000000000E+00 0. -1.
         -4    1    3    3    0  502 -0.40169382013E+01 -0.52245912961E+01  0.17896389757E+02  0.19071258822E+02  0.00000000000E+00 0.  1.
         11    1    5    5    0    0  0.12804612322E+03  0.29110250597E+02  0.36721910619E+02  0.13635143960E+03  0.00000000000E+00 0. -1.
        -11    1    5    5    0    0  0.12547932970E+03  0.10954680424E+03  0.11748776726E+03  0.20383557089E+03  0.00000000000E+00 0.  1.
          2    1    6    6  503    0 -0.25475030926E+03 -0.86476341473E+02 -0.14829983268E+03  0.30719491870E+03  0.00000000000E+00 0. -1.
         -2    1    6    6    0  503 -0.20245217825E+03 -0.16025442849E+03 -0.14132991332E+03  0.29435099920E+03  0.00000000000E+00 0.  1.
<mgrwt>
<rscale>  0 0.19566213E+04</rscale>
<asrwt>0</asrwt>
<pdfrwt beam="1">  1        1 0.26782951E+00 0.19566213E+04</pdfrwt>
<pdfrwt beam="2">  1       -2 0.84580147E-01 0.19566213E+04</pdfrwt>
<totfact> 0.44522032E+00</totfact>
</mgrwt>
</event>
<event>
12    4  0.4398275E-008  0.1720997E+04  0.7818608E-02  0.8749479E-01
         -2   -1    0    0    0  501 -0.00000000000E+00  0.00000000000E+00  0.80173938389E+03  0.80173938389E+03  0.00000000000E+00 0.  1.
          1   -1    0    0  501    0  0.00000000000E+00 -0.00000000000E+00 -0.92356383576E+03  0.92356383576E+03  0.00000000000E+00 0. -1.
        -24    2    1    2    0    0 -0.40602150523E+03 -0.45771469026E+03  0.49979892108E+02  0.61919377946E+03  0.80911967757E+02 0.  0.
        254    2    1    2    0    0  0.40602150523E+03  0.45771469026E+03 -0.17180434398E+03  0.11061094402E+04  0.90532047402E+03 0.  0.
         23    2    4    4    0    0 -0.18799248969E+03  0.38802171994E+03 -0.23197168693E+03  0.49814889844E+03  0.91866371174E+02 0.  0.
         23    2    4    4    0    0  0.59401399492E+03  0.69692970319E+02  0.60167342948E+02  0.60796054175E+03  0.91028429047E+02 0.  0.
          3    1    3    3  502    0 -0.35828237916E+03 -0.43515468730E+03  0.37379405935E+02  0.56490980261E+03  0.00000000000E+00 0. -1.
         -4    1    3    3    0  502 -0.47739126070E+02 -0.22560002954E+02  0.12600486173E+02  0.54283976854E+02  0.00000000000E+00 0.  1.
         11    1    5    5    0    0 -0.10128374245E+03  0.11424382765E+03 -0.64830804792E+02  0.16587067821E+03  0.00000000000E+00 0.  1.
        -11    1    5    5    0    0 -0.86708747245E+02  0.27377789229E+03 -0.16714088213E+03  0.33227822023E+03  0.00000000000E+00 0. -1.
          4    1    6    6  503    0  0.41072273029E+02 -0.14780599964E+02 -0.82862615351E+01  0.44430393621E+02  0.00000000000E+00 0. -1.
         -4    1    6    6    0  503  0.55294172189E+03  0.84473570282E+02  0.68453604483E+02  0.56353014813E+03  0.00000000000E+00 0.  1.
<mgrwt>
<rscale>  0 0.17209968E+04</rscale>
<asrwt>0</asrwt>
<pdfrwt beam="1">  1        1 0.14208674E+00 0.17209968E+04</pdfrwt>
<pdfrwt beam="2">  1       -2 0.12334452E+00 0.17209968E+04</pdfrwt>
<totfact> 0.71847060E+00</totfact>
</mgrwt>
</event>
<event>
12    4  0.4398275E-008  0.2010283E+04  0.7818608E-02  0.8601828E-01
          1   -1    0    0  501    0  0.00000000000E+00  0.00000000000E+00  0.13745729701E+04  0.13745729701E+04  0.00000000000E+00 0. -1.
         -2   -1    0    0    0  501 -0.00000000000E+00 -0.00000000000E+00 -0.73499882406E+03  0.73499882406E+03  0.00000000000E+00 0.  1.
        -24    2    1    2    0    0 -0.55769660367E+03 -0.26265155255E+03 -0.27928987687E+03  0.68130028017E+03  0.78459522239E+02 0.  0.
        254    2    1    2    0    0  0.55769660367E+03  0.26265155255E+03  0.91886402288E+03  0.14282715140E+04  0.90312628423E+03 0.  0.
         23    2    4    4    0    0  0.55233539429E+03 -0.73544610920E+02  0.15109818520E+03  0.58447775118E+03  0.91106434857E+02 0.  0.
         23    2    4    4    0    0  0.53612093832E+01  0.33619616347E+03  0.76776583768E+03  0.84379376279E+03  0.97298148571E+02 0.  0.
          3    1    3    3  502    0 -0.40198914748E+02 -0.38027615118E+02 -0.41115376731E+02  0.68938570207E+02  0.00000000000E+00 0. -1.
         -4    1    3    3    0  502 -0.51749768892E+03 -0.22462393743E+03 -0.23817450014E+03  0.61236170996E+03  0.00000000000E+00 0.  1.
         11    1    5    5    0    0  0.62914534381E+02 -0.38465198158E+02  0.14649493289E+02  0.75182562867E+02  0.00000000000E+00 0.  1.
        -11    1    5    5    0    0  0.48942085991E+03 -0.35079412763E+02  0.13644869191E+03  0.50929518831E+03  0.00000000000E+00 0. -1.
          4    1    6    6  503    0 -0.40084817936E+02  0.22992489325E+03  0.48180343458E+03  0.53535670233E+03  0.00000000000E+00 0. -1.
         -4    1    6    6    0  503  0.45446027319E+02  0.10627127023E+03  0.28596240311E+03  0.30843706046E+03  0.00000000000E+00 0.  1.
<mgrwt>
<rscale>  0 0.20102831E+04</rscale>
<asrwt>0</asrwt>
<pdfrwt beam="1">  1        1 0.21147276E+00 0.20102831E+04</pdfrwt>
<pdfrwt beam="2">  1       -2 0.11307674E+00 0.20102831E+04</pdfrwt>
<totfact> 0.40011458E+00</totfact>
</mgrwt>
</event>
<event>
12    4  0.4398275E-008  0.1454423E+04  0.7818608E-02  0.8915340E-01
          1   -1    0    0  501    0  0.00000000000E+00  0.00000000000E+00  0.51690965608E+03  0.51690965608E+03  0.00000000000E+00 0. -1.
         -2   -1    0    0    0  501 -0.00000000000E+00 -0.00000000000E+00 -0.10230729335E+04  0.10230729335E+04  0.00000000000E+00 0.  1.
        -24    2    1    2    0    0  0.15933976670E+03  0.32296978598E+03 -0.45717151271E+03  0.58710904874E+03  0.77411880055E+02 0.  0.
        254    2    1    2    0    0 -0.15933976670E+03 -0.32296978598E+03 -0.48991764760E+02  0.95287354089E+03  0.88083434765E+03 0.  0.
         23    2    4    4    0    0  0.30689441196E+03 -0.30325594438E+03 -0.15438079757E+03  0.46707424996E+03  0.90424423809E+02 0.  0.
         23    2    4    4    0    0 -0.46623417866E+03 -0.19713841596E+02  0.10538903281E+03  0.48579929092E+03  0.84446183611E+02 0.  0.
          3    1    3    3  502    0  0.44595732890E+02  0.31071748923E+02 -0.77179015072E+02  0.94397210449E+02  0.00000000000E+00 0. -1.
         -4    1    3    3    0  502  0.11474403381E+03  0.29189803706E+03 -0.37999249764E+03  0.49271183829E+03  0.00000000000E+00 0.  1.
         11    1    5    5    0    0  0.43705338293E+02 -0.72606395648E+02 -0.41131476560E+00  0.84746766688E+02  0.00000000000E+00 0. -1.
        -11    1    5    5    0    0  0.26318907367E+03 -0.23064954874E+03 -0.15396948281E+03  0.38232748327E+03  0.00000000000E+00 0.  1.
          2    1    6    6  503    0 -0.11452378025E+03 -0.66501252606E+01  0.64159761623E+02  0.13143970260E+03  0.00000000000E+00 0. -1.
         -2    1    6    6    0  503 -0.35171039841E+03 -0.13063716336E+02  0.41229271190E+02  0.35435958832E+03  0.00000000000E+00 0.  1.
<mgrwt>
<rscale>  0 0.14544226E+04</rscale>
<asrwt>0</asrwt>
<pdfrwt beam="1">  1        1 0.79524562E-01 0.14544226E+04</pdfrwt>
<pdfrwt beam="2">  1       -2 0.15739584E+00 0.14544226E+04</pdfrwt>
<totfact> 0.94572737E+00</totfact>
</mgrwt>
</event>
<event>
12    4  0.4398275E-008  0.2066270E+04  0.7818608E-02  0.8576249E-01
          1   -1    0    0  501    0  0.00000000000E+00  0.00000000000E+00  0.28236606734E+04  0.28236606734E+04  0.00000000000E+00 0. -1.
         -2   -1    0    0    0  501 -0.00000000000E+00 -0.00000000000E+00 -0.37800868359E+03  0.37800868359E+03  0.00000000000E+00 0.  1.
        -24    2    1    2    0    0  0.24228236707E+02  0.17686496163E+03  0.22576111675E+04  0.22660705175E+04  0.79994905382E+02 0.  0.
        254    2    1    2    0    0 -0.24228236707E+02 -0.17686496163E+03  0.18804082236E+03  0.93559883947E+03  0.89895362252E+03 0.  0.
         23    2    4    4    0    0  0.94678074757E+02  0.34487887096E+03  0.30853168476E+02  0.37044614914E+03  0.91504414822E+02 0.  0.
         23    2    4    4    0    0 -0.11890631146E+03 -0.52174383258E+03  0.15718765389E+03  0.56515269034E+03  0.91292207312E+02 0.  0.
          3    1    3    3  502    0 -0.23507680150E+01  0.14728579369E+03  0.19989730579E+04  0.20043931543E+04  0.00000000000E+00 0. -1.
         -4    1    3    3    0  502  0.26579004722E+02  0.29579167935E+02  0.25863810960E+03  0.26167736319E+03  0.00000000000E+00 0.  1.
         11    1    5    5    0    0  0.99313705366E+01  0.19047787134E+02 -0.20721635230E+02  0.29846883959E+02  0.00000000000E+00 0. -1.
        -11    1    5    5    0    0  0.84746704221E+02  0.32583108382E+03  0.51574803706E+02  0.34059926518E+03  0.00000000000E+00 0.  1.
          2    1    6    6  503    0  0.95293839481E+01 -0.79016970872E+02  0.42033048214E+02  0.90007044093E+02  0.00000000000E+00 0. -1.
         -2    1    6    6    0  503 -0.12843569541E+03 -0.44272686171E+03  0.11515460567E+03  0.47514564624E+03  0.00000000000E+00 0.  1.
<mgrwt>
<rscale>  0 0.20662703E+04</rscale>
<asrwt>0</asrwt>
<pdfrwt beam="1">  1        1 0.43440932E+00 0.20662703E+04</pdfrwt>
<pdfrwt beam="2">  1       -2 0.58155184E-01 0.20662703E+04</pdfrwt>
<totfact> 0.17989075E+00</totfact>
</mgrwt>
</event>
<event>
12    4  0.4398275E-008  0.1256867E+04  0.7818608E-02  0.9064487E-01
         -2   -1    0    0    0  501 -0.00000000000E+00  0.00000000000E+00  0.23609782262E+03  0.23609782262E+03  0.00000000000E+00 0.  1.
          1   -1    0    0  501    0  0.00000000000E+00 -0.00000000000E+00 -0.16727321637E+04  0.16727321637E+04  0.00000000000E+00 0. -1.
        -24    2    1    2    0    0  0.67543280674E+02 -0.28054178497E+02 -0.83775577655E+03  0.84597078710E+03  0.92101573160E+02 0.  0.
        254    2    1    2    0    0 -0.67543280674E+02  0.28054178497E+02 -0.59887856455E+03  0.10628591992E+04  0.87502286293E+03 0.  0.
         23    2    4    4    0    0 -0.24270539790E+01  0.43835426804E+03 -0.24889869320E+03  0.51196924596E+03  0.89451631802E+02 0.  0.
         23    2    4    4    0    0 -0.65116226695E+02 -0.41030008954E+03 -0.34997987135E+03  0.55088995329E+03  0.91692659640E+02 0.  0.
          3    1    3    3  502    0  0.83069694926E+02  0.23414970203E+01 -0.56207268915E+03  0.56818286204E+03  0.00000000000E+00 0. -1.
         -4    1    3    3    0  502 -0.15526414251E+02 -0.30395675517E+02 -0.27568308740E+03  0.27778792506E+03  0.00000000000E+00 0.  1.
         11    1    5    5    0    0  0.12612741271E+02  0.49935741610E+02 -0.62177597525E+02  0.80738548207E+02  0.00000000000E+00 0. -1.
        -11    1    5    5    0    0 -0.15039795250E+02  0.38841852643E+03 -0.18672109568E+03  0.43123069775E+03  0.00000000000E+00 0.  1.
          2    1    6    6  503    0 -0.66722234486E+02 -0.16755692956E+03 -0.17795698856E+03  0.25336904112E+03  0.00000000000E+00 0. -1.
         -2    1    6    6    0  503  0.16060077907E+01 -0.24274315998E+03 -0.17202288278E+03  0.29752091217E+03  0.00000000000E+00 0.  1.
<mgrwt>
<rscale>  0 0.12568666E+04</rscale>
<asrwt>0</asrwt>
<pdfrwt beam="1">  1        1 0.25734340E+00 0.12568666E+04</pdfrwt>
<pdfrwt beam="2">  1       -2 0.36322743E-01 0.12568666E+04</pdfrwt>
<totfact> 0.30706943E+01</totfact>
</mgrwt>
</event>
<event>
12    4  0.4398275E-008  0.2248823E+04  0.7818608E-02  0.8498377E-01
          1   -1    0    0  501    0  0.00000000000E+00  0.00000000000E+00  0.85557430465E+03  0.85557430465E+03  0.00000000000E+00 0. -1.
         -2   -1    0    0    0  501 -0.00000000000E+00 -0.00000000000E+00 -0.14777217624E+04  0.14777217624E+04  0.00000000000E+00 0.  1.
        -24    2    1    2    0    0  0.67236156016E+03 -0.38207055464E+03  0.30041829039E+03  0.83368007308E+03  0.81995967861E+02 0.  0.
        254    2    1    2    0    0 -0.67236156016E+03  0.38207055464E+03 -0.92256574811E+03  0.14996159939E+04  0.89424414641E+03 0.  0.
         23    2    4    4    0    0 -0.22056473444E+03  0.25451757028E+03 -0.95888326239E+03  0.10202188151E+04  0.89226252573E+02 0.  0.
         23    2    4    4    0    0 -0.45179682572E+03  0.12755298436E+03  0.36317514279E+02  0.47939717883E+03  0.90069737849E+02 0.  0.
          1    1    3    3  502    0  0.48788071811E+03 -0.23459675810E+03  0.20197907028E+03  0.57780513917E+03  0.00000000000E+00 0. -1.
         -2    1    3    3    0  502  0.18448084205E+03 -0.14747379654E+03  0.98439220108E+02  0.25587493391E+03  0.00000000000E+00 0.  1.
         11    1    5    5    0    0 -0.72492842185E+02  0.27839484925E+02 -0.21400452978E+03  0.22765805028E+03  0.00000000000E+00 0. -1.
        -11    1    5    5    0    0 -0.14807189225E+03  0.22667808536E+03 -0.74487873261E+03  0.79256076483E+03  0.00000000000E+00 0.  1.
          3    1    6    6  503    0 -0.28913058320E+03  0.99978937742E+02  0.62774403894E+02  0.31230259032E+03  0.00000000000E+00 0. -1.
         -3    1    6    6    0  503 -0.16266624252E+03  0.27574046621E+02 -0.26456889616E+02  0.16709458851E+03  0.00000000000E+00 0.  1.
<mgrwt>
<rscale>  0 0.22488226E+04</rscale>
<asrwt>0</asrwt>
<pdfrwt beam="1">  1        1 0.13162682E+00 0.22488226E+04</pdfrwt>
<pdfrwt beam="2">  1       -2 0.22734181E+00 0.22488226E+04</pdfrwt>
<totfact> 0.14004017E+00</totfact>
</mgrwt>
</event>
<event>
12    4  0.4398275E-008  0.1509837E+04  0.7818608E-02  0.8877938E-01
         -2   -1    0    0    0  501 -0.00000000000E+00  0.00000000000E+00  0.18473132860E+03  0.18473132860E+03  0.00000000000E+00 0.  1.
          1   -1    0    0  501    0  0.00000000000E+00 -0.00000000000E+00 -0.30850318338E+04  0.30850318338E+04  0.00000000000E+00 0. -1.
        -24    2    1    2    0    0  0.38850187627E+03 -0.20448262210E+03 -0.13966872536E+04  0.14662522461E+04  0.80084418670E+02 0.  0.
        254    2    1    2    0    0 -0.38850187627E+03  0.20448262210E+03 -0.15036132517E+04  0.18035109164E+04  0.89389706588E+03 0.  0.
         23    2    4    4    0    0 -0.60706260775E+03  0.21020984514E+03 -0.65470292298E+03  0.92184078561E+03  0.91876699628E+02 0.  0.
         23    2    4    4    0    0  0.21856073148E+03 -0.57272230400E+01 -0.84891032868E+03  0.88167013078E+03  0.94296759974E+02 0.  0.
          1    1    3    3  502    0  0.35419122387E+03 -0.16290826336E+03 -0.12722126691E+04  0.13306072301E+04  0.00000000000E+00 0. -1.
         -2    1    3    3    0  502  0.34310652398E+02 -0.41574358741E+02 -0.12447458444E+03  0.13564501592E+03  0.00000000000E+00 0.  1.
         11    1    5    5    0    0 -0.47628765845E+03  0.20189745224E+03 -0.53810099352E+03  0.74643498983E+03  0.00000000000E+00 0.  1.
        -11    1    5    5    0    0 -0.13077494931E+03  0.83123929023E+01 -0.11660192946E+03  0.17540579579E+03  0.00000000000E+00 0. -1.
          1    1    6    6  503    0  0.85131021483E+02  0.42414140960E+02 -0.38384968117E+03  0.39545774478E+03  0.00000000000E+00 0. -1.
         -1    1    6    6    0  503  0.13342971000E+03 -0.48141364000E+02 -0.46506064751E+03  0.48621238601E+03  0.00000000000E+00 0.  1.
<mgrwt>
<rscale>  0 0.15098371E+04</rscale>
<asrwt>0</asrwt>
<pdfrwt beam="1">  1        1 0.47462027E+00 0.15098371E+04</pdfrwt>
<pdfrwt beam="2">  1       -2 0.28420205E-01 0.15098371E+04</pdfrwt>
<totfact> 0.50174166E+00</totfact>
</mgrwt>
</event>
<event>
12    4  0.4398275E-008  0.1637527E+04  0.7818608E-02  0.8797820E-01
         -2   -1    0    0    0  501 -0.00000000000E+00  0.00000000000E+00  0.57475343046E+03  0.57475343046E+03  0.00000000000E+00 0.  1.
          1   -1    0    0  501    0  0.00000000000E+00 -0.00000000000E+00 -0.11663677220E+04  0.11663677220E+04  0.00000000000E+00 0. -1.
        -24    2    1    2    0    0 -0.84662134065E+02 -0.55778661624E+03 -0.16431351683E+03  0.59293434317E+03  0.79237726482E+02 0.  0.
        254    2    1    2    0    0  0.84662134065E+02  0.55778661624E+03 -0.42730077475E+03  0.11481868093E+04  0.90413130177E+03 0.  0.
         23    2    4    4    0    0  0.39628148986E+03  0.35042924101E+03 -0.52465593008E+03  0.75080138201E+03  0.92731861311E+02 0.  0.
         23    2    4    4    0    0 -0.31161935579E+03  0.20735737523E+03  0.97355155336E+02  0.39738542732E+03  0.91287718842E+02 0.  0.
          1    1    3    3  502    0 -0.59056912267E+02 -0.42544059599E+03 -0.15907991794E+03  0.45803257515E+03  0.00000000000E+00 0. -1.
         -2    1    3    3    0  502 -0.25605221798E+02 -0.13234602024E+03 -0.52335988932E+01  0.13490176802E+03  0.00000000000E+00 0.  1.
         11    1    5    5    0    0  0.31213661673E+03  0.24081330054E+03 -0.42960859326E+03  0.58308134649E+03  0.00000000000E+00 0. -1.
        -11    1    5    5    0    0  0.84144873127E+02  0.10961594047E+03 -0.95047336818E+02  0.16772003552E+03  0.00000000000E+00 0.  1.
          4    1    6    6  503    0 -0.98557812768E+02  0.10142360160E+03  0.31096406748E+01  0.14145691671E+03  0.00000000000E+00 0. -1.
         -4    1    6    6    0  503 -0.21306154303E+03  0.10593377362E+03  0.94245514661E+02  0.25592851061E+03  0.00000000000E+00 0.  1.
<mgrwt>
<rscale>  0 0.16375272E+04</rscale>
<asrwt>0</asrwt>
<pdfrwt beam="1">  1        1 0.17944119E+00 0.16375272E+04</pdfrwt>
<pdfrwt beam="2">  1       -2 0.88423604E-01 0.16375272E+04</pdfrwt>
<totfact> 0.10446320E+01</totfact>
</mgrwt>
</event>
<event>
12    4  0.4398275E-008  0.1785919E+04  0.7818608E-02  0.8713824E-01
          1   -1    0    0  501    0  0.00000000000E+00  0.00000000000E+00  0.29233077381E+04  0.29233077381E+04  0.00000000000E+00 0. -1.
         -2   -1    0    0    0  501 -0.00000000000E+00 -0.00000000000E+00 -0.27276506761E+03  0.27276506761E+03  0.00000000000E+00 0.  1.
        -24    2    1    2    0    0  0.81233088607E+02  0.31332425378E+03 -0.38851151961E+02  0.33599783569E+03  0.81327921935E+02 0.  0.
        254    2    1    2    0    0 -0.81233088607E+02 -0.31332425378E+03  0.26893938224E+04  0.28600749700E+04  0.91783375358E+03 0.  0.
         23    2    4    4    0    0 -0.25192605728E+03 -0.50584539249E+03  0.23789638928E+04  0.24467533085E+04  0.88239730967E+02 0.  0.
         23    2    4    4    0    0  0.17069296868E+03  0.19252113871E+03  0.31042992962E+03  0.41332166146E+03  0.90926213069E+02 0.  0.
          3    1    3    3  502    0 -0.17959771691E+01  0.50748904765E+02 -0.32970116854E+02  0.60545069776E+02  0.00000000000E+00 0. -1.
         -4    1    3    3    0  502  0.83029065776E+02  0.26257534902E+03 -0.58810351069E+01  0.27545276591E+03  0.00000000000E+00 0.  1.
         11    1    5    5    0    0 -0.17845158260E+03 -0.43371396023E+03  0.19494609739E+04  0.20050812590E+04  0.00000000000E+00 0. -1.
        -11    1    5    5    0    0 -0.73474474685E+02 -0.72131432255E+02  0.42950291893E+03  0.44167204951E+03  0.00000000000E+00 0.  1.
          2    1    6    6  503    0  0.83176424277E+02  0.15778825568E+03  0.19291952091E+03  0.26274206502E+03  0.00000000000E+00 0. -1.
         -2    1    6    6    0  503  0.87516544399E+02  0.34732883029E+02  0.11751040871E+03  0.15057959644E+03  0.00000000000E+00 0.  1.
<mgrwt>
<rscale>  0 0.17859185E+04</rscale>
<asrwt>0</asrwt>
<pdfrwt beam="1">  1        1 0.44973963E+00 0.17859185E+04</pdfrwt>
<pdfrwt beam="2">  1       -2 0.41963859E-01 0.17859185E+04</pdfrwt>
<totfact> 0.30436437E+00</totfact>
</mgrwt>
</event>
<event>
12    4  0.4398275E-008  0.1953846E+04  0.7818608E-02  0.8628509E-01
         -2   -1    0    0    0  501 -0.00000000000E+00  0.00000000000E+00  0.22519952383E+04  0.22519952383E+04  0.00000000000E+00 0.  1.
          1   -1    0    0  501    0  0.00000000000E+00 -0.00000000000E+00 -0.42379225277E+03  0.42379225277E+03  0.00000000000E+00 0. -1.
        -24    2    1    2    0    0 -0.30346234069E+03  0.26201618418E+03  0.16069362615E+04  0.16580548174E+04  0.78484113002E+02 0.  0.
        254    2    1    2    0    0  0.30346234069E+03 -0.26201618418E+03  0.22126672396E+03  0.10177326736E+04  0.90888885943E+03 0.  0.
         23    2    4    4    0    0 -0.11811856364E+03 -0.27697331796E+03  0.43419624735E+03  0.53625296973E+03  0.91513126906E+02 0.  0.
         23    2    4    4    0    0  0.42158090432E+03  0.14957133789E+02 -0.21292952339E+03  0.48147970387E+03  0.92355555133E+02 0.  0.
          1    1    3    3  502    0 -0.72045030618E+02  0.28023534018E+02  0.37747150495E+03  0.38530577720E+03  0.00000000000E+00 0. -1.
         -2    1    3    3    0  502 -0.23141731007E+03  0.23399265016E+03  0.12294647566E+04  0.12727490402E+04  0.00000000000E+00 0.  1.
         11    1    5    5    0    0 -0.75017886680E+02 -0.20180488929E+03  0.37122347993E+03  0.42913840275E+03  0.00000000000E+00 0.  1.
        -11    1    5    5    0    0 -0.43100676956E+02 -0.75168428674E+02  0.62972767415E+02  0.10711456698E+03  0.00000000000E+00 0. -1.
          1    1    6    6  503    0  0.33870542098E+03  0.48586515831E+02 -0.16242034364E+03  0.37876427993E+03  0.00000000000E+00 0. -1.
         -1    1    6    6    0  503  0.82875483344E+02 -0.33629382042E+02 -0.50509179746E+02  0.10271542394E+03  0.00000000000E+00 0.  1.
<mgrwt>
<rscale>  0 0.19538456E+04</rscale>
<asrwt>0</asrwt>
<pdfrwt beam="1">  1        1 0.65198809E-01 0.19538456E+04</pdfrwt>
<pdfrwt beam="2">  1       -2 0.34646080E+00 0.19538456E+04</pdfrwt>
<totfact> 0.74297248E-01</totfact>
</mgrwt>
</event>
<event>
12    4  0.4398275E-008  0.2276563E+04  0.7818608E-02  0.8487220E-01
          1   -1    0    0  501    0  0.00000000000E+00  0.00000000000E+00  0.31296305489E+04  0.31296305489E+04  0.00000000000E+00 0. -1.
         -2   -1    0    0    0  501 -0.00000000000E+00 -0.00000000000E+00 -0.41400555679E+03  0.41400555679E+03  0.00000000000E+00 0.  1.
        -24    2    1    2    0    0  0.18097975018E+03 -0.41801250105E+03 -0.17000495552E+03  0.49214494963E+03  0.76268247233E+02 0.  0.
        254    2    1    2    0    0 -0.18097975018E+03  0.41801250105E+03  0.28856299477E+04  0.30514911561E+04  0.88161780823E+03 0.  0.
         23    2    4    4    0    0 -0.32767039342E+03  0.53727195468E+03  0.26829586741E+04  0.27573466173E+04  0.93081043506E+02 0.  0.
         23    2    4    4    0    0  0.14669064324E+03 -0.11925945363E+03  0.20267127353E+03  0.29414453881E+03  0.98510925815E+02 0.  0.
          1    1    3    3  502    0  0.90774823247E+02 -0.29920331181E+03 -0.11388621365E+03  0.33276532270E+03  0.00000000000E+00 0. -1.
         -2    1    3    3    0  502  0.90204926933E+02 -0.11880918924E+03 -0.56118741870E+02  0.15937962693E+03  0.00000000000E+00 0.  1.
         11    1    5    5    0    0 -0.18010852321E+03  0.33847636966E+03  0.17968872639E+04  0.18373375226E+04  0.00000000000E+00 0. -1.
        -11    1    5    5    0    0 -0.14756187021E+03  0.19879558503E+03  0.88607141024E+03  0.92000909464E+03  0.00000000000E+00 0.  1.
          1    1    6    6  503    0  0.87404443410E+01 -0.29355309571E+02 -0.28907864580E+01  0.30765016068E+02  0.00000000000E+00 0. -1.
         -1    1    6    6    0  503  0.13795019890E+03 -0.89904144059E+02  0.20556205998E+03  0.26337952274E+03  0.00000000000E+00 0.  1.
<mgrwt>
<rscale>  0 0.22765627E+04</rscale>
<asrwt>0</asrwt>
<pdfrwt beam="1">  1        1 0.48148161E+00 0.22765627E+04</pdfrwt>
<pdfrwt beam="2">  1       -2 0.63693165E-01 0.22765627E+04</pdfrwt>
<totfact> 0.87182091E-01</totfact>
</mgrwt>
</event>
<event>
12    4  0.4398275E-008  0.1680823E+04  0.7818608E-02  0.8772378E-01
          1   -1    0    0  501    0  0.00000000000E+00  0.00000000000E+00  0.23847773521E+04  0.23847773521E+04  0.00000000000E+00 0. -1.
         -2   -1    0    0    0  501 -0.00000000000E+00 -0.00000000000E+00 -0.29616679269E+03  0.29616679269E+03  0.00000000000E+00 0.  1.
        -24    2    1    2    0    0 -0.35181396572E+03 -0.37717830249E+03  0.27594188466E+03  0.59078799170E+03  0.82764660826E+02 0.  0.
        254    2    1    2    0    0  0.35181396572E+03  0.37717830249E+03  0.18126686748E+04  0.20901561531E+04  0.90385202415E+03 0.  0.
         23    2    4    4    0    0  0.14223294529E+03  0.93147550273E+02 -0.44883787492E+02  0.19725976782E+03  0.89387833477E+02 0.  0.
         23    2    4    4    0    0  0.20958102043E+03  0.28403075222E+03  0.18575524623E+04  0.18928963853E+04  0.89207079642E+02 0.  0.
          3    1    3    3  502    0 -0.10216276524E+03 -0.14302218175E+03  0.13038828568E+03  0.21884624766E+03  0.00000000000E+00 0. -1.
         -4    1    3    3    0  502 -0.24965120047E+03 -0.23415612075E+03  0.14555359898E+03  0.37194174403E+03  0.00000000000E+00 0.  1.
         11    1    5    5    0    0  0.13979093177E+03  0.99700391214E+02 -0.58959108316E+02  0.18154296755E+03  0.00000000000E+00 0. -1.
        -11    1    5    5    0    0  0.24420135157E+01 -0.65528409403E+01  0.14075320824E+02  0.15716800269E+02  0.00000000000E+00 0.  1.
          2    1    6    6  503    0  0.16082013888E+03  0.20024418294E+03  0.15260256526E+04  0.15474867179E+04  0.00000000000E+00 0. -1.
         -2    1    6    6    0  503  0.48760881554E+02  0.83786569277E+02  0.33152680971E+03  0.34540966738E+03  0.00000000000E+00 0.  1.
<mgrwt>
<rscale>  0 0.16808234E+04</rscale>
<asrwt>0</asrwt>
<pdfrwt beam="1">  1        1 0.36688881E+00 0.16808234E+04</pdfrwt>
<pdfrwt beam="2">  1       -2 0.45564123E-01 0.16808234E+04</pdfrwt>
<totfact> 0.62297874E+00</totfact>
</mgrwt>
</event>
<event>
12    4  0.4398275E-008  0.1470205E+04  0.7818608E-02  0.8904512E-01
          3   -1    0    0  501    0  0.00000000000E+00  0.00000000000E+00  0.37942569137E+03  0.37942569137E+03  0.00000000000E+00 0. -1.
         -4   -1    0    0    0  501 -0.00000000000E+00 -0.00000000000E+00 -0.14241936038E+04  0.14241936038E+04  0.00000000000E+00 0.  1.
        -24    2    1    2    0    0 -0.70774729601E+02 -0.40483958005E+02  0.20413648355E+03  0.23364646479E+03  0.79189351459E+02 0.  0.
        254    2    1    2    0    0  0.70774729601E+02  0.40483958005E+02 -0.12489043959E+04  0.15699728303E+04  0.94784201459E+03 0.  0.
         23    2    4    4    0    0  0.13833294459E+03 -0.49975042233E+02 -0.13697577026E+04  0.13806168068E+04  0.90736404496E+02 0.  0.
         23    2    4    4    0    0 -0.67558214993E+02  0.90459000239E+02  0.12085330667E+03  0.18935602349E+03  0.92213007560E+02 0.  0.
          3    1    3    3  502    0 -0.88404123547E+02 -0.34379252005E+02  0.17487635015E+03  0.19894461508E+03  0.00000000000E+00 0. -1.
         -4    1    3    3    0  502  0.17629393945E+02 -0.61047060006E+01  0.29260133405E+02  0.34701849707E+02  0.00000000000E+00 0.  1.
         11    1    5    5    0    0  0.10928237172E+03 -0.51855962450E+02 -0.71099457576E+03  0.72121076279E+03  0.00000000000E+00 0.  1.
        -11    1    5    5    0    0  0.29050572878E+02  0.18809202172E+01 -0.65876312684E+03  0.65940604405E+03  0.00000000000E+00 0. -1.
          4    1    6    6  503    0 -0.87070405107E+02  0.82001069350E+02  0.11779238093E+03  0.16787041379E+03  0.00000000000E+00 0. -1.
         -4    1    6    6    0  503  0.19512190115E+02  0.84579308883E+01  0.30609257365E+01  0.21485609704E+02  0.00000000000E+00 0.  1.
<mgrwt>
<rscale>  0 0.14702049E+04</rscale>
<asrwt>0</asrwt>
<pdfrwt beam="1">  1        3 0.58373181E-01 0.14702049E+04</pdfrwt>
<pdfrwt beam="2">  1       -4 0.21910672E+00 0.14702049E+04</pdfrwt>
<totfact> 0.63041515E-01</totfact>
</mgrwt>
</event>
<event>
12    4  0.4398275E-008  0.1337468E+04  0.7818608E-02  0.9000370E-01
          1   -1    0    0  501    0  0.00000000000E+00  0.00000000000E+00  0.11799928637E+04  0.11799928637E+04  0.00000000000E+00 0. -1.
         -2   -1    0    0    0  501 -0.00000000000E+00 -0.00000000000E+00 -0.37898951008E+03  0.37898951008E+03  0.00000000000E+00 0.  1.
        -24    2    1    2    0    0 -0.35573839471E+03  0.27381561632E+02  0.19435522961E+03  0.41386877823E+03  0.78828008508E+02 0.  0.
        254    2    1    2    0    0  0.35573839471E+03 -0.27381561632E+02  0.60664812401E+03  0.11451135955E+04  0.90330706017E+03 0.  0.
         23    2    4    4    0    0 -0.38951865981E+02 -0.23648343350E+03 -0.12329952078E+03  0.28457212745E+03  0.91306416582E+02 0.  0.
         23    2    4    4    0    0  0.39469026069E+03  0.20910187187E+03  0.72994764479E+03  0.86054146810E+03  0.90576263327E+02 0.  0.
          3    1    3    3  502    0 -0.24384923067E+03  0.32570524625E+02  0.17057035733E+03  0.29936187661E+03  0.00000000000E+00 0. -1.
         -4    1    3    3    0  502 -0.11188916405E+03 -0.51889629932E+01  0.23784872283E+02  0.11450690161E+03  0.00000000000E+00 0.  1.
         11    1    5    5    0    0 -0.49636882331E+02 -0.23920123959E+03 -0.11187462883E+03  0.26869496774E+03  0.00000000000E+00 0. -1.
        -11    1    5    5    0    0  0.10685016349E+02  0.27178060906E+01 -0.11424891952E+02  0.15877159710E+02  0.00000000000E+00 0.  1.
          1    1    6    6  503    0  0.27040080332E+03  0.15526229330E+03  0.42732734601E+03  0.52899114813E+03  0.00000000000E+00 0. -1.
         -1    1    6    6    0  503  0.12428945738E+03  0.53839578568E+02  0.30262029878E+03  0.33155031997E+03  0.00000000000E+00 0.  1.
<mgrwt>
<rscale>  0 0.13374676E+04</rscale>
<asrwt>0</asrwt>
<pdfrwt beam="1">  1        1 0.18153736E+00 0.13374676E+04</pdfrwt>
<pdfrwt beam="2">  1       -2 0.58306079E-01 0.13374676E+04</pdfrwt>
<totfact> 0.26130784E+01</totfact>
</mgrwt>
</event>
<event>
12    4  0.4398275E-008  0.1257763E+04  0.7818608E-02  0.9063747E-01
          1   -1    0    0  501    0  0.00000000000E+00  0.00000000000E+00  0.38829361371E+03  0.38829361371E+03  0.00000000000E+00 0. -1.
         -2   -1    0    0    0  501 -0.00000000000E+00 -0.00000000000E+00 -0.10185387499E+04  0.10185387499E+04  0.00000000000E+00 0.  1.
        -24    2    1    2    0    0  0.53190376381E+02  0.29475594460E+02 -0.47866284262E+03  0.48885032847E+03  0.78476110609E+02 0.  0.
        254    2    1    2    0    0 -0.53190376381E+02 -0.29475594460E+02 -0.15158229356E+03  0.91798203513E+03  0.90333592771E+03 0.  0.
         23    2    4    4    0    0 -0.29876296286E+03  0.23162802579E+03  0.17372600987E+03  0.42587355961E+03  0.90976436295E+02 0.  0.
         23    2    4    4    0    0  0.24557258648E+03 -0.26110362025E+03 -0.32530830343E+03  0.49210847552E+03  0.88680683687E+02 0.  0.
          3    1    3    3  502    0  0.52383088643E+02  0.46891512682E+02 -0.25516034393E+03  0.26466885546E+03  0.00000000000E+00 0. -1.
         -2    1    3    3    0  502  0.80728773777E+00 -0.17415918223E+02 -0.22350249870E+03  0.22418147302E+03  0.00000000000E+00 0.  1.
         11    1    5    5    0    0 -0.50078345166E+02  0.19830263842E+02  0.58434984264E+02  0.79471550913E+02  0.00000000000E+00 0. -1.
        -11    1    5    5    0    0 -0.24868461769E+03  0.21179776195E+03  0.11529102561E+03  0.34640200870E+03  0.00000000000E+00 0.  1.
          4    1    6    6  503    0  0.13476491734E+03 -0.81504492146E+02 -0.15435234673E+03  0.22052032135E+03  0.00000000000E+00 0. -1.
         -4    1    6    6    0  503  0.11080766914E+03 -0.17959912810E+03 -0.17095595670E+03  0.27158815418E+03  0.00000000000E+00 0.  1.
<mgrwt>
<rscale>  0 0.12577632E+04</rscale>
<asrwt>0</asrwt>
<pdfrwt beam="1">  1        1 0.59737480E-01 0.12577632E+04</pdfrwt>
<pdfrwt beam="2">  1       -2 0.15669827E+00 0.12577632E+04</pdfrwt>
<totfact> 0.14311303E+01</totfact>
</mgrwt>
</event>
<event>
12    4  0.4398275E-008  0.1874041E+04  0.7818608E-02  0.8667887E-01
          1   -1    0    0  501    0  0.00000000000E+00  0.00000000000E+00  0.15499279285E+04  0.15499279285E+04  0.00000000000E+00 0. -1.
         -2   -1    0    0    0  501 -0.00000000000E+00 -0.00000000000E+00 -0.56648276162E+03  0.56648276162E+03  0.00000000000E+00 0.  1.
        -24    2    1    2    0    0 -0.49381341138E+01  0.69192472832E+03  0.19884011347E+03  0.72499428296E+03  0.85411385472E+02 0.  0.
        254    2    1    2    0    0  0.49381341138E+01 -0.69192472832E+03  0.78460505346E+03  0.13914164072E+04  0.91741501704E+03 0.  0.
         23    2    4    4    0    0  0.44896078656E+03 -0.31365453894E+03  0.32826147329E+03  0.64492864040E+03  0.90732566882E+02 0.  0.
         23    2    4    4    0    0 -0.44402265245E+03 -0.37827018938E+03  0.45634358016E+03  0.74648776680E+03  0.93541812932E+02 0.  0.
          1    1    3    3  502    0  0.49456115834E+01  0.54815910732E+03  0.12164767516E+03  0.56151671647E+03  0.00000000000E+00 0. -1.
         -2    1    3    3    0  502 -0.98837456972E+01  0.14376562100E+03  0.77192438308E+02  0.16347756648E+03  0.00000000000E+00 0.  1.
         11    1    5    5    0    0  0.28067742090E+03 -0.22635658693E+03  0.25523218039E+03  0.44176983255E+03  0.00000000000E+00 0.  1.
        -11    1    5    5    0    0  0.16828336566E+03 -0.87297952012E+02  0.73029292906E+02  0.20315880785E+03  0.00000000000E+00 0. -1.
          3    1    6    6  503    0 -0.94226385868E+02 -0.13473117333E+03  0.12032330282E+03  0.20373708072E+03  0.00000000000E+00 0. -1.
         -3    1    6    6    0  503 -0.34979626658E+03 -0.24353901606E+03  0.33602027734E+03  0.54275068608E+03  0.00000000000E+00 0.  1.
<mgrwt>
<rscale>  0 0.18740410E+04</rscale>
<asrwt>0</asrwt>
<pdfrwt beam="1">  1        1 0.23845045E+00 0.18740410E+04</pdfrwt>
<pdfrwt beam="2">  1       -2 0.87151195E-01 0.18740410E+04</pdfrwt>
<totfact> 0.56580364E+00</totfact>
</mgrwt>
</event>
<event>
12    4  0.4398275E-008  0.2322478E+04  0.7818608E-02  0.8469111E-01
          1   -1    0    0  501    0  0.00000000000E+00  0.00000000000E+00  0.13527551374E+04  0.13527551374E+04  0.00000000000E+00 0. -1.
         -2   -1    0    0    0  501 -0.00000000000E+00 -0.00000000000E+00 -0.99683705949E+03  0.99683705949E+03  0.00000000000E+00 0.  1.
        -24    2    1    2    0    0 -0.41390368138E+03  0.79823348365E+03  0.57020821134E+03  0.10676815738E+04  0.79458081742E+02 0.  0.
        254    2    1    2    0    0  0.41390368138E+03 -0.79823348365E+03 -0.21429013345E+03  0.12819106231E+04  0.88819008803E+03 0.  0.
         23    2    4    4    0    0  0.43929994903E+03 -0.85454452675E+03 -0.41723633046E+03  0.10511984617E+04  0.87756805737E+02 0.  0.
         23    2    4    4    0    0 -0.25396267645E+02  0.56311043097E+02  0.20294619701E+03  0.23071216144E+03  0.90691998377E+02 0.  0.
          3    1    3    3  502    0 -0.23027870237E+02  0.58554310138E+02  0.64509012400E+02  0.90112722322E+02  0.00000000000E+00 0. -1.
         -4    1    3    3    0  502 -0.39087581115E+03  0.73967917351E+03  0.50569919894E+03  0.97756885143E+03  0.00000000000E+00 0.  1.
         11    1    5    5    0    0  0.33988694374E+03 -0.64441714283E+03 -0.35560019722E+03  0.81070838700E+03  0.00000000000E+00 0.  1.
        -11    1    5    5    0    0  0.99413005290E+02 -0.21012738392E+03 -0.61636133248E+02  0.24049007467E+03  0.00000000000E+00 0. -1.
          3    1    6    6  503    0 -0.50527679838E+02  0.44120337809E+02  0.78904005192E+02  0.10356395451E+03  0.00000000000E+00 0. -1.
         -3    1    6    6    0  503  0.25131412193E+02  0.12190705288E+02  0.12404219182E+03  0.12714820693E+03  0.00000000000E+00 0.  1.
<mgrwt>
<rscale>  0 0.23224784E+04</rscale>
<asrwt>0</asrwt>
<pdfrwt beam="1">  1        1 0.20811617E+00 0.23224784E+04</pdfrwt>
<pdfrwt beam="2">  1       -2 0.15335955E+00 0.23224784E+04</pdfrwt>
<totfact> 0.18554512E+00</totfact>
</mgrwt>
</event>
<event>
12    4  0.4398275E-008  0.1072370E+04  0.7818608E-02  0.9232548E-01
          1   -1    0    0  501    0  0.00000000000E+00  0.00000000000E+00  0.27971351494E+04  0.27971351494E+04  0.00000000000E+00 0. -1.
         -2   -1    0    0    0  501 -0.00000000000E+00 -0.00000000000E+00 -0.10278172020E+03  0.10278172020E+03  0.00000000000E+00 0.  1.
        -24    2    1    2    0    0  0.67599297995E+02 -0.24529836119E+02  0.70303264549E+02  0.12559049905E+03  0.75226634216E+02 0.  0.
        254    2    1    2    0    0 -0.67599297995E+02  0.24529836119E+02  0.26240501646E+04  0.27743263705E+04  0.89781744568E+03 0.  0.
         23    2    4    4    0    0 -0.34921071978E+03  0.27322866861E+03  0.19051068596E+04  0.19581106562E+04  0.90350225856E+02 0.  0.
         23    2    4    4    0    0  0.28161142178E+03 -0.24869883249E+03  0.71894330504E+03  0.81621571433E+03  0.90401959548E+02 0.  0.
          3    1    3    3  502    0  0.22843059589E+02  0.23108451783E+02  0.44987203668E+02  0.55494634056E+02  0.00000000000E+00 0. -1.
         -4    1    3    3    0  502  0.44756238406E+02 -0.47638287901E+02  0.25316060881E+02  0.70095864992E+02  0.00000000000E+00 0.  1.
         11    1    5    5    0    0 -0.28032335948E+03  0.25990480186E+03  0.15966192444E+04  0.16417444087E+04  0.00000000000E+00 0.  1.
        -11    1    5    5    0    0 -0.68887360298E+02  0.13323866752E+02  0.30848761525E+03  0.31636624756E+03  0.00000000000E+00 0. -1.
          4    1    6    6  503    0  0.75280348524E+02 -0.30112827937E+02  0.10521705463E+03  0.13283275901E+03  0.00000000000E+00 0. -1.
         -4    1    6    6    0  503  0.20633107326E+03 -0.21858600455E+03  0.61372625041E+03  0.68338295532E+03  0.00000000000E+00 0.  1.
<mgrwt>
<rscale>  0 0.10723700E+04</rscale>
<asrwt>0</asrwt>
<pdfrwt beam="1">  1        1 0.43032843E+00 0.10723700E+04</pdfrwt>
<pdfrwt beam="2">  1       -2 0.15812574E-01 0.10723700E+04</pdfrwt>
<totfact> 0.23908812E+01</totfact>
</mgrwt>
</event>
<event>
12    4  0.4398275E-008  0.1896959E+04  0.7818608E-02  0.8656372E-01
         -2   -1    0    0    0  501 -0.00000000000E+00  0.00000000000E+00  0.50615456880E+03  0.50615456880E+03  0.00000000000E+00 0.  1.
          1   -1    0    0  501    0  0.00000000000E+00 -0.00000000000E+00 -0.17773486978E+04  0.17773486978E+04  0.00000000000E+00 0. -1.
        -24    2    1    2    0    0 -0.22545747671E+03 -0.23704904759E+03  0.29521172361E+03  0.44828176301E+03  0.82360503442E+02 0.  0.
        254    2    1    2    0    0  0.22545747671E+03  0.23704904759E+03 -0.15664058526E+04  0.18352215036E+04  0.89854735399E+03 0.  0.
         23    2    4    4    0    0  0.51583485954E+03  0.23048212098E+03 -0.13338188444E+04  0.14516581488E+04  0.95031894636E+02 0.  0.
         23    2    4    4    0    0 -0.29037738283E+03  0.65669266105E+01 -0.23258700820E+03  0.38356335474E+03  0.93069768086E+02 0.  0.
          3    1    3    3  502    0 -0.22222270154E+02  0.14621695544E+01  0.94503378230E+01  0.24192480558E+02  0.00000000000E+00 0. -1.
         -4    1    3    3    0  502 -0.20323520656E+03 -0.23851121715E+03  0.28576138578E+03  0.42408928246E+03  0.00000000000E+00 0.  1.
         11    1    5    5    0    0  0.43332587781E+03  0.15288479113E+03 -0.10830941924E+04  0.11765364870E+04  0.00000000000E+00 0. -1.
        -11    1    5    5    0    0  0.82508981731E+02  0.77597329853E+02 -0.25072465202E+03  0.27512166181E+03  0.00000000000E+00 0.  1.
          2    1    6    6  503    0 -0.13885923848E+03  0.49350964175E+02 -0.11917547688E+03  0.18952625165E+03  0.00000000000E+00 0. -1.
         -2    1    6    6    0  503 -0.15151814435E+03 -0.42784037565E+02 -0.11341153131E+03  0.19403710308E+03  0.00000000000E+00 0.  1.
<mgrwt>
<rscale>  0 0.18969588E+04</rscale>
<asrwt>0</asrwt>
<pdfrwt beam="1">  1        1 0.27343826E+00 0.18969588E+04</pdfrwt>
<pdfrwt beam="2">  1       -2 0.77869934E-01 0.18969588E+04</pdfrwt>
<totfact> 0.50933793E+00</totfact>
</mgrwt>
</event>
<event>
12    4  0.4398275E-008  0.2171346E+04  0.7818608E-02  0.8530450E-01
         -2   -1    0    0    0  501 -0.00000000000E+00  0.00000000000E+00  0.13197707928E+04  0.13197707928E+04  0.00000000000E+00 0.  1.
          1   -1    0    0  501    0  0.00000000000E+00 -0.00000000000E+00 -0.89309887384E+03  0.89309887384E+03  0.00000000000E+00 0. -1.
        -24    2    1    2    0    0 -0.39421206558E+03 -0.79704000964E+03  0.43925454021E+02  0.89371655001E+03  0.78255329842E+02 0.  0.
        254    2    1    2    0    0  0.39421206558E+03  0.79704000964E+03  0.38274646491E+03  0.13191531166E+04  0.89609941359E+03 0.  0.
         23    2    4    4    0    0  0.66410374360E+03  0.56369237748E+03  0.36934676698E+03  0.95057287640E+03  0.91590831256E+02 0.  0.
         23    2    4    4    0    0 -0.26989167803E+03  0.23334763216E+03  0.13399697931E+02  0.36858024021E+03  0.91538004483E+02 0.  0.
          1    1    3    3  502    0 -0.31307341767E+03 -0.61265624184E+03  0.23169446292E+01  0.68801744436E+03  0.00000000000E+00 0. -1.
         -2    1    3    3    0  502 -0.81138647908E+02 -0.18438376779E+03  0.41608509392E+02  0.20569910565E+03  0.00000000000E+00 0.  1.
         11    1    5    5    0    0  0.24981124681E+03  0.15592118368E+03  0.11739586558E+03  0.31701555768E+03  0.00000000000E+00 0.  1.
        -11    1    5    5    0    0  0.41429249679E+03  0.40777119380E+03  0.25195090140E+03  0.63355731872E+03  0.00000000000E+00 0. -1.
          3    1    6    6  503    0 -0.14702470241E+03  0.18447967069E+03  0.14522058676E+02  0.23634699534E+03  0.00000000000E+00 0. -1.
         -3    1    6    6    0  503 -0.12286697562E+03  0.48867961467E+02 -0.11223607446E+01  0.13223324487E+03  0.00000000000E+00 0.  1.
<mgrwt>
<rscale>  0 0.21713460E+04</rscale>
<asrwt>0</asrwt>
<pdfrwt beam="1">  1        1 0.13739983E+00 0.21713460E+04</pdfrwt>
<pdfrwt beam="2">  1       -2 0.20304166E+00 0.21713460E+04</pdfrwt>
<totfact> 0.18758349E+00</totfact>
</mgrwt>
</event>
<event>
12    4  0.4398275E-008  0.1676160E+04  0.7818608E-02  0.8775079E-01
          1   -1    0    0  501    0  0.00000000000E+00  0.00000000000E+00  0.71989496702E+03  0.71989496702E+03  0.00000000000E+00 0. -1.
         -2   -1    0    0    0  501 -0.00000000000E+00 -0.00000000000E+00 -0.97566693377E+03  0.97566693377E+03  0.00000000000E+00 0.  1.
        -24    2    1    2    0    0  0.55249395920E+03  0.11529907153E+03 -0.29358090358E+03  0.64084819237E+03  0.77157033823E+02 0.  0.
        254    2    1    2    0    0 -0.55249395920E+03 -0.11529907153E+03  0.37808936833E+02  0.10547137084E+04  0.89019550671E+03 0.  0.
         23    2    4    4    0    0  0.30469137155E+01 -0.16932611203E+02 -0.35103290982E+03  0.36342412881E+03  0.92504035691E+02 0.  0.
         23    2    4    4    0    0 -0.55554087292E+03 -0.98366460332E+02  0.38884184665E+03  0.69128957961E+03  0.91551510972E+02 0.  0.
          1    1    3    3  502    0  0.50608494395E+02  0.33999235357E+02 -0.37408982737E+02  0.71530411010E+02  0.00000000000E+00 0. -1.
         -2    1    3    3    0  502  0.50188546481E+03  0.81299836177E+02 -0.25617192084E+03  0.56931778136E+03  0.00000000000E+00 0.  1.
         11    1    5    5    0    0 -0.17692745492E+02  0.14541116711E+02 -0.29503386722E+03  0.29592137490E+03  0.00000000000E+00 0. -1.
        -11    1    5    5    0    0  0.20739659207E+02 -0.31473727914E+02 -0.55999042605E+02  0.67502753911E+02  0.00000000000E+00 0.  1.
          4    1    6    6  503    0 -0.39341102087E+03 -0.43729681145E+02  0.31066047555E+03  0.50318430762E+03  0.00000000000E+00 0. -1.
         -4    1    6    6    0  503 -0.16212985205E+03 -0.54636779187E+02  0.78181371101E+02  0.18810527199E+03  0.00000000000E+00 0.  1.
<mgrwt>
<rscale>  0 0.16761596E+04</rscale>
<asrwt>0</asrwt>
<pdfrwt beam="1">  1        1 0.11075307E+00 0.16761596E+04</pdfrwt>
<pdfrwt beam="2">  1       -2 0.15010260E+00 0.16761596E+04</pdfrwt>
<totfact> 0.65144605E+00</totfact>
</mgrwt>
</event>
<event>
12    4  0.4398275E-008  0.1776315E+04  0.7818608E-02  0.8718997E-01
         -2   -1    0    0    0  501 -0.00000000000E+00  0.00000000000E+00  0.64457711089E+03  0.64457711089E+03  0.00000000000E+00 0.  1.
          1   -1    0    0  501    0  0.00000000000E+00 -0.00000000000E+00 -0.12237848296E+04  0.12237848296E+04  0.00000000000E+00 0. -1.
        -24    2    1    2    0    0 -0.85902066696E+02  0.26752224870E+03  0.40084564021E+03  0.49593934236E+03  0.79569374876E+02 0.  0.
        254    2    1    2    0    0  0.85902066696E+02 -0.26752224870E+03 -0.98005335889E+03  0.13724225981E+04  0.91874473218E+03 0.  0.
         23    2    4    4    0    0  0.49413856719E+03 -0.16854057189E+03 -0.51948073727E+03  0.74208870955E+03  0.90865661778E+02 0.  0.
         23    2    4    4    0    0 -0.40823650049E+03 -0.98981676810E+02 -0.46057262162E+03  0.63033388856E+03  0.93484001867E+02 0.  0.
          1    1    3    3  502    0 -0.45656294245E+02  0.60427335020E+02  0.67541785578E+02  0.10147833671E+03  0.00000000000E+00 0. -1.
         -2    1    3    3    0  502 -0.40245772451E+02  0.20709491368E+03  0.33330385463E+03  0.39446100566E+03  0.00000000000E+00 0.  1.
         11    1    5    5    0    0  0.29544936811E+03 -0.11066163765E+03 -0.37306459827E+03  0.48858317781E+03  0.00000000000E+00 0.  1.
        -11    1    5    5    0    0  0.19868919908E+03 -0.57878934244E+02 -0.14641613900E+03  0.25350553174E+03  0.00000000000E+00 0. -1.
          1    1    6    6  503    0 -0.10757710232E+03 -0.22862176764E+02 -0.18614680447E+03  0.21620856802E+03  0.00000000000E+00 0. -1.
         -1    1    6    6    0  503 -0.30065939817E+03 -0.76119500045E+02 -0.27442581715E+03  0.41412532054E+03  0.00000000000E+00 0.  1.
<mgrwt>
<rscale>  0 0.17763149E+04</rscale>
<asrwt>0</asrwt>
<pdfrwt beam="1">  1        1 0.18827459E+00 0.17763149E+04</pdfrwt>
<pdfrwt beam="2">  1       -2 0.99165711E-01 0.17763149E+04</pdfrwt>
<totfact> 0.71745092E+00</totfact>
</mgrwt>
</event>
<event>
12    4  0.4398275E-008  0.1506310E+04  0.7818608E-02  0.8880268E-01
          1   -1    0    0  501    0  0.00000000000E+00  0.00000000000E+00  0.39084611600E+04  0.39084611600E+04  0.00000000000E+00 0. -1.
         -2   -1    0    0    0  501 -0.00000000000E+00 -0.00000000000E+00 -0.14513184434E+03  0.14513184434E+03  0.00000000000E+00 0.  1.
        -24    2    1    2    0    0  0.36576553715E+03  0.23745821062E+03  0.17328602879E+04  0.17889030626E+04  0.84844328071E+02 0.  0.
        254    2    1    2    0    0 -0.36576553715E+03 -0.23745821062E+03  0.20304690277E+04  0.22646899417E+04  0.90324151231E+03 0.  0.
         23    2    4    4    0    0 -0.56809639536E+03 -0.69227584067E+02  0.71614526114E+03  0.92116038160E+03  0.90257635436E+02 0.  0.
         23    2    4    4    0    0  0.20233085821E+03 -0.16823062656E+03  0.13143237666E+04  0.13435295601E+04  0.91571805630E+02 0.  0.
          1    1    3    3  502    0  0.29165671738E+03  0.22416592321E+03  0.13877749109E+04  0.14356995526E+04  0.00000000000E+00 0. -1.
         -2    1    3    3    0  502  0.74108819771E+02  0.13292287409E+02  0.34508537700E+03  0.35320351002E+03  0.00000000000E+00 0.  1.
         11    1    5    5    0    0 -0.25062153896E+03 -0.57170650493E+02  0.37855290572E+03  0.45758271547E+03  0.00000000000E+00 0. -1.
        -11    1    5    5    0    0 -0.31747485640E+03 -0.12056933574E+02  0.33759235542E+03  0.46357766613E+03  0.00000000000E+00 0.  1.
          2    1    6    6  503    0  0.11267697836E+03 -0.11959527385E+03  0.60525227388E+03  0.62715982494E+03  0.00000000000E+00 0. -1.
         -2    1    6    6    0  503  0.89653879849E+02 -0.48635352709E+02  0.70907149271E+03  0.71636973517E+03  0.00000000000E+00 0.  1.
<mgrwt>
<rscale>  0 0.15063096E+04</rscale>
<asrwt>0</asrwt>
<pdfrwt beam="1">  1        1 0.60130164E+00 0.15063096E+04</pdfrwt>
<pdfrwt beam="2">  1       -2 0.22327979E-01 0.15063096E+04</pdfrwt>
<totfact> 0.17518746E+00</totfact>
</mgrwt>
</event>
<event>
12    4  0.4398275E-008  0.2268242E+04  0.7818608E-02  0.8490549E-01
         -2   -1    0    0    0  501 -0.00000000000E+00  0.00000000000E+00  0.70445189318E+03  0.70445189318E+03  0.00000000000E+00 0.  1.
          1   -1    0    0  501    0  0.00000000000E+00 -0.00000000000E+00 -0.18258596609E+04  0.18258596609E+04  0.00000000000E+00 0. -1.
        -24    2    1    2    0    0 -0.67563752514E+03 -0.43780384328E+03 -0.10383727486E+04  0.13163331534E+04  0.79729137286E+02 0.  0.
        254    2    1    2    0    0  0.67563752514E+03  0.43780384328E+03 -0.83035019172E+02  0.12139784006E+04  0.90481515917E+03 0.  0.
         23    2    4    4    0    0  0.87888789659E+03  0.38126050080E+03 -0.14805999775E+03  0.97390497119E+03  0.93624920446E+02 0.  0.
         23    2    4    4    0    0 -0.20325037145E+03  0.56543342478E+02  0.65024978581E+02  0.24007342946E+03  0.94335256505E+02 0.  0.
          3    1    3    3  502    0 -0.54192534462E+03 -0.36829674365E+03 -0.79678544588E+03  0.10315971197E+04  0.00000000000E+00 0. -1.
         -4    1    3    3    0  502 -0.13371218052E+03 -0.69507099634E+02 -0.24158730268E+03  0.28473603378E+03  0.00000000000E+00 0.  1.
         11    1    5    5    0    0  0.34715044296E+03  0.10149530133E+03 -0.50477284338E+02  0.36518855742E+03  0.00000000000E+00 0.  1.
        -11    1    5    5    0    0  0.53173745363E+03  0.27976519948E+03 -0.97582713416E+02  0.60871641377E+03  0.00000000000E+00 0. -1.
          2    1    6    6  503    0  0.32926927108E+01 -0.20527719254E+01  0.20432005287E+02  0.20797176201E+02  0.00000000000E+00 0.  1.
         -2    1    6    6    0  503 -0.20654306416E+03  0.58596114404E+02  0.44592973294E+02  0.21927625326E+03  0.00000000000E+00 0. -1.
<mgrwt>
<rscale>  0 0.22682419E+04</rscale>
<asrwt>0</asrwt>
<pdfrwt beam="1">  1        1 0.28090148E+00 0.22682419E+04</pdfrwt>
<pdfrwt beam="2">  1       -2 0.10837722E+00 0.22682419E+04</pdfrwt>
<totfact> 0.21213162E+00</totfact>
</mgrwt>
</event>
<event>
12    4  0.4398275E-008  0.2813936E+04  0.7818608E-02  0.8298955E-01
         -2   -1    0    0    0  501 -0.00000000000E+00  0.00000000000E+00  0.22061913404E+04  0.22061913404E+04  0.00000000000E+00 0.  1.
          1   -1    0    0  501    0  0.00000000000E+00 -0.00000000000E+00 -0.89727420220E+03  0.89727420220E+03  0.00000000000E+00 0. -1.
        -24    2    1    2    0    0  0.77340991911E+03  0.53663720448E+03  0.15443879173E+04  0.18104571224E+04  0.80489507901E+02 0.  0.
        254    2    1    2    0    0 -0.77340991911E+03 -0.53663720448E+03 -0.23547077901E+03  0.12930084202E+04  0.85456532508E+03 0.  0.
         23    2    4    4    0    0  0.14836712256E+03 -0.17179870122E+03 -0.16604756690E+03  0.29499279875E+03  0.89002022704E+02 0.  0.
         23    2    4    4    0    0 -0.92177704167E+03 -0.36483850326E+03 -0.69423212108E+02  0.99801562148E+03  0.91845252067E+02 0.  0.
          1    1    3    3  502    0  0.19342138736E+03  0.17644899695E+03  0.40992700027E+03  0.48640130259E+03  0.00000000000E+00 0. -1.
         -2    1    3    3    0  502  0.57998853175E+03  0.36018820753E+03  0.11344609170E+04  0.13240558198E+04  0.00000000000E+00 0.  1.
         11    1    5    5    0    0  0.36042821172E+02  0.13434710209E+00 -0.11061356351E+02  0.37702209637E+02  0.00000000000E+00 0. -1.
        -11    1    5    5    0    0  0.11232430139E+03 -0.17193304832E+03 -0.15498621055E+03  0.25729058912E+03  0.00000000000E+00 0.  1.
          4    1    6    6  503    0 -0.11515780438E+03 -0.42243667654E+02 -0.39130080085E+02  0.12875173993E+03  0.00000000000E+00 0. -1.
         -4    1    6    6    0  503 -0.80661923729E+03 -0.32259483561E+03 -0.30293132023E+02  0.86926388156E+03  0.00000000000E+00 0.  1.
<mgrwt>
<rscale>  0 0.28139357E+04</rscale>
<asrwt>0</asrwt>
<pdfrwt beam="1">  1        1 0.13804219E+00 0.28139357E+04</pdfrwt>
<pdfrwt beam="2">  1       -2 0.33941405E+00 0.28139357E+04</pdfrwt>
<totfact> 0.25156834E-01</totfact>
</mgrwt>
</event>
<event>
12    4  0.4398275E-008  0.1181527E+04  0.7818608E-02  0.9129181E-01
          1   -1    0    0  501    0  0.00000000000E+00  0.00000000000E+00  0.75496461474E+03  0.75496461474E+03  0.00000000000E+00 0. -1.
         -2   -1    0    0    0  501 -0.00000000000E+00 -0.00000000000E+00 -0.46227524623E+03  0.46227524623E+03  0.00000000000E+00 0.  1.
        -24    2    1    2    0    0 -0.11465678253E+03  0.67575790591E+02  0.25376417689E+03  0.29763072583E+03  0.80468169052E+02 0.  0.
        254    2    1    2    0    0  0.11465678253E+03 -0.67575790591E+02  0.38925191625E+02  0.91960913514E+03  0.90909467364E+03 0.  0.
         23    2    4    4    0    0 -0.35140839234E+03  0.14696989279E+03 -0.37271085884E+02  0.39279153452E+03  0.88363160641E+02 0.  0.
         23    2    4    4    0    0  0.46606517487E+03 -0.21454568338E+03  0.76196277509E+02  0.52681760062E+03  0.92110336742E+02 0.  0.
          3    1    3    3  502    0 -0.11611524406E+03  0.47072186739E+02  0.24521066910E+03  0.27536668808E+03  0.00000000000E+00 0. -1.
         -4    1    3    3    0  502  0.14584615361E+01  0.20503603852E+02  0.85535077910E+01  0.22264037740E+02  0.00000000000E+00 0.  1.
         11    1    5    5    0    0 -0.17145827517E+02 -0.11151292878E+02 -0.76305800650E+01  0.21830173756E+02  0.00000000000E+00 0.  1.
        -11    1    5    5    0    0 -0.33426256482E+03  0.15812118567E+03 -0.29640505819E+02  0.37096136077E+03  0.00000000000E+00 0. -1.
          2    1    6    6  503    0  0.36171653318E+03 -0.12682851210E+03  0.37640564622E+02  0.38515079380E+03  0.00000000000E+00 0. -1.
         -2    1    6    6    0  503  0.10434864169E+03 -0.87717171276E+02  0.38555712887E+02  0.14166680682E+03  0.00000000000E+00 0.  1.
<mgrwt>
<rscale>  0 0.11815269E+04</rscale>
<asrwt>0</asrwt>
<pdfrwt beam="1">  1        1 0.11614840E+00 0.11815269E+04</pdfrwt>
<pdfrwt beam="2">  1       -2 0.71119269E-01 0.11815269E+04</pdfrwt>
<totfact> 0.37791952E+01</totfact>
</mgrwt>
</event>
<event>
12    4  0.4398275E-008  0.2024439E+04  0.7818608E-02  0.8595279E-01
         -2   -1    0    0    0  501 -0.00000000000E+00  0.00000000000E+00  0.11091768866E+04  0.11091768866E+04  0.00000000000E+00 0.  1.
          1   -1    0    0  501    0  0.00000000000E+00 -0.00000000000E+00 -0.92373729866E+03  0.92373729866E+03  0.00000000000E+00 0. -1.
        -24    2    1    2    0    0  0.52294401815E+02  0.35121737537E+03  0.80246563504E+03  0.88151691101E+03  0.83860716311E+02 0.  0.
        254    2    1    2    0    0 -0.52294401815E+02 -0.35121737537E+03 -0.61702604709E+03  0.11513972743E+04  0.90493435739E+03 0.  0.
         23    2    4    4    0    0 -0.16749433344E+03  0.26831030615E+03 -0.14952080776E+03  0.36136199257E+03  0.90450238243E+02 0.  0.
         23    2    4    4    0    0  0.11519993163E+03 -0.61952768153E+03 -0.46750523934E+03  0.79003528171E+03  0.92244377121E+02 0.  0.
          1    1    3    3  502    0 -0.16584449486E+02  0.13678598107E+03  0.26256082352E+03  0.29651919774E+03  0.00000000000E+00 0. -1.
         -2    1    3    3    0  502  0.68878851301E+02  0.21443139431E+03  0.53990481152E+03  0.58499771327E+03  0.00000000000E+00 0.  1.
         11    1    5    5    0    0  0.19119131459E+01  0.59391593792E+02 -0.35518022403E+02  0.69228222139E+02  0.00000000000E+00 0.  1.
        -11    1    5    5    0    0 -0.16940624659E+03  0.20891871236E+03 -0.11400278535E+03  0.29213377043E+03  0.00000000000E+00 0. -1.
          4    1    6    6  503    0  0.95638805062E+02 -0.28807773776E+03 -0.19813547087E+03  0.36248203934E+03  0.00000000000E+00 0. -1.
         -4    1    6    6    0  503  0.19561126565E+02 -0.33144994376E+03 -0.26936976847E+03  0.42755324237E+03  0.00000000000E+00 0.  1.
<mgrwt>
<rscale>  0 0.20244387E+04</rscale>
<asrwt>0</asrwt>
<pdfrwt beam="1">  1        1 0.14211343E+00 0.20244387E+04</pdfrwt>
<pdfrwt beam="2">  1       -2 0.17064260E+00 0.20244387E+04</pdfrwt>
<totfact> 0.29771625E+00</totfact>
</mgrwt>
</event>
<event>
12    4  0.4398275E-008  0.1530865E+04  0.7818608E-02  0.8864183E-01
          1   -1    0    0  501    0  0.00000000000E+00  0.00000000000E+00  0.34869299210E+03  0.34869299210E+03  0.00000000000E+00 0. -1.
         -2   -1    0    0    0  501 -0.00000000000E+00 -0.00000000000E+00 -0.16802380973E+04  0.16802380973E+04  0.00000000000E+00 0.  1.
        -24    2    1    2    0    0  0.43164770186E+03 -0.20376979946E+03 -0.25764987642E+03  0.54835533655E+03  0.80425410255E+02 0.  0.
        254    2    1    2    0    0 -0.43164770186E+03  0.20376979946E+03 -0.10738952288E+04  0.14805757529E+04  0.90056189563E+03 0.  0.
         23    2    4    4    0    0  0.12902467328E+03 -0.54675447015E+02  0.67131586510E+02  0.18002828779E+03  0.90921744794E+02 0.  0.
         23    2    4    4    0    0 -0.56067237514E+03  0.25844524647E+03 -0.11410268153E+04  0.13005474651E+04  0.91291061963E+02 0.  0.
          3    1    3    3  502    0  0.12655803281E+03 -0.63561852620E+02 -0.11941373676E+03  0.18524763239E+03  0.00000000000E+00 0. -1.
         -4    1    3    3    0  502  0.30508966904E+03 -0.14020794684E+03 -0.13823613966E+03  0.36310770416E+03  0.00000000000E+00 0.  1.
         11    1    5    5    0    0  0.10831667398E+03 -0.45858943689E+02  0.93236435463E+01  0.11799353757E+03  0.00000000000E+00 0. -1.
        -11    1    5    5    0    0  0.20707999303E+02 -0.88165033254E+01  0.57807942964E+02  0.62034750227E+02  0.00000000000E+00 0.  1.
          3    1    6    6  503    0 -0.63812095526E+02 -0.43812435030E+00 -0.11430704530E+03  0.13091323880E+03  0.00000000000E+00 0. -1.
         -3    1    6    6    0  503 -0.49686027961E+03  0.25888337082E+03 -0.10267197700E+04  0.11696342263E+04  0.00000000000E+00 0.  1.
<mgrwt>
<rscale>  0 0.15308654E+04</rscale>
<asrwt>0</asrwt>
<pdfrwt beam="1">  1        1 0.53645075E-01 0.15308654E+04</pdfrwt>
<pdfrwt beam="2">  1       -2 0.25849817E+00 0.15308654E+04</pdfrwt>
<totfact> 0.34613622E+00</totfact>
</mgrwt>
</event>
<event>
12    4  0.4398275E-008  0.1265788E+04  0.7818608E-02  0.9057145E-01
          1   -1    0    0  501    0  0.00000000000E+00  0.00000000000E+00  0.57722914996E+03  0.57722914996E+03  0.00000000000E+00 0. -1.
         -2   -1    0    0    0  501 -0.00000000000E+00 -0.00000000000E+00 -0.69392636721E+03  0.69392636721E+03  0.00000000000E+00 0.  1.
        -24    2    1    2    0    0 -0.15129446256E+03 -0.22876470528E+03 -0.14345075985E+03  0.31953439169E+03  0.79377592466E+02 0.  0.
        254    2    1    2    0    0  0.15129446256E+03  0.22876470528E+03  0.26753542599E+02  0.95162112548E+03  0.91084779718E+03 0.  0.
         23    2    4    4    0    0 -0.20950300712E+02 -0.29432061504E+03 -0.18023885686E+03  0.35645076529E+03  0.86646194485E+02 0.  0.
         23    2    4    4    0    0  0.17224476328E+03  0.52308532032E+03  0.20699239946E+03  0.59517036019E+03  0.89974404101E+02 0.  0.
          1    1    3    3  502    0 -0.10421902468E+03 -0.15084769231E+03 -0.52187929768E+02  0.19063108717E+03  0.00000000000E+00 0. -1.
         -2    1    3    3    0  502 -0.47075437884E+02 -0.77917012972E+02 -0.91262830085E+02  0.12890330453E+03  0.00000000000E+00 0.  1.
         11    1    5    5    0    0 -0.20290593728E+02 -0.28563661577E+03 -0.14659648283E+03  0.32169941442E+03  0.00000000000E+00 0. -1.
        -11    1    5    5    0    0 -0.65970698376E+00 -0.86839992679E+01 -0.33642374035E+02  0.34751350871E+02  0.00000000000E+00 0.  1.
          1    1    6    6  503    0  0.98361128175E+02  0.41759008315E+03  0.16593365344E+03  0.45998952860E+03  0.00000000000E+00 0. -1.
         -1    1    6    6    0  503  0.73883635102E+02  0.10549523718E+03  0.41058746024E+02  0.13518083158E+03  0.00000000000E+00 0.  1.
<mgrwt>
<rscale>  0 0.12657875E+04</rscale>
<asrwt>0</asrwt>
<pdfrwt beam="1">  1        1 0.88804484E-01 0.12657875E+04</pdfrwt>
<pdfrwt beam="2">  1       -2 0.10675790E+00 0.12657875E+04</pdfrwt>
<totfact> 0.22043250E+01</totfact>
</mgrwt>
</event>
<event>
12    4  0.4398275E-008  0.1920234E+04  0.7818608E-02  0.8644850E-01
          1   -1    0    0  501    0  0.00000000000E+00  0.00000000000E+00  0.37981957944E+03  0.37981957944E+03  0.00000000000E+00 0. -1.
         -2   -1    0    0    0  501 -0.00000000000E+00 -0.00000000000E+00 -0.24270061209E+04  0.24270061209E+04  0.00000000000E+00 0.  1.
        -24    2    1    2    0    0  0.62865119826E+03  0.98648382302E+02 -0.22315418932E+03  0.67901531102E+03  0.79562352774E+02 0.  0.
        254    2    1    2    0    0 -0.62865119826E+03 -0.98648382302E+02 -0.18240323521E+04  0.21278103893E+04  0.89193564722E+03 0.  0.
         23    2    4    4    0    0 -0.52571524450E+02  0.48290427294E+02 -0.13702045079E+04  0.13749859327E+04  0.89611333739E+02 0.  0.
         23    2    4    4    0    0 -0.57607967381E+03 -0.14693880960E+03 -0.45382784420E+03  0.75282445656E+03  0.85592907837E+02 0.  0.
          3    1    3    3  502    0  0.40225038558E+03  0.97519633333E+02 -0.12609398864E+03  0.43268365529E+03  0.00000000000E+00 0. -1.
         -4    1    3    3    0  502  0.22640081268E+03  0.11287489695E+01 -0.97060200680E+02  0.24633165573E+03  0.00000000000E+00 0.  1.
         11    1    5    5    0    0  0.11836855554E+02  0.48128207060E+01 -0.72584905929E+03  0.72596152189E+03  0.00000000000E+00 0.  1.
        -11    1    5    5    0    0 -0.64408380005E+02  0.43477606588E+02 -0.64435544865E+03  0.64902441086E+03  0.00000000000E+00 0. -1.
          2    1    6    6  503    0 -0.42173442090E+03 -0.14547958042E+03 -0.32904382316E+03  0.55434111127E+03  0.00000000000E+00 0. -1.
         -2    1    6    6    0  503 -0.15434525292E+03 -0.14592291755E+01 -0.12478402104E+03  0.19848334529E+03  0.00000000000E+00 0.  1.
<mgrwt>
<rscale>  0 0.19202338E+04</rscale>
<asrwt>0</asrwt>
<pdfrwt beam="1">  1        1 0.58433783E-01 0.19202338E+04</pdfrwt>
<pdfrwt beam="2">  1       -2 0.37338555E+00 0.19202338E+04</pdfrwt>
<totfact> 0.58189729E-01</totfact>
</mgrwt>
</event>
<event>
12    4  0.4398275E-008  0.1688326E+04  0.7818608E-02  0.8768050E-01
         -2   -1    0    0    0  501 -0.00000000000E+00  0.00000000000E+00  0.33683120307E+03  0.33683120307E+03  0.00000000000E+00 0.  1.
          1   -1    0    0  501    0  0.00000000000E+00 -0.00000000000E+00 -0.21156340193E+04  0.21156340193E+04  0.00000000000E+00 0. -1.
        -24    2    1    2    0    0  0.35839371894E+03  0.36445699086E+02  0.57823216629E+02  0.37404803758E+03  0.82426107996E+02 0.  0.
        254    2    1    2    0    0 -0.35839371894E+03 -0.36445699086E+02 -0.18366260329E+04  0.20784171848E+04  0.90379669323E+03 0.  0.
         23    2    4    4    0    0 -0.22253266767E+03 -0.17602960033E+03 -0.18396537117E+04  0.18635639437E+04  0.89652578373E+02 0.  0.
         23    2    4    4    0    0 -0.13586105127E+03  0.13958390124E+03  0.30276788814E+01  0.21485324108E+03  0.90613782742E+02 0.  0.
          1    1    3    3  502    0  0.53596520368E+02  0.15731101453E+02 -0.19063715567E+02  0.59021011510E+02  0.00000000000E+00 0. -1.
         -2    1    3    3    0  502  0.30479719857E+03  0.20714597633E+02  0.76886932196E+02  0.31502702607E+03  0.00000000000E+00 0.  1.
         11    1    5    5    0    0 -0.18922482894E+03 -0.12580483545E+03 -0.16174292041E+04  0.16333126225E+04  0.00000000000E+00 0.  1.
        -11    1    5    5    0    0 -0.33307838729E+02 -0.50224764877E+02 -0.22222450761E+03  0.23025132119E+03  0.00000000000E+00 0. -1.
          1    1    6    6  503    0 -0.18881765541E+02 -0.11684247512E+02  0.79005862392E+01  0.23568240765E+02  0.00000000000E+00 0. -1.
         -1    1    6    6    0  503 -0.11697928573E+03  0.15126814876E+03 -0.48729073578E+01  0.19128500031E+03  0.00000000000E+00 0.  1.
<mgrwt>
<rscale>  0 0.16883265E+04</rscale>
<asrwt>0</asrwt>
<pdfrwt beam="1">  1        1 0.32548215E+00 0.16883265E+04</pdfrwt>
<pdfrwt beam="2">  1       -2 0.51820185E-01 0.16883265E+04</pdfrwt>
<totfact> 0.73181060E+00</totfact>
</mgrwt>
</event>
<event>
12    4  0.4398275E-008  0.1834192E+04  0.7818608E-02  0.8688325E-01
          1   -1    0    0  501    0  0.00000000000E+00  0.00000000000E+00  0.10426768545E+04  0.10426768545E+04  0.00000000000E+00 0. -1.
         -2   -1    0    0    0  501 -0.00000000000E+00 -0.00000000000E+00 -0.80663993480E+03  0.80663993480E+03  0.00000000000E+00 0.  1.
        -24    2    1    2    0    0 -0.32385315496E+03  0.59290507147E+03 -0.86084826279E+02  0.68660494165E+03  0.87169139219E+02 0.  0.
        254    2    1    2    0    0  0.32385315496E+03 -0.59290507147E+03  0.32212174594E+03  0.11627118476E+04  0.88978600326E+03 0.  0.
         23    2    4    4    0    0  0.89715071809E+02 -0.74674139979E+03  0.40049671306E+03  0.85831794743E+03  0.10315313586E+03 0.  0.
         23    2    4    4    0    0  0.23413808315E+03  0.15383632832E+03 -0.78374967121E+02  0.30439390017E+03  0.89592148655E+02 0.  0.
          3    1    3    3  502    0 -0.20323508405E+02  0.57547204281E+02 -0.31746172430E+02  0.68793496628E+02  0.00000000000E+00 0. -1.
         -4    1    3    3    0  502 -0.30352964655E+03  0.53535786719E+03 -0.54338653849E+02  0.61781144502E+03  0.00000000000E+00 0.  1.
         11    1    5    5    0    0  0.82780173617E+02 -0.43626509951E+03  0.28143150574E+03  0.52572187192E+03  0.00000000000E+00 0. -1.
        -11    1    5    5    0    0  0.69348981920E+01 -0.31047630028E+03  0.11906520732E+03  0.33259607551E+03  0.00000000000E+00 0.  1.
          3    1    6    6  503    0  0.40746872219E+02 -0.10653378342E+01 -0.33109589891E+02  0.52513688531E+02  0.00000000000E+00 0. -1.
         -3    1    6    6    0  503  0.19339121093E+03  0.15490166615E+03 -0.45265377229E+02  0.25188021164E+03  0.00000000000E+00 0.  1.
<mgrwt>
<rscale>  0 0.18341917E+04</rscale>
<asrwt>0</asrwt>
<pdfrwt beam="1">  1        1 0.16041182E+00 0.18341917E+04</pdfrwt>
<pdfrwt beam="2">  1       -2 0.12409845E+00 0.18341917E+04</pdfrwt>
<totfact> 0.56467351E+00</totfact>
</mgrwt>
</event>
<event>
12    4  0.4398275E-008  0.2375963E+04  0.7818608E-02  0.8448558E-01
          1   -1    0    0  501    0  0.00000000000E+00  0.00000000000E+00  0.18903221225E+04  0.18903221225E+04  0.00000000000E+00 0. -1.
         -2   -1    0    0    0  501 -0.00000000000E+00 -0.00000000000E+00 -0.74659223170E+03  0.74659223170E+03  0.00000000000E+00 0.  1.
        -24    2    1    2    0    0  0.28515219222E+03 -0.59099753952E+03  0.13262037613E+04  0.14817948953E+04  0.79434443487E+02 0.  0.
        254    2    1    2    0    0 -0.28515219222E+03  0.59099753952E+03 -0.18247387054E+03  0.11551194589E+04  0.93296001328E+03 0.  0.
         23    2    4    4    0    0 -0.51287723921E+03  0.34949151893E+03 -0.40473297195E+03  0.74663515283E+03  0.92021131053E+02 0.  0.
         23    2    4    4    0    0  0.22772504698E+03  0.24150602059E+03  0.22225910141E+03  0.40848430604E+03  0.85302198749E+02 0.  0.
          1    1    3    3  502    0  0.19585371615E+03 -0.48052647659E+03  0.10356052951E+04  0.11583361774E+04  0.00000000000E+00 0. -1.
         -2    1    3    3    0  502  0.89298476073E+02 -0.11047106293E+03  0.29059846629E+03  0.32345871790E+03  0.00000000000E+00 0.  1.
         11    1    5    5    0    0 -0.37392531931E+03  0.25166332741E+03 -0.34082259580E+03  0.56507930116E+03  0.00000000000E+00 0.  1.
        -11    1    5    5    0    0 -0.13895191990E+03  0.97828191518E+02 -0.63910376149E+02  0.18155585168E+03  0.00000000000E+00 0. -1.
          3    1    6    6  503    0  0.80982679100E+02  0.58378093828E+02  0.10934956642E+03  0.14806594420E+03  0.00000000000E+00 0. -1.
         -3    1    6    6    0  503  0.14674236788E+03  0.18312792676E+03  0.11290953499E+03  0.26041836184E+03  0.00000000000E+00 0.  1.
<mgrwt>
<rscale>  0 0.23759628E+04</rscale>
<asrwt>0</asrwt>
<pdfrwt beam="1">  1        1 0.29081879E+00 0.23759628E+04</pdfrwt>
<pdfrwt beam="2">  1       -2 0.11486034E+00 0.23759628E+04</pdfrwt>
<totfact> 0.16502704E+00</totfact>
</mgrwt>
</event>
<event>
12    4  0.4398275E-008  0.2387652E+04  0.7818608E-02  0.8444141E-01
          1   -1    0    0  501    0  0.00000000000E+00  0.00000000000E+00  0.20159170665E+04  0.20159170665E+04  0.00000000000E+00 0. -1.
         -2   -1    0    0    0  501 -0.00000000000E+00 -0.00000000000E+00 -0.70698350827E+03  0.70698350827E+03  0.00000000000E+00 0.  1.
        -24    2    1    2    0    0  0.15118256362E+03 -0.75922611818E+03 -0.20026729533E+03  0.80333971316E+03  0.77247906648E+02 0.  0.
        254    2    1    2    0    0 -0.15118256362E+03  0.75922611818E+03  0.15092008535E+04  0.19195608616E+04  0.89874702724E+03 0.  0.
         23    2    4    4    0    0 -0.26677391132E+03 -0.12390549287E+02  0.88071147231E+02  0.29584540961E+03  0.91902850539E+02 0.  0.
         23    2    4    4    0    0  0.11559134770E+03  0.77161666747E+03  0.14211297063E+04  0.16237154520E+04  0.89936564776E+02 0.  0.
          1    1    3    3  502    0  0.12515448481E+02 -0.21178361152E+03 -0.73780305256E+02  0.22461626834E+03  0.00000000000E+00 0. -1.
         -2    1    3    3    0  502  0.13866711514E+03 -0.54744250666E+03 -0.12648699007E+03  0.57872344482E+03  0.00000000000E+00 0.  1.
         11    1    5    5    0    0 -0.28585225292E+01  0.74257223168E+01  0.21525694944E+02  0.22949249352E+02  0.00000000000E+00 0.  1.
        -11    1    5    5    0    0 -0.26391538879E+03 -0.19816271604E+02  0.66545452287E+02  0.27289616026E+03  0.00000000000E+00 0. -1.
          4    1    6    6  503    0  0.69509066551E+02  0.51927607340E+03  0.86519629500E+03  0.10114562668E+04  0.00000000000E+00 0. -1.
         -4    1    6    6    0  503  0.46082281148E+02  0.25234059407E+03  0.55593341132E+03  0.61225918521E+03  0.00000000000E+00 0.  1.
<mgrwt>
<rscale>  0 0.23876517E+04</rscale>
<asrwt>0</asrwt>
<pdfrwt beam="1">  1        1 0.31014108E+00 0.23876517E+04</pdfrwt>
<pdfrwt beam="2">  1       -2 0.10876669E+00 0.23876517E+04</pdfrwt>
<totfact> 0.15469050E+00</totfact>
</mgrwt>
</event>
<event>
12    4  0.4398275E-008  0.1165280E+04  0.7818608E-02  0.9143802E-01
         -2   -1    0    0    0  501 -0.00000000000E+00  0.00000000000E+00  0.20281017886E+03  0.20281017886E+03  0.00000000000E+00 0.  1.
          1   -1    0    0  501    0  0.00000000000E+00 -0.00000000000E+00 -0.16738275401E+04  0.16738275401E+04  0.00000000000E+00 0. -1.
        -24    2    1    2    0    0  0.29295143223E+01  0.48390631921E+02  0.57174875267E+02  0.10952591387E+03  0.79854393343E+02 0.  0.
        254    2    1    2    0    0 -0.29295143223E+01 -0.48390631921E+02 -0.15281922365E+04  0.17671118051E+04  0.88598102951E+03 0.  0.
         23    2    4    4    0    0  0.22744363293E+03 -0.38830969111E+03 -0.89614481021E+03  0.10080614367E+04  0.10294327039E+03 0.  0.
         23    2    4    4    0    0 -0.23037314726E+03  0.33991905918E+03 -0.63204742634E+03  0.75905036843E+03  0.89759450191E+02 0.  0.
          3    1    3    3  502    0  0.32172647489E+02  0.46824860902E+02  0.16043367403E+02  0.59034197569E+02  0.00000000000E+00 0. -1.
         -4    1    3    3    0  502 -0.29243133166E+02  0.15657710185E+01  0.41131507863E+02  0.50491716305E+02  0.00000000000E+00 0.  1.
         11    1    5    5    0    0  0.62048643842E+02 -0.15848588795E+03 -0.43261337620E+03  0.46488938916E+03  0.00000000000E+00 0. -1.
        -11    1    5    5    0    0  0.16539498909E+03 -0.22982380316E+03 -0.46353143401E+03  0.54317204754E+03  0.00000000000E+00 0.  1.
          3    1    6    6  503    0 -0.22455308910E+03  0.27968776060E+03 -0.55925237491E+03  0.66438885609E+03  0.00000000000E+00 0. -1.
         -3    1    6    6    0  503 -0.58200581586E+01  0.60231298583E+02 -0.72795051424E+02  0.94661512337E+02  0.00000000000E+00 0.  1.
<mgrwt>
<rscale>  0 0.11652798E+04</rscale>
<asrwt>0</asrwt>
<pdfrwt beam="1">  1        1 0.25751194E+00 0.11652798E+04</pdfrwt>
<pdfrwt beam="2">  1       -2 0.31201565E-01 0.11652798E+04</pdfrwt>
<totfact> 0.41213876E+01</totfact>
</mgrwt>
</event>
<event>
12    4  0.4398275E-008  0.2302242E+04  0.7818608E-02  0.8477038E-01
          1   -1    0    0  501    0  0.00000000000E+00  0.00000000000E+00  0.13280117058E+04  0.13280117058E+04  0.00000000000E+00 0. -1.
         -2   -1    0    0    0  501 -0.00000000000E+00 -0.00000000000E+00 -0.99779230035E+03  0.99779230035E+03  0.00000000000E+00 0.  1.
        -24    2    1    2    0    0 -0.95556412925E+03  0.11259019642E+02  0.31959308856E+03  0.10107524040E+04  0.79063957546E+02 0.  0.
        254    2    1    2    0    0  0.95556412925E+03 -0.11259019642E+02  0.10626316854E+02  0.13150516021E+04  0.90333727195E+03 0.  0.
         23    2    4    4    0    0  0.93072673029E+03  0.30259613106E+03 -0.41373482747E+02  0.98342221919E+03  0.87125375795E+02 0.  0.
         23    2    4    4    0    0  0.24837398959E+02 -0.31385515070E+03  0.51999799600E+02  0.33162938289E+03  0.90289071473E+02 0.  0.
          1    1    3    3  502    0 -0.44039931222E+03  0.41032190091E+02  0.13023283384E+03  0.46108110549E+03  0.00000000000E+00 0. -1.
         -2    1    3    3    0  502 -0.51516481703E+03 -0.29773170449E+02  0.18936025472E+03  0.54967129855E+03  0.00000000000E+00 0.  1.
         11    1    5    5    0    0  0.68166389653E+03  0.18236235774E+03 -0.41529674326E+02  0.70685671193E+03  0.00000000000E+00 0. -1.
        -11    1    5    5    0    0  0.24906283376E+03  0.12023377333E+03  0.15619157976E+00  0.27656550726E+03  0.00000000000E+00 0.  1.
          4    1    6    6  503    0  0.24467729052E+02 -0.19666720614E+03 -0.11172893115E+02  0.19849809389E+03  0.00000000000E+00 0.  1.
         -4    1    6    6    0  503  0.36966990723E+00 -0.11718794456E+03  0.63172692715E+02  0.13313128900E+03  0.00000000000E+00 0. -1.
<mgrwt>
<rscale>  0 0.23022423E+04</rscale>
<asrwt>0</asrwt>
<pdfrwt beam="1">  1        1 0.20430949E+00 0.23022423E+04</pdfrwt>
<pdfrwt beam="2">  1       -2 0.15350651E+00 0.23022423E+04</pdfrwt>
<totfact> 0.19303531E+00</totfact>
</mgrwt>
</event>
<event>
12    4  0.4398275E-008  0.2430088E+04  0.7818608E-02  0.8428324E-01
         -2   -1    0    0    0  501 -0.00000000000E+00  0.00000000000E+00  0.10481036560E+04  0.10481036560E+04  0.00000000000E+00 0.  1.
          1   -1    0    0  501    0  0.00000000000E+00 -0.00000000000E+00 -0.14085748712E+04  0.14085748712E+04  0.00000000000E+00 0. -1.
        -24    2    1    2    0    0 -0.30116724068E+03 -0.32358888756E+02 -0.11663111978E+04  0.12075369995E+04  0.78198404787E+02 0.  0.
        254    2    1    2    0    0  0.30116724068E+03  0.32358888756E+02  0.80583998259E+03  0.12491415277E+04  0.90511196772E+03 0.  0.
         23    2    4    4    0    0  0.61169957784E+03  0.10133547898E+02  0.61939813718E+03  0.87567500003E+03  0.94199740013E+02 0.  0.
         23    2    4    4    0    0 -0.31053233715E+03  0.22225340859E+02  0.18644184541E+03  0.37346652766E+03  0.88274500097E+02 0.  0.
          1    1    3    3  502    0 -0.27767189167E+03 -0.43909108873E+02 -0.98450359021E+03  0.10238539976E+04  0.00000000000E+00 0. -1.
         -2    1    3    3    0  502 -0.23495349014E+02  0.11550220117E+02 -0.18180760762E+03  0.18368300193E+03  0.00000000000E+00 0.  1.
         11    1    5    5    0    0  0.52649236788E+03  0.78042446798E+01  0.48122504064E+03  0.71332507275E+03  0.00000000000E+00 0.  1.
        -11    1    5    5    0    0  0.85207209961E+02  0.23293032180E+01  0.13817309654E+03  0.16234992728E+03  0.00000000000E+00 0. -1.
          3    1    6    6  503    0 -0.77233845487E+02 -0.17088518151E+02  0.13114629482E+02  0.80181530590E+02  0.00000000000E+00 0. -1.
         -3    1    6    6    0  503 -0.23329849167E+03  0.39313859010E+02  0.17332721593E+03  0.29328499707E+03  0.00000000000E+00 0.  1.
<mgrwt>
<rscale>  0 0.24300885E+04</rscale>
<asrwt>0</asrwt>
<pdfrwt beam="1">  1        1 0.21670383E+00 0.24300885E+04</pdfrwt>
<pdfrwt beam="2">  1       -2 0.16124672E+00 0.24300885E+04</pdfrwt>
<totfact> 0.14661797E+00</totfact>
</mgrwt>
</event>
<event>
12    4  0.4398275E-008  0.1772943E+04  0.7818608E-02  0.8720822E-01
          1   -1    0    0  501    0  0.00000000000E+00  0.00000000000E+00  0.53811004110E+03  0.53811004110E+03  0.00000000000E+00 0. -1.
         -2   -1    0    0    0  501 -0.00000000000E+00 -0.00000000000E+00 -0.14603549538E+04  0.14603549538E+04  0.00000000000E+00 0.  1.
        -24    2    1    2    0    0 -0.27426140506E+03  0.10970959068E+03 -0.10010641702E+04  0.10464682811E+04  0.75570350382E+02 0.  0.
        254    2    1    2    0    0  0.27426140506E+03 -0.10970959068E+03  0.78819257474E+02  0.95199671384E+03  0.90157071559E+03 0.  0.
         23    2    4    4    0    0  0.34799750143E+03  0.85043881545E+02 -0.32305636011E+03  0.49123036437E+03  0.92774653197E+02 0.  0.
         23    2    4    4    0    0 -0.73736096372E+02 -0.19475347223E+03  0.40187561759E+03  0.46076634947E+03  0.86230446698E+02 0.  0.
          3    1    3    3  502    0 -0.76755168192E+02  0.33078039871E+02 -0.17909988957E+03  0.19764180482E+03  0.00000000000E+00 0. -1.
         -4    1    3    3    0  502 -0.19750623687E+03  0.76631550813E+02 -0.82196428063E+03  0.84882647627E+03  0.00000000000E+00 0.  1.
         11    1    5    5    0    0  0.71884077177E+02  0.27635448395E+02 -0.12425123431E+03  0.14618278896E+03  0.00000000000E+00 0. -1.
        -11    1    5    5    0    0  0.27611342426E+03  0.57408433150E+02 -0.19880512580E+03  0.34504757541E+03  0.00000000000E+00 0.  1.
          2    1    6    6  503    0 -0.75753615314E+02 -0.83333504582E+02  0.17694982457E+03  0.20974823869E+03  0.00000000000E+00 0.  1.
         -2    1    6    6    0  503  0.20175189421E+01 -0.11141996765E+03  0.22492579302E+03  0.25101811078E+03  0.00000000000E+00 0. -1.
<mgrwt>
<rscale>  0 0.17729429E+04</rscale>
<asrwt>0</asrwt>
<pdfrwt beam="1">  1        1 0.82786160E-01 0.17729429E+04</pdfrwt>
<pdfrwt beam="2">  1       -2 0.22466999E+00 0.17729429E+04</pdfrwt>
<totfact> 0.30560400E+00</totfact>
</mgrwt>
</event>
<event>
12    4  0.4398275E-008  0.2292617E+04  0.7818608E-02  0.8480838E-01
          1   -1    0    0  501    0  0.00000000000E+00  0.00000000000E+00  0.94359617784E+03  0.94359617784E+03  0.00000000000E+00 0. -1.
         -2   -1    0    0    0  501 -0.00000000000E+00 -0.00000000000E+00 -0.13925694789E+04  0.13925694789E+04  0.00000000000E+00 0.  1.
        -24    2    1    2    0    0 -0.94557862307E+03  0.99052034669E+02 -0.14950985393E+02  0.95432968277E+03  0.81187274107E+02 0.  0.
        254    2    1    2    0    0  0.94557862307E+03 -0.99052034669E+02 -0.43402231568E+03  0.13818359740E+04  0.90397181952E+03 0.  0.
         23    2    4    4    0    0  0.30843187701E+03  0.37150975463E+03 -0.41291289348E+02  0.49272472767E+03  0.89011045011E+02 0.  0.
         23    2    4    4    0    0  0.63714674606E+03 -0.47056178930E+03 -0.39273102633E+03  0.88911124631E+03  0.94322721078E+02 0.  0.
          3    1    3    3  502    0 -0.77723519604E+03  0.87569217371E+02  0.18222647540E+02  0.78236499326E+03  0.00000000000E+00 0. -1.
         -4    1    3    3    0  502 -0.16834342704E+03  0.11482817298E+02 -0.33173632933E+02  0.17196468952E+03  0.00000000000E+00 0.  1.
         11    1    5    5    0    0  0.19154482606E+03  0.21729870050E+03  0.18318484903E+02  0.29024767444E+03  0.00000000000E+00 0. -1.
        -11    1    5    5    0    0  0.11688705096E+03  0.15421105413E+03 -0.59609774251E+02  0.20247705323E+03  0.00000000000E+00 0.  1.
          4    1    6    6  503    0  0.55276836429E+03 -0.40816043182E+03 -0.37461342640E+03  0.78261294514E+03  0.00000000000E+00 0. -1.
         -4    1    6    6    0  503  0.84378381767E+02 -0.62401357486E+02 -0.18117599938E+02  0.10649830117E+03  0.00000000000E+00 0.  1.
<mgrwt>
<rscale>  0 0.22926171E+04</rscale>
<asrwt>0</asrwt>
<pdfrwt beam="1">  1        1 0.14516864E+00 0.22926171E+04</pdfrwt>
<pdfrwt beam="2">  1       -2 0.21424146E+00 0.22926171E+04</pdfrwt>
<totfact> 0.14300805E+00</totfact>
</mgrwt>
</event>
<event>
12    4  0.4398275E-008  0.1367166E+04  0.7818608E-02  0.8977934E-01
          1   -1    0    0  501    0  0.00000000000E+00  0.00000000000E+00  0.17507526437E+04  0.17507526437E+04  0.00000000000E+00 0. -1.
         -2   -1    0    0    0  501 -0.00000000000E+00 -0.00000000000E+00 -0.26690580004E+03  0.26690580004E+03  0.00000000000E+00 0.  1.
        -24    2    1    2    0    0  0.33591951871E+03 -0.17132374403E+03  0.33410258028E+03  0.51025471800E+03  0.80880126005E+02 0.  0.
        254    2    1    2    0    0 -0.33591951871E+03  0.17132374403E+03  0.11497442634E+04  0.15074037257E+04  0.89897740399E+03 0.  0.
         23    2    4    4    0    0  0.50063315555E+02  0.38963038644E+03  0.91205036072E+03  0.99706397736E+03  0.89345066182E+02 0.  0.
         23    2    4    4    0    0 -0.38598283426E+03 -0.21830664241E+03  0.23769390267E+03  0.51033974839E+03  0.85485255800E+02 0.  0.
          1    1    3    3  502    0  0.33407006429E+03 -0.16387954105E+03  0.30795984243E+03  0.48300991333E+03  0.00000000000E+00 0. -1.
         -2    1    3    3    0  502  0.18494544202E+01 -0.74442029829E+01  0.26142737843E+02  0.27244804673E+02  0.00000000000E+00 0.  1.
         11    1    5    5    0    0  0.76092461735E+02  0.29484278145E+03  0.69713761575E+03  0.76073857783E+03  0.00000000000E+00 0. -1.
        -11    1    5    5    0    0 -0.26029146181E+02  0.94787604986E+02  0.21491274497E+03  0.23632539953E+03  0.00000000000E+00 0.  1.
          4    1    6    6  503    0 -0.20852051900E+03 -0.14221611698E+03  0.92747128151E+02  0.26890195342E+03  0.00000000000E+00 0. -1.
         -4    1    6    6    0  503 -0.17746231526E+03 -0.76090525431E+02  0.14494677452E+03  0.24143779498E+03  0.00000000000E+00 0.  1.
<mgrwt>
<rscale>  0 0.13671665E+04</rscale>
<asrwt>0</asrwt>
<pdfrwt beam="1">  1        1 0.26934655E+00 0.13671665E+04</pdfrwt>
<pdfrwt beam="2">  1       -2 0.41062432E-01 0.13671665E+04</pdfrwt>
<totfact> 0.21216673E+01</totfact>
</mgrwt>
</event>
<event>
12    4  0.4398275E-008  0.2347906E+04  0.7818608E-02  0.8459268E-01
         -2   -1    0    0    0  501 -0.00000000000E+00  0.00000000000E+00  0.71485803066E+03  0.71485803066E+03  0.00000000000E+00 0.  1.
          1   -1    0    0  501    0  0.00000000000E+00 -0.00000000000E+00 -0.19278880113E+04  0.19278880113E+04  0.00000000000E+00 0. -1.
        -24    2    1    2    0    0 -0.52639637906E+03  0.71014208062E+02  0.43576177143E+03  0.69182939500E+03  0.81261458992E+02 0.  0.
        254    2    1    2    0    0  0.52639637906E+03 -0.71014208062E+02 -0.16487917520E+04  0.19509166469E+04  0.89745493260E+03 0.  0.
         23    2    4    4    0    0  0.73936893653E+03 -0.11077701912E+02 -0.14843149444E+04  0.16607285871E+04  0.89662958686E+02 0.  0.
         23    2    4    4    0    0 -0.21297255748E+03 -0.59936506150E+02 -0.16447680766E+03  0.29018805982E+03  0.90591361583E+02 0.  0.
          3    1    3    3  502    0 -0.12849182501E+03  0.52140081027E+02  0.12318444881E+03  0.18548084961E+03  0.00000000000E+00 0. -1.
         -2    1    3    3    0  502 -0.39790455404E+03  0.18874127034E+02  0.31257732262E+03  0.50634854539E+03  0.00000000000E+00 0.  1.
         11    1    5    5    0    0  0.55095821989E+03 -0.46366433825E+02 -0.10821825656E+04  0.12152464407E+04  0.00000000000E+00 0. -1.
        -11    1    5    5    0    0  0.18841071664E+03  0.35288731913E+02 -0.40213237878E+03  0.44548214646E+03  0.00000000000E+00 0.  1.
          2    1    6    6  503    0 -0.98090613295E+02  0.18386211618E+02 -0.75092821399E+02  0.12489496795E+03  0.00000000000E+00 0. -1.
         -2    1    6    6    0  503 -0.11488194418E+03 -0.78322717767E+02 -0.89383986263E+02  0.16529309186E+03  0.00000000000E+00 0.  1.
<mgrwt>
<rscale>  0 0.23479065E+04</rscale>
<asrwt>0</asrwt>
<pdfrwt beam="1">  1        1 0.29659815E+00 0.23479065E+04</pdfrwt>
<pdfrwt beam="2">  1       -2 0.10997816E+00 0.23479065E+04</pdfrwt>
<totfact> 0.17338364E+00</totfact>
</mgrwt>
</event>
<event>
12    4  0.4398275E-008  0.1366524E+04  0.7818608E-02  0.8978413E-01
         -2   -1    0    0    0  501 -0.00000000000E+00  0.00000000000E+00  0.58384253592E+03  0.58384253592E+03  0.00000000000E+00 0.  1.
          1   -1    0    0  501    0  0.00000000000E+00 -0.00000000000E+00 -0.79961054383E+03  0.79961054383E+03  0.00000000000E+00 0. -1.
        -24    2    1    2    0    0 -0.11826458435E+02 -0.10662287590E+03  0.30795776417E+03  0.33585993289E+03  0.80346793488E+02 0.  0.
        254    2    1    2    0    0  0.11826458435E+02  0.10662287590E+03 -0.52372577209E+03  0.10475931469E+04  0.90091865017E+03 0.  0.
         23    2    4    4    0    0  0.33236110422E+03  0.35082904055E+03 -0.24769145928E+03  0.55056464822E+03  0.90694286386E+02 0.  0.
         23    2    4    4    0    0 -0.32053464578E+03 -0.24420616465E+03 -0.27603431281E+03  0.49702849864E+03  0.91996068434E+02 0.  0.
          3    1    3    3  502    0  0.18842316337E+02  0.37584904349E+01  0.37392780170E+02  0.42040208660E+02  0.00000000000E+00 0. -1.
         -4    1    3    3    0  502 -0.30668774772E+02 -0.11038136633E+03  0.27056498400E+03  0.29381972423E+03  0.00000000000E+00 0.  1.
         11    1    5    5    0    0  0.28895203245E+03  0.33137232620E+03 -0.24405550464E+03  0.50285582921E+03  0.00000000000E+00 0.  1.
        -11    1    5    5    0    0  0.43409071770E+02  0.19456714355E+02 -0.36359546330E+01  0.47708819012E+02  0.00000000000E+00 0. -1.
          2    1    6    6  503    0 -0.26813827707E+03 -0.22812723887E+03 -0.26615482858E+03  0.44133724692E+03  0.00000000000E+00 0.  1.
         -2    1    6    6    0  503 -0.52396368719E+02 -0.16078925781E+02 -0.98794842293E+01  0.55691251717E+02  0.00000000000E+00 0. -1.
<mgrwt>
<rscale>  0 0.13665235E+04</rscale>
<asrwt>0</asrwt>
<pdfrwt beam="1">  1        1 0.12301701E+00 0.13665235E+04</pdfrwt>
<pdfrwt beam="2">  1       -2 0.89821930E-01 0.13665235E+04</pdfrwt>
<totfact> 0.20120788E+01</totfact>
</mgrwt>
</event>
<event>
12    4  0.4398275E-008  0.1037278E+04  0.7818608E-02  0.9268578E-01
         -2   -1    0    0    0  501 -0.00000000000E+00  0.00000000000E+00  0.23217728908E+04  0.23217728908E+04  0.00000000000E+00 0.  1.
          1   -1    0    0  501    0  0.00000000000E+00 -0.00000000000E+00 -0.11585393109E+03  0.11585393109E+03  0.00000000000E+00 0. -1.
        -24    2    1    2    0    0 -0.58728145132E+02 -0.91086266187E+02  0.40305613916E+03  0.42465420191E+03  0.78302215607E+02 0.  0.
        254    2    1    2    0    0  0.58728145132E+02  0.91086266187E+02  0.18028628205E+04  0.20129726200E+04  0.88881871948E+03 0.  0.
         23    2    4    4    0    0  0.37758344600E+03  0.27024617871E+03  0.13065759087E+04  0.13902218404E+04  0.99869437202E+02 0.  0.
         23    2    4    4    0    0 -0.31885530087E+03 -0.17915991253E+03  0.49628691181E+03  0.62275077955E+03  0.88038954112E+02 0.  0.
          1    1    3    3  502    0 -0.47692884955E+02 -0.14369314743E+02  0.98340247270E+02  0.11023562362E+03  0.00000000000E+00 0. -1.
         -4    1    3    3    0  502 -0.11035260177E+02 -0.76716951445E+02  0.30471589189E+03  0.31441857829E+03  0.00000000000E+00 0.  1.
         11    1    5    5    0    0  0.17365641034E+03  0.18431808635E+03  0.72630973280E+03  0.76919148056E+03  0.00000000000E+00 0. -1.
        -11    1    5    5    0    0  0.20392703566E+03  0.85928092366E+02  0.58026617593E+03  0.62103035985E+03  0.00000000000E+00 0.  1.
          1    1    6    6  503    0 -0.13004354433E+01 -0.21348596412E+02  0.33101774882E+02  0.39410419960E+02  0.00000000000E+00 0. -1.
         -1    1    6    6    0  503 -0.31755486543E+03 -0.15781131611E+03  0.46318513693E+03  0.58334035959E+03  0.00000000000E+00 0.  1.
<mgrwt>
<rscale>  0 0.10372782E+04</rscale>
<asrwt>0</asrwt>
<pdfrwt beam="1">  1        1 0.17823683E-01 0.10372782E+04</pdfrwt>
<pdfrwt beam="2">  1       -2 0.35719580E+00 0.10372782E+04</pdfrwt>
<totfact> 0.38152246E+00</totfact>
</mgrwt>
</event>
<event>
12    4  0.4398275E-008  0.1915588E+04  0.7818608E-02  0.8647136E-01
          1   -1    0    0  501    0  0.00000000000E+00  0.00000000000E+00  0.69349757116E+03  0.69349757116E+03  0.00000000000E+00 0. -1.
         -2   -1    0    0    0  501 -0.00000000000E+00 -0.00000000000E+00 -0.13228154859E+04  0.13228154859E+04  0.00000000000E+00 0.  1.
        -24    2    1    2    0    0 -0.50912980686E+02 -0.42592383207E+03 -0.86854816297E+03  0.97208126427E+03  0.81011299263E+02 0.  0.
        254    2    1    2    0    0  0.50912980686E+02  0.42592383207E+03  0.23923024827E+03  0.10442317927E+04  0.92151271449E+03 0.  0.
         23    2    4    4    0    0  0.37887787658E+03  0.34590354202E+02 -0.12446100228E+03  0.41084677412E+03  0.92518067172E+02 0.  0.
         23    2    4    4    0    0 -0.32796489589E+03  0.39133347787E+03  0.36369125055E+03  0.63338501863E+03  0.90567059419E+02 0.  0.
          3    1    3    3  502    0  0.40991238548E+01  0.39418000246E+00 -0.16001813256E+01  0.44180057182E+01  0.00000000000E+00 0. -1.
         -4    1    3    3    0  502 -0.55012104541E+02 -0.42631801208E+03 -0.86694798164E+03  0.96766325855E+03  0.00000000000E+00 0.  1.
         11    1    5    5    0    0  0.37118584259E+03  0.16518629274E+02 -0.12190544048E+03  0.39104057497E+03  0.00000000000E+00 0. -1.
        -11    1    5    5    0    0  0.76920339858E+01  0.18071724928E+02 -0.25555618001E+01  0.19806199152E+02  0.00000000000E+00 0.  1.
          4    1    6    6  503    0 -0.17225717799E+03  0.25851448720E+03  0.25344621335E+03  0.40092051397E+03  0.00000000000E+00 0. -1.
         -4    1    6    6    0  503 -0.15570771790E+03  0.13281899067E+03  0.11024503721E+03  0.23246450466E+03  0.00000000000E+00 0.  1.
<mgrwt>
<rscale>  0 0.19155880E+04</rscale>
<asrwt>0</asrwt>
<pdfrwt beam="1">  1        1 0.10669194E+00 0.19155880E+04</pdfrwt>
<pdfrwt beam="2">  1       -2 0.20351007E+00 0.19155880E+04</pdfrwt>
<totfact> 0.28508718E+00</totfact>
</mgrwt>
</event>
<event>
12    4  0.4398275E-008  0.2200047E+04  0.7818608E-02  0.8518409E-01
          1   -1    0    0  501    0  0.00000000000E+00  0.00000000000E+00  0.57911222360E+03  0.57911222360E+03  0.00000000000E+00 0. -1.
         -2   -1    0    0    0  501 -0.00000000000E+00 -0.00000000000E+00 -0.20894940672E+04  0.20894940672E+04  0.00000000000E+00 0.  1.
        -24    2    1    2    0    0 -0.87300554204E+02 -0.89727364262E+03 -0.82558214038E+03  0.12250646280E+04  0.80474192960E+02 0.  0.
        254    2    1    2    0    0  0.87300554204E+02  0.89727364262E+03 -0.68479970324E+03  0.14435416628E+04  0.89562297999E+03 0.  0.
         23    2    4    4    0    0  0.11314458593E+03  0.71680103499E+03 -0.89178637469E+03  0.11533626894E+04  0.91417362071E+02 0.  0.
         23    2    4    4    0    0 -0.25844031728E+02  0.18047260763E+03  0.20698667145E+03  0.29017897346E+03  0.90122574304E+02 0.  0.
          3    1    3    3  502    0 -0.36451675989E+02 -0.31251389279E+03 -0.23777141058E+03  0.39437152731E+03  0.00000000000E+00 0. -1.
         -4    1    3    3    0  502 -0.50848878215E+02 -0.58475974983E+03 -0.58781072980E+03  0.83069310068E+03  0.00000000000E+00 0.  1.
         11    1    5    5    0    0  0.93558414878E+02  0.60187771654E+03 -0.69056507864E+03  0.92080947568E+03  0.00000000000E+00 0.  1.
        -11    1    5    5    0    0  0.19586171054E+02  0.11492331845E+03 -0.20122129605E+03  0.23255321370E+03  0.00000000000E+00 0. -1.
          4    1    6    6  503    0  0.30692875582E+02  0.92979030782E+02  0.84035994570E+02  0.12903178353E+03  0.00000000000E+00 0. -1.
         -4    1    6    6    0  503 -0.56536907311E+02  0.87493576844E+02  0.12295067688E+03  0.16114718993E+03  0.00000000000E+00 0.  1.
<mgrwt>
<rscale>  0 0.22000469E+04</rscale>
<asrwt>0</asrwt>
<pdfrwt beam="1">  1        1 0.89094189E-01 0.22000469E+04</pdfrwt>
<pdfrwt beam="2">  1       -2 0.32146062E+00 0.22000469E+04</pdfrwt>
<totfact> 0.67566661E-01</totfact>
</mgrwt>
</event>
<event>
12    4  0.4398275E-008  0.2229014E+04  0.7818608E-02  0.8506448E-01
          1   -1    0    0  501    0  0.00000000000E+00  0.00000000000E+00  0.30806610729E+04  0.30806610729E+04  0.00000000000E+00 0. -1.
         -2   -1    0    0    0  501 -0.00000000000E+00 -0.00000000000E+00 -0.40320123919E+03  0.40320123919E+03  0.00000000000E+00 0.  1.
        -24    2    1    2    0    0 -0.18768372619E+03  0.51840278365E+02  0.25793411988E+04  0.25878035639E+04  0.76247424811E+02 0.  0.
        254    2    1    2    0    0  0.18768372619E+03 -0.51840278365E+02  0.98118634935E+02  0.89605874825E+03  0.86912681368E+03 0.  0.
         23    2    4    4    0    0  0.11443030611E+03  0.36816334652E+03 -0.11235551245E+03  0.41197464559E+03  0.91982621999E+02 0.  0.
         23    2    4    4    0    0  0.73253420077E+02 -0.42000362489E+03  0.21047414739E+03  0.48408410266E+03  0.90933730053E+02 0.  0.
          1    1    3    3  502    0 -0.94278297108E+02  0.37767089071E+01  0.83762430502E+03  0.84292178593E+03  0.00000000000E+00 0. -1.
         -4    1    3    3    0  502 -0.93405429077E+02  0.48063569458E+02  0.17417168938E+04  0.17448817779E+04  0.00000000000E+00 0.  1.
         11    1    5    5    0    0  0.24592738611E+02  0.37186961130E+02 -0.43279380633E+02  0.62135156381E+02  0.00000000000E+00 0. -1.
        -11    1    5    5    0    0  0.89837567498E+02  0.33097638539E+03 -0.69076131819E+02  0.34983948920E+03  0.00000000000E+00 0.  1.
          2    1    6    6  503    0  0.59053299989E+02 -0.10474653068E+03  0.62970874402E+02  0.13573672661E+03  0.00000000000E+00 0. -1.
         -2    1    6    6    0  503  0.14200120088E+02 -0.31525709421E+03  0.14750327298E+03  0.34834737605E+03  0.00000000000E+00 0.  1.
<mgrwt>
<rscale>  0 0.22290145E+04</rscale>
<asrwt>0</asrwt>
<pdfrwt beam="1">  1        1 0.47394784E+00 0.22290145E+04</pdfrwt>
<pdfrwt beam="2">  1       -2 0.62030962E-01 0.22290145E+04</pdfrwt>
<totfact> 0.10069443E+00</totfact>
</mgrwt>
</event>
<event>
12    4  0.4398275E-008  0.2214199E+04  0.7818608E-02  0.8512541E-01
         -2   -1    0    0    0  501 -0.00000000000E+00  0.00000000000E+00  0.73294564202E+03  0.73294564202E+03  0.00000000000E+00 0.  1.
          1   -1    0    0  501    0  0.00000000000E+00 -0.00000000000E+00 -0.16722512888E+04  0.16722512888E+04  0.00000000000E+00 0. -1.
        -24    2    1    2    0    0  0.83006255335E+03  0.40997286654E+03 -0.21395462102E+03  0.95358690361E+03  0.80435123513E+02 0.  0.
        254    2    1    2    0    0 -0.83006255335E+03 -0.40997286654E+03 -0.72535102579E+03  0.14516100273E+04  0.85085602005E+03 0.  0.
         23    2    4    4    0    0 -0.95744585239E+03 -0.24450212211E+03 -0.71055237780E+03  0.12205630492E+04  0.91682208936E+02 0.  0.
         23    2    4    4    0    0  0.12738329904E+03 -0.16547074443E+03 -0.14798647998E+02  0.23104697809E+03  0.97758037841E+02 0.  0.
          3    1    3    3  502    0  0.63325122207E+03  0.31106865171E+03 -0.19779231285E+03  0.73272956496E+03  0.00000000000E+00 0. -1.
         -2    1    3    3    0  502  0.19681133128E+03  0.98904214833E+02 -0.16162308170E+02  0.22085733865E+03  0.00000000000E+00 0.  1.
         11    1    5    5    0    0 -0.21190962012E+03 -0.82357568961E+02 -0.19734481196E+03  0.30105386739E+03  0.00000000000E+00 0.  1.
        -11    1    5    5    0    0 -0.74553623227E+03 -0.16214455315E+03 -0.51320756583E+03  0.91950918178E+03  0.00000000000E+00 0. -1.
          1    1    6    6  503    0  0.14357520207E+03 -0.15143256176E+03 -0.91100303438E+01  0.20887472815E+03  0.00000000000E+00 0. -1.
         -1    1    6    6    0  503 -0.16191903022E+02 -0.14038182673E+02 -0.56886176543E+01  0.22172249932E+02  0.00000000000E+00 0.  1.
<mgrwt>
<rscale>  0 0.22141990E+04</rscale>
<asrwt>0</asrwt>
<pdfrwt beam="1">  1        1 0.25726943E+00 0.22141990E+04</pdfrwt>
<pdfrwt beam="2">  1       -2 0.11276087E+00 0.22141990E+04</pdfrwt>
<totfact> 0.24627880E+00</totfact>
</mgrwt>
</event>
<event>
12    4  0.4398275E-008  0.2483874E+04  0.7818608E-02  0.8408753E-01
          1   -1    0    0  501    0  0.00000000000E+00  0.00000000000E+00  0.23697068414E+04  0.23697068414E+04  0.00000000000E+00 0. -1.
         -2   -1    0    0    0  501 -0.00000000000E+00 -0.00000000000E+00 -0.65088553349E+03  0.65088553349E+03  0.00000000000E+00 0.  1.
        -24    2    1    2    0    0  0.70438758297E+03 -0.70918303427E+03  0.26293797966E+03  0.10367307759E+04  0.81067116440E+02 0.  0.
        254    2    1    2    0    0 -0.70438758297E+03  0.70918303427E+03  0.14558833282E+04  0.19838615990E+04  0.90388502333E+03 0.  0.
         23    2    4    4    0    0 -0.46069516509E+03  0.90096774020E+03  0.10089702185E+04  0.14319082807E+04  0.91419463825E+02 0.  0.
         23    2    4    4    0    0 -0.24369241788E+03 -0.19178470593E+03  0.44691310965E+03  0.55195331829E+03  0.93561584116E+02 0.  0.
          3    1    3    3  502    0  0.12649124394E+03 -0.12575034612E+03  0.15329925797E+02  0.17902008538E+03  0.00000000000E+00 0. -1.
         -4    1    3    3    0  502  0.57789633902E+03 -0.58343268814E+03  0.24760805386E+03  0.85771069049E+03  0.00000000000E+00 0.  1.
         11    1    5    5    0    0 -0.27694697265E+03  0.45078931285E+03  0.55305424179E+03  0.76536241390E+03  0.00000000000E+00 0. -1.
        -11    1    5    5    0    0 -0.18374819244E+03  0.45017842735E+03  0.45591597675E+03  0.66654586679E+03  0.00000000000E+00 0.  1.
          1    1    6    6  503    0 -0.11632834743E+03 -0.14592301204E+03  0.28829525054E+03  0.34342387999E+03  0.00000000000E+00 0. -1.
         -1    1    6    6    0  503 -0.12736407045E+03 -0.45861693888E+02  0.15861785911E+03  0.20852943830E+03  0.00000000000E+00 0.  1.
<mgrwt>
<rscale>  0 0.24838743E+04</rscale>
<asrwt>0</asrwt>
<pdfrwt beam="1">  1        1 0.36457028E+00 0.24838743E+04</pdfrwt>
<pdfrwt beam="2">  1       -2 0.10013624E+00 0.24838743E+04</pdfrwt>
<totfact> 0.10730907E+00</totfact>
</mgrwt>
</event>
<event>
12    4  0.4398275E-008  0.1710030E+04  0.7818608E-02  0.8755665E-01
         -2   -1    0    0    0  501 -0.00000000000E+00  0.00000000000E+00  0.42993151942E+03  0.42993151942E+03  0.00000000000E+00 0.  1.
          1   -1    0    0  501    0  0.00000000000E+00 -0.00000000000E+00 -0.17003884976E+04  0.17003884976E+04  0.00000000000E+00 0. -1.
        -24    2    1    2    0    0 -0.47716282958E+03  0.77129851945E+02 -0.94694654449E+03  0.10657748722E+04  0.74397178325E+02 0.  0.
        254    2    1    2    0    0  0.47716282958E+03 -0.77129851945E+02 -0.32351043367E+03  0.10645451448E+04  0.89160752832E+03 0.  0.
         23    2    4    4    0    0  0.30307488517E+03  0.35486084618E+03 -0.34837392955E+03  0.58931447797E+03  0.90258257173E+02 0.  0.
         23    2    4    4    0    0  0.17408794442E+03 -0.43199069812E+03  0.24863495885E+02  0.47523066679E+03  0.91123090276E+02 0.  0.
          1    1    3    3  502    0 -0.37810854671E+03  0.66372144830E+02 -0.68058725395E+03  0.78139000822E+03  0.00000000000E+00 0. -1.
         -4    1    3    3    0  502 -0.99054282875E+02  0.10757707114E+02 -0.26635929054E+03  0.28438486400E+03  0.00000000000E+00 0.  1.
         11    1    5    5    0    0  0.72501112216E+02  0.33831516970E+02 -0.55175068359E+02  0.97186783986E+02  0.00000000000E+00 0. -1.
        -11    1    5    5    0    0  0.23057377295E+03  0.32102932921E+03 -0.29319886119E+03  0.49212769398E+03  0.00000000000E+00 0.  1.
          2    1    6    6  503    0  0.11193469622E+03 -0.28552028312E+03  0.59490323689E+02  0.31239447323E+03  0.00000000000E+00 0. -1.
         -2    1    6    6    0  503  0.62153248192E+02 -0.14647041500E+03 -0.34626827804E+02  0.16283619356E+03  0.00000000000E+00 0.  1.
<mgrwt>
<rscale>  0 0.17100300E+04</rscale>
<asrwt>0</asrwt>
<pdfrwt beam="1">  1        1 0.26159823E+00 0.17100300E+04</pdfrwt>
<pdfrwt beam="2">  1       -2 0.66143311E-01 0.17100300E+04</pdfrwt>
<totfact> 0.83581423E+00</totfact>
</mgrwt>
</event>
<event>
12    4  0.4398275E-008  0.1529754E+04  0.7818608E-02  0.8864905E-01
         -2   -1    0    0    0  501 -0.00000000000E+00  0.00000000000E+00  0.49331642077E+03  0.49331642077E+03  0.00000000000E+00 0.  1.
          1   -1    0    0  501    0  0.00000000000E+00 -0.00000000000E+00 -0.11859254502E+04  0.11859254502E+04  0.00000000000E+00 0. -1.
        -24    2    1    2    0    0  0.72933936259E+02  0.12401053194E+03  0.29490771249E+03  0.33877427138E+03  0.84258394090E+02 0.  0.
        254    2    1    2    0    0 -0.72933936259E+02 -0.12401053194E+03 -0.98751674189E+03  0.13404675996E+04  0.89496709375E+03 0.  0.
         23    2    4    4    0    0 -0.11689342052E+02 -0.35719847829E+03 -0.55139994098E+02  0.37302902882E+03  0.91557871229E+02 0.  0.
         23    2    4    4    0    0 -0.61244594207E+02  0.23318794635E+03 -0.93237674780E+03  0.96743857076E+03  0.92105752898E+02 0.  0.
          3    1    3    3  502    0 -0.11034507457E+02  0.99541575359E+00  0.36872565374E+01  0.11676774731E+02  0.00000000000E+00 0. -1.
         -4    1    3    3    0  502  0.83968443717E+02  0.12301511619E+03  0.29122045595E+03  0.32709749665E+03  0.00000000000E+00 0.  1.
         11    1    5    5    0    0  0.11380891392E+02 -0.30135630061E+03 -0.72501885165E+02  0.31016393723E+03  0.00000000000E+00 0. -1.
        -11    1    5    5    0    0 -0.23070233444E+02 -0.55842177676E+02  0.17361891067E+02  0.62865091586E+02  0.00000000000E+00 0.  1.
          1    1    6    6  503    0 -0.40543150820E+02  0.23160007370E+03 -0.81492016247E+03  0.84816107693E+03  0.00000000000E+00 0. -1.
         -1    1    6    6    0  503 -0.20701443387E+02  0.15878726507E+01 -0.11745658533E+03  0.11927749383E+03  0.00000000000E+00 0.  1.
<mgrwt>
<rscale>  0 0.15297536E+04</rscale>
<asrwt>0</asrwt>
<pdfrwt beam="1">  1        1 0.18245007E+00 0.15297536E+04</pdfrwt>
<pdfrwt beam="2">  1       -2 0.75894835E-01 0.15297536E+04</pdfrwt>
<totfact> 0.14404419E+01</totfact>
</mgrwt>
</event>
<event>
12    4  0.4398275E-008  0.1682347E+04  0.7818608E-02  0.8771497E-01
         -2   -1    0    0    0  501 -0.00000000000E+00  0.00000000000E+00  0.22395013024E+03  0.22395013024E+03  0.00000000000E+00 0.  1.
          1   -1    0    0  501    0  0.00000000000E+00 -0.00000000000E+00 -0.31595110457E+04  0.31595110457E+04  0.00000000000E+00 0. -1.
        -24    2    1    2    0    0 -0.51503637916E+02  0.50834404711E+03 -0.16455826144E+04  0.17248546087E+04  0.78198371340E+02 0.  0.
        254    2    1    2    0    0  0.51503637916E+02 -0.50834404711E+03 -0.12899783011E+04  0.16586065673E+04  0.90877138645E+03 0.  0.
         23    2    4    4    0    0  0.11393585498E+03  0.56107553364E+02 -0.10046596849E+04  0.10166195851E+04  0.89693152733E+02 0.  0.
         23    2    4    4    0    0 -0.62432217062E+02 -0.56445160047E+03 -0.28531861613E+03  0.64198698220E+03  0.90758920181E+02 0.  0.
          3    1    3    3  502    0 -0.49346568992E+02  0.40529907342E+03 -0.14050366229E+04  0.14631576588E+04  0.00000000000E+00 0. -1.
         -4    1    3    3    0  502 -0.21570689243E+01  0.10304497369E+03 -0.24054599150E+03  0.26169694988E+03  0.00000000000E+00 0.  1.
         11    1    5    5    0    0  0.11180308063E+03  0.72100208532E+02 -0.77016735516E+03  0.78157285256E+03  0.00000000000E+00 0.  1.
        -11    1    5    5    0    0  0.21327743535E+01 -0.15992655168E+02 -0.23449232977E+03  0.23504673251E+03  0.00000000000E+00 0. -1.
          4    1    6    6  503    0 -0.13619652375E+02 -0.42767872924E+03 -0.18934474265E+03  0.46791668270E+03  0.00000000000E+00 0. -1.
         -4    1    6    6    0  503 -0.48812564688E+02 -0.13677287123E+03 -0.95973873482E+02  0.17407029950E+03  0.00000000000E+00 0.  1.
<mgrwt>
<rscale>  0 0.16823471E+04</rscale>
<asrwt>0</asrwt>
<pdfrwt beam="1">  1        1 0.48607860E+00 0.16823471E+04</pdfrwt>
<pdfrwt beam="2">  1       -2 0.34453867E-01 0.16823471E+04</pdfrwt>
<totfact> 0.30279806E+00</totfact>
</mgrwt>
</event>
<event>
12    4  0.4398275E-008  0.2197946E+04  0.7818608E-02  0.8519283E-01
         -2   -1    0    0    0  501 -0.00000000000E+00  0.00000000000E+00  0.92050903288E+03  0.92050903288E+03  0.00000000000E+00 0.  1.
          1   -1    0    0  501    0  0.00000000000E+00 -0.00000000000E+00 -0.13120367597E+04  0.13120367597E+04  0.00000000000E+00 0. -1.
        -24    2    1    2    0    0  0.46691499264E+03  0.10575233532E+03  0.62401982252E+03  0.79282097323E+03  0.99855845716E+02 0.  0.
        254    2    1    2    0    0 -0.46691499264E+03 -0.10575233532E+03 -0.10155475493E+04  0.14397248193E+04  0.90126442495E+03 0.  0.
         23    2    4    4    0    0 -0.64919712488E+03 -0.18310245731E+03 -0.10165855107E+04  0.12232257994E+04  0.88610601602E+02 0.  0.
         23    2    4    4    0    0  0.18228213224E+03  0.77350121982E+02  0.10379614312E+01  0.21649901997E+03  0.87526745508E+02 0.  0.
          1    1    3    3  502    0  0.16889077946E+03  0.78138935953E+01  0.16048043222E+03  0.23310753193E+03  0.00000000000E+00 0. -1.
         -2    1    3    3    0  502  0.29802421318E+03  0.97938441728E+02  0.46353939030E+03  0.55971344130E+03  0.00000000000E+00 0.  1.
         11    1    5    5    0    0 -0.42546381475E+03 -0.15594881084E+03 -0.71992322836E+03  0.85066382549E+03  0.00000000000E+00 0.  1.
        -11    1    5    5    0    0 -0.22373331013E+03 -0.27153646468E+02 -0.29666228239E+03  0.37256197386E+03  0.00000000000E+00 0. -1.
          4    1    6    6  503    0  0.15763630605E+02 -0.10250072063E+02 -0.19666019017E+02  0.27208607666E+02  0.00000000000E+00 0. -1.
         -4    1    6    6    0  503  0.16651850164E+03  0.87600194045E+02  0.20703980448E+02  0.18929041230E+03  0.00000000000E+00 0.  1.
<mgrwt>
<rscale>  0 0.21979460E+04</rscale>
<asrwt>0</asrwt>
<pdfrwt beam="1">  1        1 0.20185181E+00 0.21979460E+04</pdfrwt>
<pdfrwt beam="2">  1       -2 0.14161678E+00 0.21979460E+04</pdfrwt>
<totfact> 0.24737231E+00</totfact>
</mgrwt>
</event>
<event>
12    4  0.4398275E-008  0.1940905E+04  0.7818608E-02  0.8634759E-01
          1   -1    0    0  501    0  0.00000000000E+00  0.00000000000E+00  0.13291836766E+04  0.13291836766E+04  0.00000000000E+00 0. -1.
         -2   -1    0    0    0  501 -0.00000000000E+00 -0.00000000000E+00 -0.70853851201E+03  0.70853851201E+03  0.00000000000E+00 0.  1.
        -24    2    1    2    0    0  0.30129109191E+03  0.40379690311E+03  0.84874148670E+03  0.99037113498E+03  0.81514493984E+02 0.  0.
        254    2    1    2    0    0 -0.30129109191E+03 -0.40379690311E+03 -0.22809632206E+03  0.10473510537E+04  0.88943129946E+03 0.  0.
         23    2    4    4    0    0 -0.56984406836E+03 -0.83823217681E+02 -0.57541974120E+02  0.58620551209E+03  0.92613333508E+02 0.  0.
         23    2    4    4    0    0  0.26855297645E+03 -0.31997368543E+03 -0.17055434794E+03  0.46114554159E+03  0.95197502046E+02 0.  0.
          1    1    3    3  502    0  0.20406426118E+03  0.29494287098E+03  0.53181711672E+03  0.64145379059E+03  0.00000000000E+00 0. -1.
         -2    1    3    3    0  502  0.97226830733E+02  0.10885403213E+03  0.31692436998E+03  0.34891734439E+03  0.00000000000E+00 0.  1.
         11    1    5    5    0    0 -0.44244630658E+03 -0.32545172945E+02 -0.21200054841E+02  0.44414790872E+03  0.00000000000E+00 0.  1.
        -11    1    5    5    0    0 -0.12739776178E+03 -0.51278044736E+02 -0.36341919279E+02  0.14205760337E+03  0.00000000000E+00 0. -1.
          1    1    6    6  503    0  0.43395619963E+02 -0.87024806296E+02 -0.51322956763E+01  0.97379860350E+02  0.00000000000E+00 0. -1.
         -1    1    6    6    0  503  0.22515735649E+03 -0.23294887914E+03 -0.16542205227E+03  0.36376568124E+03  0.00000000000E+00 0.  1.
<mgrwt>
<rscale>  0 0.19409048E+04</rscale>
<asrwt>0</asrwt>
<pdfrwt beam="1">  1        1 0.20448980E+00 0.19409048E+04</pdfrwt>
<pdfrwt beam="2">  1       -2 0.10900593E+00 0.19409048E+04</pdfrwt>
<totfact> 0.47374280E+00</totfact>
</mgrwt>
</event>
<event>
12    4  0.4398275E-008  0.2181274E+04  0.7818608E-02  0.8526263E-01
          1   -1    0    0  501    0  0.00000000000E+00  0.00000000000E+00  0.24493099235E+04  0.24493099235E+04  0.00000000000E+00 0. -1.
         -2   -1    0    0    0  501 -0.00000000000E+00 -0.00000000000E+00 -0.48564272649E+03  0.48564272649E+03  0.00000000000E+00 0.  1.
        -24    2    1    2    0    0 -0.28474521330E+03 -0.75347257967E+03  0.26761850869E+03  0.85232128035E+03  0.77660375532E+02 0.  0.
        254    2    1    2    0    0  0.28474521330E+03  0.75347257967E+03  0.16960486883E+04  0.20826313696E+04  0.90109461424E+03 0.  0.
         23    2    4    4    0    0  0.57609424754E+03  0.65452274535E+03  0.13599525654E+04  0.16179860428E+04  0.90129065663E+02 0.  0.
         23    2    4    4    0    0 -0.29134903424E+03  0.98949834323E+02  0.33609612292E+03  0.46464532679E+03  0.90880946281E+02 0.  0.
          1    1    3    3  502    0 -0.22397000294E+03 -0.49703276477E+03  0.19452084781E+03  0.57882855121E+03  0.00000000000E+00 0. -1.
         -2    1    3    3    0  502 -0.60775210353E+02 -0.25643981491E+03  0.73097660887E+02  0.27349272913E+03  0.00000000000E+00 0.  1.
         11    1    5    5    0    0  0.48776267690E+03  0.59788963519E+03  0.11915057253E+04  0.14195317321E+04  0.00000000000E+00 0. -1.
        -11    1    5    5    0    0  0.88331570641E+02  0.56633110158E+02  0.16844684004E+03  0.19845431075E+03  0.00000000000E+00 0.  1.
          1    1    6    6  503    0 -0.16507073743E+03  0.12627889702E+02  0.14673829654E+03  0.22122373206E+03  0.00000000000E+00 0. -1.
         -1    1    6    6    0  503 -0.12627829681E+03  0.86321944621E+02  0.18935782638E+03  0.24342159473E+03  0.00000000000E+00 0.  1.
<mgrwt>
<rscale>  0 0.21812744E+04</rscale>
<asrwt>0</asrwt>
<pdfrwt beam="1">  1        1 0.37681690E+00 0.21812744E+04</pdfrwt>
<pdfrwt beam="2">  1       -2 0.74714267E-01 0.21812744E+04</pdfrwt>
<totfact> 0.18982079E+00</totfact>
</mgrwt>
</event>
<event>
12    4  0.4398275E-008  0.2179838E+04  0.7818608E-02  0.8526867E-01
         -2   -1    0    0    0  501 -0.00000000000E+00  0.00000000000E+00  0.13888955997E+04  0.13888955997E+04  0.00000000000E+00 0.  1.
          1   -1    0    0  501    0  0.00000000000E+00 -0.00000000000E+00 -0.85530090734E+03  0.85530090734E+03  0.00000000000E+00 0. -1.
        -24    2    1    2    0    0 -0.17308012467E+03  0.60462657024E+03  0.89956672890E+03  0.11003834699E+04  0.78060631116E+02 0.  0.
        254    2    1    2    0    0  0.17308012467E+03 -0.60462657024E+03 -0.36597203657E+03  0.11438130371E+04  0.88252065884E+03 0.  0.
         23    2    4    4    0    0 -0.28786883298E+03 -0.50589542346E+02 -0.27445790145E+03  0.41138784442E+03  0.92114342386E+02 0.  0.
         23    2    4    4    0    0  0.46094895765E+03 -0.55403702790E+03 -0.91514135118E+02  0.73242519267E+03  0.92956205249E+02 0.  0.
          3    1    3    3  502    0 -0.11952516962E+03  0.41179470135E+03  0.67398178491E+03  0.79881949689E+03  0.00000000000E+00 0. -1.
         -4    1    3    3    0  502 -0.53554955046E+02  0.19283186889E+03  0.22558494400E+03  0.30156397303E+03  0.00000000000E+00 0.  1.
         11    1    5    5    0    0 -0.44392936691E+02 -0.24627739697E+01 -0.45116808955E+01  0.44689521683E+02  0.00000000000E+00 0. -1.
        -11    1    5    5    0    0 -0.24347589629E+03 -0.48126768376E+02 -0.26994622055E+03  0.36669832274E+03  0.00000000000E+00 0.  1.
          1    1    6    6  503    0 -0.17219372749E+01 -0.19063356265E+02 -0.55468966166E+01  0.19928489209E+02  0.00000000000E+00 0. -1.
         -1    1    6    6    0  503  0.46267089493E+03 -0.53497367163E+03 -0.85967238501E+02  0.71249670346E+03  0.00000000000E+00 0.  1.
<mgrwt>
<rscale>  0 0.21798382E+04</rscale>
<asrwt>0</asrwt>
<pdfrwt beam="1">  1        1 0.13158475E+00 0.21798382E+04</pdfrwt>
<pdfrwt beam="2">  1       -2 0.21367625E+00 0.21798382E+04</pdfrwt>
<totfact> 0.17203027E+00</totfact>
</mgrwt>
</event>
<event>
12    4  0.4398275E-008  0.1539559E+04  0.7818608E-02  0.8858565E-01
         -2   -1    0    0    0  501 -0.00000000000E+00  0.00000000000E+00  0.12913259947E+04  0.12913259947E+04  0.00000000000E+00 0.  1.
          1   -1    0    0  501    0  0.00000000000E+00 -0.00000000000E+00 -0.45887753978E+03  0.45887753978E+03  0.00000000000E+00 0. -1.
        -24    2    1    2    0    0  0.38754087485E+03 -0.31355067259E+03  0.35951459569E+03  0.61956441002E+03  0.78149598163E+02 0.  0.
        254    2    1    2    0    0 -0.38754087485E+03  0.31355067259E+03  0.47293385920E+03  0.11306391244E+04  0.89787328758E+03 0.  0.
         23    2    4    4    0    0 -0.16612312461E+02 -0.18621405720E+03  0.45636545878E+03  0.50138085773E+03  0.90342063864E+02 0.  0.
         23    2    4    4    0    0 -0.37092856239E+03  0.49976472979E+03  0.16568400413E+02  0.62925826670E+03  0.91316322634E+02 0.  0.
          3    1    3    3  502    0  0.11292748020E+03 -0.10057921600E+03  0.67326643495E+02  0.16553450214E+03  0.00000000000E+00 0. -1.
         -4    1    3    3    0  502  0.27461339465E+03 -0.21297145659E+03  0.29218795219E+03  0.45402990788E+03  0.00000000000E+00 0.  1.
         11    1    5    5    0    0 -0.10388353783E+02 -0.13708957831E+03  0.21654627059E+03  0.25650293893E+03  0.00000000000E+00 0. -1.
        -11    1    5    5    0    0 -0.62239586781E+01 -0.49124478889E+02  0.23981918820E+03  0.24487791880E+03  0.00000000000E+00 0.  1.
          3    1    6    6  503    0 -0.20158447306E+03  0.19795523523E+03 -0.42364917349E+01  0.28256065330E+03  0.00000000000E+00 0.  1.
         -3    1    6    6    0  503 -0.16934408933E+03  0.30180949455E+03  0.20804892148E+02  0.34669761339E+03  0.00000000000E+00 0. -1.
<mgrwt>
<rscale>  0 0.15395590E+04</rscale>
<asrwt>0</asrwt>
<pdfrwt beam="1">  1        1 0.70596545E-01 0.15395590E+04</pdfrwt>
<pdfrwt beam="2">  1       -2 0.19866554E+00 0.15395590E+04</pdfrwt>
<totfact> 0.57005514E+00</totfact>
</mgrwt>
</event>
<event>
12    4  0.4398275E-008  0.2636012E+04  0.7818608E-02  0.8356071E-01
         -2   -1    0    0    0  501 -0.00000000000E+00  0.00000000000E+00  0.15195725092E+04  0.15195725092E+04  0.00000000000E+00 0.  1.
          1   -1    0    0  501    0  0.00000000000E+00 -0.00000000000E+00 -0.11431762210E+04  0.11431762210E+04  0.00000000000E+00 0. -1.
        -24    2    1    2    0    0  0.14919409669E+03 -0.68699585690E+03  0.10990158387E+04  0.13071330966E+04  0.80863666835E+02 0.  0.
        254    2    1    2    0    0 -0.14919409669E+03  0.68699585690E+03 -0.72261955054E+03  0.13556156337E+04  0.90625192166E+03 0.  0.
         23    2    4    4    0    0  0.57574059459E+02 -0.20284224501E+03 -0.13526254340E+03  0.26576790639E+03  0.88751764708E+02 0.  0.
         23    2    4    4    0    0 -0.20676815615E+03  0.88983810190E+03 -0.58735700715E+03  0.10898477273E+04  0.90636067791E+02 0.  0.
          1    1    3    3  502    0  0.29502186217E+02 -0.13871719607E+03  0.28613101511E+03  0.31934902111E+03  0.00000000000E+00 0. -1.
         -2    1    3    3    0  502  0.11969191048E+03 -0.54827866083E+03  0.81288482360E+03  0.98778407549E+03  0.00000000000E+00 0.  1.
         11    1    5    5    0    0  0.60365879453E+02 -0.20928441068E+03 -0.13841134153E+03  0.25807305830E+03  0.00000000000E+00 0.  1.
        -11    1    5    5    0    0 -0.27918199945E+01  0.64421656751E+01  0.31487981305E+01  0.76948480904E+01  0.00000000000E+00 0. -1.
          4    1    6    6  503    0 -0.95593432936E+02  0.58262792745E+03 -0.35478932253E+03  0.68881700737E+03  0.00000000000E+00 0. -1.
         -4    1    6    6    0  503 -0.11117472322E+03  0.30721017446E+03 -0.23256768462E+03  0.40103071989E+03  0.00000000000E+00 0.  1.
<mgrwt>
<rscale>  0 0.26360115E+04</rscale>
<asrwt>0</asrwt>
<pdfrwt beam="1">  1        1 0.17587326E+00 0.26360115E+04</pdfrwt>
<pdfrwt beam="2">  1       -2 0.23378039E+00 0.26360115E+04</pdfrwt>
<totfact> 0.73411040E-01</totfact>
</mgrwt>
</event>
<event>
12    4  0.4398275E-008  0.1642913E+04  0.7818608E-02  0.8794610E-01
         -2   -1    0    0    0  501 -0.00000000000E+00  0.00000000000E+00  0.35026082904E+04  0.35026082904E+04  0.00000000000E+00 0.  1.
          1   -1    0    0  501    0  0.00000000000E+00 -0.00000000000E+00 -0.19265377347E+03  0.19265377347E+03  0.00000000000E+00 0. -1.
        -24    2    1    2    0    0 -0.29760633605E+03 -0.47653200353E+03  0.12427168429E+04  0.13661078532E+04  0.79077388457E+02 0.  0.
        254    2    1    2    0    0  0.29760633605E+03  0.47653200353E+03  0.20672376740E+04  0.23291542106E+04  0.91424037014E+03 0.  0.
         23    2    4    4    0    0  0.13078277577E+03  0.87651716043E+02  0.18230697906E+04  0.18320967843E+04  0.90599160742E+02 0.  0.
         23    2    4    4    0    0  0.16682356027E+03  0.38888028749E+03  0.24416788339E+03  0.49705742630E+03  0.91597770146E+02 0.  0.
          3    1    3    3  502    0 -0.57572118774E+02 -0.53150619943E+02  0.13314365528E+03  0.15448873811E+03  0.00000000000E+00 0. -1.
         -4    1    3    3    0  502 -0.24003421727E+03 -0.42338138359E+03  0.11095731876E+04  0.12116191151E+04  0.00000000000E+00 0.  1.
         11    1    5    5    0    0  0.12809504783E+02 -0.18750582719E+02  0.21179595677E+03  0.21300984735E+03  0.00000000000E+00 0.  1.
        -11    1    5    5    0    0  0.11797327099E+03  0.10640229876E+03  0.16112738339E+04  0.16190869370E+04  0.00000000000E+00 0. -1.
          1    1    6    6  503    0  0.10639025184E+03  0.23710537628E+03  0.97671007170E+02  0.27762829609E+03  0.00000000000E+00 0. -1.
         -1    1    6    6    0  503  0.60433308433E+02  0.15177491121E+03  0.14649687622E+03  0.21942913020E+03  0.00000000000E+00 0.  1.
<mgrwt>
<rscale>  0 0.16429129E+04</rscale>
<asrwt>0</asrwt>
<pdfrwt beam="1">  1        1 0.29639045E-01 0.16429129E+04</pdfrwt>
<pdfrwt beam="2">  1       -2 0.53886277E+00 0.16429129E+04</pdfrwt>
<totfact> 0.12635881E-01</totfact>
</mgrwt>
</event>
<event>
12    4  0.4398275E-008  0.1593198E+04  0.7818608E-02  0.8824737E-01
          1   -1    0    0  501    0  0.00000000000E+00  0.00000000000E+00  0.81878217625E+03  0.81878217625E+03  0.00000000000E+00 0. -1.
         -2   -1    0    0    0  501 -0.00000000000E+00 -0.00000000000E+00 -0.77501713347E+03  0.77501713347E+03  0.00000000000E+00 0.  1.
        -24    2    1    2    0    0 -0.35157700788E+03 -0.42571616437E+02  0.41849678694E+03  0.55403992897E+03  0.80012169248E+02 0.  0.
        254    2    1    2    0    0  0.35157700788E+03  0.42571616437E+02 -0.37473174415E+03  0.10397593807E+04  0.90291580714E+03 0.  0.
         23    2    4    4    0    0  0.21187396187E+03  0.39686631985E+03  0.50533596486E+02  0.46165678296E+03  0.90442740609E+02 0.  0.
         23    2    4    4    0    0  0.13970304601E+03 -0.35429470342E+03 -0.42526534063E+03  0.57810259779E+03  0.91160987756E+02 0.  0.
          1    1    3    3  502    0 -0.33683450141E+03 -0.34625745801E+02  0.41708905752E+03  0.53723338087E+03  0.00000000000E+00 0. -1.
         -2    1    3    3    0  502 -0.14742506468E+02 -0.79458706367E+01  0.14077294107E+01  0.16806548106E+02  0.00000000000E+00 0.  1.
         11    1    5    5    0    0  0.12876938209E+03  0.23107358287E+03 -0.15019805049E+02  0.26495688141E+03  0.00000000000E+00 0. -1.
        -11    1    5    5    0    0  0.83104579779E+02  0.16579273699E+03  0.65553401535E+02  0.19669990155E+03  0.00000000000E+00 0.  1.
          3    1    6    6  503    0  0.25582198109E+02 -0.18666642620E+03 -0.19173344677E+03  0.26881316586E+03  0.00000000000E+00 0. -1.
         -3    1    6    6    0  503  0.11412084790E+03 -0.16762827722E+03 -0.23353189387E+03  0.30928943193E+03  0.00000000000E+00 0.  1.
<mgrwt>
<rscale>  0 0.15931983E+04</rscale>
<asrwt>0</asrwt>
<pdfrwt beam="1">  1        1 0.12596649E+00 0.15931983E+04</pdfrwt>
<pdfrwt beam="2">  1       -2 0.11923340E+00 0.15931983E+04</pdfrwt>
<totfact> 0.96621600E+00</totfact>
</mgrwt>
</event>
<event>
12    4  0.4398275E-008  0.1278275E+04  0.7818608E-02  0.9046973E-01
          1   -1    0    0  501    0  0.00000000000E+00  0.00000000000E+00  0.20232865435E+04  0.20232865435E+04  0.00000000000E+00 0. -1.
         -2   -1    0    0    0  501 -0.00000000000E+00 -0.00000000000E+00 -0.20189761350E+03  0.20189761350E+03  0.00000000000E+00 0.  1.
        -24    2    1    2    0    0 -0.70938932094E+02  0.28289368456E+03  0.67754543267E+03  0.74153740457E+03  0.75820447050E+02 0.  0.
        254    2    1    2    0    0  0.70938932094E+02 -0.28289368456E+03  0.11438434973E+04  0.14836467524E+04  0.89875946211E+03 0.  0.
         23    2    4    4    0    0  0.43171461025E+03 -0.67500434369E+02  0.30253053955E+03  0.53889698284E+03  0.89170720577E+02 0.  0.
         23    2    4    4    0    0 -0.36077567816E+03 -0.21539325019E+03  0.84131295776E+03  0.94474976956E+03  0.90505756842E+02 0.  0.
          1    1    3    3  502    0 -0.36230856739E+02  0.20899125003E+03  0.55628831112E+03  0.59535426652E+03  0.00000000000E+00 0. -1.
         -2    1    3    3    0  502 -0.34708075355E+02  0.73902434529E+02  0.12125712155E+03  0.14618313805E+03  0.00000000000E+00 0.  1.
         11    1    5    5    0    0  0.22298224381E+03  0.79476138162E+01  0.16869727258E+03  0.27971952987E+03  0.00000000000E+00 0. -1.
        -11    1    5    5    0    0  0.20873236644E+03 -0.75448048185E+02  0.13383326698E+03  0.25917745297E+03  0.00000000000E+00 0.  1.
          4    1    6    6  503    0 -0.20448133886E+03 -0.16344640118E+03  0.45765994717E+03  0.52723805936E+03  0.00000000000E+00 0. -1.
         -4    1    6    6    0  503 -0.15629433930E+03 -0.51946849011E+02  0.38365301059E+03  0.41751171020E+03  0.00000000000E+00 0.  1.
<mgrwt>
<rscale>  0 0.12782750E+04</rscale>
<asrwt>0</asrwt>
<pdfrwt beam="1">  1        1 0.31127484E+00 0.12782750E+04</pdfrwt>
<pdfrwt beam="2">  1       -2 0.31061173E-01 0.12782750E+04</pdfrwt>
<totfact> 0.23887166E+01</totfact>
</mgrwt>
</event>
<event>
12    4  0.4398275E-008  0.2417322E+04  0.7818608E-02  0.8433047E-01
          1   -1    0    0  501    0  0.00000000000E+00  0.00000000000E+00  0.13347365278E+04  0.13347365278E+04  0.00000000000E+00 0. -1.
         -2   -1    0    0    0  501 -0.00000000000E+00 -0.00000000000E+00 -0.10944938374E+04  0.10944938374E+04  0.00000000000E+00 0.  1.
        -24    2    1    2    0    0 -0.97428745905E+02 -0.37458733512E+02  0.11364118377E+04  0.11439362496E+04  0.79137608057E+02 0.  0.
        254    2    1    2    0    0  0.97428745905E+02  0.37458733512E+02 -0.89616914729E+03  0.12852941156E+04  0.91540499556E+03 0.  0.
         23    2    4    4    0    0  0.40637593472E+02 -0.36638507102E+03 -0.75350791793E+03  0.84373516529E+03  0.90694059812E+02 0.  0.
         23    2    4    4    0    0  0.56791152433E+02  0.40384380454E+03 -0.14266122936E+03  0.44155895035E+03  0.91142892312E+02 0.  0.
          3    1    3    3  502    0 -0.85396760432E+02 -0.60079513801E+02  0.96256013324E+03  0.96820667462E+03  0.00000000000E+00 0. -1.
         -4    1    3    3    0  502 -0.12031985473E+02  0.22620780289E+02  0.17385170449E+03  0.17572957499E+03  0.00000000000E+00 0.  1.
         11    1    5    5    0    0 -0.19992570234E+02 -0.12752349916E+03 -0.20268986807E+03  0.24030216046E+03  0.00000000000E+00 0.  1.
        -11    1    5    5    0    0  0.60630163705E+02 -0.23886157186E+03 -0.55081804986E+03  0.60343300483E+03  0.00000000000E+00 0. -1.
          1    1    6    6  503    0  0.30923809639E+02  0.34715496485E+02 -0.50462502886E+01  0.46764434572E+02  0.00000000000E+00 0. -1.
         -1    1    6    6    0  503  0.25867342794E+02  0.36912830805E+03 -0.13761497907E+03  0.39479451578E+03  0.00000000000E+00 0.  1.
<mgrwt>
<rscale>  0 0.24173216E+04</rscale>
<asrwt>0</asrwt>
<pdfrwt beam="1">  1        1 0.20534408E+00 0.24173216E+04</pdfrwt>
<pdfrwt beam="2">  1       -2 0.16838367E+00 0.24173216E+04</pdfrwt>
<totfact> 0.14686813E+00</totfact>
</mgrwt>
</event>
<event>
12    4  0.4398275E-008  0.1463818E+04  0.7818608E-02  0.8908876E-01
          1   -1    0    0  501    0  0.00000000000E+00  0.00000000000E+00  0.13421942001E+04  0.13421942001E+04  0.00000000000E+00 0. -1.
         -2   -1    0    0    0  501 -0.00000000000E+00 -0.00000000000E+00 -0.39911576419E+03  0.39911576419E+03  0.00000000000E+00 0.  1.
        -24    2    1    2    0    0  0.22353549096E+03  0.10476962942E+03  0.75348773308E+03  0.79702660893E+03  0.81011483597E+02 0.  0.
        254    2    1    2    0    0 -0.22353549096E+03 -0.10476962942E+03  0.18959070287E+03  0.94428335540E+03  0.89150526061E+03 0.  0.
         23    2    4    4    0    0 -0.52311346548E+03 -0.13890306398E+03 -0.46347213860E+02  0.55102691704E+03  0.92416665798E+02 0.  0.
         23    2    4    4    0    0  0.29957797451E+03  0.34133434565E+02  0.23593791673E+03  0.39325643837E+03  0.89843595182E+02 0.  0.
          1    1    3    3  502    0  0.15957168389E+03  0.89857113291E+02  0.64222040033E+03  0.66782068380E+03  0.00000000000E+00 0. -1.
         -2    1    3    3    0  502  0.63963807069E+02  0.14912516127E+02  0.11126733275E+03  0.12920592513E+03  0.00000000000E+00 0.  1.
         11    1    5    5    0    0 -0.32710752004E+03 -0.42868904961E+02 -0.43331323460E+02  0.33273814970E+03  0.00000000000E+00 0.  1.
        -11    1    5    5    0    0 -0.19600594544E+03 -0.96034159023E+02 -0.30158904000E+01  0.21828876733E+03  0.00000000000E+00 0. -1.
          1    1    6    6  503    0  0.17936651505E+00  0.10660848934E+02  0.22253640726E+02  0.24676109862E+02  0.00000000000E+00 0. -1.
         -1    1    6    6    0  503  0.29939860800E+03  0.23472585631E+02  0.21368427600E+03  0.36858032850E+03  0.00000000000E+00 0.  1.
<mgrwt>
<rscale>  0 0.14638181E+04</rscale>
<asrwt>0</asrwt>
<pdfrwt beam="1">  1        1 0.20649141E+00 0.14638181E+04</pdfrwt>
<pdfrwt beam="2">  1       -2 0.61402426E-01 0.14638181E+04</pdfrwt>
<totfact> 0.17714203E+01</totfact>
</mgrwt>
</event>
<event>
12    4  0.4398275E-008  0.3020356E+04  0.7818608E-02  0.8237942E-01
          1   -1    0    0  501    0  0.00000000000E+00  0.00000000000E+00  0.29837866259E+04  0.29837866259E+04  0.00000000000E+00 0. -1.
         -2   -1    0    0    0  501 -0.00000000000E+00 -0.00000000000E+00 -0.76434332494E+03  0.76434332494E+03  0.00000000000E+00 0.  1.
        -24    2    1    2    0    0 -0.98576796058E+03  0.14119022855E+03 -0.15812554450E+03  0.10114222670E+04  0.79360957579E+02 0.  0.
        254    2    1    2    0    0  0.98576796058E+03 -0.14119022855E+03  0.23775688454E+04  0.27367076838E+04  0.91927263593E+03 0.  0.
         23    2    4    4    0    0  0.10645512880E+04 -0.21563506905E+03  0.15385565231E+04  0.18853304045E+04  0.86871348676E+02 0.  0.
         23    2    4    4    0    0 -0.78783327440E+02  0.74444840500E+02  0.83901232229E+03  0.85137727937E+03  0.95669994826E+02 0.  0.
          3    1    3    3  502    0 -0.24816260724E+03  0.34714127021E+02 -0.51431558443E+01  0.25063160674E+03  0.00000000000E+00 0. -1.
         -4    1    3    3    0  502 -0.73760535334E+03  0.10647610153E+03 -0.15298238866E+03  0.76079066024E+03  0.00000000000E+00 0.  1.
         11    1    5    5    0    0  0.10170809449E+04 -0.20603584699E+03  0.14970002060E+04  0.18215142150E+04  0.00000000000E+00 0.  1.
        -11    1    5    5    0    0  0.47470343165E+02 -0.95992220660E+01  0.41556317178E+02  0.63816189496E+02  0.00000000000E+00 0. -1.
          1    1    6    6  503    0  0.21533293224E+02  0.18527476911E+02  0.12499066254E+03  0.12817806302E+03  0.00000000000E+00 0. -1.
         -1    1    6    6    0  503 -0.10031662066E+03  0.55917363589E+02  0.71402165975E+03  0.72319921635E+03  0.00000000000E+00 0.  1.
<mgrwt>
<rscale>  0 0.30203559E+04</rscale>
<asrwt>0</asrwt>
<pdfrwt beam="1">  1        1 0.45904409E+00 0.30203559E+04</pdfrwt>
<pdfrwt beam="2">  1       -2 0.11759128E+00 0.30203559E+04</pdfrwt>
<totfact> 0.25625712E-01</totfact>
</mgrwt>
</event>
<event>
12    4  0.4398275E-008  0.1690662E+04  0.7818608E-02  0.8766708E-01
          1   -1    0    0  501    0  0.00000000000E+00  0.00000000000E+00  0.68512170229E+03  0.68512170229E+03  0.00000000000E+00 0. -1.
         -4   -1    0    0    0  501 -0.00000000000E+00 -0.00000000000E+00 -0.10430035914E+04  0.10430035914E+04  0.00000000000E+00 0.  1.
        -24    2    1    2    0    0 -0.55027804544E+03  0.22092908039E+03 -0.19099256845E+03  0.62828489290E+03  0.81536247067E+02 0.  0.
        254    2    1    2    0    0  0.55027804544E+03 -0.22092908039E+03 -0.16688932062E+03  0.10998404008E+04  0.91114284058E+03 0.  0.
         23    2    4    4    0    0  0.21245280000E+03 -0.43675758854E+03  0.21540230566E+03  0.53904307764E+03  0.90971989642E+02 0.  0.
         23    2    4    4    0    0  0.33782524544E+03  0.21582850815E+03 -0.38229162628E+03  0.56079732311E+03  0.87400850672E+02 0.  0.
          3    1    3    3  502    0 -0.54837407143E+03  0.21977501523E+03 -0.19629608736E+03  0.62253299788E+03  0.00000000000E+00 0. -1.
         -2    1    3    3    0  502 -0.19039740079E+01  0.11540651633E+01  0.53035189132E+01  0.57518950170E+01  0.00000000000E+00 0.  1.
         11    1    5    5    0    0  0.95725986238E+02 -0.23479692123E+03  0.65917131672E+02  0.26198879157E+03  0.00000000000E+00 0. -1.
        -11    1    5    5    0    0  0.11672681376E+03 -0.20196066731E+03  0.14948517398E+03  0.27705428607E+03  0.00000000000E+00 0.  1.
          3    1    6    6  503    0  0.25166940468E+03  0.15731217997E+03 -0.22626096487E+03  0.37320052980E+03  0.00000000000E+00 0. -1.
         -3    1    6    6    0  503  0.86155840757E+02  0.58516328175E+02 -0.15603066141E+03  0.18759679330E+03  0.00000000000E+00 0.  1.
<mgrwt>
<rscale>  0 0.16906619E+04</rscale>
<asrwt>0</asrwt>
<pdfrwt beam="1">  1        1 0.10540334E+00 0.16906619E+04</pdfrwt>
<pdfrwt beam="2">  1       -4 0.16046209E+00 0.16906619E+04</pdfrwt>
<totfact> 0.32029463E+00</totfact>
</mgrwt>
</event>
<event>
12    4  0.4398275E-008  0.1266465E+04  0.7818608E-02  0.9056590E-01
         -2   -1    0    0    0  501 -0.00000000000E+00  0.00000000000E+00  0.87390404440E+03  0.87390404440E+03  0.00000000000E+00 0.  1.
          1   -1    0    0  501    0  0.00000000000E+00 -0.00000000000E+00 -0.45884124970E+03  0.45884124970E+03  0.00000000000E+00 0. -1.
        -24    2    1    2    0    0 -0.18484881663E+03 -0.22664692632E+03  0.16571156797E+02  0.30320233944E+03  0.78224939664E+02 0.  0.
        254    2    1    2    0    0  0.18484881663E+03  0.22664692632E+03  0.39849163790E+03  0.10295429547E+04  0.90311970180E+03 0.  0.
         23    2    4    4    0    0 -0.29437607264E+03  0.32845610038E+03  0.17745741050E+03  0.48457140889E+03  0.93689037526E+02 0.  0.
         23    2    4    4    0    0  0.47922488927E+03 -0.10180917406E+03  0.22103422741E+03  0.54497154577E+03  0.90090252491E+02 0.  0.
          3    1    3    3  502    0 -0.15973458966E+03 -0.21982185577E+03 -0.11235577136E+01  0.27173157673E+03  0.00000000000E+00 0. -1.
         -4    1    3    3    0  502 -0.25114226967E+02 -0.68250705502E+01  0.17694714511E+02  0.31470762714E+02  0.00000000000E+00 0.  1.
         11    1    5    5    0    0 -0.99586703083E+02  0.10449817971E+03  0.12238230429E+02  0.14486944218E+03  0.00000000000E+00 0.  1.
        -11    1    5    5    0    0 -0.19478936955E+03  0.22395792067E+03  0.16521918007E+03  0.33970196671E+03  0.00000000000E+00 0. -1.
          4    1    6    6  503    0  0.39591378493E+02  0.67278607206E+00 -0.53666883851E+01  0.39959119563E+02  0.00000000000E+00 0. -1.
         -4    1    6    6    0  503  0.43963351078E+03 -0.10248196013E+03  0.22640091579E+03  0.50501242620E+03  0.00000000000E+00 0.  1.
<mgrwt>
<rscale>  0 0.12664647E+04</rscale>
<asrwt>0</asrwt>
<pdfrwt beam="1">  1        1 0.70590962E-01 0.12664647E+04</pdfrwt>
<pdfrwt beam="2">  1       -2 0.13444678E+00 0.12664647E+04</pdfrwt>
<totfact> 0.17106962E+01</totfact>
</mgrwt>
</event>
<event>
12    4  0.4398275E-008  0.1802557E+04  0.7818608E-02  0.8704941E-01
         -2   -1    0    0    0  501 -0.00000000000E+00  0.00000000000E+00  0.52416802255E+03  0.52416802255E+03  0.00000000000E+00 0.  1.
          1   -1    0    0  501    0  0.00000000000E+00 -0.00000000000E+00 -0.15496989611E+04  0.15496989611E+04  0.00000000000E+00 0. -1.
        -24    2    1    2    0    0  0.96422050628E+02  0.44270849282E+03 -0.96039128964E+03  0.10649196969E+04  0.80090637398E+02 0.  0.
        254    2    1    2    0    0 -0.96422050628E+02 -0.44270849282E+03 -0.65139648924E+02  0.10089472867E+04  0.89913482420E+03 0.  0.
         23    2    4    4    0    0  0.28666462603E+03 -0.20014332035E+03  0.25833842091E+03  0.44443690125E+03  0.92474120591E+02 0.  0.
         23    2    4    4    0    0 -0.38308667666E+03 -0.24256517248E+03 -0.32347806984E+03  0.56451038549E+03  0.91873004313E+02 0.  0.
          3    1    3    3  502    0  0.80699981921E+02  0.40269396223E+03 -0.91187524438E+03  0.10000956832E+04  0.00000000000E+00 0. -1.
         -4    1    3    3    0  502  0.15722068708E+02  0.40014530594E+02 -0.48516045264E+02  0.64824013692E+02  0.00000000000E+00 0.  1.
         11    1    5    5    0    0  0.27787584192E+03 -0.17854492883E+03  0.21175582025E+03  0.39234398497E+03  0.00000000000E+00 0. -1.
        -11    1    5    5    0    0  0.87887841113E+01 -0.21598391521E+02  0.46582600663E+02  0.52092916284E+02  0.00000000000E+00 0.  1.
          3    1    6    6  503    0 -0.34566430595E+03 -0.24558855972E+03 -0.28600431545E+03  0.51146458482E+03  0.00000000000E+00 0. -1.
         -3    1    6    6    0  503 -0.37422370714E+02  0.30233872403E+01 -0.37473754390E+02  0.53045800666E+02  0.00000000000E+00 0.  1.
<mgrwt>
<rscale>  0 0.18025567E+04</rscale>
<asrwt>0</asrwt>
<pdfrwt beam="1">  1        1 0.23841522E+00 0.18025567E+04</pdfrwt>
<pdfrwt beam="2">  1       -2 0.80641235E-01 0.18025567E+04</pdfrwt>
<totfact> 0.67934018E+00</totfact>
</mgrwt>
</event>
<event>
12    4  0.4398275E-008  0.1491791E+04  0.7818608E-02  0.8889930E-01
         -2   -1    0    0    0  501 -0.00000000000E+00  0.00000000000E+00  0.87860484632E+03  0.87860484632E+03  0.00000000000E+00 0.  1.
          1   -1    0    0  501    0  0.00000000000E+00 -0.00000000000E+00 -0.63323154521E+03  0.63323154521E+03  0.00000000000E+00 0. -1.
        -24    2    1    2    0    0 -0.17004713395E+03 -0.33568319539E+03  0.36444098758E+03  0.52965246736E+03  0.78200174714E+02 0.  0.
        254    2    1    2    0    0  0.17004713395E+03  0.33568319539E+03 -0.11906768647E+03  0.98218392417E+03  0.89939363546E+03 0.  0.
         23    2    4    4    0    0  0.99843130445E+02  0.55898564514E+03  0.16948170414E+03  0.59950600922E+03  0.90828436498E+02 0.  0.
         23    2    4    4    0    0  0.70204003502E+02 -0.22330244976E+03 -0.28854939060E+03  0.38267791495E+03  0.91591755086E+02 0.  0.
          1    1    3    3  502    0 -0.60722718012E+02 -0.56932452157E+02  0.10059724175E+03  0.13056935949E+03  0.00000000000E+00 0. -1.
         -2    1    3    3    0  502 -0.10932441593E+03 -0.27875074323E+03  0.26384374583E+03  0.39908310787E+03  0.00000000000E+00 0.  1.
         11    1    5    5    0    0  0.10864090169E+03  0.40841556713E+03  0.14440778836E+03  0.44660914717E+03  0.00000000000E+00 0. -1.
        -11    1    5    5    0    0 -0.87977712504E+01  0.15057007801E+03  0.25073915774E+02  0.15289686204E+03  0.00000000000E+00 0.  1.
          3    1    6    6  503    0  0.49146904755E+02 -0.20909205885E+03 -0.28522938181E+03  0.35705840919E+03  0.00000000000E+00 0. -1.
         -3    1    6    6    0  503  0.21057098746E+02 -0.14210390909E+02 -0.33200087899E+01  0.25619505767E+02  0.00000000000E+00 0.  1.
<mgrwt>
<rscale>  0 0.14917913E+04</rscale>
<asrwt>0</asrwt>
<pdfrwt beam="1">  1        1 0.97420237E-01 0.14917913E+04</pdfrwt>
<pdfrwt beam="2">  1       -2 0.13516998E+00 0.14917913E+04</pdfrwt>
<totfact> 0.10542386E+01</totfact>
</mgrwt>
</event>
<event>
12    4  0.4398275E-008  0.1559594E+04  0.7818608E-02  0.8845763E-01
         -2   -1    0    0    0  501 -0.00000000000E+00  0.00000000000E+00  0.65362022781E+03  0.65362022781E+03  0.00000000000E+00 0.  1.
          1   -1    0    0  501    0  0.00000000000E+00 -0.00000000000E+00 -0.93033120728E+03  0.93033120728E+03  0.00000000000E+00 0. -1.
        -24    2    1    2    0    0  0.39144807563E+03 -0.79972101412E+02 -0.41878258342E+03  0.58695182706E+03  0.97501088181E+02 0.  0.
        254    2    1    2    0    0 -0.39144807563E+03  0.79972101412E+02  0.14207160395E+03  0.99699960803E+03  0.90232851270E+03 0.  0.
         23    2    4    4    0    0  0.14656877829E+03  0.33235685111E+03 -0.18410916702E+02  0.37448012759E+03  0.89179150337E+02 0.  0.
         23    2    4    4    0    0 -0.53801685392E+03 -0.25238474970E+03  0.16048252065E+03  0.62251948044E+03  0.92820617916E+02 0.  0.
          3    1    3    3  502    0  0.39384214877E+03 -0.71848990505E+02 -0.41742539448E+03  0.57837520309E+03  0.00000000000E+00 0. -1.
         -4    1    3    3    0  502 -0.23940731414E+01 -0.81231109066E+01 -0.13571889367E+01  0.85766239755E+01  0.00000000000E+00 0.  1.
         11    1    5    5    0    0 -0.90808759142E+01  0.41724526236E+02  0.90534975092E+01  0.43650477823E+02  0.00000000000E+00 0.  1.
        -11    1    5    5    0    0  0.15564965420E+03  0.29063232487E+03 -0.27464414211E+02  0.33082964976E+03  0.00000000000E+00 0. -1.
          1    1    6    6  503    0 -0.30319609798E+03 -0.10293593499E+03  0.11646123498E+03  0.34071527673E+03  0.00000000000E+00 0. -1.
         -1    1    6    6    0  503 -0.23482075594E+03 -0.14944881471E+03  0.44021285676E+02  0.28180420371E+03  0.00000000000E+00 0.  1.
<mgrwt>
<rscale>  0 0.15595939E+04</rscale>
<asrwt>0</asrwt>
<pdfrwt beam="1">  1        1 0.14312788E+00 0.15595939E+04</pdfrwt>
<pdfrwt beam="2">  1       -2 0.10055696E+00 0.15595939E+04</pdfrwt>
<totfact> 0.11823651E+01</totfact>
</mgrwt>
</event>
<event>
12    4  0.4398275E-008  0.1648519E+04  0.7818608E-02  0.8791283E-01
         -2   -1    0    0    0  501 -0.00000000000E+00  0.00000000000E+00  0.95636228471E+03  0.95636228471E+03  0.00000000000E+00 0.  1.
          1   -1    0    0  501    0  0.00000000000E+00 -0.00000000000E+00 -0.71040415185E+03  0.71040415185E+03  0.00000000000E+00 0. -1.
        -24    2    1    2    0    0 -0.18937646264E+03  0.53189152346E+03  0.14399022787E+03  0.58768050326E+03  0.76571214292E+02 0.  0.
        254    2    1    2    0    0  0.18937646264E+03 -0.53189152346E+03  0.10196790499E+03  0.10790859333E+04  0.91392393584E+03 0.  0.
         23    2    4    4    0    0 -0.34691351424E+03 -0.30988478895E+03 -0.30839828365E+02  0.47694969158E+03  0.10075884327E+03 0.  0.
         23    2    4    4    0    0  0.53628997688E+03 -0.22200673451E+03  0.13280773335E+03  0.60213624174E+03  0.89645022755E+02 0.  0.
          3    1    3    3  502    0 -0.19561043117E+02  0.22680641559E+02 -0.55474848620E+01  0.30460146054E+02  0.00000000000E+00 0. -1.
         -4    1    3    3    0  502 -0.16981541953E+03  0.50921088190E+03  0.14953771274E+03  0.55722035720E+03  0.00000000000E+00 0.  1.
         11    1    5    5    0    0 -0.40522081403E+02 -0.23849235361E+02 -0.33588734862E+02  0.57784325021E+02  0.00000000000E+00 0.  1.
        -11    1    5    5    0    0 -0.30639143283E+03 -0.28603555359E+03  0.27489064972E+01  0.41916536655E+03  0.00000000000E+00 0. -1.
          3    1    6    6  503    0  0.51388292232E+03 -0.19981418470E+03  0.14187032475E+03  0.56932289196E+03  0.00000000000E+00 0. -1.
         -3    1    6    6    0  503  0.22407054560E+02 -0.22192549800E+02 -0.90625914008E+01  0.32813349777E+02  0.00000000000E+00 0.  1.
<mgrwt>
<rscale>  0 0.16485190E+04</rscale>
<asrwt>0</asrwt>
<pdfrwt beam="1">  1        1 0.10929295E+00 0.16485190E+04</pdfrwt>
<pdfrwt beam="2">  1       -2 0.14713266E+00 0.16485190E+04</pdfrwt>
<totfact> 0.70254768E+00</totfact>
</mgrwt>
</event>
<event>
12    4  0.4398275E-008  0.2173084E+04  0.7818608E-02  0.8529715E-01
          1   -1    0    0  501    0  0.00000000000E+00  0.00000000000E+00  0.14028986319E+04  0.14028986319E+04  0.00000000000E+00 0. -1.
         -2   -1    0    0    0  501 -0.00000000000E+00 -0.00000000000E+00 -0.84152425500E+03  0.84152425500E+03  0.00000000000E+00 0.  1.
        -24    2    1    2    0    0 -0.11332235034E+03 -0.37573404991E+03  0.10663276447E+04  0.11387469288E+04  0.75311956419E+02 0.  0.
        254    2    1    2    0    0  0.11332235034E+03  0.37573404991E+03 -0.50495326783E+03  0.11056759580E+04  0.90195537035E+03 0.  0.
         23    2    4    4    0    0 -0.99665905009E+02 -0.25191613734E+03 -0.33957313718E+02  0.28755788344E+03  0.90229730696E+02 0.  0.
         23    2    4    4    0    0  0.21298825535E+03  0.62765018725E+03 -0.47099595411E+03  0.81811807457E+03  0.90394915159E+02 0.  0.
          3    1    3    3  502    0 -0.72677472051E+02 -0.17454698277E+03  0.60410331487E+03  0.63300037849E+03  0.00000000000E+00 0. -1.
         -4    1    3    3    0  502 -0.40644878285E+02 -0.20118706714E+03  0.46222432982E+03  0.50574655035E+03  0.00000000000E+00 0.  1.
         11    1    5    5    0    0 -0.70941731421E+02 -0.16424453631E+03 -0.64796332174E+02  0.19028284638E+03  0.00000000000E+00 0.  1.
        -11    1    5    5    0    0 -0.28724173588E+02 -0.87671601029E+02  0.30839018456E+02  0.97275037059E+02  0.00000000000E+00 0. -1.
          4    1    6    6  503    0  0.17432833340E+03  0.48342445721E+03 -0.31797107338E+03  0.60431380687E+03  0.00000000000E+00 0. -1.
         -4    1    6    6    0  503  0.38659921941E+02  0.14422573004E+03 -0.15302488072E+03  0.21380426771E+03  0.00000000000E+00 0.  1.
<mgrwt>
<rscale>  0 0.21730837E+04</rscale>
<asrwt>0</asrwt>
<pdfrwt beam="1">  1        1 0.21583056E+00 0.21730837E+04</pdfrwt>
<pdfrwt beam="2">  1       -2 0.12946527E+00 0.21730837E+04</pdfrwt>
<totfact> 0.26918732E+00</totfact>
</mgrwt>
</event>
<event>
12    4  0.4398275E-008  0.2037084E+04  0.7818608E-02  0.8589476E-01
         -2   -1    0    0    0  501 -0.00000000000E+00  0.00000000000E+00  0.10346594405E+04  0.10346594405E+04  0.00000000000E+00 0.  1.
          1   -1    0    0  501    0  0.00000000000E+00 -0.00000000000E+00 -0.10026754885E+04  0.10026754885E+04  0.00000000000E+00 0. -1.
        -24    2    1    2    0    0 -0.46284013629E+03  0.10975439516E+03  0.67631240202E+03  0.83068982301E+03  0.79875515008E+02 0.  0.
        254    2    1    2    0    0  0.46284013629E+03 -0.10975439516E+03 -0.64432845005E+03  0.12066451060E+04  0.90253323558E+03 0.  0.
         23    2    4    4    0    0  0.18290551196E+03 -0.41152818690E+03 -0.29903831006E+02  0.46135006021E+03  0.95602113115E+02 0.  0.
         23    2    4    4    0    0  0.27993462433E+03  0.30177379174E+03 -0.61442461905E+03  0.74529504581E+03  0.92283679694E+02 0.  0.
          1    1    3    3  502    0 -0.44923295800E+01 -0.31040858926E+01  0.29202165218E+02  0.29708295604E+02  0.00000000000E+00 0. -1.
         -2    1    3    3    0  502 -0.45834780671E+03  0.11285848105E+03  0.64711023681E+03  0.80098152740E+03  0.00000000000E+00 0.  1.
         11    1    5    5    0    0  0.95700926863E+02 -0.11356905596E+03 -0.26577901537E+02  0.15087406246E+03  0.00000000000E+00 0.  1.
        -11    1    5    5    0    0  0.87204585096E+02 -0.29795913094E+03 -0.33259294681E+01  0.31047599775E+03  0.00000000000E+00 0. -1.
          3    1    6    6  503    0  0.24754374710E+03  0.28493676095E+03 -0.50864180343E+03  0.63339036041E+03  0.00000000000E+00 0. -1.
         -3    1    6    6    0  503  0.32390877232E+02  0.16837030790E+02 -0.10578281562E+03  0.11190468540E+03  0.00000000000E+00 0.  1.
<mgrwt>
<rscale>  0 0.20370839E+04</rscale>
<asrwt>0</asrwt>
<pdfrwt beam="1">  1        1 0.15425777E+00 0.20370839E+04</pdfrwt>
<pdfrwt beam="2">  1       -2 0.15917838E+00 0.20370839E+04</pdfrwt>
<totfact> 0.31179319E+00</totfact>
</mgrwt>
</event>
<event>
12    4  0.4398275E-008  0.2391531E+04  0.7818608E-02  0.8442681E-01
          1   -1    0    0  501    0  0.00000000000E+00  0.00000000000E+00  0.13133463103E+04  0.13133463103E+04  0.00000000000E+00 0. -1.
         -2   -1    0    0    0  501 -0.00000000000E+00 -0.00000000000E+00 -0.10887114984E+04  0.10887114984E+04  0.00000000000E+00 0.  1.
        -24    2    1    2    0    0  0.16317900297E+03  0.77076143342E+03 -0.55591746159E+03  0.96751214785E+03  0.79592448661E+02 0.  0.
        254    2    1    2    0    0 -0.16317900297E+03 -0.77076143342E+03  0.78055227346E+03  0.14345456609E+04  0.90992242924E+03 0.  0.
         23    2    4    4    0    0  0.97607525173E+01 -0.93488214271E+03  0.53717838337E+03  0.10819207300E+04  0.88836689220E+02 0.  0.
         23    2    4    4    0    0 -0.17293975548E+03  0.16412070929E+03  0.24337389009E+03  0.35262493088E+03  0.90938029766E+02 0.  0.
          3    1    3    3  502    0 -0.62236802605E+01  0.64996239909E+02 -0.57941093250E+02  0.87294992327E+02  0.00000000000E+00 0. -1.
         -4    1    3    3    0  502  0.16940268323E+03  0.70576519351E+03 -0.49797636834E+03  0.88021715553E+03  0.00000000000E+00 0.  1.
         11    1    5    5    0    0  0.37905554626E+02 -0.40839357589E+03  0.20236657525E+03  0.45735585126E+03  0.00000000000E+00 0. -1.
        -11    1    5    5    0    0 -0.28144802108E+02 -0.52648856682E+03  0.33481180812E+03  0.62456487872E+03  0.00000000000E+00 0.  1.
          3    1    6    6  503    0 -0.16551907602E+03  0.17172366363E+03  0.21062428870E+03  0.31819517936E+03  0.00000000000E+00 0.  1.
         -3    1    6    6    0  503 -0.74206794599E+01 -0.76029543440E+01  0.32749601395E+02  0.34429751523E+02  0.00000000000E+00 0. -1.
<mgrwt>
<rscale>  0 0.23915311E+04</rscale>
<asrwt>0</asrwt>
<pdfrwt beam="1">  1        1 0.20205328E+00 0.23915311E+04</pdfrwt>
<pdfrwt beam="2">  1       -2 0.16749408E+00 0.23915311E+04</pdfrwt>
<totfact> 0.15469795E+00</totfact>
</mgrwt>
</event>
<event>
12    4  0.4398275E-008  0.2732534E+04  0.7818608E-02  0.8324525E-01
         -2   -1    0    0    0  501 -0.00000000000E+00  0.00000000000E+00  0.57829367612E+03  0.57829367612E+03  0.00000000000E+00 0.  1.
          1   -1    0    0  501    0  0.00000000000E+00 -0.00000000000E+00 -0.32279199577E+04  0.32279199577E+04  0.00000000000E+00 0. -1.
        -24    2    1    2    0    0 -0.58230938716E+03 -0.84393961633E+03 -0.28499689370E+03  0.10670547908E+04  0.77874249909E+02 0.  0.
        254    2    1    2    0    0  0.58230938716E+03  0.84393961633E+03 -0.23646293879E+04  0.27391588430E+04  0.92747006789E+03 0.  0.
         23    2    4    4    0    0  0.73082780737E+03  0.52837410028E+03 -0.21127562386E+04  0.22989962983E+04  0.91414342305E+02 0.  0.
         23    2    4    4    0    0 -0.14851842021E+03  0.31556551605E+03 -0.25187314924E+03  0.44016254467E+03  0.93078818026E+02 0.  0.
          3    1    3    3  502    0 -0.65733266643E+02 -0.14032044053E+03 -0.54361845792E+02  0.16421296737E+03  0.00000000000E+00 0. -1.
         -4    1    3    3    0  502 -0.51657612051E+03 -0.70361917580E+03 -0.23063504791E+03  0.90284182344E+03  0.00000000000E+00 0.  1.
         11    1    5    5    0    0  0.69528017806E+03  0.52296527835E+03 -0.20425926101E+04  0.22201558006E+04  0.00000000000E+00 0.  1.
        -11    1    5    5    0    0  0.35547629315E+02  0.54088219312E+01 -0.70163628577E+02  0.78840497713E+02  0.00000000000E+00 0. -1.
          1    1    6    6  503    0 -0.11534951994E+02  0.42177607466E+02 -0.75250112657E+02  0.87032092610E+02  0.00000000000E+00 0. -1.
         -1    1    6    6    0  503 -0.13698346822E+03  0.27338790858E+03 -0.17662303658E+03  0.35313045206E+03  0.00000000000E+00 0.  1.
<mgrwt>
<rscale>  0 0.27325341E+04</rscale>
<asrwt>0</asrwt>
<pdfrwt beam="1">  1        1 0.49660306E+00 0.27325341E+04</pdfrwt>
<pdfrwt beam="2">  1       -2 0.88968259E-01 0.27325341E+04</pdfrwt>
<totfact> 0.33658129E-01</totfact>
</mgrwt>
</event>
<event>
12    4  0.4398275E-008  0.2256626E+04  0.7818608E-02  0.8495222E-01
         -2   -1    0    0    0  501 -0.00000000000E+00  0.00000000000E+00  0.10184084810E+04  0.10184084810E+04  0.00000000000E+00 0.  1.
          1   -1    0    0  501    0  0.00000000000E+00 -0.00000000000E+00 -0.12500786313E+04  0.12500786313E+04  0.00000000000E+00 0. -1.
        -24    2    1    2    0    0  0.12743681331E+03 -0.44946701339E+03 -0.92605127849E+03  0.10402378720E+04  0.79139891355E+02 0.  0.
        254    2    1    2    0    0 -0.12743681331E+03  0.44946701339E+03  0.69438112827E+03  0.12282492403E+04  0.89898292950E+03 0.  0.
         23    2    4    4    0    0 -0.67012231138E+02  0.51282027250E+03  0.86723146881E+03  0.10140428003E+04  0.93365460880E+02 0.  0.
         23    2    4    4    0    0 -0.60424582170E+02 -0.63353259103E+02 -0.17285034054E+03  0.21420644004E+03  0.91336702153E+02 0.  0.
          1    1    3    3  502    0  0.92976939399E+02 -0.35583608408E+03 -0.79108077783E+03  0.87239488022E+03  0.00000000000E+00 0. -1.
         -2    1    3    3    0  502  0.34459873910E+02 -0.93630929315E+02 -0.13497050066E+03  0.16784299176E+03  0.00000000000E+00 0.  1.
         11    1    5    5    0    0 -0.42115298207E+02  0.48877562527E+03  0.81867246985E+03  0.95441077272E+03  0.00000000000E+00 0. -1.
        -11    1    5    5    0    0 -0.24896932932E+02  0.24044647229E+02  0.48558998963E+02  0.59632027553E+02  0.00000000000E+00 0.  1.
          2    1    6    6  503    0 -0.82726636596E+02 -0.58662115411E+02 -0.15512805948E+03  0.18533659926E+03  0.00000000000E+00 0. -1.
         -2    1    6    6    0  503  0.22302054426E+02 -0.46911436920E+01 -0.17722281066E+02  0.28869840785E+02  0.00000000000E+00 0.  1.
<mgrwt>
<rscale>  0 0.22566264E+04</rscale>
<asrwt>0</asrwt>
<pdfrwt beam="1">  1        1 0.19231979E+00 0.22566264E+04</pdfrwt>
<pdfrwt beam="2">  1       -2 0.15667823E+00 0.22566264E+04</pdfrwt>
<totfact> 0.20857756E+00</totfact>
</mgrwt>
</event>
<event>
12    4  0.4398275E-008  0.1920793E+04  0.7818608E-02  0.8644575E-01
         -2   -1    0    0    0  501 -0.00000000000E+00  0.00000000000E+00  0.89950186795E+03  0.89950186795E+03  0.00000000000E+00 0.  1.
          1   -1    0    0  501    0  0.00000000000E+00 -0.00000000000E+00 -0.10254133476E+04  0.10254133476E+04  0.00000000000E+00 0. -1.
        -24    2    1    2    0    0  0.29991241622E+03 -0.38832320419E+03  0.51628952390E+03  0.71712382780E+03  0.83482594564E+02 0.  0.
        254    2    1    2    0    0 -0.29991241622E+03  0.38832320419E+03 -0.64220100358E+03  0.12077913878E+04  0.89754974185E+03 0.  0.
         23    2    4    4    0    0 -0.37717671069E+03  0.37371115822E+03  0.15708359072E+02  0.53893403334E+03  0.90999114699E+02 0.  0.
         23    2    4    4    0    0  0.77264294473E+02  0.14612045964E+02 -0.65790936265E+03  0.66885735445E+03  0.91335360340E+02 0.  0.
          3    1    3    3  502    0  0.57954801465E+02 -0.10606420325E+03  0.85244229674E+02  0.14790183541E+03  0.00000000000E+00 0. -1.
         -4    1    3    3    0  502  0.24195761475E+03 -0.28225900093E+03  0.43104529422E+03  0.56922199239E+03  0.00000000000E+00 0.  1.
         11    1    5    5    0    0 -0.65723790038E+02  0.11558282141E+03 -0.11792491464E+02  0.13348433630E+03  0.00000000000E+00 0.  1.
        -11    1    5    5    0    0 -0.31145292065E+03  0.25812833682E+03  0.27500850536E+02  0.40544969704E+03  0.00000000000E+00 0. -1.
          1    1    6    6  503    0  0.33250369930E+02 -0.41439402805E+01 -0.54754030114E+03  0.54856461854E+03  0.00000000000E+00 0. -1.
         -1    1    6    6    0  503  0.44013924542E+02  0.18755986244E+02 -0.11036906152E+03  0.12029273591E+03  0.00000000000E+00 0.  1.
<mgrwt>
<rscale>  0 0.19207928E+04</rscale>
<asrwt>0</asrwt>
<pdfrwt beam="1">  1        1 0.15775590E+00 0.19207928E+04</pdfrwt>
<pdfrwt beam="2">  1       -2 0.13838490E+00 0.19207928E+04</pdfrwt>
<totfact> 0.43813466E+00</totfact>
</mgrwt>
</event>
<event>
12    4  0.4398275E-008  0.1943010E+04  0.7818608E-02  0.8633739E-01
          1   -1    0    0  501    0  0.00000000000E+00  0.00000000000E+00  0.77107364198E+03  0.77107364198E+03  0.00000000000E+00 0. -1.
         -2   -1    0    0    0  501 -0.00000000000E+00 -0.00000000000E+00 -0.12240362548E+04  0.12240362548E+04  0.00000000000E+00 0.  1.
        -24    2    1    2    0    0 -0.31455221924E+03  0.57852485192E+03  0.20727212159E+03  0.69503296182E+03  0.80467277287E+02 0.  0.
        254    2    1    2    0    0  0.31455221924E+03 -0.57852485192E+03 -0.66023473437E+03  0.13000769349E+04  0.90590067298E+03 0.  0.
         23    2    4    4    0    0  0.35205879923E+03  0.13686464905E+03 -0.15091804675E+03  0.41656360571E+03  0.89842364688E+02 0.  0.
         23    2    4    4    0    0 -0.37506579998E+02 -0.71538950097E+03 -0.50931668762E+03  0.88351332919E+03  0.89461907700E+02 0.  0.
          1    1    3    3  502    0 -0.12437607289E+03  0.30265316017E+03  0.12262840332E+03  0.34943678709E+03  0.00000000000E+00 0. -1.
         -2    1    3    3    0  502 -0.19017614635E+03  0.27587169175E+03  0.84643718271E+02  0.34559617474E+03  0.00000000000E+00 0.  1.
         11    1    5    5    0    0  0.39490002491E+02 -0.12773795174E+02 -0.11889802350E+02  0.43174037799E+02  0.00000000000E+00 0. -1.
        -11    1    5    5    0    0  0.31256879674E+03  0.14963844423E+03 -0.13902824440E+03  0.37338956791E+03  0.00000000000E+00 0.  1.
          3    1    6    6  503    0 -0.30204527387E+02 -0.70976754274E+03 -0.50961354737E+03  0.87429299772E+03  0.00000000000E+00 0.  1.
         -3    1    6    6    0  503 -0.73020526112E+01 -0.56219582359E+01  0.29685975421E+00  0.92203314722E+01  0.00000000000E+00 0. -1.
<mgrwt>
<rscale>  0 0.19430101E+04</rscale>
<asrwt>0</asrwt>
<pdfrwt beam="1">  1        1 0.11862671E+00 0.19430101E+04</pdfrwt>
<pdfrwt beam="2">  1       -2 0.18831327E+00 0.19430101E+04</pdfrwt>
<totfact> 0.30450972E+00</totfact>
</mgrwt>
</event>
<event>
12    4  0.4398275E-008  0.2335180E+04  0.7818608E-02  0.8464178E-01
          1   -1    0    0  501    0  0.00000000000E+00  0.00000000000E+00  0.19291135693E+04  0.19291135693E+04  0.00000000000E+00 0. -1.
         -2   -1    0    0    0  501 -0.00000000000E+00 -0.00000000000E+00 -0.70668008947E+03  0.70668008947E+03  0.00000000000E+00 0.  1.
        -24    2    1    2    0    0  0.31069716203E+03  0.48782566697E+03  0.14340362003E+04  0.15483951012E+04  0.80999741102E+02 0.  0.
        254    2    1    2    0    0 -0.31069716203E+03 -0.48782566697E+03 -0.21160272043E+03  0.10873985575E+04  0.89618820778E+03 0.  0.
         23    2    4    4    0    0 -0.54159196948E+03 -0.54618847727E+03 -0.28101126099E+03  0.82302108661E+03  0.82174607380E+02 0.  0.
         23    2    4    4    0    0  0.23089480745E+03  0.58362810300E+02  0.69408540559E+02  0.26437747092E+03  0.91429053860E+02 0.  0.
          1    1    3    3  502    0  0.21077536397E+03  0.32920083551E+03  0.10649806460E+04  0.11344528287E+04  0.00000000000E+00 0. -1.
         -2    1    3    3    0  502  0.99921798060E+02  0.15862483146E+03  0.36905555427E+03  0.41394227257E+03  0.00000000000E+00 0.  1.
         11    1    5    5    0    0 -0.74438216670E+02 -0.11069011453E+03 -0.68338904093E+02  0.14987846866E+03  0.00000000000E+00 0. -1.
        -11    1    5    5    0    0 -0.46715375281E+03 -0.43549836274E+03 -0.21267235689E+03  0.67314261795E+03  0.00000000000E+00 0.  1.
          2    1    6    6  503    0  0.13179142987E+03  0.23715525052E+02  0.84459607139E+02  0.15831876817E+03  0.00000000000E+00 0. -1.
         -2    1    6    6    0  503  0.99103377580E+02  0.34647285248E+02 -0.15051066580E+02  0.10605870275E+03  0.00000000000E+00 0.  1.
<mgrwt>
<rscale>  0 0.23351798E+04</rscale>
<asrwt>0</asrwt>
<pdfrwt beam="1">  1        1 0.29678670E+00 0.23351798E+04</pdfrwt>
<pdfrwt beam="2">  1       -2 0.10872001E+00 0.23351798E+04</pdfrwt>
<totfact> 0.17813331E+00</totfact>
</mgrwt>
</event>
<event>
12    4  0.4398275E-008  0.1890209E+04  0.7818608E-02  0.8659745E-01
         -2   -1    0    0    0  501 -0.00000000000E+00  0.00000000000E+00  0.51024785568E+03  0.51024785568E+03  0.00000000000E+00 0.  1.
          1   -1    0    0  501    0  0.00000000000E+00 -0.00000000000E+00 -0.17505659324E+04  0.17505659324E+04  0.00000000000E+00 0. -1.
        -24    2    1    2    0    0  0.90676100347E+02  0.71549739709E+03 -0.55056401893E+03  0.91086746425E+03  0.80000737885E+02 0.  0.
        254    2    1    2    0    0 -0.90676100347E+02 -0.71549739709E+03 -0.68975405782E+03  0.13499463239E+04  0.90908510967E+03 0.  0.
         23    2    4    4    0    0 -0.17147373702E+03 -0.11136106228E+02  0.15086435135E+03  0.24671260659E+03  0.92627222752E+02 0.  0.
         23    2    4    4    0    0  0.80797636671E+02 -0.70436129087E+03 -0.84061840917E+03  0.11032337173E+04  0.88499937466E+02 0.  0.
          3    1    3    3  502    0  0.39764386691E+02  0.10478776328E+03 -0.70660300195E+02  0.13249362176E+03  0.00000000000E+00 0. -1.
         -4    1    3    3    0  502  0.50911713656E+02  0.61070963381E+03 -0.47990371874E+03  0.77837384249E+03  0.00000000000E+00 0.  1.
         11    1    5    5    0    0 -0.50849269798E+01  0.27203098885E+01 -0.12097726009E+02  0.13401923103E+02  0.00000000000E+00 0.  1.
        -11    1    5    5    0    0 -0.16638881004E+03 -0.13856416117E+02  0.16296207736E+03  0.23331068349E+03  0.00000000000E+00 0. -1.
          1    1    6    6  503    0  0.83191247660E+02 -0.38529627608E+03 -0.43219303705E+03  0.58494856639E+03  0.00000000000E+00 0. -1.
         -1    1    6    6    0  503 -0.23936109892E+01 -0.31906501478E+03 -0.40842537212E+03  0.51828515088E+03  0.00000000000E+00 0.  1.
<mgrwt>
<rscale>  0 0.18902090E+04</rscale>
<asrwt>0</asrwt>
<pdfrwt beam="1">  1        1 0.26931784E+00 0.18902090E+04</pdfrwt>
<pdfrwt beam="2">  1       -2 0.78499668E-01 0.18902090E+04</pdfrwt>
<totfact> 0.52196361E+00</totfact>
</mgrwt>
</event>
<event>
12    4  0.4398275E-008  0.1629941E+04  0.7818608E-02  0.8802362E-01
          3   -1    0    0  501    0  0.00000000000E+00  0.00000000000E+00  0.82338058434E+03  0.82338058434E+03  0.00000000000E+00 0. -1.
         -4   -1    0    0    0  501 -0.00000000000E+00 -0.00000000000E+00 -0.80664651417E+03  0.80664651417E+03  0.00000000000E+00 0.  1.
        -24    2    1    2    0    0 -0.75999988335E+01  0.50518993473E+03  0.97473257171E+02  0.52112392216E+03  0.82428613049E+02 0.  0.
        254    2    1    2    0    0  0.75999988335E+01 -0.50518993473E+03 -0.80739186999E+02  0.11089031764E+04  0.98380526939E+03 0.  0.
         23    2    4    4    0    0 -0.29479707572E+03  0.83221708198E+02 -0.26644071002E+03  0.41568440626E+03  0.89284405628E+02 0.  0.
         23    2    4    4    0    0  0.30239707455E+03 -0.58841164293E+03  0.18570152302E+03  0.69321877009E+03  0.91623988802E+02 0.  0.
          3    1    3    3  502    0  0.13865393883E+02  0.29183823041E+03  0.93129536538E+02  0.30665112498E+03  0.00000000000E+00 0. -1.
         -4    1    3    3    0  502 -0.21465392717E+02  0.21335170432E+03  0.43437206323E+01  0.21447279718E+03  0.00000000000E+00 0.  1.
         11    1    5    5    0    0  0.82436412536E-02  0.16812040969E+02 -0.12271398659E+02  0.20814226254E+02  0.00000000000E+00 0. -1.
        -11    1    5    5    0    0 -0.29480531936E+03  0.66409667229E+02 -0.25416931136E+03  0.39487018001E+03  0.00000000000E+00 0.  1.
          1    1    6    6  503    0  0.63574202641E+02 -0.14537027855E+03  0.59588118463E+01  0.15877564223E+03  0.00000000000E+00 0. -1.
         -1    1    6    6    0  503  0.23882287191E+03 -0.44304136438E+03  0.17974271117E+03  0.53444312786E+03  0.00000000000E+00 0.  1.
<mgrwt>
<rscale>  0 0.16299412E+04</rscale>
<asrwt>0</asrwt>
<pdfrwt beam="1">  1        3 0.12667394E+00 0.16299412E+04</pdfrwt>
<pdfrwt beam="2">  1       -4 0.12409946E+00 0.16299412E+04</pdfrwt>
<totfact> 0.52863823E-01</totfact>
</mgrwt>
</event>
<event>
12    4  0.4398275E-008  0.1833904E+04  0.7818608E-02  0.8688475E-01
          1   -1    0    0  501    0  0.00000000000E+00  0.00000000000E+00  0.24526584346E+04  0.24526584346E+04  0.00000000000E+00 0. -1.
         -2   -1    0    0    0  501 -0.00000000000E+00 -0.00000000000E+00 -0.34281200792E+03  0.34281200792E+03  0.00000000000E+00 0.  1.
        -24    2    1    2    0    0  0.13789790275E+03  0.57935779272E+03  0.26272608830E+03  0.65589326611E+03  0.80620688958E+02 0.  0.
        254    2    1    2    0    0 -0.13789790275E+03 -0.57935779272E+03  0.18471203384E+04  0.21395771764E+04  0.90070287320E+03 0.  0.
         23    2    4    4    0    0 -0.32814726704E+03  0.40934973865E+02  0.28875681941E+03  0.44901269119E+03  0.94210377036E+02 0.  0.
         23    2    4    4    0    0  0.19024936429E+03 -0.62029276659E+03  0.15583635190E+04  0.16905644852E+04  0.92485050347E+02 0.  0.
          1    1    3    3  502    0 -0.43428496599E+01  0.67192834466E+02  0.12883105066E+02  0.68554443641E+02  0.00000000000E+00 0. -1.
         -2    1    3    3    0  502  0.14224075241E+03  0.51216495826E+03  0.24984298324E+03  0.58733882247E+03  0.00000000000E+00 0.  1.
         11    1    5    5    0    0 -0.12334219435E+02 -0.12983325646E+02  0.30602969513E+00  0.17910705405E+02  0.00000000000E+00 0.  1.
        -11    1    5    5    0    0 -0.31581304761E+03  0.53918299512E+02  0.28845078972E+03  0.43110198579E+03  0.00000000000E+00 0. -1.
          2    1    6    6  503    0  0.14109740825E+03 -0.39218328227E+03  0.89319514560E+03  0.98565398271E+03  0.00000000000E+00 0. -1.
         -2    1    6    6    0  503  0.49151956040E+02 -0.22810948432E+03  0.66516837339E+03  0.70491050253E+03  0.00000000000E+00 0.  1.
<mgrwt>
<rscale>  0 0.18339038E+04</rscale>
<asrwt>0</asrwt>
<pdfrwt beam="1">  1        1 0.37733205E+00 0.18339038E+04</pdfrwt>
<pdfrwt beam="2">  1       -2 0.52740311E-01 0.18339038E+04</pdfrwt>
<totfact> 0.40982174E+00</totfact>
</mgrwt>
</event>
<event>
12    4  0.4398275E-008  0.1429252E+04  0.7818608E-02  0.8932913E-01
          1   -1    0    0  501    0  0.00000000000E+00  0.00000000000E+00  0.18564439897E+04  0.18564439897E+04  0.00000000000E+00 0. -1.
         -2   -1    0    0    0  501 -0.00000000000E+00 -0.00000000000E+00 -0.27509043292E+03  0.27509043292E+03  0.00000000000E+00 0.  1.
        -24    2    1    2    0    0 -0.17227112815E+03 -0.26149755670E+03  0.90121810916E+03  0.95740780215E+03  0.79858033914E+02 0.  0.
        254    2    1    2    0    0  0.17227112815E+03  0.26149755670E+03  0.68013544759E+03  0.11741266204E+04  0.90439525651E+03 0.  0.
         23    2    4    4    0    0  0.43808539384E+03  0.12744918998E+03  0.46179420321E+02  0.46782758138E+03  0.92563484829E+02 0.  0.
         23    2    4    4    0    0 -0.26581426568E+03  0.13404836672E+03  0.63395602727E+03  0.70629903906E+03  0.91279239678E+02 0.  0.
          3    1    3    3  502    0 -0.25475667812E+02 -0.97216829940E+02  0.33833283102E+03  0.35294365871E+03  0.00000000000E+00 0. -1.
         -4    1    3    3    0  502 -0.14679546034E+03 -0.16428072676E+03  0.56288527814E+03  0.60446414345E+03  0.00000000000E+00 0.  1.
         11    1    5    5    0    0  0.41421886498E+03  0.98566020156E+02  0.29472060881E+02  0.42680338660E+03  0.00000000000E+00 0. -1.
        -11    1    5    5    0    0  0.23866528853E+02  0.28883169824E+02  0.16707359440E+02  0.41024194789E+02  0.00000000000E+00 0.  1.
          1    1    6    6  503    0 -0.17809375030E+03  0.52106796929E+02  0.44866215910E+03  0.48552058164E+03  0.00000000000E+00 0. -1.
         -1    1    6    6    0  503 -0.87720515387E+02  0.81941569795E+02  0.18529386817E+03  0.22077845742E+03  0.00000000000E+00 0.  1.
<mgrwt>
<rscale>  0 0.14292515E+04</rscale>
<asrwt>0</asrwt>
<pdfrwt beam="1">  1        1 0.28560676E+00 0.14292515E+04</pdfrwt>
<pdfrwt beam="2">  1       -2 0.42321606E-01 0.14292515E+04</pdfrwt>
<totfact> 0.16861561E+01</totfact>
</mgrwt>
</event>
<event>
12    4  0.4398275E-008  0.2250113E+04  0.7818608E-02  0.8497855E-01
         -2   -1    0    0    0  501 -0.00000000000E+00  0.00000000000E+00  0.68692529998E+03  0.68692529998E+03  0.00000000000E+00 0.  1.
          1   -1    0    0  501    0  0.00000000000E+00 -0.00000000000E+00 -0.18426345510E+04  0.18426345510E+04  0.00000000000E+00 0. -1.
        -24    2    1    2    0    0  0.43548091171E+03 -0.80640574280E+03 -0.66802700347E+03  0.11380417105E+04  0.94578068436E+02 0.  0.
        254    2    1    2    0    0 -0.43548091171E+03  0.80640574280E+03 -0.48768224752E+03  0.13915181404E+04  0.92658238388E+03 0.  0.
         23    2    4    4    0    0 -0.65322934741E+03  0.67172106877E+03 -0.57828213428E+03  0.11048169504E+04  0.91063123827E+02 0.  0.
         23    2    4    4    0    0  0.21774843569E+03  0.13468467403E+03  0.90599886763E+02  0.28670119003E+03  0.91841658405E+02 0.  0.
          1    1    3    3  502    0  0.33807172009E+02 -0.51086903428E+02 -0.18725502525E+02  0.64058106637E+02  0.00000000000E+00 0. -1.
         -2    1    3    3    0  502  0.40167373970E+03 -0.75531883938E+03 -0.64930150095E+03  0.10739836039E+04  0.00000000000E+00 0.  1.
         11    1    5    5    0    0 -0.53055674469E+03  0.59224527889E+03 -0.48318536495E+03  0.93043700841E+03  0.00000000000E+00 0. -1.
        -11    1    5    5    0    0 -0.12267260271E+03  0.79475789881E+02 -0.95096769330E+02  0.17437994199E+03  0.00000000000E+00 0.  1.
          3    1    6    6  503    0  0.18209832831E+03  0.12730355858E+03  0.42231288558E+02  0.22616250559E+03  0.00000000000E+00 0. -1.
         -3    1    6    6    0  503  0.35650107377E+02  0.73811154503E+01  0.48368598205E+02  0.60538684438E+02  0.00000000000E+00 0.  1.
<mgrwt>
<rscale>  0 0.22501131E+04</rscale>
<asrwt>0</asrwt>
<pdfrwt beam="1">  1        1 0.28348224E+00 0.22501131E+04</pdfrwt>
<pdfrwt beam="2">  1       -2 0.10568082E+00 0.22501131E+04</pdfrwt>
<totfact> 0.21992157E+00</totfact>
</mgrwt>
</event>
<event>
12    4  0.4398275E-008  0.1630570E+04  0.7818608E-02  0.8801985E-01
         -2   -1    0    0    0  501 -0.00000000000E+00  0.00000000000E+00  0.48180010763E+03  0.48180010763E+03  0.00000000000E+00 0.  1.
          1   -1    0    0  501    0  0.00000000000E+00 -0.00000000000E+00 -0.13795960896E+04  0.13795960896E+04  0.00000000000E+00 0. -1.
        -24    2    1    2    0    0  0.45775554035E+03 -0.21336177004E+03 -0.57664968028E+03  0.77053890541E+03  0.78370730150E+02 0.  0.
        254    2    1    2    0    0 -0.45775554035E+03  0.21336177004E+03 -0.32114630168E+03  0.10908572918E+04  0.91201496939E+03 0.  0.
         23    2    4    4    0    0 -0.36874481562E+03  0.55369605430E+03 -0.27139305352E+03  0.72406479869E+03  0.89797458825E+02 0.  0.
         23    2    4    4    0    0 -0.89010724727E+02 -0.34033428426E+03 -0.49753248163E+02  0.36679249313E+03  0.91164758276E+02 0.  0.
          1    1    3    3  502    0  0.40282735829E+03 -0.19432850235E+03 -0.46819830901E+03  0.64748984855E+03  0.00000000000E+00 0. -1.
         -2    1    3    3    0  502  0.54928182054E+02 -0.19033267688E+02 -0.10845137127E+03  0.12304905686E+03  0.00000000000E+00 0.  1.
         11    1    5    5    0    0 -0.31457268338E+03  0.41525371038E+03 -0.18957620967E+03  0.55437420249E+03  0.00000000000E+00 0.  1.
        -11    1    5    5    0    0 -0.54172132239E+02  0.13844234392E+03 -0.81816843856E+02  0.16969059620E+03  0.00000000000E+00 0. -1.
          4    1    6    6  503    0 -0.31167238088E+02 -0.25865486525E+03 -0.56125425618E+02  0.26650290702E+03  0.00000000000E+00 0.  1.
         -4    1    6    6    0  503 -0.57843486638E+02 -0.81679419007E+02  0.63721774547E+01  0.10028958611E+03  0.00000000000E+00 0. -1.
<mgrwt>
<rscale>  0 0.16305699E+04</rscale>
<asrwt>0</asrwt>
<pdfrwt beam="1">  1        1 0.21224555E+00 0.16305699E+04</pdfrwt>
<pdfrwt beam="2">  1       -2 0.74123093E-01 0.16305699E+04</pdfrwt>
<totfact> 0.10929561E+01</totfact>
</mgrwt>
</event>
<event>
12    4  0.4398275E-008  0.1870248E+04  0.7818608E-02  0.8669809E-01
         -2   -1    0    0    0  501 -0.00000000000E+00  0.00000000000E+00  0.68439633829E+03  0.68439633829E+03  0.00000000000E+00 0.  1.
          1   -1    0    0  501    0  0.00000000000E+00 -0.00000000000E+00 -0.12777056326E+04  0.12777056326E+04  0.00000000000E+00 0. -1.
        -24    2    1    2    0    0 -0.19317895146E+03  0.81816770914E+02 -0.93880764095E+03  0.96544760190E+03  0.81958489713E+02 0.  0.
        254    2    1    2    0    0  0.19317895146E+03 -0.81816770914E+02  0.34549834663E+03  0.99665436898E+03  0.91100973233E+03 0.  0.
         23    2    4    4    0    0  0.19006058727E+02 -0.26917367431E+03  0.57577157797E+03  0.64243448297E+03  0.91615815765E+02 0.  0.
         23    2    4    4    0    0  0.17417289273E+03  0.18735690340E+03 -0.23027323134E+03  0.35421988601E+03  0.83708785458E+02 0.  0.
          3    1    3    3  502    0 -0.17989132954E+03  0.77782939293E+02 -0.71993917753E+03  0.74613905905E+03  0.00000000000E+00 0. -1.
         -4    1    3    3    0  502 -0.13287621919E+02  0.40338316215E+01 -0.21886846341E+03  0.21930854286E+03  0.00000000000E+00 0.  1.
         11    1    5    5    0    0 -0.28753341417E+02 -0.17646004088E+03  0.32696451652E+03  0.37265358677E+03  0.00000000000E+00 0.  1.
        -11    1    5    5    0    0  0.47759400144E+02 -0.92713633436E+02  0.24880706144E+03  0.26978089619E+03  0.00000000000E+00 0. -1.
          4    1    6    6  503    0  0.71306109092E+02  0.42946197352E+02 -0.34538702911E+02  0.90121357400E+02  0.00000000000E+00 0. -1.
         -4    1    6    6    0  503  0.10286678364E+03  0.14441070605E+03 -0.19573452842E+03  0.26409852861E+03  0.00000000000E+00 0.  1.
<mgrwt>
<rscale>  0 0.18702482E+04</rscale>
<asrwt>0</asrwt>
<pdfrwt beam="1">  1        1 0.19657010E+00 0.18702482E+04</pdfrwt>
<pdfrwt beam="2">  1       -2 0.10529175E+00 0.18702482E+04</pdfrwt>
<totfact> 0.56393516E+00</totfact>
</mgrwt>
</event>
<event>
12    4  0.4398275E-008  0.1318497E+04  0.7818608E-02  0.9015024E-01
          1   -1    0    0  501    0  0.00000000000E+00  0.00000000000E+00  0.21091764864E+04  0.21091764864E+04  0.00000000000E+00 0. -1.
         -2   -1    0    0    0  501 -0.00000000000E+00 -0.00000000000E+00 -0.20605619007E+03  0.20605619007E+03  0.00000000000E+00 0.  1.
        -24    2    1    2    0    0 -0.31020202786E+03 -0.41084634309E+02  0.75092048572E+03  0.81739572591E+03  0.79630092298E+02 0.  0.
        254    2    1    2    0    0  0.31020202786E+03  0.41084634309E+02  0.11521998106E+04  0.14978369506E+04  0.90445446631E+03 0.  0.
         23    2    4    4    0    0  0.53345349920E+03 -0.12493422659E+03  0.38101093945E+03  0.67317556169E+03  0.88401380630E+02 0.  0.
         23    2    4    4    0    0 -0.22325147133E+03  0.16601886090E+03  0.77118887119E+03  0.82466138889E+03  0.89054195027E+02 0.  0.
          1    1    3    3  502    0 -0.28862435416E+03 -0.56379908797E+02  0.71196854593E+03  0.77031287301E+03  0.00000000000E+00 0. -1.
         -2    1    3    3    0  502 -0.21577673699E+02  0.15295274489E+02  0.38951939789E+02  0.47082852901E+02  0.00000000000E+00 0.  1.
         11    1    5    5    0    0  0.46045413259E+03 -0.11310086570E+03  0.36278212137E+03  0.59700978353E+03  0.00000000000E+00 0. -1.
        -11    1    5    5    0    0  0.72999366602E+02 -0.11833360897E+02  0.18228818083E+02  0.76165778163E+02  0.00000000000E+00 0.  1.
          1    1    6    6  503    0 -0.14910330658E+03  0.63501265909E+02  0.49542338967E+03  0.52125669476E+03  0.00000000000E+00 0. -1.
         -1    1    6    6    0  503 -0.74148164754E+02  0.10251759499E+03  0.27576548152E+03  0.30340469413E+03  0.00000000000E+00 0.  1.
<mgrwt>
<rscale>  0 0.13184974E+04</rscale>
<asrwt>0</asrwt>
<pdfrwt beam="1">  1        1 0.32448868E+00 0.13184974E+04</pdfrwt>
<pdfrwt beam="2">  1       -2 0.31700954E-01 0.13184974E+04</pdfrwt>
<totfact> 0.20042693E+01</totfact>
</mgrwt>
</event>
<event>
12    4  0.4398275E-008  0.3484781E+04  0.7818608E-02  0.8117406E-01
          1   -1    0    0  501    0  0.00000000000E+00  0.00000000000E+00  0.15162550841E+04  0.15162550841E+04  0.00000000000E+00 0. -1.
         -2   -1    0    0    0  501 -0.00000000000E+00 -0.00000000000E+00 -0.20022515753E+04  0.20022515753E+04  0.00000000000E+00 0.  1.
        -24    2    1    2    0    0 -0.27062674352E+03 -0.38166007647E+03  0.13435181564E+04  0.14249919084E+04  0.81594447864E+02 0.  0.
        254    2    1    2    0    0  0.27062674352E+03  0.38166007647E+03 -0.18295146477E+04  0.20935147510E+04  0.90375711255E+03 0.  0.
         23    2    4    4    0    0 -0.30517945900E+03  0.32611850099E+02 -0.78117397015E+03  0.84351865563E+03  0.84219450164E+02 0.  0.
         23    2    4    4    0    0  0.57580620252E+03  0.34904822637E+03 -0.10483406775E+04  0.12499960954E+04  0.10042218481E+03 0.  0.
          3    1    3    3  502    0 -0.18340998544E+03 -0.23068076153E+03  0.94785714707E+03  0.99261574022E+03  0.00000000000E+00 0. -1.
         -4    1    3    3    0  502 -0.87216758079E+02 -0.15097931494E+03  0.39566100938E+03  0.43237616814E+03  0.00000000000E+00 0.  1.
         11    1    5    5    0    0 -0.14358700964E+03 -0.48410194217E+01 -0.26628002257E+03  0.30256522475E+03  0.00000000000E+00 0. -1.
        -11    1    5    5    0    0 -0.16159244936E+03  0.37452869520E+02 -0.51489394758E+03  0.54095343088E+03  0.00000000000E+00 0.  1.
          1    1    6    6  503    0  0.21307157226E+03  0.15658396046E+03 -0.49161023423E+03  0.55821022382E+03  0.00000000000E+00 0. -1.
         -1    1    6    6    0  503  0.36273463026E+03  0.19246426591E+03 -0.55673044328E+03  0.69178587158E+03  0.00000000000E+00 0.  1.
<mgrwt>
<rscale>  0 0.34847807E+04</rscale>
<asrwt>0</asrwt>
<pdfrwt beam="1">  1        1 0.23327001E+00 0.34847807E+04</pdfrwt>
<pdfrwt beam="2">  1       -2 0.30803870E+00 0.34847807E+04</pdfrwt>
<totfact> 0.12973672E-01</totfact>
</mgrwt>
</event>
<event>
12    4  0.4398275E-008  0.2017822E+04  0.7818608E-02  0.8598334E-01
         -2   -1    0    0    0  501 -0.00000000000E+00  0.00000000000E+00  0.97504662213E+03  0.97504662213E+03  0.00000000000E+00 0.  1.
          1   -1    0    0  501    0  0.00000000000E+00 -0.00000000000E+00 -0.10439510384E+04  0.10439510384E+04  0.00000000000E+00 0. -1.
        -24    2    1    2    0    0 -0.24080792063E+03 -0.43622794916E+03  0.60857226898E+03  0.79067503547E+03  0.80768353214E+02 0.  0.
        254    2    1    2    0    0  0.24080792063E+03  0.43622794916E+03 -0.67747668530E+03  0.12283226251E+04  0.89527567485E+03 0.  0.
         23    2    4    4    0    0  0.67086539628E+02 -0.15410856695E+03 -0.56590105455E+03  0.59750011771E+03  0.92262304931E+02 0.  0.
         23    2    4    4    0    0  0.17372138100E+03  0.59033651611E+03 -0.11157563075E+03  0.63082250740E+03  0.82532381494E+02 0.  0.
          3    1    3    3  502    0 -0.12620038154E+01 -0.28268215926E+02  0.16314155602E+02  0.32662460996E+02  0.00000000000E+00 0. -1.
         -4    1    3    3    0  502 -0.23954591681E+03 -0.40795973323E+03  0.59225811338E+03  0.75801257448E+03  0.00000000000E+00 0.  1.
         11    1    5    5    0    0  0.62640193984E+02 -0.13233830065E+03 -0.55245770663E+03  0.57153017185E+03  0.00000000000E+00 0. -1.
        -11    1    5    5    0    0  0.44463456442E+01 -0.21770266306E+02 -0.13443347926E+02  0.25969945862E+02  0.00000000000E+00 0.  1.
          3    1    6    6  503    0  0.16621628440E+03  0.57463082425E+03 -0.12204373069E+03  0.61051053191E+03  0.00000000000E+00 0. -1.
         -3    1    6    6    0  503  0.75050965959E+01  0.15705691865E+02  0.10468099941E+02  0.20311975489E+02  0.00000000000E+00 0.  1.
<mgrwt>
<rscale>  0 0.20178215E+04</rscale>
<asrwt>0</asrwt>
<pdfrwt beam="1">  1        1 0.16060785E+00 0.20178215E+04</pdfrwt>
<pdfrwt beam="2">  1       -2 0.15000717E+00 0.20178215E+04</pdfrwt>
<totfact> 0.34029515E+00</totfact>
</mgrwt>
</event>
<event>
12    4  0.4398275E-008  0.1397376E+04  0.7818608E-02  0.8955720E-01
         -2   -1    0    0    0  501 -0.00000000000E+00  0.00000000000E+00  0.42050943286E+03  0.42050943286E+03  0.00000000000E+00 0.  1.
          1   -1    0    0  501    0  0.00000000000E+00 -0.00000000000E+00 -0.11608897986E+04  0.11608897986E+04  0.00000000000E+00 0. -1.
        -24    2    1    2    0    0 -0.34991019729E+03 -0.10178551459E+02 -0.45139336139E+03  0.57684281791E+03  0.80317624387E+02 0.  0.
        254    2    1    2    0    0  0.34991019729E+03  0.10178551459E+02 -0.28898700433E+03  0.10045564135E+04  0.89614694679E+03 0.  0.
         23    2    4    4    0    0  0.19634251123E+03  0.42533389349E+03 -0.18409668626E+02  0.47763983653E+03  0.91332332011E+02 0.  0.
         23    2    4    4    0    0  0.15356768605E+03 -0.41515534203E+03 -0.27057733571E+03  0.52691657701E+03  0.92152006578E+02 0.  0.
          1    1    3    3  502    0 -0.13807073086E+03  0.34344616749E+02 -0.19257900295E+03  0.23943632097E+03  0.00000000000E+00 0. -1.
         -2    1    3    3    0  502 -0.21183946643E+03 -0.44523168208E+02 -0.25881435844E+03  0.33740649694E+03  0.00000000000E+00 0.  1.
         11    1    5    5    0    0  0.12497067636E+03  0.32841349310E+03  0.18121039535E+02  0.35185432280E+03  0.00000000000E+00 0. -1.
        -11    1    5    5    0    0  0.71371834871E+02  0.96920400391E+02 -0.36530708160E+02  0.12578551373E+03  0.00000000000E+00 0.  1.
          4    1    6    6  503    0  0.11673322904E+03 -0.31872386357E+03 -0.15871371983E+03  0.37470200538E+03  0.00000000000E+00 0. -1.
         -4    1    6    6    0  503  0.36834457018E+02 -0.96431478459E+02 -0.11186361587E+03  0.15221457164E+03  0.00000000000E+00 0.  1.
<mgrwt>
<rscale>  0 0.13973763E+04</rscale>
<asrwt>0</asrwt>
<pdfrwt beam="1">  1        1 0.17859843E+00 0.13973763E+04</pdfrwt>
<pdfrwt beam="2">  1       -2 0.64693759E-01 0.13973763E+04</pdfrwt>
<totfact> 0.21537936E+01</totfact>
</mgrwt>
</event>
<event>
12    4  0.4398275E-008  0.2222835E+04  0.7818608E-02  0.8508984E-01
         -2   -1    0    0    0  501 -0.00000000000E+00  0.00000000000E+00  0.13392534218E+04  0.13392534218E+04  0.00000000000E+00 0.  1.
          1   -1    0    0  501    0  0.00000000000E+00 -0.00000000000E+00 -0.92234101598E+03  0.92234101598E+03  0.00000000000E+00 0. -1.
        -24    2    1    2    0    0  0.48632718778E+02  0.82875436488E+03  0.60190119796E+03  0.10284561511E+04  0.78981415169E+02 0.  0.
        254    2    1    2    0    0 -0.48632718778E+02 -0.82875436488E+03 -0.18498879217E+03  0.12331382867E+04  0.89286630702E+03 0.  0.
         23    2    4    4    0    0  0.29233494893E+02  0.16586844982E+03 -0.12893844093E+03  0.23063647789E+03  0.90560054725E+02 0.  0.
         23    2    4    4    0    0 -0.77866213671E+02 -0.99462281470E+03 -0.56050351236E+02  0.10025018088E+04  0.80811781379E+02 0.  0.
          1    1    3    3  502    0  0.37738476911E+02  0.72607052895E+03  0.49333343647E+03  0.87862420021E+03  0.00000000000E+00 0. -1.
         -2    1    3    3    0  502  0.10894241867E+02  0.10268383593E+03  0.10856776149E+03  0.14983195087E+03  0.00000000000E+00 0.  1.
         11    1    5    5    0    0  0.76628855782E+01  0.16521593565E+03 -0.12781711595E+03  0.20902688903E+03  0.00000000000E+00 0.  1.
        -11    1    5    5    0    0  0.21570609315E+02  0.65251417357E+00 -0.11213249861E+01  0.21609588860E+02  0.00000000000E+00 0. -1.
          1    1    6    6  503    0  0.90346703622E+01 -0.16006396077E+02  0.73545625314E+00  0.18394860147E+02  0.00000000000E+00 0. -1.
         -1    1    6    6    0  503 -0.86900884033E+02 -0.97861641862E+03 -0.56785807489E+02  0.98410694865E+03  0.00000000000E+00 0.  1.
<mgrwt>
<rscale>  0 0.22228346E+04</rscale>
<asrwt>0</asrwt>
<pdfrwt beam="1">  1        1 0.14189862E+00 0.22228346E+04</pdfrwt>
<pdfrwt beam="2">  1       -2 0.20603899E+00 0.22228346E+04</pdfrwt>
<totfact> 0.16900432E+00</totfact>
</mgrwt>
</event>
<event>
12    4  0.4971898E-008  0.2917709E+04  0.7818608E-02  0.8267628E-01
          1   -1    0    0  501    0  0.00000000000E+00  0.00000000000E+00  0.11632163130E+04  0.11632163130E+04  0.00000000000E+00 0. -1.
         -2   -1    0    0    0  501 -0.00000000000E+00 -0.00000000000E+00 -0.18296310805E+04  0.18296310805E+04  0.00000000000E+00 0.  1.
        -24    2    1    2    0    0  0.74406291740E+02  0.57648641029E+03  0.91260179505E+03  0.10849400954E+04  0.79875508503E+02 0.  0.
        254    2    1    2    0    0 -0.74406291740E+02 -0.57648641029E+03 -0.15790165625E+04  0.19079072981E+04  0.89941318417E+03 0.  0.
         23    2    4    4    0    0 -0.12024325848E+03 -0.76519925706E+03 -0.87969392462E+03  0.11761698353E+04  0.97599877926E+02 0.  0.
         23    2    4    4    0    0  0.45836966735E+02  0.18871284677E+03 -0.69932263790E+03  0.73173746281E+03  0.93134293034E+02 0.  0.
          3    1    3    3  502    0  0.82517424763E+02  0.55305464680E+03  0.84824292854E+03  0.10159697995E+04  0.00000000000E+00 0. -1.
         -4    1    3    3    0  502 -0.81111330226E+01  0.23431763486E+02  0.64358866504E+02  0.68970295900E+02  0.00000000000E+00 0.  1.
         11    1    5    5    0    0  0.85941292978E+01 -0.79192580091E+02 -0.12457790486E+03  0.14786811076E+03  0.00000000000E+00 0. -1.
        -11    1    5    5    0    0 -0.12883738777E+03 -0.68600667697E+03 -0.75511601975E+03  0.10283017245E+04  0.00000000000E+00 0.  1.
          2    1    6    6  503    0  0.56156649421E+02  0.19282411450E+03 -0.68356718356E+03  0.71245968507E+03  0.00000000000E+00 0.  1.
         -2    1    6    6    0  503 -0.10319682685E+02 -0.41112677293E+01 -0.15755454340E+02  0.19277777739E+02  0.00000000000E+00 0. -1.
<mgrwt>
<rscale>  0 0.29177092E+04</rscale>
<asrwt>0</asrwt>
<pdfrwt beam="1">  1        1 0.17895636E+00 0.29177092E+04</pdfrwt>
<pdfrwt beam="2">  1       -2 0.28148170E+00 0.29177092E+04</pdfrwt>
<totfact> 0.35282923E-01</totfact>
</mgrwt>
</event>
<event>
12    4  0.4398275E-008  0.1940976E+04  0.7818608E-02  0.8634725E-01
         -2   -1    0    0    0  501 -0.00000000000E+00  0.00000000000E+00  0.46399047350E+03  0.46399047350E+03  0.00000000000E+00 0.  1.
          1   -1    0    0  501    0  0.00000000000E+00 -0.00000000000E+00 -0.20298838856E+04  0.20298838856E+04  0.00000000000E+00 0. -1.
        -24    2    1    2    0    0  0.66178273445E+03 -0.12591054736E+02 -0.10928485735E+04  0.12801753888E+04  0.80100556874E+02 0.  0.
        254    2    1    2    0    0 -0.66178273445E+03  0.12591054736E+02 -0.47304483854E+03  0.12136989702E+04  0.90065467791E+03 0.  0.
         23    2    4    4    0    0 -0.79018592167E+03 -0.19527317577E+03 -0.21568702386E+03  0.84670468320E+03  0.88670876323E+02 0.  0.
         23    2    4    4    0    0  0.12840318722E+03  0.20786423051E+03 -0.25735781468E+03  0.36699428705E+03  0.93578016296E+02 0.  0.
          3    1    3    3  502    0  0.60737366926E+03  0.96443731496E+01 -0.98161335273E+03  0.11543658702E+04  0.00000000000E+00 0. -1.
         -4    1    3    3    0  502  0.54409065189E+02 -0.22235427886E+02 -0.11123522081E+03  0.12580951862E+03  0.00000000000E+00 0.  1.
         11    1    5    5    0    0 -0.53175771959E+03 -0.17376950505E+03 -0.15017358244E+03  0.57923589158E+03  0.00000000000E+00 0. -1.
        -11    1    5    5    0    0 -0.25842820208E+03 -0.21503670723E+02 -0.65513441415E+02  0.26746879162E+03  0.00000000000E+00 0.  1.
          2    1    6    6  503    0  0.56347758048E+02  0.20091392300E+02 -0.48181510823E+02  0.76812706415E+02  0.00000000000E+00 0.  1.
         -2    1    6    6    0  503  0.72055429176E+02  0.18777283821E+03 -0.20917630386E+03  0.29018158063E+03  0.00000000000E+00 0. -1.
<mgrwt>
<rscale>  0 0.19409758E+04</rscale>
<asrwt>0</asrwt>
<pdfrwt beam="1">  1        1 0.31228983E+00 0.19409758E+04</pdfrwt>
<pdfrwt beam="2">  1       -2 0.71383149E-01 0.19409758E+04</pdfrwt>
<totfact> 0.41471308E+00</totfact>
</mgrwt>
</event>
<event>
12    4  0.4398275E-008  0.1243880E+04  0.7818608E-02  0.9075292E-01
          1   -1    0    0  501    0  0.00000000000E+00  0.00000000000E+00  0.28488712881E+03  0.28488712881E+03  0.00000000000E+00 0. -1.
         -4   -1    0    0    0  501 -0.00000000000E+00 -0.00000000000E+00 -0.13577639160E+04  0.13577639160E+04  0.00000000000E+00 0.  1.
        -24    2    1    2    0    0 -0.13027793841E+03  0.22476416480E+03 -0.40414779770E+03  0.48695814898E+03  0.79382148209E+02 0.  0.
        254    2    1    2    0    0  0.13027793841E+03 -0.22476416480E+03 -0.66872898945E+03  0.11556928958E+04  0.90605537194E+03 0.  0.
         23    2    4    4    0    0 -0.22608126348E+03  0.23103016297E+03 -0.13394637024E+03  0.36263385478E+03  0.95257590960E+02 0.  0.
         23    2    4    4    0    0  0.35635920189E+03 -0.45579432778E+03 -0.53478261922E+03  0.79305904101E+03  0.90608182308E+02 0.  0.
          1    1    3    3  502    0 -0.12540596536E+03  0.19331394098E+03 -0.30139011734E+03  0.37938494798E+03  0.00000000000E+00 0. -1.
         -2    1    3    3    0  502 -0.48719730515E+01  0.31450223828E+02 -0.10275768036E+03  0.10757320100E+03  0.00000000000E+00 0.  1.
         11    1    5    5    0    0 -0.12776799390E+03  0.69835722014E+02 -0.80624314371E+02  0.16643908316E+03  0.00000000000E+00 0. -1.
        -11    1    5    5    0    0 -0.98313269580E+02  0.16119444096E+03 -0.53322055866E+02  0.19619477163E+03  0.00000000000E+00 0.  1.
          1    1    6    6  503    0  0.26927133869E+03 -0.27626771041E+03 -0.34038381716E+03  0.51448230741E+03  0.00000000000E+00 0. -1.
         -1    1    6    6    0  503  0.87087863203E+02 -0.17952661737E+03 -0.19439880206E+03  0.27857673360E+03  0.00000000000E+00 0.  1.
<mgrwt>
<rscale>  0 0.12438802E+04</rscale>
<asrwt>0</asrwt>
<pdfrwt beam="1">  1        1 0.43828789E-01 0.12438802E+04</pdfrwt>
<pdfrwt beam="2">  1       -4 0.20888676E+00 0.12438802E+04</pdfrwt>
<totfact> 0.50506594E+00</totfact>
</mgrwt>
</event>
<event>
12    4  0.4398275E-008  0.2200542E+04  0.7818608E-02  0.8518203E-01
         -2   -1    0    0    0  501 -0.00000000000E+00  0.00000000000E+00  0.16432228253E+04  0.16432228253E+04  0.00000000000E+00 0.  1.
          1   -1    0    0  501    0  0.00000000000E+00 -0.00000000000E+00 -0.73672068317E+03  0.73672068317E+03  0.00000000000E+00 0. -1.
        -24    2    1    2    0    0 -0.50030308095E+03  0.67668299642E+03 -0.78867730095E+01  0.84551221423E+03  0.81398112799E+02 0.  0.
        254    2    1    2    0    0  0.50030308095E+03 -0.67668299642E+03  0.91438891515E+03  0.15344312943E+04  0.90009402741E+03 0.  0.
         23    2    4    4    0    0  0.57596758564E+03 -0.84092851930E+03  0.81359171701E+03  0.13073115317E+04  0.90733260954E+02 0.  0.
         23    2    4    4    0    0 -0.75664504689E+02  0.16424552288E+03  0.10079719814E+03  0.22711976256E+03  0.93389519410E+02 0.  0.
          3    1    3    3  502    0 -0.10126399187E+03  0.13415764463E+03 -0.34183180697E+02  0.17152597326E+03  0.00000000000E+00 0. -1.
         -4    1    3    3    0  502 -0.39903908909E+03  0.54252535180E+03  0.26296407687E+02  0.67398624097E+03  0.00000000000E+00 0.  1.
         11    1    5    5    0    0  0.22175035893E+03 -0.37234477714E+03  0.39102216165E+03  0.58370556418E+03  0.00000000000E+00 0. -1.
        -11    1    5    5    0    0  0.35421722672E+03 -0.46858374216E+03  0.42256955536E+03  0.72360596752E+03  0.00000000000E+00 0.  1.
          1    1    6    6  503    0 -0.35968619155E+02  0.16125784586E+02 -0.65162218273E+01  0.39953017900E+02  0.00000000000E+00 0. -1.
         -1    1    6    6    0  503 -0.39695885534E+02  0.14811973829E+03  0.10731341997E+03  0.18716674466E+03  0.00000000000E+00 0.  1.
<mgrwt>
<rscale>  0 0.22005420E+04</rscale>
<asrwt>0</asrwt>
<pdfrwt beam="1">  1        1 0.11334164E+00 0.22005420E+04</pdfrwt>
<pdfrwt beam="2">  1       -2 0.25280351E+00 0.22005420E+04</pdfrwt>
<totfact> 0.12423929E+00</totfact>
</mgrwt>
</event>
<event>
12    4  0.4398275E-008  0.1701887E+04  0.7818608E-02  0.8760289E-01
          1   -1    0    0  501    0  0.00000000000E+00  0.00000000000E+00  0.17629806387E+04  0.17629806387E+04  0.00000000000E+00 0. -1.
         -2   -1    0    0    0  501 -0.00000000000E+00 -0.00000000000E+00 -0.41072774658E+03  0.41072774658E+03  0.00000000000E+00 0.  1.
        -24    2    1    2    0    0  0.16529474021E+03  0.21723964466E+03 -0.20682164255E+03  0.35138014807E+03  0.78596452094E+02 0.  0.
        254    2    1    2    0    0 -0.16529474021E+03 -0.21723964466E+03  0.15590745347E+04  0.18223282372E+04  0.90313420107E+03 0.  0.
         23    2    4    4    0    0  0.22489221538E+03  0.29696406894E+02  0.57710043322E+02  0.24896209358E+03  0.84813264381E+02 0.  0.
         23    2    4    4    0    0 -0.39018695559E+03 -0.24693605155E+03  0.15013644914E+04  0.15733661437E+04  0.90346069040E+02 0.  0.
          3    1    3    3  502    0  0.16519029123E+03  0.17544310680E+03 -0.16364142479E+03  0.29128445195E+03  0.00000000000E+00 0. -1.
         -4    1    3    3    0  502  0.10444897419E+00  0.41796537862E+02 -0.43180217762E+02  0.60095696126E+02  0.00000000000E+00 0.  1.
         11    1    5    5    0    0  0.48194437955E+02 -0.29237119507E+01 -0.21178363505E+02  0.52723571789E+02  0.00000000000E+00 0.  1.
        -11    1    5    5    0    0  0.17669777743E+03  0.32620118845E+02  0.78888406827E+02  0.19623852179E+03  0.00000000000E+00 0. -1.
          1    1    6    6  503    0 -0.38588769831E+03 -0.23361343737E+03  0.14840916951E+04  0.15511327194E+04  0.00000000000E+00 0. -1.
         -1    1    6    6    0  503 -0.42992572779E+01 -0.13322614187E+02  0.17272796284E+02  0.22233424239E+02  0.00000000000E+00 0.  1.
<mgrwt>
<rscale>  0 0.17018873E+04</rscale>
<asrwt>0</asrwt>
<pdfrwt beam="1">  1        1 0.27122779E+00 0.17018873E+04</pdfrwt>
<pdfrwt beam="2">  1       -2 0.63188885E-01 0.17018873E+04</pdfrwt>
<totfact> 0.83645376E+00</totfact>
</mgrwt>
</event>
<event>
12    4  0.4398275E-008  0.2148677E+04  0.7818608E-02  0.8540099E-01
          1   -1    0    0  501    0  0.00000000000E+00  0.00000000000E+00  0.20923797674E+04  0.20923797674E+04  0.00000000000E+00 0. -1.
         -2   -1    0    0    0  501 -0.00000000000E+00 -0.00000000000E+00 -0.55162224210E+03  0.55162224210E+03  0.00000000000E+00 0.  1.
        -24    2    1    2    0    0  0.73559695611E+03 -0.74703267638E+02  0.39035995660E+02  0.74466460576E+03  0.79486515090E+02 0.  0.
        254    2    1    2    0    0 -0.73559695611E+03  0.74703267638E+02  0.15017215297E+04  0.18993374038E+04  0.89756980825E+03 0.  0.
         23    2    4    4    0    0  0.67655007200E+02  0.24242068317E+03  0.70083405444E+03  0.74927047953E+03  0.83023442500E+02 0.  0.
         23    2    4    4    0    0 -0.80325196331E+03 -0.16771741553E+03  0.80088747524E+03  0.11500669243E+04  0.88827553372E+02 0.  0.
          3    1    3    3  502    0  0.21572114675E+03 -0.30561135635E+02 -0.23697773444E+02  0.21916017119E+03  0.00000000000E+00 0. -1.
         -4    1    3    3    0  502  0.51987580936E+03 -0.44142132004E+02  0.62733769104E+02  0.52550443457E+03  0.00000000000E+00 0.  1.
         11    1    5    5    0    0  0.76893856066E+02  0.24324915023E+03  0.68436871928E+03  0.73037206827E+03  0.00000000000E+00 0.  1.
        -11    1    5    5    0    0 -0.92388488657E+01 -0.82846705882E+00  0.16465335162E+02  0.18898411257E+02  0.00000000000E+00 0. -1.
          1    1    6    6  503    0 -0.15005287259E+03 -0.19559155586E+01  0.17259027530E+03  0.22870744043E+03  0.00000000000E+00 0. -1.
         -1    1    6    6    0  503 -0.65319909072E+03 -0.16576149998E+03  0.62829719993E+03  0.92135948382E+03  0.00000000000E+00 0.  1.
<mgrwt>
<rscale>  0 0.21486770E+04</rscale>
<asrwt>0</asrwt>
<pdfrwt beam="1">  1        1 0.32190458E+00 0.21486770E+04</pdfrwt>
<pdfrwt beam="2">  1       -2 0.84864961E-01 0.21486770E+04</pdfrwt>
<totfact> 0.25088775E+00</totfact>
</mgrwt>
</event>
<event>
12    4  0.4398275E-008  0.2128558E+04  0.7818608E-02  0.8548767E-01
          1   -1    0    0  501    0  0.00000000000E+00  0.00000000000E+00  0.83164092413E+03  0.83164092413E+03  0.00000000000E+00 0. -1.
         -2   -1    0    0    0  501 -0.00000000000E+00 -0.00000000000E+00 -0.13619932071E+04  0.13619932071E+04  0.00000000000E+00 0.  1.
        -24    2    1    2    0    0  0.62792780468E+03  0.49372022773E+03  0.16509127862E+03  0.81943636039E+03  0.78535516102E+02 0.  0.
        254    2    1    2    0    0 -0.62792780468E+03 -0.49372022773E+03 -0.69544356157E+03  0.13741977708E+04  0.87562821727E+03 0.  0.
         23    2    4    4    0    0 -0.52584890381E+03 -0.52871303841E+03 -0.94994422940E+02  0.75719466861E+03  0.90913580752E+02 0.  0.
         23    2    4    4    0    0 -0.10207890087E+03  0.34992810675E+02 -0.60044913863E+03  0.61700310222E+03  0.92244573108E+02 0.  0.
          1    1    3    3  502    0  0.46607616841E+03  0.36950595744E+03  0.15747289602E+03  0.61527177761E+03  0.00000000000E+00 0. -1.
         -2    1    3    3    0  502  0.16185163627E+03  0.12421427029E+03  0.76183825984E+01  0.20416458278E+03  0.00000000000E+00 0.  1.
         11    1    5    5    0    0 -0.44193802776E+03 -0.43910307700E+03 -0.44919038563E+02  0.62461064082E+03  0.00000000000E+00 0.  1.
        -11    1    5    5    0    0 -0.83910876054E+02 -0.89609961411E+02 -0.50075384377E+02  0.13258402779E+03  0.00000000000E+00 0. -1.
          4    1    6    6  503    0 -0.78198413718E+02  0.16805209416E+02 -0.19956572260E+03  0.21499740605E+03  0.00000000000E+00 0. -1.
         -4    1    6    6    0  503 -0.23880487149E+02  0.18187601259E+02 -0.40088341603E+03  0.40200569617E+03  0.00000000000E+00 0.  1.
<mgrwt>
<rscale>  0 0.21285575E+04</rscale>
<asrwt>0</asrwt>
<pdfrwt beam="1">  1        1 0.12794476E+00 0.21285575E+04</pdfrwt>
<pdfrwt beam="2">  1       -2 0.20953742E+00 0.21285575E+04</pdfrwt>
<totfact> 0.19237605E+00</totfact>
</mgrwt>
</event>
<event>
12    4  0.4398275E-008  0.2088780E+04  0.7818608E-02  0.8566202E-01
          1   -1    0    0  501    0  0.00000000000E+00  0.00000000000E+00  0.11232500779E+04  0.11232500779E+04  0.00000000000E+00 0. -1.
         -2   -1    0    0    0  501 -0.00000000000E+00 -0.00000000000E+00 -0.97106687105E+03  0.97106687105E+03  0.00000000000E+00 0.  1.
        -24    2    1    2    0    0 -0.10646573413E+02  0.70882893688E+03  0.54385850870E+03  0.89713205152E+03  0.80697144248E+02 0.  0.
        254    2    1    2    0    0  0.10646573413E+02 -0.70882893688E+03 -0.39167530188E+03  0.11971848974E+04  0.88164070071E+03 0.  0.
         23    2    4    4    0    0  0.81237042412E+02 -0.75392572692E+03  0.23508008765E+02  0.76346315319E+03  0.85556420150E+02 0.  0.
         23    2    4    4    0    0 -0.70590468999E+02  0.45096790042E+02 -0.41518331065E+03  0.43372174420E+03  0.93384341112E+02 0.  0.
          3    1    3    3  502    0 -0.29274344673E+02  0.49984439652E+03  0.34497947148E+03  0.60803967282E+03  0.00000000000E+00 0. -1.
         -4    1    3    3    0  502  0.18627771260E+02  0.20898454037E+03  0.19887903722E+03  0.28909237870E+03  0.00000000000E+00 0.  1.
         11    1    5    5    0    0  0.31209621715E+02 -0.18945541662E+03 -0.29681917325E+02  0.19428950458E+03  0.00000000000E+00 0. -1.
        -11    1    5    5    0    0  0.50027420697E+02 -0.56447031030E+03  0.53189926090E+02  0.56917364861E+03  0.00000000000E+00 0.  1.
          2    1    6    6  503    0 -0.20119157948E+02 -0.17922903104E+02 -0.23167991511E+03  0.23324149296E+03  0.00000000000E+00 0. -1.
         -2    1    6    6    0  503 -0.50471311051E+02  0.63019693145E+02 -0.18350339553E+03  0.20048025123E+03  0.00000000000E+00 0.  1.
<mgrwt>
<rscale>  0 0.20887804E+04</rscale>
<asrwt>0</asrwt>
<pdfrwt beam="1">  1        1 0.17280771E+00 0.20887804E+04</pdfrwt>
<pdfrwt beam="2">  1       -2 0.14939490E+00 0.20887804E+04</pdfrwt>
<totfact> 0.29777943E+00</totfact>
</mgrwt>
</event>
<event>
12    4  0.4398275E-008  0.2592156E+04  0.7818608E-02  0.8370870E-01
          1   -1    0    0  501    0  0.00000000000E+00  0.00000000000E+00  0.19564159099E+04  0.19564159099E+04  0.00000000000E+00 0. -1.
         -2   -1    0    0    0  501 -0.00000000000E+00 -0.00000000000E+00 -0.85862042041E+03  0.85862042041E+03  0.00000000000E+00 0.  1.
        -24    2    1    2    0    0  0.56425869895E+03  0.56475009367E+03 -0.40063411273E+03  0.89683431243E+03  0.80458337200E+02 0.  0.
        254    2    1    2    0    0 -0.56425869895E+03 -0.56475009367E+03  0.14984296022E+04  0.19182020179E+04  0.89267976394E+03 0.  0.
         23    2    4    4    0    0  0.55134456372E+01  0.16543544556E+03  0.58272767858E+03  0.61256027174E+03  0.90880440113E+02 0.  0.
         23    2    4    4    0    0 -0.56977214459E+03 -0.73018553923E+03  0.91570192361E+03  0.13056417461E+04  0.91537630800E+02 0.  0.
          3    1    3    3  502    0  0.45406158481E+02  0.73522446695E+02 -0.60617054065E+02  0.10555423554E+03  0.00000000000E+00 0. -1.
         -4    1    3    3    0  502  0.51885254047E+03  0.49122764697E+03 -0.34001705867E+03  0.79128007689E+03  0.00000000000E+00 0.  1.
         11    1    5    5    0    0 -0.11325029667E+02  0.16298637281E+03  0.56431243968E+03  0.58748731356E+03  0.00000000000E+00 0. -1.
        -11    1    5    5    0    0  0.16838475304E+02  0.24490727535E+01  0.18415238904E+02  0.25072958178E+02  0.00000000000E+00 0.  1.
          2    1    6    6  503    0 -0.54779250473E+03 -0.70059425289E+03  0.90092652649E+03  0.12659295168E+04  0.00000000000E+00 0. -1.
         -2    1    6    6    0  503 -0.21979639863E+02 -0.29591286337E+02  0.14775397111E+02  0.39712229293E+02  0.00000000000E+00 0.  1.
<mgrwt>
<rscale>  0 0.25921564E+04</rscale>
<asrwt>0</asrwt>
<pdfrwt beam="1">  1        1 0.30098706E+00 0.25921564E+04</pdfrwt>
<pdfrwt beam="2">  1       -2 0.13209545E+00 0.25921564E+04</pdfrwt>
<totfact> 0.10303456E+00</totfact>
</mgrwt>
</event>
<event>
12    4  0.4398275E-008  0.1804623E+04  0.7818608E-02  0.8703845E-01
         -2   -1    0    0    0  501 -0.00000000000E+00  0.00000000000E+00  0.46074277513E+03  0.46074277513E+03  0.00000000000E+00 0.  1.
          1   -1    0    0  501    0  0.00000000000E+00 -0.00000000000E+00 -0.17670731031E+04  0.17670731031E+04  0.00000000000E+00 0. -1.
        -24    2    1    2    0    0 -0.29186227040E+02  0.49039958195E+03  0.62208702800E+02  0.50269583290E+03  0.86542428262E+02 0.  0.
        254    2    1    2    0    0  0.29186227040E+02 -0.49039958195E+03 -0.13685390308E+04  0.17251200453E+04  0.92832995549E+03 0.  0.
         23    2    4    4    0    0 -0.40728842804E+03 -0.40463748905E+03 -0.62141799368E+03  0.85089820421E+03  0.90840904317E+02 0.  0.
         23    2    4    4    0    0  0.43647465508E+03 -0.85762092895E+02 -0.74712103710E+03  0.87422184114E+03  0.90601999652E+02 0.  0.
          1    1    3    3  502    0  0.24893645045E+01  0.97574209826E+00  0.89781397338E+01  0.93678173210E+01  0.00000000000E+00 0. -1.
         -2    1    3    3    0  502 -0.31675591545E+02  0.48942383985E+03  0.53230563066E+02  0.49332801558E+03  0.00000000000E+00 0.  1.
         11    1    5    5    0    0 -0.24048409846E+03 -0.17498861340E+03 -0.31469846641E+03  0.43299970114E+03  0.00000000000E+00 0. -1.
        -11    1    5    5    0    0 -0.16680432958E+03 -0.22964887565E+03 -0.30671952727E+03  0.41789850306E+03  0.00000000000E+00 0.  1.
          2    1    6    6  503    0  0.30232196351E+03 -0.21741865405E+02 -0.45958049421E+03  0.55053202359E+03  0.00000000000E+00 0. -1.
         -2    1    6    6    0  503  0.13415269156E+03 -0.64020227490E+02 -0.28754054289E+03  0.32368981755E+03  0.00000000000E+00 0.  1.
<mgrwt>
<rscale>  0 0.18046231E+04</rscale>
<asrwt>0</asrwt>
<pdfrwt beam="1">  1        1 0.27185740E+00 0.18046231E+04</pdfrwt>
<pdfrwt beam="2">  1       -2 0.70883504E-01 0.18046231E+04</pdfrwt>
<totfact> 0.64240326E+00</totfact>
</mgrwt>
</event>
<event>
12    4  0.4398275E-008  0.2149616E+04  0.7818608E-02  0.8539697E-01
         -2   -1    0    0    0  501 -0.00000000000E+00  0.00000000000E+00  0.82960838929E+03  0.82960838929E+03  0.00000000000E+00 0.  1.
          1   -1    0    0  501    0  0.00000000000E+00 -0.00000000000E+00 -0.13924786415E+04  0.13924786415E+04  0.00000000000E+00 0. -1.
        -24    2    1    2    0    0  0.86489334392E+03  0.46739241852E+00 -0.42173436516E+03  0.96553882347E+03  0.79778631596E+02 0.  0.
        254    2    1    2    0    0 -0.86489334392E+03 -0.46739241852E+00 -0.14113588701E+03  0.12565482073E+04  0.90052947971E+03 0.  0.
         23    2    4    4    0    0 -0.23784819334E+03 -0.27522282129E+03  0.26106796090E+03  0.45672092986E+03  0.90100849794E+02 0.  0.
         23    2    4    4    0    0 -0.62704515057E+03  0.27475542887E+03 -0.40220384791E+03  0.79982727742E+03  0.96330534543E+02 0.  0.
          1    1    3    3  502    0  0.77049837821E+03  0.87433690584E+01 -0.34806602932E+03  0.84551413831E+03  0.00000000000E+00 0. -1.
         -2    1    3    3    0  502  0.94394965710E+02 -0.82759766399E+01 -0.73668335844E+02  0.12002468516E+03  0.00000000000E+00 0.  1.
         11    1    5    5    0    0 -0.50309692822E+02 -0.14183065246E+02  0.48971056991E+02  0.71626733518E+02  0.00000000000E+00 0.  1.
        -11    1    5    5    0    0 -0.18753850052E+03 -0.26103975604E+03  0.21209690391E+03  0.38509419634E+03  0.00000000000E+00 0. -1.
          2    1    6    6  503    0 -0.53057828305E+03  0.24694204577E+03 -0.37755537597E+03  0.69644938821E+03  0.00000000000E+00 0. -1.
         -2    1    6    6    0  503 -0.96466867520E+02  0.27813383094E+02 -0.24648471939E+02  0.10337788921E+03  0.00000000000E+00 0.  1.
<mgrwt>
<rscale>  0 0.21496157E+04</rscale>
<asrwt>0</asrwt>
<pdfrwt beam="1">  1        1 0.21422748E+00 0.21496157E+04</pdfrwt>
<pdfrwt beam="2">  1       -2 0.12763206E+00 0.21496157E+04</pdfrwt>
<totfact> 0.28438753E+00</totfact>
</mgrwt>
</event>
<event>
12    4  0.4398275E-008  0.1670348E+04  0.7818608E-02  0.8778459E-01
          1   -1    0    0  501    0  0.00000000000E+00  0.00000000000E+00  0.22025826466E+04  0.22025826466E+04  0.00000000000E+00 0. -1.
         -2   -1    0    0    0  501 -0.00000000000E+00 -0.00000000000E+00 -0.31668087385E+03  0.31668087385E+03  0.00000000000E+00 0.  1.
        -24    2    1    2    0    0  0.35204920592E+03  0.13875471192E+03 -0.17785357436E+02  0.38702554260E+03  0.79252370402E+02 0.  0.
        254    2    1    2    0    0 -0.35204920592E+03 -0.13875471192E+03  0.19036871302E+04  0.21322379778E+04  0.88273585579E+03 0.  0.
         23    2    4    4    0    0 -0.29408956136E+03 -0.30137333963E+03  0.32155856275E+03  0.53790658551E+03  0.92892548230E+02 0.  0.
         23    2    4    4    0    0 -0.57959644557E+02  0.16261862771E+03  0.15821285674E+04  0.15943313923E+04  0.94644842711E+02 0.  0.
          3    1    3    3  502    0  0.25144046070E+03  0.10876998240E+03  0.21809185268E+02  0.27482513515E+03  0.00000000000E+00 0. -1.
         -4    1    3    3    0  502  0.10060874522E+03  0.29984729515E+02 -0.39594542704E+02  0.11220040744E+03  0.00000000000E+00 0.  1.
         11    1    5    5    0    0 -0.22788433135E+02 -0.16905045170E+02  0.58183278578E+02  0.64733199697E+02  0.00000000000E+00 0. -1.
        -11    1    5    5    0    0 -0.27130112823E+03 -0.28446829446E+03  0.26337528417E+03  0.47317338581E+03  0.00000000000E+00 0.  1.
          4    1    6    6  503    0 -0.79364529406E+02  0.89201698409E+02  0.88396742235E+03  0.89199443682E+03  0.00000000000E+00 0. -1.
         -4    1    6    6    0  503  0.21404884849E+02  0.73416929302E+02  0.69816114506E+03  0.70233695551E+03  0.00000000000E+00 0.  1.
<mgrwt>
<rscale>  0 0.16703482E+04</rscale>
<asrwt>0</asrwt>
<pdfrwt beam="1">  1        1 0.33885886E+00 0.16703482E+04</pdfrwt>
<pdfrwt beam="2">  1       -2 0.48720136E-01 0.16703482E+04</pdfrwt>
<totfact> 0.72563417E+00</totfact>
</mgrwt>
</event>
<event>
12    4  0.4398275E-008  0.1747213E+04  0.7818608E-02  0.8734886E-01
         -2   -1    0    0    0  501 -0.00000000000E+00  0.00000000000E+00  0.73310656780E+03  0.73310656780E+03  0.00000000000E+00 0.  1.
          1   -1    0    0  501    0  0.00000000000E+00 -0.00000000000E+00 -0.10410335813E+04  0.10410335813E+04  0.00000000000E+00 0. -1.
        -24    2    1    2    0    0 -0.37007595871E+03  0.12016423458E+03 -0.54097947666E+03  0.67119537597E+03  0.80304296722E+02 0.  0.
        254    2    1    2    0    0  0.37007595871E+03 -0.12016423458E+03  0.23305246320E+03  0.11029447731E+04  0.10053745886E+04 0.  0.
         23    2    4    4    0    0 -0.57396565853E+02 -0.34203642203E+03 -0.23207126919E+03  0.42728057567E+03  0.91805972534E+02 0.  0.
         23    2    4    4    0    0  0.42747252457E+03  0.22187218745E+03  0.46512373239E+03  0.67566419741E+03  0.90675213808E+02 0.  0.
          3    1    3    3  502    0 -0.26673169443E+03  0.59830172622E+02 -0.32875463499E+03  0.42755707970E+03  0.00000000000E+00 0. -1.
         -4    1    3    3    0  502 -0.10334426429E+03  0.60334061958E+02 -0.21222484166E+03  0.24363829628E+03  0.00000000000E+00 0.  1.
         11    1    5    5    0    0  0.39831756258E+01 -0.23251254565E+03 -0.13815077278E+03  0.27048768103E+03  0.00000000000E+00 0. -1.
        -11    1    5    5    0    0 -0.61379741479E+02 -0.10952387638E+03 -0.93920496409E+02  0.15679289464E+03  0.00000000000E+00 0.  1.
          2    1    6    6  503    0  0.40290629378E+03  0.18739884909E+03  0.44472401063E+03  0.62867420485E+03  0.00000000000E+00 0. -1.
         -2    1    6    6    0  503  0.24566230783E+02  0.34473338361E+02  0.20399721760E+02  0.46989992557E+02  0.00000000000E+00 0.  1.
<mgrwt>
<rscale>  0 0.17472133E+04</rscale>
<asrwt>0</asrwt>
<pdfrwt beam="1">  1        1 0.16015901E+00 0.17472133E+04</pdfrwt>
<pdfrwt beam="2">  1       -2 0.11278563E+00 0.17472133E+04</pdfrwt>
<totfact> 0.72244861E+00</totfact>
</mgrwt>
</event>
<event>
12    4  0.4398275E-008  0.1631737E+04  0.7818608E-02  0.8801285E-01
         -2   -1    0    0    0  501 -0.00000000000E+00  0.00000000000E+00  0.11054290331E+04  0.11054290331E+04  0.00000000000E+00 0.  1.
          1   -1    0    0  501    0  0.00000000000E+00 -0.00000000000E+00 -0.60215633485E+03  0.60215633485E+03  0.00000000000E+00 0. -1.
        -24    2    1    2    0    0 -0.37833805224E+03  0.30023248742E+03  0.48140698098E+03  0.68668841720E+03  0.80678824376E+02 0.  0.
        254    2    1    2    0    0  0.37833805224E+03 -0.30023248742E+03  0.21865717278E+02  0.10208969508E+04  0.89915140338E+03 0.  0.
         23    2    4    4    0    0  0.34539371997E+03 -0.53339116755E+03 -0.21334656653E+03  0.67631703915E+03  0.89916742545E+02 0.  0.
         23    2    4    4    0    0  0.32944332275E+02  0.23315868013E+03  0.23521228381E+03  0.34457991161E+03  0.89231148596E+02 0.  0.
          3    1    3    3  502    0 -0.67231922026E+01  0.10784290570E+02 -0.62085413323E+00  0.12723509592E+02  0.00000000000E+00 0. -1.
         -4    1    3    3    0  502 -0.37161486004E+03  0.28944819685E+03  0.48202783511E+03  0.67396490761E+03  0.00000000000E+00 0.  1.
         11    1    5    5    0    0  0.87237582296E+02 -0.72277103410E+02 -0.40375917050E+02  0.12026882439E+03  0.00000000000E+00 0. -1.
        -11    1    5    5    0    0  0.25815613767E+03 -0.46111406414E+03 -0.17297064948E+03  0.55604821477E+03  0.00000000000E+00 0.  1.
          4    1    6    6  503    0  0.13431036915E+01  0.21533760113E+03  0.19643143194E+03  0.29147451662E+03  0.00000000000E+00 0. -1.
         -4    1    6    6    0  503  0.31601228583E+02  0.17821079003E+02  0.38780851866E+02  0.53105394982E+02  0.00000000000E+00 0.  1.
<mgrwt>
<rscale>  0 0.16317366E+04</rscale>
<asrwt>0</asrwt>
<pdfrwt beam="1">  1        1 0.92639436E-01 0.16317366E+04</pdfrwt>
<pdfrwt beam="2">  1       -2 0.17006601E+00 0.16317366E+04</pdfrwt>
<totfact> 0.60707839E+00</totfact>
</mgrwt>
</event>
<event>
12    4  0.4398275E-008  0.2378290E+04  0.7818608E-02  0.8447676E-01
         -2   -1    0    0    0  501 -0.00000000000E+00  0.00000000000E+00  0.22110821515E+04  0.22110821515E+04  0.00000000000E+00 0.  1.
          1   -1    0    0  501    0  0.00000000000E+00 -0.00000000000E+00 -0.63953587057E+03  0.63953587057E+03  0.00000000000E+00 0. -1.
        -24    2    1    2    0    0 -0.41389174162E+03 -0.66011699722E+03  0.14525063897E+04  0.16502823747E+04  0.81217488414E+02 0.  0.
        254    2    1    2    0    0  0.41389174162E+03  0.66011699722E+03  0.11903989130E+03  0.12003356474E+04  0.90530345571E+03 0.  0.
         23    2    4    4    0    0 -0.90338081781E+02  0.51692093989E+03 -0.21440067339E+03  0.57372092804E+03  0.88429787993E+02 0.  0.
         23    2    4    4    0    0  0.50422982340E+03  0.14319605733E+03  0.33344056470E+03  0.62661471937E+03  0.81918073139E+02 0.  0.
          1    1    3    3  502    0 -0.20607132961E+03 -0.32399913990E+03  0.80130967180E+03  0.88855952286E+03  0.00000000000E+00 0. -1.
         -2    1    3    3    0  502 -0.20782041201E+03 -0.33611785732E+03  0.65119671787E+03  0.76172285184E+03  0.00000000000E+00 0.  1.
         11    1    5    5    0    0 -0.99178821540E+02  0.40256789833E+03 -0.19180452219E+03  0.45682198518E+03  0.00000000000E+00 0. -1.
        -11    1    5    5    0    0  0.88407397593E+01  0.11435304156E+03 -0.22596151199E+02  0.11689894286E+03  0.00000000000E+00 0.  1.
          3    1    6    6  503    0  0.34429804225E+03  0.13554281458E+03  0.22147704187E+03  0.43123668276E+03  0.00000000000E+00 0. -1.
         -3    1    6    6    0  503  0.15993178115E+03  0.76532427477E+01  0.11196352283E+03  0.19537803661E+03  0.00000000000E+00 0.  1.
<mgrwt>
<rscale>  0 0.23782904E+04</rscale>
<asrwt>0</asrwt>
<pdfrwt beam="1">  1        1 0.98390135E-01 0.23782904E+04</pdfrwt>
<pdfrwt beam="2">  1       -2 0.34016648E+00 0.23782904E+04</pdfrwt>
<totfact> 0.44060507E-01</totfact>
</mgrwt>
</event>
<event>
12    4  0.4398275E-008  0.1437438E+04  0.7818608E-02  0.8927156E-01
         -2   -1    0    0    0  501 -0.00000000000E+00  0.00000000000E+00  0.27136782088E+03  0.27136782088E+03  0.00000000000E+00 0.  1.
          1   -1    0    0  501    0  0.00000000000E+00 -0.00000000000E+00 -0.19035296309E+04  0.19035296309E+04  0.00000000000E+00 0. -1.
        -24    2    1    2    0    0  0.28870367287E+03 -0.24488335213E+03 -0.81895114024E+03  0.90585105367E+03  0.81040079273E+02 0.  0.
        254    2    1    2    0    0 -0.28870367287E+03  0.24488335213E+03 -0.81321066980E+03  0.12690463981E+04  0.89769120541E+03 0.  0.
         23    2    4    4    0    0 -0.36430485309E+03  0.53215383920E+03 -0.45399215523E+03  0.79398754124E+03  0.91660264407E+02 0.  0.
         23    2    4    4    0    0  0.75601180222E+02 -0.28727048707E+03 -0.35921851457E+03  0.47505885690E+03  0.91668452129E+02 0.  0.
          1    1    3    3  502    0  0.78123009855E+02 -0.96697228341E+02 -0.34097107002E+03  0.36292537694E+03  0.00000000000E+00 0. -1.
         -2    1    3    3    0  502  0.21058066301E+03 -0.14818612379E+03 -0.47798007022E+03  0.54292567673E+03  0.00000000000E+00 0.  1.
         11    1    5    5    0    0 -0.15631148204E+03  0.30066017155E+03 -0.21142389908E+03  0.39941192180E+03  0.00000000000E+00 0.  1.
        -11    1    5    5    0    0 -0.20799337105E+03  0.23149366765E+03 -0.24256825615E+03  0.39457561944E+03  0.00000000000E+00 0. -1.
          3    1    6    6  503    0  0.56650726205E+02 -0.66147519689E+02 -0.12548264870E+03  0.15274388455E+03  0.00000000000E+00 0. -1.
         -3    1    6    6    0  503  0.18950454017E+02 -0.22112296738E+03 -0.23373586587E+03  0.32231497235E+03  0.00000000000E+00 0.  1.
<mgrwt>
<rscale>  0 0.14374376E+04</rscale>
<asrwt>0</asrwt>
<pdfrwt beam="1">  1        1 0.29285071E+00 0.14374376E+04</pdfrwt>
<pdfrwt beam="2">  1       -2 0.41748896E-01 0.14374376E+04</pdfrwt>
<totfact> 0.16084635E+01</totfact>
</mgrwt>
</event>
<event>
12    4  0.4398275E-008  0.1322237E+04  0.7818608E-02  0.9012114E-01
         -2   -1    0    0    0  501 -0.00000000000E+00  0.00000000000E+00  0.17578387485E+03  0.17578387485E+03  0.00000000000E+00 0.  1.
          1   -1    0    0  501    0  0.00000000000E+00 -0.00000000000E+00 -0.24864502348E+04  0.24864502348E+04  0.00000000000E+00 0. -1.
        -24    2    1    2    0    0 -0.20181309622E+03  0.81881780198E+01 -0.53641429258E+02  0.22263141705E+03  0.76757884675E+02 0.  0.
        254    2    1    2    0    0  0.20181309622E+03 -0.81881780198E+01 -0.22570249306E+04  0.24396026926E+04  0.90371687376E+03 0.  0.
         23    2    4    4    0    0  0.54887557937E+03 -0.48568808591E+02 -0.12417827308E+04  0.13619753138E+04  0.96587132072E+02 0.  0.
         23    2    4    4    0    0 -0.34706248316E+03  0.40380630571E+02 -0.10152421998E+04  0.10776273788E+04  0.92092782374E+02 0.  0.
          1    1    3    3  502    0 -0.25000923144E+02  0.13980734373E+02  0.15646847820E+02  0.32639407752E+02  0.00000000000E+00 0. -1.
         -2    1    3    3    0  502 -0.17681217307E+03 -0.57925563531E+01 -0.69288277079E+02  0.18999200930E+03  0.00000000000E+00 0.  1.
         11    1    5    5    0    0  0.35400274703E+03 -0.69191894115E+02 -0.86738729028E+03  0.93939670770E+03  0.00000000000E+00 0. -1.
        -11    1    5    5    0    0  0.19487283234E+03  0.20623085524E+02 -0.37439544053E+03  0.42257860610E+03  0.00000000000E+00 0.  1.
          2    1    6    6  503    0 -0.73725404556E+02  0.36691751166E+02 -0.16308001479E+03  0.18269321582E+03  0.00000000000E+00 0. -1.
         -2    1    6    6    0  503 -0.27333707860E+03  0.36888794049E+01 -0.85216218505E+03  0.89493416294E+03  0.00000000000E+00 0.  1.
<mgrwt>
<rscale>  0 0.13222373E+04</rscale>
<asrwt>0</asrwt>
<pdfrwt beam="1">  1        1 0.38253077E+00 0.13222373E+04</pdfrwt>
<pdfrwt beam="2">  1       -2 0.27043676E-01 0.13222373E+04</pdfrwt>
<totfact> 0.14880864E+01</totfact>
</mgrwt>
</event>
<event>
12    4  0.4398275E-008  0.1398184E+04  0.7818608E-02  0.8955134E-01
          1   -1    0    0  501    0  0.00000000000E+00  0.00000000000E+00  0.31206953985E+03  0.31206953985E+03  0.00000000000E+00 0. -1.
         -2   -1    0    0    0  501 -0.00000000000E+00 -0.00000000000E+00 -0.15660918596E+04  0.15660918596E+04  0.00000000000E+00 0.  1.
        -24    2    1    2    0    0 -0.26487366699E+03 -0.29300669799E+03 -0.23936696953E+03  0.46874097685E+03  0.80066052375E+02 0.  0.
        254    2    1    2    0    0  0.26487366699E+03  0.29300669799E+03 -0.10146553502E+04  0.14094204226E+04  0.89494662601E+03 0.  0.
         23    2    4    4    0    0 -0.11473350150E+03  0.10316354972E+02 -0.90309546863E+03  0.91489263550E+03  0.90426243356E+02 0.  0.
         23    2    4    4    0    0  0.37960716849E+03  0.28269034302E+03 -0.11155988162E+03  0.49452778713E+03  0.89981623944E+02 0.  0.
          3    1    3    3  502    0 -0.37125318430E+02 -0.12343105708E+02 -0.40031713442E+02  0.55974812266E+02  0.00000000000E+00 0. -1.
         -4    1    3    3    0  502 -0.22774834856E+03 -0.28066359229E+03 -0.19933525609E+03  0.41276616459E+03  0.00000000000E+00 0.  1.
         11    1    5    5    0    0 -0.12190568067E+03 -0.52218048032E+01 -0.85847311443E+03  0.86710111892E+03  0.00000000000E+00 0. -1.
        -11    1    5    5    0    0  0.71721791678E+01  0.15538159775E+02 -0.44622354197E+02  0.47791516583E+02  0.00000000000E+00 0.  1.
          2    1    6    6  503    0  0.29127757615E+03  0.24235947002E+03 -0.11893223931E+03  0.39714684516E+03  0.00000000000E+00 0. -1.
         -2    1    6    6    0  503  0.88329592343E+02  0.40330873005E+02  0.73723576887E+01  0.97380941969E+02  0.00000000000E+00 0.  1.
<mgrwt>
<rscale>  0 0.13981839E+04</rscale>
<asrwt>0</asrwt>
<pdfrwt beam="1">  1        1 0.48010698E-01 0.13981839E+04</pdfrwt>
<pdfrwt beam="2">  1       -2 0.24093721E+00 0.13981839E+04</pdfrwt>
<totfact> 0.51857352E+00</totfact>
</mgrwt>
</event>
<event>
12    4  0.4398275E-008  0.2646320E+04  0.7818608E-02  0.8352636E-01
         -2   -1    0    0    0  501 -0.00000000000E+00  0.00000000000E+00  0.30259464321E+04  0.30259464321E+04  0.00000000000E+00 0.  1.
          1   -1    0    0  501    0  0.00000000000E+00 -0.00000000000E+00 -0.57857999911E+03  0.57857999911E+03  0.00000000000E+00 0. -1.
        -24    2    1    2    0    0  0.26560744313E+02 -0.24727894857E+03 -0.47147163721E+03  0.53908102418E+03  0.80439383335E+02 0.  0.
        254    2    1    2    0    0 -0.26560744313E+02  0.24727894857E+03  0.29188380702E+04  0.30654454070E+04  0.90304347175E+03 0.  0.
         23    2    4    4    0    0 -0.23760736595E+02  0.50395772566E+03  0.25805969585E+04  0.26306585545E+04  0.79660570131E+02 0.  0.
         23    2    4    4    0    0 -0.28000077177E+01 -0.25667877708E+03  0.33824111165E+03  0.43478685245E+03  0.93491832832E+02 0.  0.
          3    1    3    3  502    0  0.36771166965E+02 -0.66856429673E+02 -0.98132694560E+02  0.12430577883E+03  0.00000000000E+00 0. -1.
         -4    1    3    3    0  502 -0.10210422652E+02 -0.18042251890E+03 -0.37333894265E+03  0.41477524535E+03  0.00000000000E+00 0.  1.
         11    1    5    5    0    0 -0.18915342115E+02  0.36708820254E+03  0.16829224157E+04  0.17225967015E+04  0.00000000000E+00 0. -1.
        -11    1    5    5    0    0 -0.48453944798E+01  0.13686952311E+03  0.89767454280E+03  0.90806185307E+03  0.00000000000E+00 0.  1.
          3    1    6    6  503    0 -0.19500134865E+02 -0.75108190793E+02  0.16920761970E+03  0.18615239496E+03  0.00000000000E+00 0. -1.
         -3    1    6    6    0  503  0.16700127148E+02 -0.18157058629E+03  0.16903349195E+03  0.24863445750E+03  0.00000000000E+00 0.  1.
<mgrwt>
<rscale>  0 0.26463198E+04</rscale>
<asrwt>0</asrwt>
<pdfrwt beam="1">  1        1 0.89012310E-01 0.26463198E+04</pdfrwt>
<pdfrwt beam="2">  1       -2 0.46553021E+00 0.26463198E+04</pdfrwt>
<totfact> 0.75966681E-02</totfact>
</mgrwt>
</event>
<event>
12    4  0.4398275E-008  0.1468810E+04  0.7818608E-02  0.8905463E-01
          1   -1    0    0  501    0  0.00000000000E+00  0.00000000000E+00  0.16689439108E+04  0.16689439108E+04  0.00000000000E+00 0. -1.
         -2   -1    0    0    0  501 -0.00000000000E+00 -0.00000000000E+00 -0.32316894121E+03  0.32316894121E+03  0.00000000000E+00 0.  1.
        -24    2    1    2    0    0  0.26326710323E+03 -0.27241325277E+03  0.68798923419E+02  0.39335067321E+03  0.80454411440E+02 0.  0.
        254    2    1    2    0    0 -0.26326710323E+03  0.27241325277E+03  0.12769760462E+04  0.15987621788E+04  0.88422516020E+03 0.  0.
         23    2    4    4    0    0 -0.32421731026E+03 -0.24760831183E+03  0.42995988686E+03  0.59875250145E+03  0.84925339736E+02 0.  0.
         23    2    4    4    0    0  0.60950207025E+02  0.52002156460E+03  0.84701615936E+03  0.10000096774E+04  0.91900083050E+02 0.  0.
          1    1    3    3  502    0  0.90966870721E+02 -0.12870706983E+03  0.60538758782E+02  0.16883549008E+03  0.00000000000E+00 0. -1.
         -2    1    3    3    0  502  0.17230023251E+03 -0.14370618294E+03  0.82601646373E+01  0.22451518313E+03  0.00000000000E+00 0.  1.
         11    1    5    5    0    0 -0.77300764236E+02 -0.68029141470E+02  0.16502427493E+03  0.19451576686E+03  0.00000000000E+00 0.  1.
        -11    1    5    5    0    0 -0.24691654602E+03 -0.17957917036E+03  0.26493561193E+03  0.40423673459E+03  0.00000000000E+00 0. -1.
          3    1    6    6  503    0  0.56116799044E+02  0.37056124503E+03  0.67510781782E+03  0.77216274006E+03  0.00000000000E+00 0. -1.
         -3    1    6    6    0  503  0.48334079811E+01  0.14946031957E+03  0.17190834154E+03  0.22784693732E+03  0.00000000000E+00 0.  1.
<mgrwt>
<rscale>  0 0.14688102E+04</rscale>
<asrwt>0</asrwt>
<pdfrwt beam="1">  1        1 0.25676060E+00 0.14688102E+04</pdfrwt>
<pdfrwt beam="2">  1       -2 0.49718300E-01 0.14688102E+04</pdfrwt>
<totfact> 0.16307729E+01</totfact>
</mgrwt>
</event>
<event>
12    4  0.4398275E-008  0.1332249E+04  0.7818608E-02  0.9004375E-01
          1   -1    0    0  501    0  0.00000000000E+00  0.00000000000E+00  0.17986243395E+04  0.17986243395E+04  0.00000000000E+00 0. -1.
         -2   -1    0    0    0  501 -0.00000000000E+00 -0.00000000000E+00 -0.24670054784E+03  0.24670054784E+03  0.00000000000E+00 0.  1.
        -24    2    1    2    0    0  0.26725609577E+03 -0.10716642570E+03  0.11315468015E+03  0.32007319077E+03  0.82051217454E+02 0.  0.
        254    2    1    2    0    0 -0.26725609577E+03  0.10716642570E+03  0.14387691115E+04  0.17252516966E+04  0.90748355180E+03 0.  0.
         23    2    4    4    0    0 -0.47877393456E+03 -0.22672917884E+03  0.70168791450E+03  0.88396235809E+03  0.91612882325E+02 0.  0.
         23    2    4    4    0    0  0.21151783879E+03  0.33389560454E+03  0.73708119701E+03  0.84128933849E+03  0.90845964217E+02 0.  0.
          1    1    3    3  502    0  0.90525632421E+02 -0.10958790192E+02  0.42805538329E+01  0.91286956072E+02  0.00000000000E+00 0. -1.
         -2    1    3    3    0  502  0.17673046335E+03 -0.96207635508E+02  0.10887412632E+03  0.22878623470E+03  0.00000000000E+00 0.  1.
         11    1    5    5    0    0 -0.22597333795E+03 -0.15369252610E+03  0.38675307701E+03  0.47356444611E+03  0.00000000000E+00 0. -1.
        -11    1    5    5    0    0 -0.25280059661E+03 -0.73036652741E+02  0.31493483749E+03  0.41039791198E+03  0.00000000000E+00 0.  1.
          4    1    6    6  503    0  0.51804028729E+02  0.16504937079E+03  0.30305003160E+03  0.34894737976E+03  0.00000000000E+00 0. -1.
         -4    1    6    6    0  503  0.15971381006E+03  0.16884623374E+03  0.43403116541E+03  0.49234195873E+03  0.00000000000E+00 0.  1.
<mgrwt>
<rscale>  0 0.13322486E+04</rscale>
<asrwt>0</asrwt>
<pdfrwt beam="1">  1        1 0.27671143E+00 0.13322486E+04</pdfrwt>
<pdfrwt beam="2">  1       -2 0.37953932E-01 0.13322486E+04</pdfrwt>
<totfact> 0.23025585E+01</totfact>
</mgrwt>
</event>
<event>
12    4  0.4398275E-008  0.2823061E+04  0.7818608E-02  0.8296144E-01
         -2   -1    0    0    0  501 -0.00000000000E+00  0.00000000000E+00  0.59557411684E+03  0.59557411684E+03  0.00000000000E+00 0.  1.
          1   -1    0    0  501    0  0.00000000000E+00 -0.00000000000E+00 -0.33453738468E+04  0.33453738468E+04  0.00000000000E+00 0. -1.
        -24    2    1    2    0    0  0.33883056860E+03 -0.77729168806E+03  0.80743709241E+02  0.85589599398E+03  0.83963583681E+02 0.  0.
        254    2    1    2    0    0 -0.33883056860E+03  0.77729168806E+03 -0.28305434392E+04  0.30850519696E+04  0.88689400257E+03 0.  0.
         23    2    4    4    0    0 -0.37062176815E+03  0.26859582168E+03 -0.44848193313E+03  0.64720918477E+03  0.90771548749E+02 0.  0.
         23    2    4    4    0    0  0.31791199547E+02  0.50869586638E+03 -0.23820615060E+04  0.24378427849E+04  0.95279905071E+02 0.  0.
          3    1    3    3  502    0  0.10064360607E+02 -0.85250716239E+02  0.47978794256E+01  0.85976715573E+02  0.00000000000E+00 0. -1.
         -4    1    3    3    0  502  0.32876620800E+03 -0.69204097182E+03  0.75945829815E+02  0.76991927841E+03  0.00000000000E+00 0.  1.
         11    1    5    5    0    0 -0.14314405489E+03  0.82896051218E+02 -0.10781562608E+03  0.19744919596E+03  0.00000000000E+00 0. -1.
        -11    1    5    5    0    0 -0.22747771326E+03  0.18569977046E+03 -0.34066630705E+03  0.44975998881E+03  0.00000000000E+00 0.  1.
          3    1    6    6  503    0 -0.16716297674E+02  0.29002250339E+03 -0.11923033479E+04  0.12271836702E+04  0.00000000000E+00 0. -1.
         -3    1    6    6    0  503  0.48507497221E+02  0.21867336299E+03 -0.11897581582E+04  0.12106591147E+04  0.00000000000E+00 0.  1.
<mgrwt>
<rscale>  0 0.28230608E+04</rscale>
<asrwt>0</asrwt>
<pdfrwt beam="1">  1        1 0.51467291E+00 0.28230608E+04</pdfrwt>
<pdfrwt beam="2">  1       -2 0.91626786E-01 0.28230608E+04</pdfrwt>
<totfact> 0.25400571E-01</totfact>
</mgrwt>
</event>
<event>
12    4  0.4398275E-008  0.1791310E+04  0.7818608E-02  0.8710934E-01
          1   -1    0    0  501    0  0.00000000000E+00  0.00000000000E+00  0.16397281674E+04  0.16397281674E+04  0.00000000000E+00 0. -1.
         -2   -1    0    0    0  501 -0.00000000000E+00 -0.00000000000E+00 -0.48922627349E+03  0.48922627349E+03  0.00000000000E+00 0.  1.
        -24    2    1    2    0    0 -0.60105462031E+03  0.49310062225E+02  0.15248416190E+03  0.62731226608E+03  0.81062449440E+02 0.  0.
        254    2    1    2    0    0  0.60105462031E+03 -0.49310062225E+02  0.99801773205E+03  0.15016421749E+04  0.94614570178E+03 0.  0.
         23    2    4    4    0    0 -0.18515495019E+03 -0.17361433706E+03  0.76687045706E+02  0.28130551396E+03  0.93955285062E+02 0.  0.
         23    2    4    4    0    0  0.78620957050E+03  0.12430427484E+03  0.92133068634E+03  0.12203366609E+04  0.82427488461E+02 0.  0.
          1    1    3    3  502    0 -0.38434667264E+03  0.56919209896E+02  0.12806575545E+03  0.40910023093E+03  0.00000000000E+00 0. -1.
         -2    1    3    3    0  502 -0.21670794767E+03 -0.76091476711E+01  0.24418406449E+02  0.21821203515E+03  0.00000000000E+00 0.  1.
         11    1    5    5    0    0 -0.19241491953E+03 -0.16807249626E+03  0.84697415630E+02  0.26915704983E+03  0.00000000000E+00 0.  1.
        -11    1    5    5    0    0  0.72599693454E+01 -0.55418408046E+01 -0.80103699241E+01  0.12148464130E+02  0.00000000000E+00 0. -1.
          1    1    6    6  503    0  0.40877862059E+02 -0.10531964451E+02  0.38742227638E+02  0.57296440414E+02  0.00000000000E+00 0. -1.
         -1    1    6    6    0  503  0.74533170844E+03  0.13483623929E+03  0.88258845870E+03  0.11630402205E+04  0.00000000000E+00 0.  1.
<mgrwt>
<rscale>  0 0.17913102E+04</rscale>
<asrwt>0</asrwt>
<pdfrwt beam="1">  1        1 0.25226587E+00 0.17913102E+04</pdfrwt>
<pdfrwt beam="2">  1       -2 0.75265581E-01 0.17913102E+04</pdfrwt>
<totfact> 0.68815927E+00</totfact>
</mgrwt>
</event>
<event>
12    4  0.4398275E-008  0.2404193E+04  0.7818608E-02  0.8437936E-01
         -2   -1    0    0    0  501 -0.00000000000E+00  0.00000000000E+00  0.15289415174E+04  0.15289415174E+04  0.00000000000E+00 0.  1.
          1   -1    0    0  501    0  0.00000000000E+00 -0.00000000000E+00 -0.94512157125E+03  0.94512157125E+03  0.00000000000E+00 0. -1.
        -24    2    1    2    0    0 -0.40549973815E+03 -0.67097152573E+03  0.93843427574E+03  0.12259154508E+04  0.87045830909E+02 0.  0.
        254    2    1    2    0    0  0.40549973815E+03  0.67097152573E+03 -0.35461432963E+03  0.12481476378E+04  0.90415063842E+03 0.  0.
         23    2    4    4    0    0 -0.17207857270E+03  0.55909324655E+03 -0.92868744854E+02  0.59783377568E+03  0.81143860288E+02 0.  0.
         23    2    4    4    0    0  0.57757831086E+03  0.11187827918E+03 -0.26174558477E+03  0.65031386210E+03  0.91016007214E+02 0.  0.
          3    1    3    3  502    0 -0.11281006629E+02 -0.46568795029E+02  0.36397906873E+02  0.60172430612E+02  0.00000000000E+00 0. -1.
         -4    1    3    3    0  502 -0.39421873153E+03 -0.62440273070E+03  0.90203636886E+03  0.11657430202E+04  0.00000000000E+00 0.  1.
         11    1    5    5    0    0 -0.11490195367E+03  0.44865047183E+03 -0.97907658531E+02  0.47336625823E+03  0.00000000000E+00 0. -1.
        -11    1    5    5    0    0 -0.57176619029E+02  0.11044277472E+03  0.50389136769E+01  0.12446751746E+03  0.00000000000E+00 0.  1.
          3    1    6    6  503    0  0.32259395064E+01 -0.74272867491E+01 -0.37171779429E+00  0.81061364577E+01  0.00000000000E+00 0. -1.
         -3    1    6    6    0  503  0.57435237135E+03  0.11930556593E+03 -0.26137386698E+03  0.64220772565E+03  0.00000000000E+00 0.  1.
<mgrwt>
<rscale>  0 0.24041927E+04</rscale>
<asrwt>0</asrwt>
<pdfrwt beam="1">  1        1 0.14540332E+00 0.24041927E+04</pdfrwt>
<pdfrwt beam="2">  1       -2 0.23522177E+00 0.24041927E+04</pdfrwt>
<totfact> 0.10418318E+00</totfact>
</mgrwt>
</event>
<event>
12    4  0.4398275E-008  0.1571368E+04  0.7818608E-02  0.8838333E-01
         -2   -1    0    0    0  501 -0.00000000000E+00  0.00000000000E+00  0.14451202511E+04  0.14451202511E+04  0.00000000000E+00 0.  1.
          1   -1    0    0  501    0  0.00000000000E+00 -0.00000000000E+00 -0.42716129530E+03  0.42716129530E+03  0.00000000000E+00 0. -1.
        -24    2    1    2    0    0  0.65154401366E+02 -0.14153222518E+03 -0.24660700040E+03  0.30252219961E+03  0.80176067689E+02 0.  0.
        254    2    1    2    0    0 -0.65154401366E+02  0.14153222518E+03  0.12645659562E+04  0.15697593468E+04  0.91691923444E+03 0.  0.
         23    2    4    4    0    0 -0.15930272864E+03 -0.33071913274E+03  0.84015374839E+03  0.92126250953E+03  0.90076558662E+02 0.  0.
         23    2    4    4    0    0  0.94148327276E+02  0.47225135792E+03  0.42441220780E+03  0.64849683726E+03  0.92396824686E+02 0.  0.
          3    1    3    3  502    0  0.76591798545E+02 -0.13569604885E+03 -0.24385970742E+03  0.28939121994E+03  0.00000000000E+00 0. -1.
         -4    1    3    3    0  502 -0.11437397179E+02 -0.58361763297E+01 -0.27472929840E+01  0.13130979671E+02  0.00000000000E+00 0.  1.
         11    1    5    5    0    0  0.97078680556E+01 -0.44406277256E+02  0.10582957775E+03  0.11517838204E+03  0.00000000000E+00 0. -1.
        -11    1    5    5    0    0 -0.16901059670E+03 -0.28631285549E+03  0.73432417064E+03  0.80608412750E+03  0.00000000000E+00 0.  1.
          1    1    6    6  503    0  0.18840088659E+02  0.87212349304E+02  0.13136114910E+03  0.15879765207E+03  0.00000000000E+00 0. -1.
         -1    1    6    6    0  503  0.75308238617E+02  0.38503900861E+03  0.29305105871E+03  0.48969918518E+03  0.00000000000E+00 0.  1.
<mgrwt>
<rscale>  0 0.15713681E+04</rscale>
<asrwt>0</asrwt>
<pdfrwt beam="1">  1        1 0.65717123E-01 0.15713681E+04</pdfrwt>
<pdfrwt beam="2">  1       -2 0.22232619E+00 0.15713681E+04</pdfrwt>
<totfact> 0.44113875E+00</totfact>
</mgrwt>
</event>
<event>
12    4  0.4398275E-008  0.1511725E+04  0.7818608E-02  0.8876693E-01
         -2   -1    0    0    0  501 -0.00000000000E+00  0.00000000000E+00  0.21573876641E+03  0.21573876641E+03  0.00000000000E+00 0.  1.
          1   -1    0    0  501    0  0.00000000000E+00 -0.00000000000E+00 -0.26482418647E+04  0.26482418647E+04  0.00000000000E+00 0. -1.
        -24    2    1    2    0    0 -0.12392781486E+02  0.12649364093E+03 -0.16698653033E+04  0.16765709205E+04  0.79282393692E+02 0.  0.
        254    2    1    2    0    0  0.12392781486E+02 -0.12649364093E+03 -0.76263779498E+03  0.11874097106E+04  0.90120541073E+03 0.  0.
         23    2    4    4    0    0 -0.18245559794E+02 -0.24038492926E+03 -0.92845347300E+03  0.96377259788E+03  0.93348563027E+02 0.  0.
         23    2    4    4    0    0  0.30638341280E+02  0.11389128832E+03  0.16581567803E+03  0.22363711275E+03  0.92783541684E+02 0.  0.
          3    1    3    3  502    0  0.20578338969E+02  0.11119196299E+03 -0.12109347650E+04  0.12162031597E+04  0.00000000000E+00 0. -1.
         -4    1    3    3    0  502 -0.32971120456E+02  0.15301677939E+02 -0.45893053834E+03  0.46036776076E+03  0.00000000000E+00 0.  1.
         11    1    5    5    0    0 -0.60302113060E+01 -0.38118828142E+02 -0.32327807065E+03  0.32557352391E+03  0.00000000000E+00 0.  1.
        -11    1    5    5    0    0 -0.12215348488E+02 -0.20226610112E+03 -0.60517540235E+03  0.63819907396E+03  0.00000000000E+00 0. -1.
          2    1    6    6  503    0  0.36778801594E+02  0.61968063271E+02  0.15401159794E+03  0.17003615325E+03  0.00000000000E+00 0. -1.
         -2    1    6    6    0  503 -0.61404603134E+01  0.51923225054E+02  0.11804080089E+02  0.53600959503E+02  0.00000000000E+00 0.  1.
<mgrwt>
<rscale>  0 0.15117254E+04</rscale>
<asrwt>0</asrwt>
<pdfrwt beam="1">  1        1 0.40742182E+00 0.15117254E+04</pdfrwt>
<pdfrwt beam="2">  1       -2 0.33190580E-01 0.15117254E+04</pdfrwt>
<totfact> 0.77047510E+00</totfact>
</mgrwt>
</event>
<event>
12    4  0.4995372E-008  0.1793373E+04  0.7818608E-02  0.8709831E-01
         -2   -1    0    0    0  501 -0.00000000000E+00  0.00000000000E+00  0.10743921208E+04  0.10743921208E+04  0.00000000000E+00 0.  1.
          1   -1    0    0  501    0  0.00000000000E+00 -0.00000000000E+00 -0.74837398868E+03  0.74837398868E+03  0.00000000000E+00 0. -1.
        -24    2    1    2    0    0  0.90543218974E+02  0.41991000963E+03  0.64322655359E+03  0.77763450160E+03  0.80327629948E+02 0.  0.
        254    2    1    2    0    0 -0.90543218974E+02 -0.41991000963E+03 -0.31720842151E+03  0.10451316079E+04  0.89841883571E+03 0.  0.
         23    2    4    4    0    0 -0.25465495249E+03 -0.20022374228E+03  0.24243009286E+03  0.41540905929E+03  0.94093808592E+02 0.  0.
         23    2    4    4    0    0  0.16411173352E+03 -0.21968626736E+03 -0.55963851437E+03  0.62972254856E+03  0.90335509383E+02 0.  0.
          3    1    3    3  502    0 -0.13184188897E+02  0.75861988077E+02  0.13048327071E+03  0.15150824402E+03  0.00000000000E+00 0. -1.
         -4    1    3    3    0  502  0.10372740787E+03  0.34404802156E+03  0.51274328288E+03  0.62612625757E+03  0.00000000000E+00 0.  1.
         11    1    5    5    0    0 -0.25352614987E+03 -0.17904523449E+03  0.24301238885E+03  0.39419249840E+03  0.00000000000E+00 0. -1.
        -11    1    5    5    0    0 -0.11288026278E+01 -0.21178507789E+02 -0.58229598730E+00  0.21216560894E+02  0.00000000000E+00 0.  1.
          4    1    6    6  503    0  0.81319528627E+01 -0.12240201444E+02 -0.22474090221E+01  0.14866137228E+02  0.00000000000E+00 0.  1.
         -4    1    6    6    0  503  0.15597978066E+03 -0.20744606591E+03 -0.55739110535E+03  0.61485641133E+03  0.00000000000E+00 0. -1.
<mgrwt>
<rscale>  0 0.17933735E+04</rscale>
<asrwt>0</asrwt>
<pdfrwt beam="1">  1        1 0.11513446E+00 0.17933735E+04</pdfrwt>
<pdfrwt beam="2">  1       -2 0.16529110E+00 0.17933735E+04</pdfrwt>
<totfact> 0.46797823E+00</totfact>
</mgrwt>
</event>
<event>
12    4  0.4398275E-008  0.2251496E+04  0.7818608E-02  0.8497295E-01
         -4   -1    0    0    0  501 -0.00000000000E+00  0.00000000000E+00  0.55293699959E+03  0.55293699959E+03  0.00000000000E+00 0.  1.
          3   -1    0    0  501    0  0.00000000000E+00 -0.00000000000E+00 -0.22919575331E+04  0.22919575331E+04  0.00000000000E+00 0. -1.
        -24    2    1    2    0    0 -0.11092254178E+03  0.87236000311E+03 -0.11461533082E+04  0.14469232092E+04  0.81262427056E+02 0.  0.
        254    2    1    2    0    0  0.11092254178E+03 -0.87236000311E+03 -0.59286722537E+03  0.13979713236E+04  0.91077795828E+03 0.  0.
         23    2    4    4    0    0 -0.28001195897E+03 -0.62335933398E+02 -0.34855421997E+03  0.46133019694E+03  0.95094903070E+02 0.  0.
         23    2    4    4    0    0  0.39093450074E+03 -0.81002406971E+03 -0.24431300540E+03  0.93664112663E+03  0.92946103213E+02 0.  0.
          1    1    3    3  502    0 -0.12061711189E+03  0.85156666857E+03 -0.11200506637E+04  0.14121712956E+04  0.00000000000E+00 0. -1.
         -2    1    3    3    0  502  0.96945701190E+01  0.20793334544E+02 -0.26102644469E+02  0.34751913609E+02  0.00000000000E+00 0.  1.
         11    1    5    5    0    0 -0.11900441765E+03 -0.68128763561E+01 -0.80814190439E+02  0.14401180535E+03  0.00000000000E+00 0. -1.
        -11    1    5    5    0    0 -0.16100754131E+03 -0.55523057042E+02 -0.26774002953E+03  0.31731839158E+03  0.00000000000E+00 0.  1.
          3    1    6    6  503    0  0.19821898839E+03 -0.35928081149E+03 -0.15339747311E+03  0.43806877727E+03  0.00000000000E+00 0. -1.
         -3    1    6    6    0  503  0.19271551235E+03 -0.45074325822E+03 -0.90915532297E+02  0.49857234936E+03  0.00000000000E+00 0.  1.
<mgrwt>
<rscale>  0 0.22514956E+04</rscale>
<asrwt>0</asrwt>
<pdfrwt beam="1">  1        3 0.35260885E+00 0.22514956E+04</pdfrwt>
<pdfrwt beam="2">  1       -4 0.85067232E-01 0.22514956E+04</pdfrwt>
<totfact> 0.50251088E-02</totfact>
</mgrwt>
</event>
<event>
12    4  0.4398275E-008  0.2677397E+04  0.7818608E-02  0.8342376E-01
         -2   -1    0    0    0  501 -0.00000000000E+00  0.00000000000E+00  0.14805092736E+04  0.14805092736E+04  0.00000000000E+00 0.  1.
          1   -1    0    0  501    0  0.00000000000E+00 -0.00000000000E+00 -0.12104708947E+04  0.12104708947E+04  0.00000000000E+00 0. -1.
        -24    2    1    2    0    0  0.48872024907E+03 -0.12177997462E+03 -0.95457398448E+03  0.10821665088E+04  0.78708428878E+02 0.  0.
        254    2    1    2    0    0 -0.48872024907E+03  0.12177997462E+03  0.12246123634E+04  0.16088136595E+04  0.91374400496E+03 0.  0.
         23    2    4    4    0    0 -0.35816970731E+03 -0.62091241783E+02  0.14668432581E+02  0.37462723624E+03  0.89384236201E+02 0.  0.
         23    2    4    4    0    0 -0.13055054177E+03  0.18387121641E+03  0.12099439308E+04  0.12341864233E+04  0.91650115574E+02 0.  0.
          1    1    3    3  502    0  0.46551429955E+03 -0.99426718757E+02 -0.87084186083E+03  0.99244888134E+03  0.00000000000E+00 0. -1.
         -2    1    3    3    0  502  0.23205949525E+02 -0.22353255867E+02 -0.83732123653E+02  0.89717627435E+02  0.00000000000E+00 0.  1.
         11    1    5    5    0    0 -0.29563705957E+03 -0.22176576418E+02 -0.94536421921E+01  0.29661834550E+03  0.00000000000E+00 0.  1.
        -11    1    5    5    0    0 -0.62532647731E+02 -0.39914665364E+02  0.24122074773E+02  0.78008890742E+02  0.00000000000E+00 0. -1.
          3    1    6    6  503    0 -0.10533442762E+03  0.80087746519E+02  0.78200196716E+03  0.79311819134E+03  0.00000000000E+00 0. -1.
         -3    1    6    6    0  503 -0.25216114145E+02  0.10378346989E+03  0.42794196361E+03  0.44106823197E+03  0.00000000000E+00 0.  1.
<mgrwt>
<rscale>  0 0.26773968E+04</rscale>
<asrwt>0</asrwt>
<pdfrwt beam="1">  1        1 0.18622629E+00 0.26773968E+04</pdfrwt>
<pdfrwt beam="2">  1       -2 0.22777066E+00 0.26773968E+04</pdfrwt>
<totfact> 0.71169384E-01</totfact>
</mgrwt>
</event>
<event>
12    4  0.4398275E-008  0.1896113E+04  0.7818608E-02  0.8656793E-01
          1   -1    0    0  501    0  0.00000000000E+00  0.00000000000E+00  0.78566976020E+03  0.78566976020E+03  0.00000000000E+00 0. -1.
         -2   -1    0    0    0  501 -0.00000000000E+00 -0.00000000000E+00 -0.11440068285E+04  0.11440068285E+04  0.00000000000E+00 0.  1.
        -24    2    1    2    0    0 -0.67457429377E+03 -0.28193853971E+03 -0.13617497942E+03  0.74809780447E+03  0.81036300694E+02 0.  0.
        254    2    1    2    0    0  0.67457429377E+03  0.28193853971E+03 -0.22216208892E+03  0.11815787843E+04  0.90123948632E+03 0.  0.
         23    2    4    4    0    0  0.36462922878E+03  0.44504263036E+03 -0.46607584489E+03  0.74553101985E+03  0.87019486663E+02 0.  0.
         23    2    4    4    0    0  0.30994506500E+03 -0.16310409064E+03  0.24391375598E+03  0.43604776442E+03  0.89301986548E+02 0.  0.
          1    1    3    3  502    0 -0.50833526144E+02 -0.30817191546E+02  0.92391805911E+01  0.60159032015E+02  0.00000000000E+00 0. -1.
         -2    1    3    3    0  502 -0.62374076763E+03 -0.25112134816E+03 -0.14541416001E+03  0.68793877245E+03  0.00000000000E+00 0.  1.
         11    1    5    5    0    0  0.67032084140E+02  0.10860722910E+03 -0.14638576552E+03  0.19421025427E+03  0.00000000000E+00 0. -1.
        -11    1    5    5    0    0  0.29759714464E+03  0.33643540125E+03 -0.31969007938E+03  0.55132076558E+03  0.00000000000E+00 0.  1.
          4    1    6    6  503    0  0.23137171119E+02 -0.46306378872E+02  0.35631414478E+02  0.62842717234E+02  0.00000000000E+00 0. -1.
         -4    1    6    6    0  503  0.28680789388E+03 -0.11679771177E+03  0.20828234150E+03  0.37320504719E+03  0.00000000000E+00 0.  1.
<mgrwt>
<rscale>  0 0.18961135E+04</rscale>
<asrwt>0</asrwt>
<pdfrwt beam="1">  1        1 0.12087227E+00 0.18961135E+04</pdfrwt>
<pdfrwt beam="2">  1       -2 0.17600105E+00 0.18961135E+04</pdfrwt>
<totfact> 0.36058585E+00</totfact>
</mgrwt>
</event>
<event>
12    4  0.4398275E-008  0.1632599E+04  0.7818608E-02  0.8800768E-01
         -2   -1    0    0    0  501 -0.00000000000E+00  0.00000000000E+00  0.42003066306E+03  0.42003066306E+03  0.00000000000E+00 0.  1.
          1   -1    0    0  501    0  0.00000000000E+00 -0.00000000000E+00 -0.15864195474E+04  0.15864195474E+04  0.00000000000E+00 0. -1.
        -24    2    1    2    0    0  0.19172180910E+03  0.36192456950E+03  0.68861941854E+02  0.42284239422E+03  0.79417109163E+02 0.  0.
        254    2    1    2    0    0 -0.19172180910E+03 -0.36192456950E+03 -0.12352508262E+04  0.15836078163E+04  0.90234276523E+03 0.  0.
         23    2    4    4    0    0  0.28589029141E+03  0.54116673194E+02 -0.19326002153E+03  0.36058342026E+03  0.89493541693E+02 0.  0.
         23    2    4    4    0    0 -0.47761210051E+03 -0.41604124269E+03 -0.10419908047E+04  0.12230243960E+04  0.94022348354E+02 0.  0.
          3    1    3    3  502    0  0.16205756085E+02  0.38306204788E+02  0.32723013213E+02  0.52922466395E+02  0.00000000000E+00 0. -1.
         -4    1    3    3    0  502  0.17551605301E+03  0.32361836471E+03  0.36138928641E+02  0.36991992783E+03  0.00000000000E+00 0.  1.
         11    1    5    5    0    0  0.18873983599E+03  0.76214701911E+02 -0.14476078327E+03  0.24977407962E+03  0.00000000000E+00 0.  1.
        -11    1    5    5    0    0  0.97150455421E+02 -0.22098028717E+02 -0.48499238264E+02  0.11080934064E+03  0.00000000000E+00 0. -1.
          4    1    6    6  503    0 -0.46511827921E+03 -0.37657311288E+03 -0.96197230089E+03  0.11329311677E+04  0.00000000000E+00 0.  1.
         -4    1    6    6    0  503 -0.12493821303E+02 -0.39468129814E+02 -0.80018503787E+02  0.90093228325E+02  0.00000000000E+00 0. -1.
<mgrwt>
<rscale>  0 0.16325990E+04</rscale>
<asrwt>0</asrwt>
<pdfrwt beam="1">  1        1 0.24406455E+00 0.16325990E+04</pdfrwt>
<pdfrwt beam="2">  1       -2 0.64620101E-01 0.16325990E+04</pdfrwt>
<totfact> 0.10585918E+01</totfact>
</mgrwt>
</event>
<event>
12    4  0.4398275E-008  0.1281605E+04  0.7818608E-02  0.9044281E-01
          1   -1    0    0  501    0  0.00000000000E+00  0.00000000000E+00  0.96975614783E+03  0.96975614783E+03  0.00000000000E+00 0. -1.
         -2   -1    0    0    0  501 -0.00000000000E+00 -0.00000000000E+00 -0.42343390989E+03  0.42343390989E+03  0.00000000000E+00 0.  1.
        -24    2    1    2    0    0  0.94744995044E+02  0.20693164715E+03  0.38490267207E+03  0.45362461693E+03  0.76340719448E+02 0.  0.
        254    2    1    2    0    0 -0.94744995044E+02 -0.20693164715E+03  0.16141956588E+03  0.93956544079E+03  0.89717870048E+03 0.  0.
         23    2    4    4    0    0  0.35841560872E+03 -0.26372855585E+03  0.26385991464E+02  0.45493092744E+03  0.90837373626E+02 0.  0.
         23    2    4    4    0    0 -0.45316060377E+03  0.56796908700E+02  0.13503357442E+03  0.48463451335E+03  0.89755911588E+02 0.  0.
          3    1    3    3  502    0  0.93605985835E+02  0.14501468160E+03  0.32206472294E+03  0.36539981421E+03  0.00000000000E+00 0. -1.
         -4    1    3    3    0  502  0.11390092088E+01  0.61916965549E+02  0.62837949129E+02  0.88224802723E+02  0.00000000000E+00 0.  1.
         11    1    5    5    0    0  0.33541175843E+03 -0.23799154185E+03 -0.35169413822E+00  0.41126772956E+03  0.00000000000E+00 0.  1.
        -11    1    5    5    0    0  0.23003850292E+02 -0.25737013996E+02  0.26737685602E+02  0.43663197879E+02  0.00000000000E+00 0. -1.
          3    1    6    6  503    0  0.41148168797E+01  0.22039445530E+01  0.30353763387E+01  0.55679977608E+01  0.00000000000E+00 0. -1.
         -3    1    6    6    0  503 -0.45727542065E+03  0.54592964147E+02  0.13199819808E+03  0.47906651559E+03  0.00000000000E+00 0.  1.
<mgrwt>
<rscale>  0 0.12816047E+04</rscale>
<asrwt>0</asrwt>
<pdfrwt beam="1">  1        1 0.14919325E+00 0.12816047E+04</pdfrwt>
<pdfrwt beam="2">  1       -2 0.65143679E-01 0.12816047E+04</pdfrwt>
<totfact> 0.29957041E+01</totfact>
</mgrwt>
</event>
<event>
12    4  0.4398275E-008  0.2819361E+04  0.7818608E-02  0.8297283E-01
          1   -1    0    0  501    0  0.00000000000E+00  0.00000000000E+00  0.15820129528E+04  0.15820129528E+04  0.00000000000E+00 0. -1.
         -2   -1    0    0    0  501 -0.00000000000E+00 -0.00000000000E+00 -0.12561207905E+04  0.12561207905E+04  0.00000000000E+00 0.  1.
        -24    2    1    2    0    0 -0.11580957820E+04 -0.27674496660E+03 -0.28672475513E+03  0.12271882878E+04  0.77500914600E+02 0.  0.
        254    2    1    2    0    0  0.11580957820E+04  0.27674496660E+03  0.61261691741E+03  0.16109454554E+04  0.89558481238E+03 0.  0.
         23    2    4    4    0    0  0.11244395223E+04  0.30688887611E+02  0.23885607978E+03  0.11534672760E+04  0.90158098233E+02 0.  0.
         23    2    4    4    0    0  0.33656259640E+02  0.24605607899E+03  0.37376083763E+03  0.45747817948E+03  0.88953825827E+02 0.  0.
          3    1    3    3  502    0 -0.76219609422E+02 -0.33346367034E+02 -0.67222462162E+01  0.83466146725E+02  0.00000000000E+00 0. -1.
         -4    1    3    3    0  502 -0.10818761726E+04 -0.24339859957E+03 -0.28000250891E+03  0.11437221411E+04  0.00000000000E+00 0.  1.
         11    1    5    5    0    0  0.23941750249E+03  0.15926643569E+02  0.14788180515E+02  0.24040193168E+03  0.00000000000E+00 0. -1.
        -11    1    5    5    0    0  0.88502201985E+03  0.14762244042E+02  0.22406789926E+03  0.91306534429E+03  0.00000000000E+00 0.  1.
          4    1    6    6  503    0  0.12057481610E+02  0.66196275667E+02  0.41532483178E+02  0.79071340787E+02  0.00000000000E+00 0. -1.
         -4    1    6    6    0  503  0.21598778030E+02  0.17985980332E+03  0.33222835445E+03  0.37840683869E+03  0.00000000000E+00 0.  1.
<mgrwt>
<rscale>  0 0.28193612E+04</rscale>
<asrwt>0</asrwt>
<pdfrwt beam="1">  1        1 0.24338661E+00 0.28193612E+04</pdfrwt>
<pdfrwt beam="2">  1       -2 0.19324935E+00 0.28193612E+04</pdfrwt>
<totfact> 0.64261811E-01</totfact>
</mgrwt>
</event>
<event>
12    4  0.4398275E-008  0.1761579E+04  0.7818608E-02  0.8727003E-01
         -4   -1    0    0    0  501 -0.00000000000E+00  0.00000000000E+00  0.11613896466E+04  0.11613896466E+04  0.00000000000E+00 0.  1.
          1   -1    0    0  501    0  0.00000000000E+00 -0.00000000000E+00 -0.66798409691E+03  0.66798409691E+03  0.00000000000E+00 0. -1.
        -24    2    1    2    0    0 -0.44577329588E+03  0.46207654550E+03  0.86689495938E+02  0.65293387296E+03  0.81111087625E+02 0.  0.
        254    2    1    2    0    0  0.44577329588E+03 -0.46207654550E+03  0.40671605375E+03  0.11764398706E+04  0.89797787023E+03 0.  0.
         23    2    4    4    0    0  0.46778075973E+03 -0.50012198081E+03  0.62645822881E+03  0.93254373565E+03  0.90813388795E+02 0.  0.
         23    2    4    4    0    0 -0.22007463852E+02  0.38045435307E+02 -0.21974217506E+03  0.24389613490E+03  0.96264830060E+02 0.  0.
          1    1    3    3  502    0  0.29807107595E+01  0.57942580807E+01 -0.20512893196E+01  0.68312408251E+01  0.00000000000E+00 0. -1.
         -2    1    3    3    0  502 -0.44875400664E+03  0.45628228742E+03  0.88740785258E+02  0.64610263214E+03  0.00000000000E+00 0.  1.
         11    1    5    5    0    0  0.28568488435E+03 -0.25122640443E+03  0.38068745806E+03  0.53819466752E+03  0.00000000000E+00 0.  1.
        -11    1    5    5    0    0  0.18209587538E+03 -0.24889557638E+03  0.24577077076E+03  0.39434906813E+03  0.00000000000E+00 0. -1.
          1    1    6    6  503    0 -0.19338318134E+01 -0.22492516175E+02 -0.10036211714E+02  0.24705840098E+02  0.00000000000E+00 0. -1.
         -1    1    6    6    0  503 -0.20073632039E+02  0.60537951482E+02 -0.20970596335E+03  0.21919029481E+03  0.00000000000E+00 0.  1.
<mgrwt>
<rscale>  0 0.17615786E+04</rscale>
<asrwt>0</asrwt>
<pdfrwt beam="1">  1        1 0.10276678E+00 0.17615786E+04</pdfrwt>
<pdfrwt beam="2">  1       -4 0.17867533E+00 0.17615786E+04</pdfrwt>
<totfact> 0.24435561E+00</totfact>
</mgrwt>
</event>
<event>
12    4  0.4398275E-008  0.1476348E+04  0.7818608E-02  0.8900336E-01
         -2   -1    0    0    0  501 -0.00000000000E+00  0.00000000000E+00  0.56846054966E+03  0.56846054966E+03  0.00000000000E+00 0.  1.
          1   -1    0    0  501    0  0.00000000000E+00 -0.00000000000E+00 -0.95855462544E+03  0.95855462544E+03  0.00000000000E+00 0. -1.
        -24    2    1    2    0    0 -0.34065135660E+03 -0.28454303758E+02  0.19211572253E+03  0.40059853022E+03  0.81961804642E+02 0.  0.
        254    2    1    2    0    0  0.34065135660E+03  0.28454303758E+02 -0.58220979832E+03  0.11264166449E+04  0.90166136351E+03 0.  0.
         23    2    4    4    0    0  0.63443852826E+03  0.32206641501E+02 -0.29790726065E+03  0.70745812395E+03  0.90546934224E+02 0.  0.
         23    2    4    4    0    0 -0.29378717166E+03 -0.37523377429E+01 -0.28430253767E+03  0.41895852093E+03  0.91505885403E+02 0.  0.
          1    1    3    3  502    0 -0.54527961753E+02  0.24718942153E+02  0.42071547698E+02  0.73173354712E+02  0.00000000000E+00 0. -1.
         -2    1    3    3    0  502 -0.28612339484E+03 -0.53173245911E+02  0.15004417483E+03  0.32742517551E+03  0.00000000000E+00 0.  1.
         11    1    5    5    0    0  0.50955980996E+03  0.58068196494E+01 -0.27039948769E+03  0.57688889920E+03  0.00000000000E+00 0.  1.
        -11    1    5    5    0    0  0.12487871830E+03  0.26399821851E+02 -0.27507772964E+02  0.13056922475E+03  0.00000000000E+00 0. -1.
          2    1    6    6  503    0 -0.26553393195E+01 -0.12258378089E+02 -0.29199624817E+02  0.31779502038E+02  0.00000000000E+00 0. -1.
         -2    1    6    6    0  503 -0.29113183234E+03  0.85060403466E+01 -0.25510291285E+03  0.38717901889E+03  0.00000000000E+00 0.  1.
<mgrwt>
<rscale>  0 0.14763475E+04</rscale>
<asrwt>0</asrwt>
<pdfrwt beam="1">  1        1 0.14746994E+00 0.14763475E+04</pdfrwt>
<pdfrwt beam="2">  1       -2 0.87455469E-01 0.14763475E+04</pdfrwt>
<totfact> 0.15649273E+01</totfact>
</mgrwt>
</event>
<event>
12    4  0.4398275E-008  0.1380266E+04  0.7818608E-02  0.8968228E-01
          1   -1    0    0  501    0  0.00000000000E+00  0.00000000000E+00  0.11435118789E+04  0.11435118789E+04  0.00000000000E+00 0. -1.
         -2   -1    0    0    0  501 -0.00000000000E+00 -0.00000000000E+00 -0.41650940640E+03  0.41650940640E+03  0.00000000000E+00 0.  1.
        -24    2    1    2    0    0 -0.30242041270E+03  0.25204075994E+03  0.24371564520E+03  0.47007238884E+03  0.81167015116E+02 0.  0.
        254    2    1    2    0    0  0.30242041270E+03 -0.25204075994E+03  0.48328682732E+03  0.10899488965E+04  0.89411396857E+03 0.  0.
         23    2    4    4    0    0 -0.16104113172E+03  0.22917913509E+03  0.83446681825E+02  0.30640358340E+03  0.91991766741E+02 0.  0.
         23    2    4    4    0    0  0.46346154442E+03 -0.48121989503E+03  0.39984014550E+03  0.78354531308E+03  0.87760612879E+02 0.  0.
          3    1    3    3  502    0  0.30446435594E+01  0.14409948187E+02  0.61275029214E+01  0.15951888704E+02  0.00000000000E+00 0. -1.
         -4    1    3    3    0  502 -0.30546505626E+03  0.23763081175E+03  0.23758814228E+03  0.45412050013E+03  0.00000000000E+00 0.  1.
         11    1    5    5    0    0 -0.11536715135E+03  0.12173692380E+03  0.90413392850E+01  0.16796191248E+03  0.00000000000E+00 0.  1.
        -11    1    5    5    0    0 -0.45673980366E+02  0.10744221129E+03  0.74405342540E+02  0.13844167092E+03  0.00000000000E+00 0. -1.
          1    1    6    6  503    0  0.47185933390E+02 -0.28341372066E+02  0.11937743202E+02  0.56322778636E+02  0.00000000000E+00 0. -1.
         -1    1    6    6    0  503  0.41627561103E+03 -0.45287852296E+03  0.38790240230E+03  0.72722253444E+03  0.00000000000E+00 0.  1.
<mgrwt>
<rscale>  0 0.13802658E+04</rscale>
<asrwt>0</asrwt>
<pdfrwt beam="1">  1        1 0.17592490E+00 0.13802658E+04</pdfrwt>
<pdfrwt beam="2">  1       -2 0.64078371E-01 0.13802658E+04</pdfrwt>
<totfact> 0.22676646E+01</totfact>
</mgrwt>
</event>
<event>
12    4  0.4398275E-008  0.1633937E+04  0.7818608E-02  0.8799966E-01
         -4   -1    0    0    0  501 -0.00000000000E+00  0.00000000000E+00  0.90379301000E+03  0.90379301000E+03  0.00000000000E+00 0.  1.
          3   -1    0    0  501    0  0.00000000000E+00 -0.00000000000E+00 -0.73848459138E+03  0.73848459138E+03  0.00000000000E+00 0. -1.
        -24    2    1    2    0    0 -0.91023026293E+02  0.39865899536E+02 -0.50868643229E+03  0.52466524801E+03  0.81469348955E+02 0.  0.
        254    2    1    2    0    0  0.91023026293E+02 -0.39865899536E+02  0.67399485091E+03  0.11176123534E+04  0.88595362863E+03 0.  0.
         23    2    4    4    0    0 -0.21799659483E+03  0.11308865490E+03  0.71191914034E+03  0.75893000272E+03  0.93991102899E+02 0.  0.
         23    2    4    4    0    0  0.30901962112E+03 -0.15295455444E+03 -0.37924289432E+02  0.35868235064E+03  0.91249958745E+02 0.  0.
          1    1    3    3  502    0 -0.64655010650E+02  0.47340190072E+02 -0.47262967772E+03  0.47937477641E+03  0.00000000000E+00 0. -1.
         -2    1    3    3    0  502 -0.26368015643E+02 -0.74742905364E+01 -0.36056754565E+02  0.45290471600E+02  0.00000000000E+00 0.  1.
         11    1    5    5    0    0 -0.13832857872E+03  0.11825694601E+03  0.52606873617E+03  0.55665771902E+03  0.00000000000E+00 0. -1.
        -11    1    5    5    0    0 -0.79668016111E+02 -0.51682911021E+01  0.18585040417E+03  0.20227228371E+03  0.00000000000E+00 0.  1.
          2    1    6    6  503    0  0.54624969359E+02 -0.52569688164E+02  0.21530059010E+02  0.78809915824E+02  0.00000000000E+00 0. -1.
         -2    1    6    6    0  503  0.25439465176E+03 -0.10038486628E+03 -0.59454348442E+02  0.27987243482E+03  0.00000000000E+00 0.  1.
<mgrwt>
<rscale>  0 0.16339366E+04</rscale>
<asrwt>0</asrwt>
<pdfrwt beam="1">  1        3 0.11361301E+00 0.16339366E+04</pdfrwt>
<pdfrwt beam="2">  1       -4 0.13904508E+00 0.16339366E+04</pdfrwt>
<totfact> 0.51488818E-01</totfact>
</mgrwt>
</event>
<event>
12    4  0.4398275E-008  0.1833183E+04  0.7818608E-02  0.8688849E-01
          1   -1    0    0  501    0  0.00000000000E+00  0.00000000000E+00  0.14198205910E+04  0.14198205910E+04  0.00000000000E+00 0. -1.
         -2   -1    0    0    0  501 -0.00000000000E+00 -0.00000000000E+00 -0.59172281247E+03  0.59172281247E+03  0.00000000000E+00 0.  1.
        -24    2    1    2    0    0  0.39781255557E+02 -0.61501476539E+02  0.10674616908E+04  0.10728758558E+04  0.78887012878E+02 0.  0.
        254    2    1    2    0    0 -0.39781255557E+02  0.61501476539E+02 -0.23936391218E+03  0.93866754772E+03  0.90467491552E+03 0.  0.
         23    2    4    4    0    0  0.31361405045E+03  0.31879732406E+03 -0.17110295925E+03  0.48736212824E+03  0.90885174322E+02 0.  0.
         23    2    4    4    0    0 -0.35339530601E+03 -0.25729584752E+03 -0.68260952926E+02  0.45130541947E+03  0.89037230930E+02 0.  0.
          1    1    3    3  502    0  0.64530125921E+01 -0.71477999529E+02  0.78673661461E+03  0.79000332059E+03  0.00000000000E+00 0. -1.
         -2    1    3    3    0  502  0.33328242965E+02  0.99765229900E+01  0.28072507615E+03  0.28287253520E+03  0.00000000000E+00 0.  1.
         11    1    5    5    0    0  0.78596314590E+02  0.12361768241E+03 -0.24547604177E+02  0.14853045796E+03  0.00000000000E+00 0. -1.
        -11    1    5    5    0    0  0.23501773586E+03  0.19517964165E+03 -0.14655535508E+03  0.33883167028E+03  0.00000000000E+00 0.  1.
          1    1    6    6  503    0 -0.79025465447E+02 -0.21052710974E+02  0.48857276185E+01  0.81927475018E+02  0.00000000000E+00 0. -1.
         -1    1    6    6    0  503 -0.27436984056E+03 -0.23624313655E+03 -0.73146680545E+02  0.36937794446E+03  0.00000000000E+00 0.  1.
<mgrwt>
<rscale>  0 0.18331833E+04</rscale>
<asrwt>0</asrwt>
<pdfrwt beam="1">  1        1 0.21843394E+00 0.18331833E+04</pdfrwt>
<pdfrwt beam="2">  1       -2 0.91034279E-01 0.18331833E+04</pdfrwt>
<totfact> 0.63232203E+00</totfact>
</mgrwt>
</event>
<event>
12    4  0.4398275E-008  0.2516617E+04  0.7818608E-02  0.8397089E-01
          1   -1    0    0  501    0  0.00000000000E+00  0.00000000000E+00  0.10634809780E+04  0.10634809780E+04  0.00000000000E+00 0. -1.
         -2   -1    0    0    0  501 -0.00000000000E+00 -0.00000000000E+00 -0.14888280878E+04  0.14888280878E+04  0.00000000000E+00 0.  1.
        -24    2    1    2    0    0  0.35945221028E+03 -0.61424430144E+03  0.65812401817E+03  0.97265819539E+03  0.80217133071E+02 0.  0.
        254    2    1    2    0    0 -0.35945221028E+03  0.61424430144E+03 -0.10834711280E+04  0.15796508703E+04  0.90270993883E+03 0.  0.
         23    2    4    4    0    0 -0.26209869865E+03  0.26622933750E+03  0.48562990562E+02  0.38817665980E+03  0.93535913842E+02 0.  0.
         23    2    4    4    0    0 -0.97353511631E+02  0.34801496394E+03 -0.11320341185E+04  0.11914742105E+04  0.86703099663E+02 0.  0.
          3    1    3    3  502    0  0.27598194219E+03 -0.46966703950E+03  0.54781370744E+03  0.77256263078E+03  0.00000000000E+00 0. -1.
         -4    1    3    3    0  502  0.83470268093E+02 -0.14457726194E+03  0.11031031072E+03  0.20009556461E+03  0.00000000000E+00 0.  1.
         11    1    5    5    0    0 -0.15597687992E+03  0.10500310852E+03 -0.42099364035E+01  0.18807488784E+03  0.00000000000E+00 0. -1.
        -11    1    5    5    0    0 -0.10612181872E+03  0.16122622898E+03  0.52772926965E+02  0.20010177196E+03  0.00000000000E+00 0.  1.
          1    1    6    6  503    0 -0.54358662482E+02  0.30833367175E+03 -0.94781324102E+03  0.99818558253E+03  0.00000000000E+00 0. -1.
         -1    1    6    6    0  503 -0.42994849149E+02  0.39681292190E+02 -0.18422087752E+03  0.19328862801E+03  0.00000000000E+00 0.  1.
<mgrwt>
<rscale>  0 0.25166171E+04</rscale>
<asrwt>0</asrwt>
<pdfrwt beam="1">  1        1 0.16361246E+00 0.25166171E+04</pdfrwt>
<pdfrwt beam="2">  1       -2 0.22905048E+00 0.25166171E+04</pdfrwt>
<totfact> 0.91147565E-01</totfact>
</mgrwt>
</event>
<event>
12    4  0.4398275E-008  0.2431758E+04  0.7818608E-02  0.8427709E-01
          1   -1    0    0  501    0  0.00000000000E+00  0.00000000000E+00  0.17287580315E+04  0.17287580315E+04  0.00000000000E+00 0. -1.
         -2   -1    0    0    0  501 -0.00000000000E+00 -0.00000000000E+00 -0.85515817185E+03  0.85515817185E+03  0.00000000000E+00 0.  1.
        -24    2    1    2    0    0 -0.84229824164E+03 -0.48101772562E+03 -0.41697834280E+02  0.97413539700E+03  0.79728803291E+02 0.  0.
        254    2    1    2    0    0  0.84229824164E+03  0.48101772562E+03  0.91529769391E+03  0.16097808063E+04  0.90154311918E+03 0.  0.
         23    2    4    4    0    0 -0.57189570492E+02  0.22448230393E+03  0.54567733806E+03  0.59992297973E+03  0.92091653202E+02 0.  0.
         23    2    4    4    0    0  0.89948781213E+03  0.25653542169E+03  0.36962035585E+03  0.10098578266E+04  0.91131090934E+02 0.  0.
          1    1    3    3  502    0 -0.33001726297E+03 -0.14454593648E+03 -0.10252042702E+02  0.36043033445E+03  0.00000000000E+00 0. -1.
         -2    1    3    3    0  502 -0.51228097867E+03 -0.33647178913E+03 -0.31445791578E+02  0.61370506255E+03  0.00000000000E+00 0.  1.
         11    1    5    5    0    0 -0.46601876458E+02  0.23130383761E+03  0.52682831446E+03  0.57725321403E+03  0.00000000000E+00 0. -1.
        -11    1    5    5    0    0 -0.10587694034E+02 -0.68215336799E+01  0.18849023594E+02  0.22669765705E+02  0.00000000000E+00 0.  1.
          2    1    6    6  503    0  0.79000334851E+03  0.20403268516E+03  0.34550762572E+03  0.88606441453E+03  0.00000000000E+00 0. -1.
         -2    1    6    6    0  503  0.10948446362E+03  0.52502736527E+02  0.24112730135E+02  0.12379341207E+03  0.00000000000E+00 0.  1.
<mgrwt>
<rscale>  0 0.24317578E+04</rscale>
<asrwt>0</asrwt>
<pdfrwt beam="1">  1        1 0.26596277E+00 0.24317578E+04</pdfrwt>
<pdfrwt beam="2">  1       -2 0.13156280E+00 0.24317578E+04</pdfrwt>
<totfact> 0.15066817E+00</totfact>
</mgrwt>
</event>
<event>
12    4  0.4398275E-008  0.1822349E+04  0.7818608E-02  0.8694504E-01
         -4   -1    0    0    0  501 -0.00000000000E+00  0.00000000000E+00  0.25264305968E+03  0.25264305968E+03  0.00000000000E+00 0.  1.
          3   -1    0    0  501    0  0.00000000000E+00 -0.00000000000E+00 -0.32862150466E+04  0.32862150466E+04  0.00000000000E+00 0. -1.
        -24    2    1    2    0    0 -0.53244949786E+03  0.37910356186E+03 -0.15086665034E+04  0.16460975184E+04  0.79626899875E+02 0.  0.
        254    2    1    2    0    0  0.53244949786E+03 -0.37910356186E+03 -0.15249054835E+04  0.18927605879E+04  0.91103453886E+03 0.  0.
         23    2    4    4    0    0  0.43116080784E+03 -0.18434197942E+03 -0.15488693268E+03  0.50226580410E+03  0.91648068498E+02 0.  0.
         23    2    4    4    0    0  0.10128869002E+03 -0.19476158244E+03 -0.13700185509E+04  0.13904947838E+04  0.91287684632E+02 0.  0.
          1    1    3    3  502    0 -0.13072929805E+03  0.12532316107E+03 -0.35854126200E+03  0.40168131725E+03  0.00000000000E+00 0. -1.
         -2    1    3    3    0  502 -0.40172019981E+03  0.25378040079E+03 -0.11501252414E+04  0.12444162011E+04  0.00000000000E+00 0.  1.
         11    1    5    5    0    0  0.10613065453E+03 -0.76750091622E+02 -0.12870673103E+02  0.13160526821E+03  0.00000000000E+00 0.  1.
        -11    1    5    5    0    0  0.32503015331E+03 -0.10759188780E+03 -0.14201625958E+03  0.37066053588E+03  0.00000000000E+00 0. -1.
          1    1    6    6  503    0  0.88236113395E+02 -0.71684653753E+02 -0.62126031709E+03  0.63157634762E+03  0.00000000000E+00 0. -1.
         -1    1    6    6    0  503  0.13052576624E+02 -0.12307692869E+03 -0.74875823377E+03  0.75891843617E+03  0.00000000000E+00 0.  1.
<mgrwt>
<rscale>  0 0.18223495E+04</rscale>
<asrwt>0</asrwt>
<pdfrwt beam="1">  1        3 0.50557151E+00 0.18223495E+04</pdfrwt>
<pdfrwt beam="2">  1       -4 0.38868166E-01 0.18223495E+04</pdfrwt>
<totfact> 0.45277077E-02</totfact>
</mgrwt>
</event>
<event>
12    4  0.4398275E-008  0.1553183E+04  0.7818608E-02  0.8849837E-01
         -2   -1    0    0    0  501 -0.00000000000E+00  0.00000000000E+00  0.71673247791E+03  0.71673247791E+03  0.00000000000E+00 0.  1.
          1   -1    0    0  501    0  0.00000000000E+00 -0.00000000000E+00 -0.84144932937E+03  0.84144932937E+03  0.00000000000E+00 0. -1.
        -24    2    1    2    0    0 -0.31381086264E+03  0.18537777889E+02  0.36580123260E+03  0.48867440662E+03  0.78557158758E+02 0.  0.
        254    2    1    2    0    0  0.31381086264E+03 -0.18537777889E+02 -0.49051808406E+03  0.10695074007E+04  0.89689307198E+03 0.  0.
         23    2    4    4    0    0  0.60473078004E+01  0.28483447084E+03 -0.54730911949E+03  0.62429229988E+03  0.95007145525E+02 0.  0.
         23    2    4    4    0    0  0.30776355484E+03 -0.30337224873E+03  0.56791035427E+02  0.44521510078E+03  0.90764184954E+02 0.  0.
          1    1    3    3  502    0 -0.98002860183E+02 -0.28125434787E+02  0.95972409584E+02  0.14002251279E+03  0.00000000000E+00 0. -1.
         -2    1    3    3    0  502 -0.21580800246E+03  0.46663212676E+02  0.26982882301E+03  0.34865189383E+03  0.00000000000E+00 0.  1.
         11    1    5    5    0    0 -0.13003099738E+02  0.52563662539E+01 -0.70859634881E+01  0.15713715905E+02  0.00000000000E+00 0. -1.
        -11    1    5    5    0    0  0.19050407538E+02  0.27957810459E+03 -0.54022315600E+03  0.60857858397E+03  0.00000000000E+00 0.  1.
          1    1    6    6  503    0  0.23543548356E+03 -0.27754066897E+03  0.36480917671E+02  0.36577253479E+03  0.00000000000E+00 0.  1.
         -1    1    6    6    0  503  0.72328071280E+02 -0.25831579760E+02  0.20310117756E+02  0.79442565991E+02  0.00000000000E+00 0. -1.
<mgrwt>
<rscale>  0 0.15531826E+04</rscale>
<asrwt>0</asrwt>
<pdfrwt beam="1">  1        1 0.12945374E+00 0.15531826E+04</pdfrwt>
<pdfrwt beam="2">  1       -2 0.11026653E+00 0.15531826E+04</pdfrwt>
<totfact> 0.11225086E+01</totfact>
</mgrwt>
</event>
<event>
12    4  0.4398275E-008  0.1528486E+04  0.7818608E-02  0.8865728E-01
          1   -1    0    0  501    0  0.00000000000E+00  0.00000000000E+00  0.54431930382E+04  0.54431930382E+04  0.00000000000E+00 0. -1.
         -2   -1    0    0    0  501 -0.00000000000E+00 -0.00000000000E+00 -0.10730230881E+03  0.10730230881E+03  0.00000000000E+00 0.  1.
        -24    2    1    2    0    0 -0.45708225834E+01  0.36254832325E+03  0.29145891855E+04  0.29381640203E+04  0.80718715749E+02 0.  0.
        254    2    1    2    0    0  0.45708225834E+01 -0.36254832325E+03  0.24213015440E+04  0.26123313267E+04  0.91110461243E+03 0.  0.
         23    2    4    4    0    0  0.34286401326E+03 -0.41885974975E+03  0.93526222483E+03  0.10845375585E+04  0.92233751878E+02 0.  0.
         23    2    4    4    0    0 -0.33829319067E+03  0.56311426496E+02  0.14860393191E+04  0.15277937683E+04  0.90706564125E+02 0.  0.
          1    1    3    3  502    0  0.22407251070E+02  0.14533182834E+03  0.14271908127E+04  0.14347463334E+04  0.00000000000E+00 0. -1.
         -2    1    3    3    0  502 -0.26978073654E+02  0.21721649491E+03  0.14873983728E+04  0.15034176869E+04  0.00000000000E+00 0.  1.
         11    1    5    5    0    0  0.70390336753E+02 -0.39952713538E+02  0.16803001689E+03  0.18650765508E+03  0.00000000000E+00 0.  1.
        -11    1    5    5    0    0  0.27247367650E+03 -0.37890703621E+03  0.76723220794E+03  0.89802990339E+03  0.00000000000E+00 0. -1.
          3    1    6    6  503    0 -0.26383823603E+03  0.51746878328E+02  0.12968929367E+04  0.13244695706E+04  0.00000000000E+00 0. -1.
         -3    1    6    6    0  503 -0.74454954646E+02  0.45645481684E+01  0.18914638245E+03  0.20332419769E+03  0.00000000000E+00 0.  1.
<mgrwt>
<rscale>  0 0.15284858E+04</rscale>
<asrwt>0</asrwt>
<pdfrwt beam="1">  1        1 0.83741410E+00 0.15284858E+04</pdfrwt>
<pdfrwt beam="2">  1       -2 0.16508052E-01 0.15284858E+04</pdfrwt>
<totfact> 0.51331027E-02</totfact>
</mgrwt>
</event>
<event>
12    4  0.4398275E-008  0.1377733E+04  0.7818608E-02  0.8970096E-01
          1   -1    0    0  501    0  0.00000000000E+00  0.00000000000E+00  0.20985276500E+04  0.20985276500E+04  0.00000000000E+00 0. -1.
         -2   -1    0    0    0  501 -0.00000000000E+00 -0.00000000000E+00 -0.22612867650E+03  0.22612867650E+03  0.00000000000E+00 0.  1.
        -24    2    1    2    0    0 -0.32219769750E+03 -0.13478006092E+03  0.24518149865E+03  0.43398789389E+03  0.79085420067E+02 0.  0.
        254    2    1    2    0    0  0.32219769750E+03  0.13478006092E+03  0.16272174748E+04  0.18906684326E+04  0.89711392279E+03 0.  0.
         23    2    4    4    0    0 -0.10652773442E+03  0.40770281080E+03  0.89920026408E+03  0.99819028900E+03  0.10125708859E+03 0.  0.
         23    2    4    4    0    0  0.42872543193E+03 -0.27292274988E+03  0.72801721074E+03  0.89247814357E+03  0.90641349520E+02 0.  0.
          3    1    3    3  502    0 -0.12085890817E+03 -0.34628644531E+02  0.13180894538E+03  0.18215272929E+03  0.00000000000E+00 0. -1.
         -4    1    3    3    0  502 -0.20133878933E+03 -0.10015141639E+03  0.11337255327E+03  0.25183516460E+03  0.00000000000E+00 0.  1.
         11    1    5    5    0    0 -0.10307603090E+03  0.35120529819E+03  0.84002108733E+03  0.91629976360E+03  0.00000000000E+00 0. -1.
        -11    1    5    5    0    0 -0.34517035291E+01  0.56497512610E+02  0.59179176754E+02  0.81890525396E+02  0.00000000000E+00 0.  1.
          1    1    6    6  503    0  0.33794705971E+03 -0.24896873054E+03  0.55790094564E+03  0.69817412520E+03  0.00000000000E+00 0. -1.
         -1    1    6    6    0  503  0.90778372220E+02 -0.23954019340E+02  0.17011626510E+03  0.19430401838E+03  0.00000000000E+00 0.  1.
<mgrwt>
<rscale>  0 0.13777333E+04</rscale>
<asrwt>0</asrwt>
<pdfrwt beam="1">  1        1 0.32285039E+00 0.13777333E+04</pdfrwt>
<pdfrwt beam="2">  1       -2 0.34789029E-01 0.13777333E+04</pdfrwt>
<totfact> 0.16998870E+01</totfact>
</mgrwt>
</event>
<event>
12    4  0.4398275E-008  0.1537686E+04  0.7818608E-02  0.8859772E-01
         -2   -1    0    0    0  501 -0.00000000000E+00  0.00000000000E+00  0.40757309286E+03  0.40757309286E+03  0.00000000000E+00 0.  1.
          1   -1    0    0  501    0  0.00000000000E+00 -0.00000000000E+00 -0.14503400322E+04  0.14503400322E+04  0.00000000000E+00 0. -1.
        -24    2    1    2    0    0  0.24584848352E+03  0.13764058582E+03 -0.84584036363E+03  0.89531143205E+03  0.82159794945E+02 0.  0.
        254    2    1    2    0    0 -0.24584848352E+03 -0.13764058582E+03 -0.19692657570E+03  0.96260169299E+03  0.89913043293E+03 0.  0.
         23    2    4    4    0    0 -0.28229048211E+02 -0.39329270464E+03 -0.39188565702E+03  0.56343103422E+03  0.91674050096E+02 0.  0.
         23    2    4    4    0    0 -0.21761943531E+03  0.25565211881E+03  0.19495908132E+03  0.39917065877E+03  0.92800576258E+02 0.  0.
          3    1    3    3  502    0  0.15315551576E+03  0.10338760310E+03 -0.65277921438E+03  0.67842929714E+03  0.00000000000E+00 0. -1.
         -4    1    3    3    0  502  0.92692967761E+02  0.34252982721E+02 -0.19306114925E+03  0.21688213492E+03  0.00000000000E+00 0.  1.
         11    1    5    5    0    0  0.25493307525E+02 -0.76807334316E+02 -0.10757587621E+03  0.13461740035E+03  0.00000000000E+00 0. -1.
        -11    1    5    5    0    0 -0.53722355737E+02 -0.31648537032E+03 -0.28430978081E+03  0.42881363388E+03  0.00000000000E+00 0.  1.
          4    1    6    6  503    0 -0.20659648095E+03  0.19040445622E+03  0.14438138377E+03  0.31588280559E+03  0.00000000000E+00 0. -1.
         -4    1    6    6    0  503 -0.11022954356E+02  0.65247662593E+02  0.50577697555E+02  0.83287853176E+02  0.00000000000E+00 0.  1.
<mgrwt>
<rscale>  0 0.15376860E+04</rscale>
<asrwt>0</asrwt>
<pdfrwt beam="1">  1        1 0.22312924E+00 0.15376860E+04</pdfrwt>
<pdfrwt beam="2">  1       -2 0.62703551E-01 0.15376860E+04</pdfrwt>
<totfact> 0.14134738E+01</totfact>
</mgrwt>
</event>
<event>
12    4  0.4398275E-008  0.2700456E+04  0.7818608E-02  0.8334857E-01
         -2   -1    0    0    0  501 -0.00000000000E+00  0.00000000000E+00  0.12379674977E+04  0.12379674977E+04  0.00000000000E+00 0.  1.
          1   -1    0    0  501    0  0.00000000000E+00 -0.00000000000E+00 -0.14726688862E+04  0.14726688862E+04  0.00000000000E+00 0. -1.
        -24    2    1    2    0    0  0.14655946374E+03  0.11719322442E+04  0.98952189464E+02  0.11878859859E+04  0.79854357007E+02 0.  0.
        254    2    1    2    0    0 -0.14655946374E+03 -0.11719322442E+04 -0.33365357803E+03  0.15227503981E+04  0.90140956471E+03 0.  0.
         23    2    4    4    0    0  0.76505729356E+01 -0.84220415553E+02 -0.39988487486E+03  0.41825849708E+03  0.88773011505E+02 0.  0.
         23    2    4    4    0    0 -0.15421003668E+03 -0.10877118286E+04  0.66231296836E+02  0.11044919010E+04  0.92833276131E+02 0.  0.
          1    1    3    3  502    0  0.58742124654E+02  0.60304794005E+03  0.14289036036E+02  0.60607064915E+03  0.00000000000E+00 0. -1.
         -2    1    3    3    0  502  0.87817339088E+02  0.56888430411E+03  0.84663153427E+02  0.58181533673E+03  0.00000000000E+00 0.  1.
         11    1    5    5    0    0  0.46429978908E+02 -0.60570547457E+02 -0.22596808432E+03  0.23850809062E+03  0.00000000000E+00 0.  1.
        -11    1    5    5    0    0 -0.38779405972E+02 -0.23649868097E+02 -0.17391679055E+03  0.17975040646E+03  0.00000000000E+00 0. -1.
          2    1    6    6  503    0  0.11635766799E+02 -0.12410644635E+03  0.32643476142E+01  0.12469345235E+03  0.00000000000E+00 0. -1.
         -2    1    6    6    0  503 -0.16584580348E+03 -0.96360538226E+03  0.62966949222E+02  0.97979844863E+03  0.00000000000E+00 0.  1.
<mgrwt>
<rscale>  0 0.27004564E+04</rscale>
<asrwt>0</asrwt>
<pdfrwt beam="1">  1        1 0.22656444E+00 0.27004564E+04</pdfrwt>
<pdfrwt beam="2">  1       -2 0.19045654E+00 0.27004564E+04</pdfrwt>
<totfact> 0.80649562E-01</totfact>
</mgrwt>
</event>
<event>
12    4  0.4398275E-008  0.1518062E+04  0.7818608E-02  0.8872530E-01
         -2   -1    0    0    0  501 -0.00000000000E+00  0.00000000000E+00  0.25770717150E+03  0.25770717150E+03  0.00000000000E+00 0.  1.
          1   -1    0    0  501    0  0.00000000000E+00 -0.00000000000E+00 -0.22355911427E+04  0.22355911427E+04  0.00000000000E+00 0. -1.
        -24    2    1    2    0    0  0.24085065770E+03 -0.15479880116E+03 -0.12738227534E+04  0.13080173306E+04  0.79455785215E+02 0.  0.
        254    2    1    2    0    0 -0.24085065770E+03  0.15479880116E+03 -0.70406121778E+03  0.11852809836E+04  0.90951476273E+03 0.  0.
         23    2    4    4    0    0 -0.18078996375E+02  0.49755595939E+03 -0.52637438401E+03  0.73018507656E+03  0.90617167547E+02 0.  0.
         23    2    4    4    0    0 -0.22277166132E+03 -0.34275715824E+03 -0.17768683377E+03  0.45509590707E+03  0.91814983104E+02 0.  0.
          1    1    3    3  502    0  0.19056859881E+03 -0.90701202627E+02 -0.80711963222E+03  0.83425727431E+03  0.00000000000E+00 0. -1.
         -2    1    3    3    0  502  0.50282058887E+02 -0.64097598529E+02 -0.46670312120E+03  0.47376005627E+03  0.00000000000E+00 0.  1.
         11    1    5    5    0    0  0.18250105480E+02  0.39503645558E+03 -0.38611460048E+03  0.55269462842E+03  0.00000000000E+00 0.  1.
        -11    1    5    5    0    0 -0.36329101855E+02  0.10251950382E+03 -0.14025978353E+03  0.17749044814E+03  0.00000000000E+00 0. -1.
          1    1    6    6  503    0 -0.21631073588E+02 -0.89429771292E+02 -0.64625924725E+02  0.11243708234E+03  0.00000000000E+00 0. -1.
         -1    1    6    6    0  503 -0.20114058774E+03 -0.25332738694E+03 -0.11306090904E+03  0.34265882473E+03  0.00000000000E+00 0.  1.
<mgrwt>
<rscale>  0 0.15180618E+04</rscale>
<asrwt>0</asrwt>
<pdfrwt beam="1">  1        1 0.34393709E+00 0.15180618E+04</pdfrwt>
<pdfrwt beam="2">  1       -2 0.39647258E-01 0.15180618E+04</pdfrwt>
<totfact> 0.10527285E+01</totfact>
</mgrwt>
</event>
<event>
12    4  0.4398275E-008  0.1099660E+04  0.7818608E-02  0.9205523E-01
         -2   -1    0    0    0  501 -0.00000000000E+00  0.00000000000E+00  0.23619482423E+03  0.23619482423E+03  0.00000000000E+00 0.  1.
          1   -1    0    0  501    0  0.00000000000E+00 -0.00000000000E+00 -0.12799312492E+04  0.12799312492E+04  0.00000000000E+00 0. -1.
        -24    2    1    2    0    0  0.13033625950E+03  0.49279874872E+02 -0.30746145703E+03  0.34663762209E+03  0.78797505534E+02 0.  0.
        254    2    1    2    0    0 -0.13033625950E+03 -0.49279874872E+02 -0.73627496797E+03  0.11694884514E+04  0.89787881300E+03 0.  0.
         23    2    4    4    0    0  0.37487410836E+03  0.32945801463E+02 -0.34331299461E+03  0.51777319367E+03  0.92786016535E+02 0.  0.
         23    2    4    4    0    0 -0.50521036787E+03 -0.82225676335E+02 -0.39296197336E+03  0.65171525770E+03  0.91187098698E+02 0.  0.
          1    1    3    3  502    0  0.13254667642E+03  0.35806060391E+02 -0.22906318073E+03  0.26705923716E+03  0.00000000000E+00 0. -1.
         -2    1    3    3    0  502 -0.22104169140E+01  0.13473814481E+02 -0.78398276305E+02  0.79578384924E+02  0.00000000000E+00 0.  1.
         11    1    5    5    0    0  0.30568889446E+03  0.63040624338E+02 -0.27437267353E+03  0.41557211708E+03  0.00000000000E+00 0. -1.
        -11    1    5    5    0    0  0.69185213903E+02 -0.30094822875E+02 -0.68940321082E+02  0.10220107660E+03  0.00000000000E+00 0.  1.
          3    1    6    6  503    0 -0.86973078986E+02 -0.34446307060E+02 -0.11047011956E+03  0.14475673336E+03  0.00000000000E+00 0. -1.
         -3    1    6    6    0  503 -0.41823728888E+03 -0.47779369275E+02 -0.28249185380E+03  0.50695852434E+03  0.00000000000E+00 0.  1.
<mgrwt>
<rscale>  0 0.10996602E+04</rscale>
<asrwt>0</asrwt>
<pdfrwt beam="1">  1        1 0.19691250E+00 0.10996602E+04</pdfrwt>
<pdfrwt beam="2">  1       -2 0.36337665E-01 0.10996602E+04</pdfrwt>
<totfact> 0.58234351E+01</totfact>
</mgrwt>
</event>
<event>
12    4  0.4398275E-008  0.2844990E+04  0.7818608E-02  0.8289435E-01
          1   -1    0    0  501    0  0.00000000000E+00  0.00000000000E+00  0.19462343653E+04  0.19462343653E+04  0.00000000000E+00 0. -1.
         -2   -1    0    0    0  501 -0.00000000000E+00 -0.00000000000E+00 -0.10396956165E+04  0.10396956165E+04  0.00000000000E+00 0.  1.
        -24    2    1    2    0    0  0.12327810141E+04  0.21489225065E+03  0.69951486502E+03  0.14360350609E+04  0.83354312859E+02 0.  0.
        254    2    1    2    0    0 -0.12327810141E+04 -0.21489225065E+03  0.20702388377E+03  0.15498949209E+04  0.89072311597E+03 0.  0.
         23    2    4    4    0    0  0.11069851874E+03 -0.11282762207E+03 -0.11187661689E+02  0.18191033591E+03  0.89341883699E+02 0.  0.
         23    2    4    4    0    0 -0.13434795329E+04 -0.10206462858E+03  0.21821154546E+03  0.13679845850E+04  0.91712063963E+02 0.  0.
          1    1    3    3  502    0  0.97425800876E+03  0.20262498498E+03  0.56603698843E+03  0.11448289935E+04  0.00000000000E+00 0. -1.
         -2    1    3    3    0  502  0.25852300536E+03  0.12267265674E+02  0.13347787658E+03  0.29120606732E+03  0.00000000000E+00 0.  1.
         11    1    5    5    0    0  0.92203628040E+02 -0.69062635559E+02 -0.44912079416E+02  0.12364566928E+03  0.00000000000E+00 0.  1.
        -11    1    5    5    0    0  0.18494890701E+02 -0.43764986512E+02  0.33724417727E+02  0.58264666629E+02  0.00000000000E+00 0. -1.
          1    1    6    6  503    0 -0.24014920570E+03 -0.29106598547E+02  0.54898444944E+01  0.24196895145E+03  0.00000000000E+00 0. -1.
         -1    1    6    6    0  503 -0.11033303272E+04 -0.72958030036E+02  0.21272170097E+03  0.11260156336E+04  0.00000000000E+00 0.  1.
<mgrwt>
<rscale>  0 0.28449895E+04</rscale>
<asrwt>0</asrwt>
<pdfrwt beam="1">  1        1 0.29942067E+00 0.28449895E+04</pdfrwt>
<pdfrwt beam="2">  1       -2 0.15995317E+00 0.28449895E+04</pdfrwt>
<totfact> 0.61939097E-01</totfact>
</mgrwt>
</event>
<event>
12    4  0.4398275E-008  0.1667483E+04  0.7818608E-02  0.8780130E-01
         -2   -1    0    0    0  501 -0.00000000000E+00  0.00000000000E+00  0.88600287517E+03  0.88600287517E+03  0.00000000000E+00 0.  1.
          1   -1    0    0  501    0  0.00000000000E+00 -0.00000000000E+00 -0.78456298193E+03  0.78456298193E+03  0.00000000000E+00 0. -1.
        -24    2    1    2    0    0 -0.24080680185E+03 -0.54735238505E+02  0.52101350722E+03  0.58209749677E+03  0.79990992546E+02 0.  0.
        254    2    1    2    0    0  0.24080680185E+03  0.54735238505E+02 -0.41957361398E+03  0.10884683603E+04  0.97351810036E+03 0.  0.
         23    2    4    4    0    0  0.61205912460E+03  0.52394731385E+02 -0.25903895344E+03  0.67305912270E+03  0.92443622700E+02 0.  0.
         23    2    4    4    0    0 -0.37125232275E+03  0.23405071200E+01 -0.16053466054E+03  0.41540923762E+03  0.94655651395E+02 0.  0.
          3    1    3    3  502    0 -0.20834684712E+02 -0.47637686485E+01  0.12091801024E+03  0.12279227492E+03  0.00000000000E+00 0. -1.
         -4    1    3    3    0  502 -0.21997211713E+03 -0.49971469856E+02  0.40009549698E+03  0.45930522185E+03  0.00000000000E+00 0.  1.
         11    1    5    5    0    0  0.59326004293E+03  0.47693675210E+02 -0.26673168711E+03  0.65221005673E+03  0.00000000000E+00 0. -1.
        -11    1    5    5    0    0  0.18799081664E+02  0.47010561748E+01  0.76927336699E+01  0.20849065971E+02  0.00000000000E+00 0.  1.
          3    1    6    6  503    0 -0.35323842308E+03  0.14535916717E+02 -0.16926553201E+03  0.39196874460E+03  0.00000000000E+00 0. -1.
         -3    1    6    6    0  503 -0.18013899669E+02 -0.12195409597E+02  0.87308714632E+01  0.23440493020E+02  0.00000000000E+00 0.  1.
<mgrwt>
<rscale>  0 0.16674832E+04</rscale>
<asrwt>0</asrwt>
<pdfrwt beam="1">  1        1 0.12070200E+00 0.16674832E+04</pdfrwt>
<pdfrwt beam="2">  1       -2 0.13630814E+00 0.16674832E+04</pdfrwt>
<totfact> 0.73358443E+00</totfact>
</mgrwt>
</event>
<event>
12    4  0.4398275E-008  0.1372979E+04  0.7818608E-02  0.8973614E-01
         -2   -1    0    0    0  501 -0.00000000000E+00  0.00000000000E+00  0.79151990134E+03  0.79151990134E+03  0.00000000000E+00 0.  1.
          1   -1    0    0  501    0  0.00000000000E+00 -0.00000000000E+00 -0.59539577148E+03  0.59539577148E+03  0.00000000000E+00 0. -1.
        -24    2    1    2    0    0  0.11614117826E+02 -0.98376795268E+02  0.42641940358E+03  0.44436210154E+03  0.76231804086E+02 0.  0.
        254    2    1    2    0    0 -0.11614117826E+02  0.98376795268E+02 -0.23029527371E+03  0.94255357128E+03  0.90860246536E+03 0.  0.
         23    2    4    4    0    0 -0.44802529721E+02  0.45346929613E+03  0.67887735148E+02  0.46874703561E+03  0.86448653044E+02 0.  0.
         23    2    4    4    0    0  0.33188411895E+02 -0.35509250086E+03 -0.29818300886E+03  0.47380653566E+03  0.91582594486E+02 0.  0.
          3    1    3    3  502    0 -0.19205603675E+02  0.16254111197E+01  0.47574300928E+02  0.51330412843E+02  0.00000000000E+00 0. -1.
         -4    1    3    3    0  502  0.30819721501E+02 -0.10000220639E+03  0.37884510265E+03  0.39303168869E+03  0.00000000000E+00 0.  1.
         11    1    5    5    0    0 -0.41056958161E+02  0.43895907228E+03  0.47474620117E+02  0.44342370314E+03  0.00000000000E+00 0. -1.
        -11    1    5    5    0    0 -0.37455715604E+01  0.14510223850E+02  0.20413115030E+02  0.25323332477E+02  0.00000000000E+00 0.  1.
          3    1    6    6  503    0 -0.46252648736E+01 -0.27583579535E+03 -0.19248250405E+03  0.33638711842E+03  0.00000000000E+00 0. -1.
         -3    1    6    6    0  503  0.37813676769E+02 -0.79256705508E+02 -0.10570050481E+03  0.13741941724E+03  0.00000000000E+00 0.  1.
<mgrwt>
<rscale>  0 0.13729787E+04</rscale>
<asrwt>0</asrwt>
<pdfrwt beam="1">  1        1 0.91599349E-01 0.13729787E+04</pdfrwt>
<pdfrwt beam="2">  1       -2 0.12177229E+00 0.13729787E+04</pdfrwt>
<totfact> 0.15155243E+01</totfact>
</mgrwt>
</event>
<event>
12    4  0.4398275E-008  0.2522866E+04  0.7818608E-02  0.8394884E-01
         -4   -1    0    0    0  501 -0.00000000000E+00  0.00000000000E+00  0.50771153657E+03  0.50771153657E+03  0.00000000000E+00 0.  1.
          1   -1    0    0  501    0  0.00000000000E+00 -0.00000000000E+00 -0.31340889223E+04  0.31340889223E+04  0.00000000000E+00 0. -1.
        -24    2    1    2    0    0  0.41363288512E+02  0.91233820877E+03 -0.19377982379E+04  0.21440110895E+04  0.87462061349E+02 0.  0.
        254    2    1    2    0    0 -0.41363288512E+02 -0.91233820877E+03 -0.68857914775E+03  0.14977893693E+04  0.96703661943E+03 0.  0.
         23    2    4    4    0    0 -0.48551972675E+03 -0.54688607446E+03 -0.48072468857E+03  0.87988304892E+03  0.91017416358E+02 0.  0.
         23    2    4    4    0    0  0.44415643824E+03 -0.36545213431E+03 -0.20785445918E+03  0.61790632040E+03  0.88173354780E+02 0.  0.
          3    1    3    3  502    0  0.28431495173E+02  0.66287282804E+03 -0.13126532143E+04  0.14708049486E+04  0.00000000000E+00 0. -1.
         -4    1    3    3    0  502  0.12931793338E+02  0.24946538073E+03 -0.62514502369E+03  0.67320614088E+03  0.00000000000E+00 0.  1.
         11    1    5    5    0    0 -0.42250800031E+03 -0.46883550102E+03 -0.37493143256E+03  0.73409353387E+03  0.00000000000E+00 0. -1.
        -11    1    5    5    0    0 -0.63011726435E+02 -0.78050573435E+02 -0.10579325601E+03  0.14578951505E+03  0.00000000000E+00 0.  1.
          1    1    6    6  503    0  0.43874692718E+03 -0.34356076715E+03 -0.20941026263E+03  0.59530288504E+03  0.00000000000E+00 0. -1.
         -1    1    6    6    0  503  0.54095110575E+01 -0.21891367158E+02  0.15558034569E+01  0.22603435366E+02  0.00000000000E+00 0.  1.
<mgrwt>
<rscale>  0 0.25228659E+04</rscale>
<asrwt>0</asrwt>
<pdfrwt beam="1">  1        1 0.48216752E+00 0.25228659E+04</pdfrwt>
<pdfrwt beam="2">  1       -4 0.78109468E-01 0.25228659E+04</pdfrwt>
<totfact> 0.30697282E-01</totfact>
</mgrwt>
</event>
<event>
12    4  0.4398275E-008  0.9129482E+03  0.7818608E-02  0.9409539E-01
          1   -1    0    0  501    0  0.00000000000E+00  0.00000000000E+00  0.69025678431E+03  0.69025678431E+03  0.00000000000E+00 0. -1.
         -2   -1    0    0    0  501 -0.00000000000E+00 -0.00000000000E+00 -0.30187116255E+03  0.30187116255E+03  0.00000000000E+00 0.  1.
        -24    2    1    2    0    0 -0.99561458122E+02 -0.58216104166E+02  0.15014641413E+03  0.20558695873E+03  0.80127730501E+02 0.  0.
        254    2    1    2    0    0  0.99561458122E+02  0.58216104166E+02  0.23823920763E+03  0.78654098813E+03  0.74066673155E+03 0.  0.
         23    2    4    4    0    0 -0.18349840846E+03  0.18688115350E+03 -0.12073859070E+03  0.30300950582E+03  0.92955483376E+02 0.  0.
         23    2    4    4    0    0  0.28305986658E+03 -0.12866504934E+03  0.35897779833E+03  0.48353148231E+03  0.90884826580E+02 0.  0.
          3    1    3    3  502    0 -0.94535460924E+02 -0.70674820545E+02  0.15153618540E+03  0.19208097021E+03  0.00000000000E+00 0. -1.
         -4    1    3    3    0  502 -0.50259971978E+01  0.12458716379E+02 -0.13897712707E+01  0.13505988517E+02  0.00000000000E+00 0.  1.
         11    1    5    5    0    0 -0.54915102441E+02  0.91687296670E+01 -0.42790240629E+02  0.70219219398E+02  0.00000000000E+00 0.  1.
        -11    1    5    5    0    0 -0.12858330602E+03  0.17771242384E+03 -0.77948350069E+02  0.23279028642E+03  0.00000000000E+00 0. -1.
          3    1    6    6  503    0  0.24881666001E+03 -0.12895640554E+03  0.34953031415E+03  0.44800772910E+03  0.00000000000E+00 0. -1.
         -3    1    6    6    0  503  0.34243206573E+02  0.29135619994E+00  0.94474841854E+01  0.35523753212E+02  0.00000000000E+00 0.  1.
<mgrwt>
<rscale>  0 0.91294823E+03</rscale>
<asrwt>0</asrwt>
<pdfrwt beam="1">  1        1 0.10619335E+00 0.91294823E+03</pdfrwt>
<pdfrwt beam="2">  1       -2 0.46441717E-01 0.91294823E+03</pdfrwt>
<totfact> 0.10792482E+02</totfact>
</mgrwt>
</event>
<event>
12    4  0.4398275E-008  0.2453987E+04  0.7818608E-02  0.8419564E-01
         -2   -1    0    0    0  501 -0.00000000000E+00  0.00000000000E+00  0.62357921366E+03  0.62357921366E+03  0.00000000000E+00 0.  1.
          1   -1    0    0  501    0  0.00000000000E+00 -0.00000000000E+00 -0.24143083673E+04  0.24143083673E+04  0.00000000000E+00 0. -1.
        -24    2    1    2    0    0 -0.18218302859E+03  0.44844504926E+02  0.51855898977E+03  0.55709253726E+03  0.79037862314E+02 0.  0.
        254    2    1    2    0    0  0.18218302859E+03 -0.44844504926E+02 -0.23092881434E+04  0.24807950437E+04  0.88675285961E+03 0.  0.
         23    2    4    4    0    0  0.36072143767E+03 -0.11370774848E+02 -0.22290551884E+04  0.22604303032E+04  0.10299938149E+03 0.  0.
         23    2    4    4    0    0 -0.17853840908E+03 -0.33473730078E+02 -0.80232955030E+02  0.22036474052E+03  0.95534484187E+02 0.  0.
          1    1    3    3  502    0 -0.57782301025E+01  0.19524090725E+02  0.10200807307E+03  0.10402031067E+03  0.00000000000E+00 0. -1.
         -2    1    3    3    0  502 -0.17640479849E+03  0.25320414201E+02  0.41655091670E+03  0.45307222659E+03  0.00000000000E+00 0.  1.
         11    1    5    5    0    0  0.27558505328E+03 -0.43987872366E+02 -0.15047783392E+04  0.15304378147E+04  0.00000000000E+00 0. -1.
        -11    1    5    5    0    0  0.85136384381E+02  0.32617097518E+02 -0.72427684919E+03  0.72999248850E+03  0.00000000000E+00 0.  1.
          2    1    6    6  503    0 -0.15031211412E+03 -0.63264057638E+02 -0.54608970147E+02  0.17198317435E+03  0.00000000000E+00 0. -1.
         -2    1    6    6    0  503 -0.28226294960E+02  0.29790327561E+02 -0.25623984883E+02  0.48381566165E+02  0.00000000000E+00 0.  1.
<mgrwt>
<rscale>  0 0.24539866E+04</rscale>
<asrwt>0</asrwt>
<pdfrwt beam="1">  1        1 0.37143206E+00 0.24539866E+04</pdfrwt>
<pdfrwt beam="2">  1       -2 0.95935262E-01 0.24539866E+04</pdfrwt>
<totfact> 0.11088920E+00</totfact>
</mgrwt>
</event>
<event>
12    4  0.4398275E-008  0.1463418E+04  0.7818608E-02  0.8909151E-01
          1   -1    0    0  501    0  0.00000000000E+00  0.00000000000E+00  0.32511925615E+03  0.32511925615E+03  0.00000000000E+00 0. -1.
         -2   -1    0    0    0  501 -0.00000000000E+00 -0.00000000000E+00 -0.16467738450E+04  0.16467738450E+04  0.00000000000E+00 0.  1.
        -24    2    1    2    0    0  0.37976361391E+03 -0.37672674255E+02 -0.70444312596E+03  0.80525253689E+03  0.80943792884E+02 0.  0.
        254    2    1    2    0    0 -0.37976361391E+03  0.37672674255E+02 -0.61721146293E+03  0.11666405643E+04  0.91348814086E+03 0.  0.
         23    2    4    4    0    0  0.12334199711E+03 -0.92656108148E+02  0.15122828989E+03  0.23445766102E+03  0.91115292469E+02 0.  0.
         23    2    4    4    0    0 -0.50310561102E+03  0.13032878240E+03 -0.76843975282E+03  0.93218290328E+03  0.91457444190E+02 0.  0.
          3    1    3    3  502    0  0.36530954013E+03 -0.32923963010E+02 -0.69844584496E+03  0.78889900862E+03  0.00000000000E+00 0. -1.
         -4    1    3    3    0  502  0.14454073784E+02 -0.47487112455E+01 -0.59972809986E+01  0.16353528268E+02  0.00000000000E+00 0.  1.
         11    1    5    5    0    0  0.48988689847E+02 -0.21470565777E+02  0.11233561890E+03  0.12441932407E+03  0.00000000000E+00 0.  1.
        -11    1    5    5    0    0  0.74353307260E+02 -0.71185542371E+02  0.38892670991E+02  0.11003833696E+03  0.00000000000E+00 0. -1.
          2    1    6    6  503    0 -0.22976193659E+03  0.75454882563E+02 -0.28183410322E+03  0.37136834619E+03  0.00000000000E+00 0. -1.
         -2    1    6    6    0  503 -0.27334367443E+03  0.54873899840E+02 -0.48660564960E+03  0.56081455710E+03  0.00000000000E+00 0.  1.
<mgrwt>
<rscale>  0 0.14634178E+04</rscale>
<asrwt>0</asrwt>
<pdfrwt beam="1">  1        1 0.50018346E-01 0.14634178E+04</pdfrwt>
<pdfrwt beam="2">  1       -2 0.25334983E+00 0.14634178E+04</pdfrwt>
<totfact> 0.41022681E+00</totfact>
</mgrwt>
</event>
<event>
12    4  0.4398275E-008  0.1110674E+04  0.7818608E-02  0.9194850E-01
          1   -1    0    0  501    0  0.00000000000E+00  0.00000000000E+00  0.54635657564E+03  0.54635657564E+03  0.00000000000E+00 0. -1.
         -2   -1    0    0    0  501 -0.00000000000E+00 -0.00000000000E+00 -0.56446547082E+03  0.56446547082E+03  0.00000000000E+00 0.  1.
        -24    2    1    2    0    0 -0.76208562190E+02 -0.16739252741E+03  0.16495714462E+02  0.19814989697E+03  0.71855896687E+02 0.  0.
        254    2    1    2    0    0  0.76208562190E+02  0.16739252741E+03 -0.34604609645E+02  0.91267214950E+03  0.89327765576E+03 0.  0.
         23    2    4    4    0    0  0.38769403920E+03 -0.91321121273E+02  0.17934933389E+03  0.44594587908E+03  0.89751480639E+02 0.  0.
         23    2    4    4    0    0 -0.31148547701E+03  0.25871364868E+03 -0.21395394354E+03  0.46672627042E+03  0.90006483890E+02 0.  0.
          1    1    3    3  502    0 -0.34843425942E+02 -0.24124765646E+02  0.24251853602E+02  0.48828486071E+02  0.00000000000E+00 0. -1.
         -2    1    3    3    0  502 -0.41365136248E+02 -0.14326776176E+03 -0.77561391399E+01  0.14932141089E+03  0.00000000000E+00 0.  1.
         11    1    5    5    0    0  0.57503395454E+02 -0.29838153460E+02  0.63356418966E+02  0.90614522649E+02  0.00000000000E+00 0.  1.
        -11    1    5    5    0    0  0.33019064375E+03 -0.61482967812E+02  0.11599291493E+03  0.35533135643E+03  0.00000000000E+00 0. -1.
          2    1    6    6  503    0 -0.29674490199E+03  0.25041411846E+03 -0.22276956010E+03  0.44765058303E+03  0.00000000000E+00 0. -1.
         -2    1    6    6    0  503 -0.14740575023E+02  0.82995302202E+01  0.88156165658E+01  0.19075687388E+02  0.00000000000E+00 0.  1.
<mgrwt>
<rscale>  0 0.11106744E+04</rscale>
<asrwt>0</asrwt>
<pdfrwt beam="1">  1        1 0.84054858E-01 0.11106744E+04</pdfrwt>
<pdfrwt beam="2">  1       -2 0.86840841E-01 0.11106744E+04</pdfrwt>
<totfact> 0.39153447E+01</totfact>
</mgrwt>
</event>
<event>
12    4  0.4398275E-008  0.1042415E+04  0.7818608E-02  0.9263210E-01
          1   -1    0    0  501    0  0.00000000000E+00  0.00000000000E+00  0.44493963146E+03  0.44493963146E+03  0.00000000000E+00 0. -1.
         -2   -1    0    0    0  501 -0.00000000000E+00 -0.00000000000E+00 -0.61054897137E+03  0.61054897137E+03  0.00000000000E+00 0.  1.
        -24    2    1    2    0    0  0.31071395902E+01 -0.10125067474E+03 -0.81464643094E+02  0.15220619258E+03  0.79176281383E+02 0.  0.
        254    2    1    2    0    0 -0.31071395902E+01  0.10125067474E+03 -0.84144696813E+02  0.90328241024E+03  0.89363159591E+03 0.  0.
         23    2    4    4    0    0 -0.26808057307E+03 -0.78429136185E+02 -0.36392022827E+03  0.46803240528E+03  0.92725815129E+02 0.  0.
         23    2    4    4    0    0  0.26497343348E+03  0.17967981092E+03  0.27977553145E+03  0.43525000496E+03  0.93126064614E+02 0.  0.
          1    1    3    3  502    0  0.17063722717E+02 -0.85168330372E+02 -0.22810078087E+02  0.89805984175E+02  0.00000000000E+00 0. -1.
         -2    1    3    3    0  502 -0.13956583127E+02 -0.16082344369E+02 -0.58654565007E+02  0.62400208406E+02  0.00000000000E+00 0.  1.
         11    1    5    5    0    0 -0.24638942732E+03 -0.44330535104E+02 -0.28480029366E+03  0.37918880984E+03  0.00000000000E+00 0. -1.
        -11    1    5    5    0    0 -0.21691145758E+02 -0.34098601080E+02 -0.79119934606E+02  0.88843595447E+02  0.00000000000E+00 0.  1.
          4    1    6    6  503    0  0.14906095650E+03  0.59945394545E+02  0.95969065551E+02  0.18714347604E+03  0.00000000000E+00 0. -1.
         -4    1    6    6    0  503  0.11591247698E+03  0.11973441638E+03  0.18380646590E+03  0.24810652892E+03  0.00000000000E+00 0.  1.
<mgrwt>
<rscale>  0 0.10424153E+04</rscale>
<asrwt>0</asrwt>
<pdfrwt beam="1">  1        1 0.68452251E-01 0.10424153E+04</pdfrwt>
<pdfrwt beam="2">  1       -2 0.93930610E-01 0.10424153E+04</pdfrwt>
<totfact> 0.43512997E+01</totfact>
</mgrwt>
</event>
<event>
12    4  0.4398275E-008  0.2097507E+04  0.7818608E-02  0.8562342E-01
          1   -1    0    0  501    0  0.00000000000E+00  0.00000000000E+00  0.26165020727E+04  0.26165020727E+04  0.00000000000E+00 0. -1.
         -2   -1    0    0    0  501 -0.00000000000E+00 -0.00000000000E+00 -0.42036439398E+03  0.42036439398E+03  0.00000000000E+00 0.  1.
        -24    2    1    2    0    0  0.58300556845E+02  0.74563756488E+03  0.15028950876E+04  0.16805661632E+04  0.78959809263E+02 0.  0.
        254    2    1    2    0    0 -0.58300556845E+02 -0.74563756488E+03  0.69324259106E+03  0.13563003034E+04  0.89419846226E+03 0.  0.
         23    2    4    4    0    0  0.73313179697E+02 -0.17359031185E+03  0.73152856768E+03  0.76112546657E+03  0.93110213404E+02 0.  0.
         23    2    4    4    0    0 -0.13161373654E+03 -0.57204725302E+03 -0.38285976618E+02  0.59517483685E+03  0.90592687764E+02 0.  0.
          1    1    3    3  502    0  0.29963519522E+02  0.54974103044E+03  0.10297964778E+04  0.11677301909E+04  0.00000000000E+00 0. -1.
         -2    1    3    3    0  502  0.28337037323E+02  0.19589653444E+03  0.47309860985E+03  0.51283597234E+03  0.00000000000E+00 0.  1.
         11    1    5    5    0    0  0.29653068052E+02 -0.15704871703E+03  0.49950208295E+03  0.52444821941E+03  0.00000000000E+00 0. -1.
        -11    1    5    5    0    0  0.43660111645E+02 -0.16541594820E+02  0.23202648473E+03  0.23667724717E+03  0.00000000000E+00 0.  1.
          3    1    6    6  503    0 -0.19167819904E+02 -0.11817350284E+02 -0.49560612105E+00  0.22523337076E+02  0.00000000000E+00 0. -1.
         -3    1    6    6    0  503 -0.11244591664E+03 -0.56022990274E+03 -0.37790370496E+02  0.57265149977E+03  0.00000000000E+00 0.  1.
<mgrwt>
<rscale>  0 0.20975074E+04</rscale>
<asrwt>0</asrwt>
<pdfrwt beam="1">  1        1 0.40253877E+00 0.20975074E+04</pdfrwt>
<pdfrwt beam="2">  1       -2 0.64671447E-01 0.20975074E+04</pdfrwt>
<totfact> 0.20050987E+00</totfact>
</mgrwt>
</event>
<event>
12    4  0.4398275E-008  0.2065347E+04  0.7818608E-02  0.8576664E-01
         -2   -1    0    0    0  501 -0.00000000000E+00  0.00000000000E+00  0.15926377259E+04  0.15926377259E+04  0.00000000000E+00 0.  1.
          1   -1    0    0  501    0  0.00000000000E+00 -0.00000000000E+00 -0.66958993159E+03  0.66958993159E+03  0.00000000000E+00 0. -1.
        -24    2    1    2    0    0  0.49190147907E+03 -0.46425788393E+03 -0.16236655989E+03  0.70026171167E+03  0.80629505476E+02 0.  0.
        254    2    1    2    0    0 -0.49190147907E+03  0.46425788393E+03  0.10854143541E+04  0.15619659458E+04  0.89672228012E+03 0.  0.
         23    2    4    4    0    0 -0.12606298423E+02 -0.23755684631E+03  0.15911965925E+03  0.30154447698E+03  0.94962264337E+02 0.  0.
         23    2    4    4    0    0 -0.47929518065E+03  0.70181473025E+03  0.92629469490E+03  0.12604214688E+04  0.91502084202E+02 0.  0.
          3    1    3    3  502    0  0.49030548304E+03 -0.44643127363E+03 -0.15546928887E+03  0.68108079445E+03  0.00000000000E+00 0. -1.
         -4    1    3    3    0  502  0.15959960291E+01 -0.17826610299E+02 -0.68972710151E+01  0.19180917224E+02  0.00000000000E+00 0.  1.
         11    1    5    5    0    0 -0.52298071151E+02 -0.10599760526E+03  0.63927864005E+02  0.13437764830E+03  0.00000000000E+00 0.  1.
        -11    1    5    5    0    0  0.39691772728E+02 -0.13155924106E+03  0.95191795244E+02  0.16716682868E+03  0.00000000000E+00 0. -1.
          3    1    6    6  503    0 -0.39373931202E+03  0.51909424538E+03  0.73802983303E+03  0.98446813857E+03  0.00000000000E+00 0. -1.
         -3    1    6    6    0  503 -0.85555868627E+02  0.18272048487E+03  0.18826486186E+03  0.27595333022E+03  0.00000000000E+00 0.  1.
<mgrwt>
<rscale>  0 0.20653466E+04</rscale>
<asrwt>0</asrwt>
<pdfrwt beam="1">  1        1 0.10301384E+00 0.20653466E+04</pdfrwt>
<pdfrwt beam="2">  1       -2 0.24502119E+00 0.20653466E+04</pdfrwt>
<totfact> 0.16232246E+00</totfact>
</mgrwt>
</event>
<event>
12    4  0.4398275E-008  0.1506444E+04  0.7818608E-02  0.8880179E-01
          1   -1    0    0  501    0  0.00000000000E+00  0.00000000000E+00  0.20396831066E+04  0.20396831066E+04  0.00000000000E+00 0. -1.
         -2   -1    0    0    0  501 -0.00000000000E+00 -0.00000000000E+00 -0.27815286972E+03  0.27815286972E+03  0.00000000000E+00 0.  1.
        -24    2    1    2    0    0  0.33987169247E+02  0.28831491609E+03 -0.11940235387E+02  0.30894444045E+03  0.10499275951E+03 0.  0.
        254    2    1    2    0    0 -0.33987169247E+02 -0.28831491609E+03  0.17734704722E+04  0.20088915358E+04  0.89786806848E+03 0.  0.
         23    2    4    4    0    0  0.14548061278E+03 -0.26662435196E+03  0.17769290114E+04  0.18049830990E+04  0.90742065623E+02 0.  0.
         23    2    4    4    0    0 -0.17946778203E+03 -0.21690564135E+02 -0.34585391409E+01  0.20390843684E+03  0.94273664210E+02 0.  0.
          3    1    3    3  502    0  0.48425358019E+02  0.17211908420E+03  0.36054199719E+02  0.18240038312E+03  0.00000000000E+00 0. -1.
         -4    1    3    3    0  502 -0.14438188772E+02  0.11619583190E+03 -0.47994435106E+02  0.12654405733E+03  0.00000000000E+00 0.  1.
         11    1    5    5    0    0  0.90665153520E+02 -0.23534693545E+03  0.13411886519E+04  0.13646960651E+04  0.00000000000E+00 0. -1.
        -11    1    5    5    0    0  0.54815459263E+02 -0.31277416511E+02  0.43574035948E+03  0.44028703392E+03  0.00000000000E+00 0.  1.
          2    1    6    6  503    0 -0.17094456602E+03  0.91841147912E+01  0.30777936617E+01  0.17121876483E+03  0.00000000000E+00 0. -1.
         -2    1    6    6    0  503 -0.85232160138E+01 -0.30874678927E+02 -0.65363328026E+01  0.32689672017E+02  0.00000000000E+00 0.  1.
<mgrwt>
<rscale>  0 0.15064444E+04</rscale>
<asrwt>0</asrwt>
<pdfrwt beam="1">  1        1 0.31379739E+00 0.15064444E+04</pdfrwt>
<pdfrwt beam="2">  1       -2 0.42792750E-01 0.15064444E+04</pdfrwt>
<totfact> 0.12316313E+01</totfact>
</mgrwt>
</event>
<event>
12    4  0.4398275E-008  0.1803055E+04  0.7818608E-02  0.8704677E-01
          1   -1    0    0  501    0  0.00000000000E+00  0.00000000000E+00  0.13503675101E+04  0.13503675101E+04  0.00000000000E+00 0. -1.
         -2   -1    0    0    0  501 -0.00000000000E+00 -0.00000000000E+00 -0.60187446728E+03  0.60187446728E+03  0.00000000000E+00 0.  1.
        -24    2    1    2    0    0  0.17268427264E+03 -0.11715342933E+03  0.10054005463E+04  0.10298442765E+04  0.78766688951E+02 0.  0.
        254    2    1    2    0    0 -0.17268427264E+03  0.11715342933E+03 -0.25690750345E+03  0.92239770091E+03  0.86097111990E+03 0.  0.
         23    2    4    4    0    0 -0.12527347665E+03  0.46546356996E+03 -0.23781544380E+02  0.49132449367E+03  0.92110896862E+02 0.  0.
         23    2    4    4    0    0 -0.47410795982E+02 -0.34831014062E+03 -0.23312595907E+03  0.43107320724E+03  0.88930644728E+02 0.  0.
          1    1    3    3  502    0  0.17538567356E+03 -0.12341601073E+03  0.94333286275E+03  0.96740298539E+03  0.00000000000E+00 0. -1.
         -2    1    3    3    0  502 -0.27014009224E+01  0.62625813924E+01  0.62067683547E+02  0.62441291094E+02  0.00000000000E+00 0.  1.
         11    1    5    5    0    0 -0.72810786375E+01  0.18553173529E+03  0.82486467399E+01  0.18585768501E+03  0.00000000000E+00 0.  1.
        -11    1    5    5    0    0 -0.11799239802E+03  0.27993183467E+03 -0.32030191120E+02  0.30546680866E+03  0.00000000000E+00 0. -1.
          4    1    6    6  503    0 -0.45447083372E+02 -0.35371787470E+03 -0.22740433047E+03  0.42295922000E+03  0.00000000000E+00 0. -1.
         -4    1    6    6    0  503 -0.19637126101E+01  0.54077340766E+01 -0.57216285980E+01  0.81139872363E+01  0.00000000000E+00 0.  1.
<mgrwt>
<rscale>  0 0.18030549E+04</rscale>
<asrwt>0</asrwt>
<pdfrwt beam="1">  1        1 0.20774885E+00 0.18030549E+04</pdfrwt>
<pdfrwt beam="2">  1       -2 0.92596072E-01 0.18030549E+04</pdfrwt>
<totfact> 0.68205272E+00</totfact>
</mgrwt>
</event>
<event>
12    4  0.4398275E-008  0.2154982E+04  0.7818608E-02  0.8537403E-01
         -2   -1    0    0    0  501 -0.00000000000E+00  0.00000000000E+00  0.60297971912E+03  0.60297971912E+03  0.00000000000E+00 0.  1.
          1   -1    0    0  501    0  0.00000000000E+00 -0.00000000000E+00 -0.19254154724E+04  0.19254154724E+04  0.00000000000E+00 0. -1.
        -24    2    1    2    0    0  0.24013470892E+03 -0.43537091923E+03  0.31593237467E+03  0.59451937825E+03  0.80171753178E+02 0.  0.
        254    2    1    2    0    0 -0.24013470892E+03  0.43537091923E+03 -0.16383681279E+04  0.19338758132E+04  0.89911791368E+03 0.  0.
         23    2    4    4    0    0 -0.94515481862E+02 -0.22713824567E+03 -0.85215567774E+03  0.89155546187E+03  0.90426122004E+02 0.  0.
         23    2    4    4    0    0 -0.14561922705E+03  0.66250916490E+03 -0.78621245018E+03  0.10423203514E+04  0.90434203634E+02 0.  0.
          3    1    3    3  502    0  0.20343938703E+03 -0.35299561228E+03  0.22067734751E+03  0.46334865726E+03  0.00000000000E+00 0. -1.
         -2    1    3    3    0  502  0.36695321884E+02 -0.82375306950E+02  0.95255027162E+02  0.13117072098E+03  0.00000000000E+00 0.  1.
         11    1    5    5    0    0 -0.63133292252E+00 -0.80954299104E+02 -0.18104169902E+03  0.19831816333E+03  0.00000000000E+00 0. -1.
        -11    1    5    5    0    0 -0.93884148939E+02 -0.14618394656E+03 -0.67111397872E+03  0.69323729854E+03  0.00000000000E+00 0.  1.
          1    1    6    6  503    0 -0.14201759142E+03  0.57752970231E+03 -0.72391891057E+03  0.93689281266E+03  0.00000000000E+00 0. -1.
         -1    1    6    6    0  503 -0.36016356342E+01  0.84979462588E+02 -0.62293539608E+02  0.10542753871E+03  0.00000000000E+00 0.  1.
<mgrwt>
<rscale>  0 0.21549817E+04</rscale>
<asrwt>0</asrwt>
<pdfrwt beam="1">  1        1 0.29621776E+00 0.21549817E+04</pdfrwt>
<pdfrwt beam="2">  1       -2 0.92766111E-01 0.21549817E+04</pdfrwt>
<totfact> 0.26519337E+00</totfact>
</mgrwt>
</event>
<event>
12    4  0.4398275E-008  0.2030839E+04  0.7818608E-02  0.8592337E-01
         -2   -1    0    0    0  501 -0.00000000000E+00  0.00000000000E+00  0.98627268649E+03  0.98627268649E+03  0.00000000000E+00 0.  1.
          1   -1    0    0  501    0  0.00000000000E+00 -0.00000000000E+00 -0.10454273363E+04  0.10454273363E+04  0.00000000000E+00 0. -1.
        -24    2    1    2    0    0  0.60604631756E+03 -0.38351681040E+03 -0.40365385645E+03  0.82723188632E+03  0.83659279432E+02 0.  0.
        254    2    1    2    0    0 -0.60604631756E+03  0.38351681040E+03  0.34449920666E+03  0.12044681364E+04  0.90426019786E+03 0.  0.
         23    2    4    4    0    0 -0.11913990379E+03  0.59595464914E+03  0.16418843020E+03  0.63625671523E+03  0.92241566370E+02 0.  0.
         23    2    4    4    0    0 -0.48690641376E+03 -0.21243783873E+03  0.18031077646E+03  0.56821142121E+03  0.90247171667E+02 0.  0.
          3    1    3    3  502    0  0.37745047657E+03 -0.20033374119E+03 -0.26802524954E+03  0.50442046401E+03  0.00000000000E+00 0. -1.
         -4    1    3    3    0  502  0.22859584099E+03 -0.18318306921E+03 -0.13562860692E+03  0.32281142231E+03  0.00000000000E+00 0.  1.
         11    1    5    5    0    0  0.80526777623E+01  0.25236102890E+02  0.22154859161E+02  0.34533234610E+02  0.00000000000E+00 0. -1.
        -11    1    5    5    0    0 -0.12719258155E+03  0.57071854625E+03  0.14203357104E+03  0.60172348062E+03  0.00000000000E+00 0.  1.
          1    1    6    6  503    0 -0.47922649590E+02  0.58760950482E+01  0.10924717365E+02  0.49502103857E+02  0.00000000000E+00 0. -1.
         -1    1    6    6    0  503 -0.43898376417E+03 -0.21831393378E+03  0.16938605910E+03  0.51870931735E+03  0.00000000000E+00 0.  1.
<mgrwt>
<rscale>  0 0.20308387E+04</rscale>
<asrwt>0</asrwt>
<pdfrwt beam="1">  1        1 0.16083498E+00 0.20308387E+04</pdfrwt>
<pdfrwt beam="2">  1       -2 0.15173426E+00 0.20308387E+04</pdfrwt>
<totfact> 0.32886645E+00</totfact>
</mgrwt>
</event>
<event>
12    4  0.4398275E-008  0.1815852E+04  0.7818608E-02  0.8697914E-01
          1   -1    0    0  501    0  0.00000000000E+00  0.00000000000E+00  0.93563634715E+03  0.93563634715E+03  0.00000000000E+00 0. -1.
         -2   -1    0    0    0  501 -0.00000000000E+00 -0.00000000000E+00 -0.88103680365E+03  0.88103680365E+03  0.00000000000E+00 0.  1.
        -24    2    1    2    0    0  0.16078886211E+03  0.65624399632E+03  0.69690135479E+02  0.68383286429E+03  0.79129200822E+02 0.  0.
        254    2    1    2    0    0 -0.16078886211E+03 -0.65624399632E+03 -0.15090591978E+02  0.11328402865E+04  0.90917003244E+03 0.  0.
         23    2    4    4    0    0  0.29644786022E+03 -0.39027917713E+03  0.22347074825E+03  0.54602812121E+03  0.89489462536E+02 0.  0.
         23    2    4    4    0    0 -0.45723672233E+03 -0.26596481919E+03 -0.23856134023E+03  0.58681216529E+03  0.87374475636E+02 0.  0.
          1    1    3    3  502    0  0.11260778944E+03  0.47432815225E+03  0.14534106042E+02  0.48772835728E+03  0.00000000000E+00 0. -1.
         -2    1    3    3    0  502  0.48181072669E+02  0.18191584406E+03  0.55156029436E+02  0.19610450701E+03  0.00000000000E+00 0.  1.
         11    1    5    5    0    0  0.11942247661E+03 -0.18304204507E+03  0.14544321144E+03  0.26252589575E+03  0.00000000000E+00 0. -1.
        -11    1    5    5    0    0  0.17702538361E+03 -0.20723713205E+03  0.78027536812E+02  0.28350222547E+03  0.00000000000E+00 0.  1.
          4    1    6    6  503    0 -0.35325105875E+03 -0.24505074867E+03 -0.18601510985E+03  0.46844188650E+03  0.00000000000E+00 0. -1.
         -4    1    6    6    0  503 -0.10398566358E+03 -0.20914070519E+02 -0.52546230371E+02  0.11837027880E+03  0.00000000000E+00 0.  1.
<mgrwt>
<rscale>  0 0.18158525E+04</rscale>
<asrwt>0</asrwt>
<pdfrwt beam="1">  1        1 0.14394405E+00 0.18158525E+04</pdfrwt>
<pdfrwt beam="2">  1       -2 0.13554412E+00 0.18158525E+04</pdfrwt>
<totfact> 0.54885257E+00</totfact>
</mgrwt>
</event>
<event>
12    4  0.4398275E-008  0.1925213E+04  0.7818608E-02  0.8642407E-01
         -2   -1    0    0    0  501 -0.00000000000E+00  0.00000000000E+00  0.51815721868E+03  0.51815721868E+03  0.00000000000E+00 0.  1.
          1   -1    0    0  501    0  0.00000000000E+00 -0.00000000000E+00 -0.17882825257E+04  0.17882825257E+04  0.00000000000E+00 0. -1.
        -24    2    1    2    0    0 -0.35762186417E+02  0.70850341297E+03 -0.81467693084E+03  0.10831339279E+04  0.78896032622E+02 0.  0.
        254    2    1    2    0    0  0.35762186417E+02 -0.70850341297E+03 -0.45544837616E+03  0.12233058165E+04  0.88644677057E+03 0.  0.
         23    2    4    4    0    0  0.28287887244E+03 -0.80014728359E+03 -0.32346342066E+03  0.91309994087E+03  0.94163610844E+02 0.  0.
         23    2    4    4    0    0 -0.24711668603E+03  0.91643870619E+02 -0.13198495551E+03  0.31020587558E+03  0.96656097734E+02 0.  0.
          1    1    3    3  502    0 -0.24912568162E+02  0.29059855953E+03 -0.27879480233E+03  0.40347825302E+03  0.00000000000E+00 0. -1.
         -2    1    3    3    0  502 -0.10849618255E+02  0.41790485344E+03 -0.53588212851E+03  0.67965567488E+03  0.00000000000E+00 0.  1.
         11    1    5    5    0    0  0.12119180412E+03 -0.27597322563E+03 -0.73252387389E+02  0.31018476254E+03  0.00000000000E+00 0.  1.
        -11    1    5    5    0    0  0.16168706832E+03 -0.52417405796E+03 -0.25021103327E+03  0.60291517833E+03  0.00000000000E+00 0. -1.
          2    1    6    6  503    0 -0.10027527768E+02  0.51484790975E+01  0.14526497251E+02  0.18386877727E+02  0.00000000000E+00 0. -1.
         -2    1    6    6    0  503 -0.23708915826E+03  0.86495391522E+02 -0.14651145276E+03  0.29181899785E+03  0.00000000000E+00 0.  1.
<mgrwt>
<rscale>  0 0.19252132E+04</rscale>
<asrwt>0</asrwt>
<pdfrwt beam="1">  1        1 0.27512039E+00 0.19252132E+04</pdfrwt>
<pdfrwt beam="2">  1       -2 0.79716495E-01 0.19252132E+04</pdfrwt>
<totfact> 0.47391524E+00</totfact>
</mgrwt>
</event>
<event>
12    4  0.4398275E-008  0.1934513E+04  0.7818608E-02  0.8637865E-01
         -2   -1    0    0    0  501 -0.00000000000E+00  0.00000000000E+00  0.16720043351E+04  0.16720043351E+04  0.00000000000E+00 0.  1.
          1   -1    0    0  501    0  0.00000000000E+00 -0.00000000000E+00 -0.55955931442E+03  0.55955931442E+03  0.00000000000E+00 0. -1.
        -24    2    1    2    0    0  0.13456087793E+03  0.31183672169E+03 -0.34163169169E+03  0.48823306875E+03  0.79438943768E+02 0.  0.
        254    2    1    2    0    0 -0.13456087793E+03 -0.31183672169E+03  0.14540767124E+04  0.17433305808E+04  0.89972976920E+03 0.  0.
         23    2    4    4    0    0  0.30932256071E+03 -0.38570618408E+03  0.73928275536E+03  0.89393461205E+03  0.90168682153E+02 0.  0.
         23    2    4    4    0    0 -0.44388343864E+03  0.73869462396E+02  0.71479395706E+03  0.84939596878E+03  0.89743557796E+02 0.  0.
          3    1    3    3  502    0  0.52370500391E+02  0.21418791394E+03 -0.20168286109E+03  0.29882287102E+03  0.00000000000E+00 0. -1.
         -4    1    3    3    0  502  0.82190377539E+02  0.97648807747E+02 -0.13994883060E+03  0.18941019772E+03  0.00000000000E+00 0.  1.
         11    1    5    5    0    0  0.17272156092E+03 -0.20104953738E+03  0.47363471509E+03  0.54275546743E+03  0.00000000000E+00 0.  1.
        -11    1    5    5    0    0  0.13660099978E+03 -0.18465664671E+03  0.26564804027E+03  0.35117914462E+03  0.00000000000E+00 0. -1.
          4    1    6    6  503    0 -0.60677208472E+02  0.80850447718E+01  0.16517818462E+03  0.17615596570E+03  0.00000000000E+00 0. -1.
         -4    1    6    6    0  503 -0.38320623016E+03  0.65784417624E+02  0.54961577244E+03  0.67324000308E+03  0.00000000000E+00 0.  1.
<mgrwt>
<rscale>  0 0.19345135E+04</rscale>
<asrwt>0</asrwt>
<pdfrwt beam="1">  1        1 0.86086049E-01 0.19345135E+04</pdfrwt>
<pdfrwt beam="2">  1       -2 0.25723143E+00 0.19345135E+04</pdfrwt>
<totfact> 0.17935580E+00</totfact>
</mgrwt>
</event>
<event>
12    4  0.4398275E-008  0.2318617E+04  0.7818608E-02  0.8470617E-01
         -2   -1    0    0    0  501 -0.00000000000E+00  0.00000000000E+00  0.52526263421E+03  0.52526263421E+03  0.00000000000E+00 0.  1.
          1   -1    0    0  501    0  0.00000000000E+00 -0.00000000000E+00 -0.25587132039E+04  0.25587132039E+04  0.00000000000E+00 0. -1.
        -24    2    1    2    0    0  0.20055706454E+03 -0.29841646430E+03 -0.20757724723E+04  0.21081850131E+04  0.79606348091E+02 0.  0.
        254    2    1    2    0    0 -0.20055706454E+03  0.29841646430E+03  0.42321902544E+02  0.97579082500E+03  0.90614627320E+03 0.  0.
         23    2    4    4    0    0  0.95602250302E+02  0.43225301418E+03 -0.26057162720E+03  0.52177124904E+03  0.91461494046E+02 0.  0.
         23    2    4    4    0    0 -0.29615931484E+03 -0.13383654988E+03  0.30289352974E+03  0.45401957597E+03  0.93630780998E+02 0.  0.
          1    1    3    3  502    0  0.17768617399E+03 -0.27254788199E+03 -0.19760140926E+04  0.20026198887E+04  0.00000000000E+00 0. -1.
         -2    1    3    3    0  502  0.22870890546E+02 -0.25868582316E+02 -0.99758379709E+02  0.10556512449E+03  0.00000000000E+00 0.  1.
         11    1    5    5    0    0  0.13461341690E+02  0.23832246224E+03 -0.16694254504E+03  0.29128785946E+03  0.00000000000E+00 0.  1.
        -11    1    5    5    0    0  0.82140908613E+02  0.19393055194E+03 -0.93629082162E+02  0.23048338958E+03  0.00000000000E+00 0. -1.
          3    1    6    6  503    0 -0.13938103893E+03 -0.78989628365E+02  0.89194865619E+02  0.18336346271E+03  0.00000000000E+00 0. -1.
         -3    1    6    6    0  503 -0.15677827591E+03 -0.54846921510E+02  0.21369866413E+03  0.27065611326E+03  0.00000000000E+00 0.  1.
<mgrwt>
<rscale>  0 0.23186172E+04</rscale>
<asrwt>0</asrwt>
<pdfrwt beam="1">  1        1 0.39364818E+00 0.23186172E+04</pdfrwt>
<pdfrwt beam="2">  1       -2 0.80809637E-01 0.23186172E+04</pdfrwt>
<totfact> 0.13215549E+00</totfact>
</mgrwt>
</event>
<event>
12    4  0.4398275E-008  0.2412672E+04  0.7818608E-02  0.8434775E-01
         -2   -1    0    0    0  501 -0.00000000000E+00  0.00000000000E+00  0.70305642320E+03  0.70305642320E+03  0.00000000000E+00 0.  1.
          1   -1    0    0  501    0  0.00000000000E+00 -0.00000000000E+00 -0.20698852132E+04  0.20698852132E+04  0.00000000000E+00 0. -1.
        -24    2    1    2    0    0 -0.14152841906E+03 -0.98642989084E+03 -0.25057050900E+03  0.10308734057E+04  0.82705354961E+02 0.  0.
        254    2    1    2    0    0  0.14152841906E+03  0.98642989084E+03 -0.11162582810E+04  0.17420682307E+04  0.89201734706E+03 0.  0.
         23    2    4    4    0    0  0.28997428780E+02 -0.12540529096E+03  0.29121341672E+01  0.15783013690E+03  0.91293667419E+02 0.  0.
         23    2    4    4    0    0  0.11253099028E+03  0.11118351818E+04 -0.11191704152E+04  0.15842380938E+04  0.91799914420E+02 0.  0.
          1    1    3    3  502    0 -0.35547072263E+02 -0.35434349089E+03 -0.51941677807E+02  0.35989004123E+03  0.00000000000E+00 0. -1.
         -2    1    3    3    0  502 -0.10598134680E+03 -0.63208639996E+03 -0.19862883119E+03  0.67098336452E+03  0.00000000000E+00 0.  1.
         11    1    5    5    0    0 -0.10732419393E+02 -0.15892283894E+02 -0.31040302111E+02  0.36486296997E+02  0.00000000000E+00 0. -1.
        -11    1    5    5    0    0  0.39729848173E+02 -0.10951300707E+03  0.33952436278E+02  0.12134383990E+03  0.00000000000E+00 0.  1.
          3    1    6    6  503    0  0.68187611829E+01  0.34776865738E+03 -0.39348501392E+03  0.52518567263E+03  0.00000000000E+00 0. -1.
         -3    1    6    6    0  503  0.10571222910E+03  0.76406652443E+03 -0.72568540127E+03  0.10590524212E+04  0.00000000000E+00 0.  1.
<mgrwt>
<rscale>  0 0.24126716E+04</rscale>
<asrwt>0</asrwt>
<pdfrwt beam="1">  1        1 0.31844387E+00 0.24126716E+04</pdfrwt>
<pdfrwt beam="2">  1       -2 0.10816253E+00 0.24126716E+04</pdfrwt>
<totfact> 0.14379482E+00</totfact>
</mgrwt>
</event>
<event>
12    4  0.4398275E-008  0.1696635E+04  0.7818608E-02  0.8763286E-01
         -2   -1    0    0    0  501 -0.00000000000E+00  0.00000000000E+00  0.15258061067E+04  0.15258061067E+04  0.00000000000E+00 0.  1.
          1   -1    0    0  501    0  0.00000000000E+00 -0.00000000000E+00 -0.47164760723E+03  0.47164760723E+03  0.00000000000E+00 0. -1.
        -24    2    1    2    0    0 -0.52748095185E+03 -0.43774652453E+02  0.27709924968E+02  0.53569192989E+03  0.77753643303E+02 0.  0.
        254    2    1    2    0    0  0.52748095185E+03  0.43774652453E+02  0.10264485745E+04  0.14617617841E+04  0.89610181478E+03 0.  0.
         23    2    4    4    0    0  0.14405032147E+03 -0.27670961562E+03  0.89498596642E+01  0.32461147957E+03  0.89296171174E+02 0.  0.
         23    2    4    4    0    0  0.38343063037E+03  0.32048426808E+03  0.10174987148E+04  0.11371503045E+04  0.89877504842E+02 0.  0.
          3    1    3    3  502    0 -0.31899315175E+03 -0.31443105936E+02  0.54463591935E+02  0.32513317675E+03  0.00000000000E+00 0. -1.
         -4    1    3    3    0  502 -0.20848780010E+03 -0.12331546517E+02 -0.26753666967E+02  0.21055875314E+03  0.00000000000E+00 0.  1.
         11    1    5    5    0    0  0.41900206664E+02 -0.10886543905E+03  0.44661132480E+02  0.12490767747E+03  0.00000000000E+00 0. -1.
        -11    1    5    5    0    0  0.10215011481E+03 -0.16784417658E+03 -0.35711272816E+02  0.19970380210E+03  0.00000000000E+00 0.  1.
          2    1    6    6  503    0  0.14201360221E+02  0.20617194229E+02  0.19986719919E+02  0.32034611019E+02  0.00000000000E+00 0. -1.
         -2    1    6    6    0  503  0.36922927015E+03  0.29986707385E+03  0.99751199493E+03  0.11051156935E+04  0.00000000000E+00 0.  1.
<mgrwt>
<rscale>  0 0.16966353E+04</rscale>
<asrwt>0</asrwt>
<pdfrwt beam="1">  1        1 0.72561171E-01 0.16966353E+04</pdfrwt>
<pdfrwt beam="2">  1       -2 0.23473940E+00 0.16966353E+04</pdfrwt>
<totfact> 0.31928251E+00</totfact>
</mgrwt>
</event>
<event>
12    4  0.4398275E-008  0.1716663E+04  0.7818608E-02  0.8751917E-01
         -2   -1    0    0    0  501 -0.00000000000E+00  0.00000000000E+00  0.61208206979E+03  0.61208206979E+03  0.00000000000E+00 0.  1.
          1   -1    0    0  501    0  0.00000000000E+00 -0.00000000000E+00 -0.12036509863E+04  0.12036509863E+04  0.00000000000E+00 0. -1.
        -24    2    1    2    0    0 -0.43279884325E+02  0.24596912593E+03  0.38334299064E+03  0.46417933299E+03  0.78336743675E+02 0.  0.
        254    2    1    2    0    0  0.43279884325E+02 -0.24596912593E+03 -0.97491190717E+03  0.13515537231E+04  0.90214759349E+03 0.  0.
         23    2    4    4    0    0 -0.47464206107E+02  0.32102974808E+03 -0.23842529720E+03  0.41270070631E+03  0.90345451622E+02 0.  0.
         23    2    4    4    0    0  0.90744090432E+02 -0.56699887402E+03 -0.73648660997E+03  0.93885301681E+03  0.96489623415E+02 0.  0.
          3    1    3    3  502    0 -0.64464504885E+01 -0.48346943905E+01  0.89774320230E+01  0.12063385904E+02  0.00000000000E+00 0. -1.
         -4    1    3    3    0  502 -0.36833433836E+02  0.25080382032E+03  0.37436555861E+03  0.45211594709E+03  0.00000000000E+00 0.  1.
         11    1    5    5    0    0 -0.32004600187E+02  0.29220231913E+03 -0.24067948179E+03  0.37991196704E+03  0.00000000000E+00 0.  1.
        -11    1    5    5    0    0 -0.15459605921E+02  0.28827428948E+02  0.22541845945E+01  0.32788739274E+02  0.00000000000E+00 0. -1.
          3    1    6    6  503    0  0.35533514840E+02 -0.34345452546E+03 -0.50984099325E+03  0.61576089527E+03  0.00000000000E+00 0. -1.
         -3    1    6    6    0  503  0.55210575592E+02 -0.22354434855E+03 -0.22664561671E+03  0.32309212154E+03  0.00000000000E+00 0.  1.
<mgrwt>
<rscale>  0 0.17166633E+04</rscale>
<asrwt>0</asrwt>
<pdfrwt beam="1">  1        1 0.18517707E+00 0.17166633E+04</pdfrwt>
<pdfrwt beam="2">  1       -2 0.94166473E-01 0.17166633E+04</pdfrwt>
<totfact> 0.84218555E+00</totfact>
</mgrwt>
</event>
<event>
12    4  0.4398275E-008  0.1572225E+04  0.7818608E-02  0.8837795E-01
          1   -1    0    0  501    0  0.00000000000E+00  0.00000000000E+00  0.10177645699E+04  0.10177645699E+04  0.00000000000E+00 0. -1.
         -2   -1    0    0    0  501 -0.00000000000E+00 -0.00000000000E+00 -0.60718665192E+03  0.60718665192E+03  0.00000000000E+00 0.  1.
        -24    2    1    2    0    0 -0.26936504605E+03 -0.10922123539E+03 -0.31980266137E+03  0.43941023375E+03  0.79503490539E+02 0.  0.
        254    2    1    2    0    0  0.26936504605E+03  0.10922123539E+03  0.73038057935E+03  0.11855409881E+04  0.88744849845E+03 0.  0.
         23    2    4    4    0    0  0.17319091884E+03  0.30799071830E+03  0.84440655319E+03  0.91959728038E+03  0.88223319391E+02 0.  0.
         23    2    4    4    0    0  0.96174127209E+02 -0.19876948291E+03 -0.11402597384E+03  0.26594370769E+03  0.94685600100E+02 0.  0.
          3    1    3    3  502    0 -0.29825168372E+02 -0.11362545293E+02 -0.81937372232E+02  0.87933958584E+02  0.00000000000E+00 0. -1.
         -4    1    3    3    0  502 -0.23953987768E+03 -0.97858690093E+02 -0.23786528914E+03  0.35147627516E+03  0.00000000000E+00 0.  1.
         11    1    5    5    0    0  0.11778418285E+03  0.14555057511E+03  0.36176056847E+03  0.40734358047E+03  0.00000000000E+00 0.  1.
        -11    1    5    5    0    0  0.55406735989E+02  0.16244014319E+03  0.48264598471E+03  0.51225369991E+03  0.00000000000E+00 0. -1.
          1    1    6    6  503    0  0.93617356706E+02 -0.20271902345E+03 -0.12364211016E+03  0.25523828739E+03  0.00000000000E+00 0. -1.
         -1    1    6    6    0  503  0.25567705034E+01  0.39495405400E+01  0.96161363226E+01  0.10705420293E+02  0.00000000000E+00 0.  1.
<mgrwt>
<rscale>  0 0.15722253E+04</rscale>
<asrwt>0</asrwt>
<pdfrwt beam="1">  1        1 0.15657916E+00 0.15722253E+04</pdfrwt>
<pdfrwt beam="2">  1       -2 0.93413331E-01 0.15722253E+04</pdfrwt>
<totfact> 0.11978796E+01</totfact>
</mgrwt>
</event>
<event>
12    4  0.4398275E-008  0.1450709E+04  0.7818608E-02  0.8917909E-01
          1   -1    0    0  501    0  0.00000000000E+00  0.00000000000E+00  0.38455756321E+03  0.38455756321E+03  0.00000000000E+00 0. -1.
         -2   -1    0    0    0  501 -0.00000000000E+00 -0.00000000000E+00 -0.13681679035E+04  0.13681679035E+04  0.00000000000E+00 0.  1.
        -24    2    1    2    0    0  0.23368074732E+03  0.60974843403E+02  0.13817426570E+03  0.28944319077E+03  0.79753431190E+02 0.  0.
        254    2    1    2    0    0 -0.23368074732E+03 -0.60974843403E+02 -0.11217846060E+04  0.14632822760E+04  0.90800313526E+03 0.  0.
         23    2    4    4    0    0 -0.25818325520E+03 -0.18041259840E+03 -0.12326611580E+04  0.12753831650E+04  0.89114466307E+02 0.  0.
         23    2    4    4    0    0  0.24502507881E+02  0.11943775500E+03  0.11087655196E+03  0.18789911101E+03  0.90259159823E+02 0.  0.
          1    1    3    3  502    0  0.18432247572E+03  0.73979210850E+02  0.85939050779E+02  0.21640984068E+03  0.00000000000E+00 0. -1.
         -2    1    3    3    0  502  0.49358271601E+02 -0.13004367448E+02  0.52235214923E+02  0.73033350096E+02  0.00000000000E+00 0.  1.
         11    1    5    5    0    0 -0.18286972934E+03 -0.17286215293E+03 -0.95050748149E+03  0.98325334181E+03  0.00000000000E+00 0. -1.
        -11    1    5    5    0    0 -0.75313525854E+02 -0.75504454665E+01 -0.28215367652E+03  0.29212982315E+03  0.00000000000E+00 0.  1.
          2    1    6    6  503    0  0.19137361743E+02  0.11165666472E+03  0.12639277617E+03  0.16973091427E+03  0.00000000000E+00 0. -1.
         -2    1    6    6    0  503  0.53651461373E+01  0.77810902780E+01 -0.15516224210E+02  0.18168196738E+02  0.00000000000E+00 0.  1.
<mgrwt>
<rscale>  0 0.14507092E+04</rscale>
<asrwt>0</asrwt>
<pdfrwt beam="1">  1        1 0.59162702E-01 0.14507092E+04</pdfrwt>
<pdfrwt beam="2">  1       -2 0.21048737E+00 0.14507092E+04</pdfrwt>
<totfact> 0.60957147E+00</totfact>
</mgrwt>
</event>
<event>
12    4  0.4398275E-008  0.1207634E+04  0.7818608E-02  0.9106201E-01
         -2   -1    0    0    0  501 -0.00000000000E+00  0.00000000000E+00  0.23119650726E+03  0.23119650726E+03  0.00000000000E+00 0.  1.
          1   -1    0    0  501    0  0.00000000000E+00 -0.00000000000E+00 -0.15769918419E+04  0.15769918419E+04  0.00000000000E+00 0. -1.
        -24    2    1    2    0    0 -0.68208066950E+02 -0.99599262605E+02  0.39270128370E+02  0.15025295617E+03  0.80383172042E+02 0.  0.
        254    2    1    2    0    0  0.68208066950E+02  0.99599262605E+02 -0.13850654630E+04  0.16579353930E+04  0.90320046334E+03 0.  0.
         23    2    4    4    0    0  0.28199721159E+03 -0.25065346967E+03 -0.10489343109E+04  0.11184862575E+04  0.91644587991E+02 0.  0.
         23    2    4    4    0    0 -0.21378914464E+03  0.35025273227E+03 -0.33613115212E+03  0.53944913546E+03  0.98175574820E+02 0.  0.
          1    1    3    3  502    0  0.89087464321E+01  0.34471191684E+01 -0.86769196758E+01  0.12904934274E+02  0.00000000000E+00 0. -1.
         -2    1    3    3    0  502 -0.77116813382E+02 -0.10304638177E+03  0.47947048046E+02  0.13734802190E+03  0.00000000000E+00 0.  1.
         11    1    5    5    0    0  0.20514588824E+03 -0.18826082960E+03 -0.64374788399E+03  0.70138314320E+03  0.00000000000E+00 0.  1.
        -11    1    5    5    0    0  0.76851323351E+02 -0.62392640065E+02 -0.40518642689E+03  0.41710311431E+03  0.00000000000E+00 0. -1.
          1    1    6    6  503    0 -0.37359924059E+02  0.43637239760E+02 -0.10012937376E+02  0.58311504306E+02  0.00000000000E+00 0. -1.
         -1    1    6    6    0  503 -0.17642922059E+03  0.30661549251E+03 -0.32611821474E+03  0.48113763115E+03  0.00000000000E+00 0.  1.
<mgrwt>
<rscale>  0 0.12076341E+04</rscale>
<asrwt>0</asrwt>
<pdfrwt beam="1">  1        1 0.24261412E+00 0.12076341E+04</pdfrwt>
<pdfrwt beam="2">  1       -2 0.35568695E-01 0.12076341E+04</pdfrwt>
<totfact> 0.37315073E+01</totfact>
</mgrwt>
</event>
<event>
12    4  0.4398275E-008  0.1188526E+04  0.7818608E-02  0.9122960E-01
         -2   -1    0    0    0  501 -0.00000000000E+00  0.00000000000E+00  0.21571699400E+04  0.21571699400E+04  0.00000000000E+00 0.  1.
          1   -1    0    0  501    0  0.00000000000E+00 -0.00000000000E+00 -0.16370908091E+03  0.16370908091E+03  0.00000000000E+00 0. -1.
        -24    2    1    2    0    0  0.88255372383E+02 -0.12452579679E+03  0.66745407914E+02  0.18451792590E+03  0.79348791294E+02 0.  0.
        254    2    1    2    0    0 -0.88255372383E+02  0.12452579679E+03  0.19267154512E+04  0.21363610950E+04  0.91022558394E+03 0.  0.
         23    2    4    4    0    0 -0.28714332020E+03 -0.27500106172E+03  0.12905435453E+04  0.13534863003E+04  0.91354543777E+02 0.  0.
         23    2    4    4    0    0  0.19888794782E+03  0.39952685850E+03  0.63617190589E+03  0.78287479467E+03  0.94868982430E+02 0.  0.
          1    1    3    3  502    0  0.87396248338E+02 -0.11459076943E+03  0.31005186060E+02  0.14741258503E+03  0.00000000000E+00 0. -1.
         -2    1    3    3    0  502  0.85912404503E+00 -0.99350273546E+01  0.35740221854E+02  0.37105340867E+02  0.00000000000E+00 0.  1.
         11    1    5    5    0    0 -0.22907755710E+03 -0.23204634549E+03  0.92273317522E+03  0.97865139160E+03  0.00000000000E+00 0. -1.
        -11    1    5    5    0    0 -0.58065763102E+02 -0.42954716223E+02  0.36781037006E+03  0.37483490874E+03  0.00000000000E+00 0.  1.
          2    1    6    6  503    0  0.19514681781E+03  0.39590910944E+03  0.63924782779E+03  0.77682951075E+03  0.00000000000E+00 0. -1.
         -2    1    6    6    0  503  0.37411300085E+01  0.36177490642E+01 -0.30759219037E+01  0.60452839131E+01  0.00000000000E+00 0.  1.
<mgrwt>
<rscale>  0 0.11885257E+04</rscale>
<asrwt>0</asrwt>
<pdfrwt beam="1">  1        1 0.25186014E-01 0.11885257E+04</pdfrwt>
<pdfrwt beam="2">  1       -2 0.33187228E+00 0.11885257E+04</pdfrwt>
<totfact> 0.34156019E+00</totfact>
</mgrwt>
</event>
<event>
12    4  0.4398275E-008  0.1253734E+04  0.7818608E-02  0.9067081E-01
          3   -1    0    0  501    0  0.00000000000E+00  0.00000000000E+00  0.95269522658E+03  0.95269522658E+03  0.00000000000E+00 0. -1.
         -4   -1    0    0    0  501 -0.00000000000E+00 -0.00000000000E+00 -0.41247435821E+03  0.41247435821E+03  0.00000000000E+00 0.  1.
        -24    2    1    2    0    0 -0.46626877669E+02  0.85539802406E+02  0.46121090709E+03  0.47795481055E+03  0.78956802036E+02 0.  0.
        254    2    1    2    0    0  0.46626877669E+02 -0.85539802406E+02  0.79009961277E+02  0.88721477425E+03  0.87830311291E+03 0.  0.
         23    2    4    4    0    0  0.36265054519E+03  0.22039428905E+03  0.22064917061E+02  0.43470976602E+03  0.91633288346E+02 0.  0.
         23    2    4    4    0    0 -0.31602366752E+03 -0.30593409146E+03  0.56945044216E+02  0.45250500823E+03  0.89729692197E+02 0.  0.
          3    1    3    3  502    0  0.20180849553E+02  0.24799181455E+02  0.17305311254E+03  0.17598194751E+03  0.00000000000E+00 0. -1.
         -4    1    3    3    0  502 -0.66807727222E+02  0.60740620951E+02  0.28815779455E+03  0.30197286304E+03  0.00000000000E+00 0.  1.
         11    1    5    5    0    0  0.68346219116E+02  0.81034332721E+02 -0.14644399798E+02  0.10701507928E+03  0.00000000000E+00 0. -1.
        -11    1    5    5    0    0  0.29430432608E+03  0.13935995633E+03  0.36709316859E+02  0.32769468674E+03  0.00000000000E+00 0.  1.
          2    1    6    6  503    0 -0.19598287791E+03 -0.16214026435E+03 -0.73447981524E+01  0.25446551794E+03  0.00000000000E+00 0.  1.
         -2    1    6    6    0  503 -0.12004078961E+03 -0.14379382710E+03  0.64289842369E+02  0.19803949029E+03  0.00000000000E+00 0. -1.
<mgrwt>
<rscale>  0 0.12537342E+04</rscale>
<asrwt>0</asrwt>
<pdfrwt beam="1">  1        3 0.14656850E+00 0.12537342E+04</pdfrwt>
<pdfrwt beam="2">  1       -4 0.63457593E-01 0.12537342E+04</pdfrwt>
<totfact> 0.17956054E+00</totfact>
</mgrwt>
</event>
<event>
12    4  0.4398275E-008  0.1440159E+04  0.7818608E-02  0.8925252E-01
         -2   -1    0    0    0  501 -0.00000000000E+00  0.00000000000E+00  0.37526553620E+03  0.37526553620E+03  0.00000000000E+00 0.  1.
          3   -1    0    0  501    0  0.00000000000E+00 -0.00000000000E+00 -0.13817262837E+04  0.13817262837E+04  0.00000000000E+00 0. -1.
        -24    2    1    2    0    0 -0.13974533614E+03 -0.44684473107E+03 -0.36797237058E+03  0.60088792503E+03  0.80396892134E+02 0.  0.
        254    2    1    2    0    0  0.13974533614E+03  0.44684473107E+03 -0.63848837695E+03  0.11561038949E+04  0.84244277887E+03 0.  0.
         23    2    4    4    0    0  0.37812797985E+03  0.81886154145E+02 -0.24862242101E+02  0.39806830351E+03  0.90300231414E+02 0.  0.
         23    2    4    4    0    0 -0.23838264371E+03  0.36495857693E+03 -0.61362613485E+03  0.75803559140E+03  0.89776816412E+02 0.  0.
          1    1    3    3  502    0 -0.95365933835E+02 -0.22172894386E+03 -0.14860062860E+03  0.28344405568E+03  0.00000000000E+00 0. -1.
         -2    1    3    3    0  502 -0.44379402310E+02 -0.22511578722E+03 -0.21937174198E+03  0.31744386934E+03  0.00000000000E+00 0.  1.
         11    1    5    5    0    0  0.12663524444E+03  0.70563399991E+02  0.12227497660E+01  0.14497301014E+03  0.00000000000E+00 0.  1.
        -11    1    5    5    0    0  0.25149273541E+03  0.11322754154E+02 -0.26084991867E+02  0.25309529337E+03  0.00000000000E+00 0. -1.
          2    1    6    6  503    0 -0.23134811515E+03  0.36584346790E+03 -0.61364151848E+03  0.75094560828E+03  0.00000000000E+00 0. -1.
         -2    1    6    6    0  503 -0.70345285517E+01 -0.88489096673E+00  0.15383636725E-01  0.70899831187E+01  0.00000000000E+00 0.  1.
<mgrwt>
<rscale>  0 0.14401587E+04</rscale>
<asrwt>0</asrwt>
<pdfrwt beam="1">  1        3 0.21257327E+00 0.14401587E+04</pdfrwt>
<pdfrwt beam="2">  1       -2 0.57733160E-01 0.14401587E+04</pdfrwt>
<totfact> 0.13766997E+00</totfact>
</mgrwt>
</event>
<event>
12    4  0.4398275E-008  0.1800422E+04  0.7818608E-02  0.8706075E-01
          1   -1    0    0  501    0  0.00000000000E+00  0.00000000000E+00  0.23719846970E+04  0.23719846970E+04  0.00000000000E+00 0. -1.
         -2   -1    0    0    0  501 -0.00000000000E+00 -0.00000000000E+00 -0.34164644618E+03  0.34164644618E+03  0.00000000000E+00 0.  1.
        -24    2    1    2    0    0  0.60419428582E+03 -0.24791798333E+03  0.10367372486E+04  0.12279292690E+04  0.80449397438E+02 0.  0.
        254    2    1    2    0    0 -0.60419428582E+03  0.24791798333E+03  0.99360100225E+03  0.14857018742E+04  0.89081594388E+03 0.  0.
         23    2    4    4    0    0 -0.64270698920E+03  0.39603830346E+03  0.38908913394E+03  0.85502433001E+03  0.98780762214E+02 0.  0.
         23    2    4    4    0    0  0.38512703376E+02 -0.14812032013E+03  0.60451186831E+03  0.63067754420E+03  0.94322363618E+02 0.  0.
          3    1    3    3  502    0  0.38273613460E+03 -0.15031893831E+03  0.72227755390E+03  0.83112429685E+03  0.00000000000E+00 0. -1.
         -4    1    3    3    0  502  0.22145815122E+03 -0.97599045017E+02  0.31445969469E+03  0.39680497214E+03  0.00000000000E+00 0.  1.
         11    1    5    5    0    0 -0.44831797691E+03  0.30384345588E+03  0.32002150973E+03  0.62906567288E+03  0.00000000000E+00 0.  1.
        -11    1    5    5    0    0 -0.19438901229E+03  0.92194847573E+02  0.69067624214E+02  0.22595865713E+03  0.00000000000E+00 0. -1.
          1    1    6    6  503    0  0.39944349899E+02 -0.15776059848E+02  0.95006180163E+02  0.10426221474E+03  0.00000000000E+00 0. -1.
         -1    1    6    6    0  503 -0.14316465222E+01 -0.13234426028E+03  0.50950568814E+03  0.52641532946E+03  0.00000000000E+00 0.  1.
<mgrwt>
<rscale>  0 0.18004223E+04</rscale>
<asrwt>0</asrwt>
<pdfrwt beam="1">  1        1 0.36492071E+00 0.18004223E+04</pdfrwt>
<pdfrwt beam="2">  1       -2 0.52560993E-01 0.18004223E+04</pdfrwt>
<totfact> 0.47043127E+00</totfact>
</mgrwt>
</event>
<event>
12    4  0.4398275E-008  0.1709428E+04  0.7818608E-02  0.8756005E-01
         -2   -1    0    0    0  501 -0.00000000000E+00  0.00000000000E+00  0.53178483117E+03  0.53178483117E+03  0.00000000000E+00 0.  1.
          1   -1    0    0  501    0  0.00000000000E+00 -0.00000000000E+00 -0.13737441373E+04  0.13737441373E+04  0.00000000000E+00 0. -1.
        -24    2    1    2    0    0 -0.23986944179E+03  0.27089343164E+03 -0.87150324230E+03  0.94701216455E+03  0.79959602629E+02 0.  0.
        254    2    1    2    0    0  0.23986944179E+03 -0.27089343164E+03  0.29543936188E+02  0.95851680391E+03  0.88710823398E+03 0.  0.
         23    2    4    4    0    0  0.14840426513E+03 -0.57843994887E+03  0.11291823984E+03  0.61443974757E+03  0.90382930576E+02 0.  0.
         23    2    4    4    0    0  0.91465176660E+02  0.30754651723E+03 -0.83374303649E+02  0.34407705634E+03  0.92124955306E+02 0.  0.
          3    1    3    3  502    0 -0.11467157410E+03  0.18691645648E+03 -0.54081334907E+03  0.58358068007E+03  0.00000000000E+00 0. -1.
         -4    1    3    3    0  502 -0.12519786769E+03  0.83976975161E+02 -0.33068989323E+03  0.36343148448E+03  0.00000000000E+00 0.  1.
         11    1    5    5    0    0  0.42141704632E+02 -0.13900093085E+03 -0.10987463396E+02  0.14566367563E+03  0.00000000000E+00 0.  1.
        -11    1    5    5    0    0  0.10626256050E+03 -0.43943901802E+03  0.12390570323E+03  0.46877607194E+03  0.00000000000E+00 0. -1.
          3    1    6    6  503    0  0.93584290511E+02  0.31064997499E+03 -0.72321821643E+02  0.33240317729E+03  0.00000000000E+00 0. -1.
         -3    1    6    6    0  503 -0.21191138516E+01 -0.31034577551E+01 -0.11052482006E+02  0.11673879049E+02  0.00000000000E+00 0.  1.
<mgrwt>
<rscale>  0 0.17094283E+04</rscale>
<asrwt>0</asrwt>
<pdfrwt beam="1">  1        1 0.21134525E+00 0.17094283E+04</pdfrwt>
<pdfrwt beam="2">  1       -2 0.81813053E-01 0.17094283E+04</pdfrwt>
<totfact> 0.87894419E+00</totfact>
</mgrwt>
</event>
<event>
12    4  0.4398275E-008  0.1742471E+04  0.7818608E-02  0.8737505E-01
         -2   -1    0    0    0  501 -0.00000000000E+00  0.00000000000E+00  0.14338042452E+04  0.14338042452E+04  0.00000000000E+00 0.  1.
          1   -1    0    0  501    0  0.00000000000E+00 -0.00000000000E+00 -0.52939695671E+03  0.52939695671E+03  0.00000000000E+00 0. -1.
        -24    2    1    2    0    0  0.16526534005E+02  0.34821686439E+03 -0.26553451866E+03  0.44538838831E+03  0.79587215501E+02 0.  0.
        254    2    1    2    0    0 -0.16526534005E+02 -0.34821686439E+03  0.11699418071E+04  0.15178128136E+04  0.90192227716E+03 0.  0.
         23    2    4    4    0    0 -0.30686704599E+03 -0.19379503386E+03  0.89744133046E+02  0.38493340268E+03  0.91628685584E+02 0.  0.
         23    2    4    4    0    0  0.29034051199E+03 -0.15442183054E+03  0.10801976741E+04  0.11328794109E+04  0.91896843828E+02 0.  0.
          3    1    3    3  502    0  0.40058186401E+02  0.26218359524E+03 -0.22325819001E+03  0.34668301850E+03  0.00000000000E+00 0. -1.
         -2    1    3    3    0  502 -0.23531652396E+02  0.86033269152E+02 -0.42276328647E+02  0.98705369810E+02  0.00000000000E+00 0.  1.
         11    1    5    5    0    0 -0.31052826115E+03 -0.19362135868E+03  0.95414881200E+02  0.37818121458E+03  0.00000000000E+00 0. -1.
        -11    1    5    5    0    0  0.36612151575E+01 -0.17367517684E+00 -0.56707481548E+01  0.67521880995E+01  0.00000000000E+00 0.  1.
          4    1    6    6  503    0  0.27515661844E+03 -0.11504902112E+03  0.91507956560E+03  0.96245418245E+03  0.00000000000E+00 0. -1.
         -4    1    6    6    0  503  0.15183893543E+02 -0.39372809419E+02  0.16511810848E+03  0.17042522845E+03  0.00000000000E+00 0.  1.
<mgrwt>
<rscale>  0 0.17424714E+04</rscale>
<asrwt>0</asrwt>
<pdfrwt beam="1">  1        1 0.81445686E-01 0.17424714E+04</pdfrwt>
<pdfrwt beam="2">  1       -2 0.22058527E+00 0.17424714E+04</pdfrwt>
<totfact> 0.33262546E+00</totfact>
</mgrwt>
</event>
<event>
12    4  0.4398275E-008  0.1447644E+04  0.7818608E-02  0.8920036E-01
         -2   -1    0    0    0  501 -0.00000000000E+00  0.00000000000E+00  0.64164137332E+03  0.64164137332E+03  0.00000000000E+00 0.  1.
          1   -1    0    0  501    0  0.00000000000E+00 -0.00000000000E+00 -0.81652777723E+03  0.81652777723E+03  0.00000000000E+00 0. -1.
        -24    2    1    2    0    0  0.15567454671E+03 -0.47669685616E+02  0.36572276923E+03  0.40817922016E+03  0.79687943972E+02 0.  0.
        254    2    1    2    0    0 -0.15567454671E+03  0.47669685616E+02 -0.54060917313E+03  0.10499899304E+04  0.88527600919E+03 0.  0.
         23    2    4    4    0    0 -0.92396277976E+02 -0.31609150712E+03 -0.57415011560E+03  0.66804659185E+03  0.90481935114E+02 0.  0.
         23    2    4    4    0    0 -0.63278268739E+02  0.36376119273E+03  0.33540942466E+02  0.38194333855E+03  0.91811624603E+02 0.  0.
          1    1    3    3  502    0  0.90163888066E+02  0.46673192279E+01  0.13245242101E+03  0.16029645789E+03  0.00000000000E+00 0. -1.
         -2    1    3    3    0  502  0.65510658649E+02 -0.52337004844E+02  0.23327034821E+03  0.24788276226E+03  0.00000000000E+00 0.  1.
         11    1    5    5    0    0 -0.36645928144E+02 -0.22960380950E+03 -0.45228512260E+03  0.50854957036E+03  0.00000000000E+00 0. -1.
        -11    1    5    5    0    0 -0.55750349832E+02 -0.86487697616E+02 -0.12186499300E+03  0.15949702149E+03  0.00000000000E+00 0.  1.
          2    1    6    6  503    0 -0.53655168375E+02  0.34049698667E+03  0.61686872744E+01  0.34475372040E+03  0.00000000000E+00 0. -1.
         -2    1    6    6    0  503 -0.96231003640E+01  0.23264206057E+02  0.27372255192E+02  0.37189618153E+02  0.00000000000E+00 0.  1.
<mgrwt>
<rscale>  0 0.14476436E+04</rscale>
<asrwt>0</asrwt>
<pdfrwt beam="1">  1        1 0.12561966E+00 0.14476436E+04</pdfrwt>
<pdfrwt beam="2">  1       -2 0.98714058E-01 0.14476436E+04</pdfrwt>
<totfact> 0.15505316E+01</totfact>
</mgrwt>
</event>
<event>
12    4  0.4398275E-008  0.1250429E+04  0.7818608E-02  0.9069826E-01
         -2   -1    0    0    0  501 -0.00000000000E+00  0.00000000000E+00  0.33690105214E+03  0.33690105214E+03  0.00000000000E+00 0.  1.
          1   -1    0    0  501    0  0.00000000000E+00 -0.00000000000E+00 -0.11602609917E+04  0.11602609917E+04  0.00000000000E+00 0. -1.
        -24    2    1    2    0    0  0.10976928731E+03  0.27682336229E+03 -0.18523665858E+03  0.35927563635E+03  0.78012132695E+02 0.  0.
        254    2    1    2    0    0 -0.10976928731E+03 -0.27682336229E+03 -0.63812328094E+03  0.11378864075E+04  0.89381412175E+03 0.  0.
         23    2    4    4    0    0 -0.45839131155E+03 -0.18810696784E+02 -0.18378617995E+03  0.50247420930E+03  0.90700243955E+02 0.  0.
         23    2    4    4    0    0  0.34862202424E+03 -0.25801266551E+03 -0.45433710099E+03  0.63541219815E+03  0.96013586961E+02 0.  0.
          3    1    3    3  502    0  0.86717515752E+02  0.18441441923E+03 -0.16427977178E+03  0.26175646883E+03  0.00000000000E+00 0. -1.
         -4    1    3    3    0  502  0.23051771554E+02  0.92408943063E+02 -0.20956886800E+02  0.97519167522E+02  0.00000000000E+00 0.  1.
         11    1    5    5    0    0 -0.24034687071E+03  0.31868309736E+02 -0.11459683550E+03  0.26816905513E+03  0.00000000000E+00 0. -1.
        -11    1    5    5    0    0 -0.21804444084E+03 -0.50679006520E+02 -0.69189344453E+02  0.23430515416E+03  0.00000000000E+00 0.  1.
          1    1    6    6  503    0  0.27997558285E+03 -0.24941523994E+03 -0.37934719188E+03  0.53338408384E+03  0.00000000000E+00 0. -1.
         -1    1    6    6    0  503  0.68646441393E+02 -0.85974255615E+01 -0.74989909114E+02  0.10202811432E+03  0.00000000000E+00 0.  1.
<mgrwt>
<rscale>  0 0.12504290E+04</rscale>
<asrwt>0</asrwt>
<pdfrwt beam="1">  1        1 0.17850169E+00 0.12504290E+04</pdfrwt>
<pdfrwt beam="2">  1       -2 0.51830931E-01 0.12504290E+04</pdfrwt>
<totfact> 0.34745109E+01</totfact>
</mgrwt>
</event>
<event>
12    4  0.4398275E-008  0.4371424E+04  0.7818608E-02  0.7933542E-01
          1   -1    0    0  501    0  0.00000000000E+00  0.00000000000E+00  0.28946642732E+04  0.28946642732E+04  0.00000000000E+00 0. -1.
         -2   -1    0    0    0  501 -0.00000000000E+00 -0.00000000000E+00 -0.16503939439E+04  0.16503939439E+04  0.00000000000E+00 0.  1.
        -24    2    1    2    0    0 -0.61185035644E+03  0.18208265794E+04  0.14637897647E+04  0.24163577318E+04  0.79585941722E+02 0.  0.
        254    2    1    2    0    0  0.61185035644E+03 -0.18208265794E+04 -0.21951943540E+03  0.21287004853E+04  0.89073378879E+03 0.  0.
         23    2    4    4    0    0  0.34636944660E+03 -0.10548720297E+04  0.30984697937E+03  0.11563515259E+04  0.91743709753E+02 0.  0.
         23    2    4    4    0    0  0.26548090984E+03 -0.76595454970E+03 -0.52936641477E+03  0.97234895935E+03  0.89817659456E+02 0.  0.
          1    1    3    3  502    0 -0.33012376440E+03  0.10210996968E+04  0.86477120449E+03  0.13782073599E+04  0.00000000000E+00 0. -1.
         -2    1    3    3    0  502 -0.28172659204E+03  0.79972688257E+03  0.59901856017E+03  0.10381503720E+04  0.00000000000E+00 0.  1.
         11    1    5    5    0    0  0.10886540727E+02 -0.20775457092E+02  0.20993123780E+02  0.31477732326E+02  0.00000000000E+00 0. -1.
        -11    1    5    5    0    0  0.33548290588E+03 -0.10340965726E+04  0.28885385559E+03  0.11248737936E+04  0.00000000000E+00 0.  1.
          1    1    6    6  503    0  0.24442431464E+02 -0.24883962204E+02 -0.11686099910E+02  0.36785988664E+02  0.00000000000E+00 0. -1.
         -1    1    6    6    0  503  0.24103847837E+03 -0.74107058750E+03 -0.51768031486E+03  0.93556297068E+03  0.00000000000E+00 0.  1.
<mgrwt>
<rscale>  0 0.43714237E+04</rscale>
<asrwt>0</asrwt>
<pdfrwt beam="1">  1        1 0.44533296E+00 0.43714237E+04</pdfrwt>
<pdfrwt beam="2">  1       -2 0.25390676E+00 0.43714237E+04</pdfrwt>
<totfact> 0.28960020E-02</totfact>
</mgrwt>
</event>
<event>
12    4  0.4398275E-008  0.1238061E+04  0.7818608E-02  0.9080179E-01
         -2   -1    0    0    0  501 -0.00000000000E+00  0.00000000000E+00  0.27485876800E+03  0.27485876800E+03  0.00000000000E+00 0.  1.
          1   -1    0    0  501    0  0.00000000000E+00 -0.00000000000E+00 -0.13941663870E+04  0.13941663870E+04  0.00000000000E+00 0. -1.
        -24    2    1    2    0    0 -0.78599460314E+02  0.24919578375E+03 -0.10704061755E+03  0.29418495455E+03  0.82526843365E+02 0.  0.
        254    2    1    2    0    0  0.78599460314E+02 -0.24919578375E+03 -0.10122670014E+04  0.13748402004E+04  0.89287439248E+03 0.  0.
         23    2    4    4    0    0 -0.29495312000E+03 -0.70746866836E+02 -0.87291416622E+03  0.92858348364E+03  0.91025723522E+02 0.  0.
         23    2    4    4    0    0  0.37355258031E+03 -0.17844891692E+03 -0.13935283519E+03  0.44625671678E+03  0.91325234117E+02 0.  0.
          3    1    3    3  502    0 -0.11030830203E+02  0.72713086029E+02  0.63205536408E+01  0.73816133014E+02  0.00000000000E+00 0. -1.
         -4    1    3    3    0  502 -0.67568630111E+02  0.17648269773E+03 -0.11336117119E+03  0.22036882154E+03  0.00000000000E+00 0.  1.
         11    1    5    5    0    0 -0.15924314758E+03 -0.48944519101E+02 -0.60432403751E+03  0.62686640388E+03  0.00000000000E+00 0. -1.
        -11    1    5    5    0    0 -0.13570997241E+03 -0.21802347735E+02 -0.26859012871E+03  0.30171707976E+03  0.00000000000E+00 0.  1.
          3    1    6    6  503    0  0.28414731774E+03 -0.13112561412E+03 -0.62272831285E+02  0.31907919139E+03  0.00000000000E+00 0. -1.
         -3    1    6    6    0  503  0.89405262570E+02 -0.47323302794E+02 -0.77080003907E+02  0.12717752539E+03  0.00000000000E+00 0.  1.
<mgrwt>
<rscale>  0 0.12380612E+04</rscale>
<asrwt>0</asrwt>
<pdfrwt beam="1">  1        1 0.21448713E+00 0.12380612E+04</pdfrwt>
<pdfrwt beam="2">  1       -2 0.42285965E-01 0.12380612E+04</pdfrwt>
<totfact> 0.35594257E+01</totfact>
</mgrwt>
</event>
<event>
12    4  0.4398275E-008  0.1734539E+04  0.7818608E-02  0.8741907E-01
          1   -1    0    0  501    0  0.00000000000E+00  0.00000000000E+00  0.21049408355E+04  0.21049408355E+04  0.00000000000E+00 0. -1.
         -2   -1    0    0    0  501 -0.00000000000E+00 -0.00000000000E+00 -0.35732884402E+03  0.35732884402E+03  0.00000000000E+00 0.  1.
        -24    2    1    2    0    0 -0.27170991184E+03 -0.21445887867E+03  0.13929409037E+04  0.14375579391E+04  0.80433701557E+02 0.  0.
        254    2    1    2    0    0  0.27170991184E+03  0.21445887867E+03  0.35467108781E+03  0.10247117404E+04  0.89689669615E+03 0.  0.
         23    2    4    4    0    0 -0.30984831256E+03  0.75010440366E+02  0.15675931453E+02  0.33139303058E+03  0.89123862870E+02 0.  0.
         23    2    4    4    0    0  0.58155822439E+03  0.13944843831E+03  0.33899515636E+03  0.69331870982E+03  0.90095960232E+02 0.  0.
          1    1    3    3  502    0 -0.22536917460E+03 -0.20641872324E+03  0.11384352454E+04  0.11787428736E+04  0.00000000000E+00 0. -1.
         -2    1    3    3    0  502 -0.46340737236E+02 -0.80401554321E+01  0.25450565832E+03  0.25881506553E+03  0.00000000000E+00 0.  1.
         11    1    5    5    0    0 -0.25838162960E+03  0.50526018699E+02  0.45324888752E+02  0.26714844305E+03  0.00000000000E+00 0. -1.
        -11    1    5    5    0    0 -0.51466682954E+02  0.24484421667E+02 -0.29648957299E+02  0.64244587535E+02  0.00000000000E+00 0.  1.
          1    1    6    6  503    0  0.94123237776E+02  0.57727956403E+02  0.56233220883E+02  0.12391075809E+03  0.00000000000E+00 0. -1.
         -1    1    6    6    0  503  0.48743498662E+03  0.81720481904E+02  0.28276193547E+03  0.56940795173E+03  0.00000000000E+00 0.  1.
<mgrwt>
<rscale>  0 0.17345386E+04</rscale>
<asrwt>0</asrwt>
<pdfrwt beam="1">  1        1 0.32383704E+00 0.17345386E+04</pdfrwt>
<pdfrwt beam="2">  1       -2 0.54973670E-01 0.17345386E+04</pdfrwt>
<totfact> 0.65593544E+00</totfact>
</mgrwt>
</event>
<event>
12    4  0.4398275E-008  0.2679685E+04  0.7818608E-02  0.8341627E-01
          1   -1    0    0  501    0  0.00000000000E+00  0.00000000000E+00  0.21852375049E+04  0.21852375049E+04  0.00000000000E+00 0. -1.
         -2   -1    0    0    0  501 -0.00000000000E+00 -0.00000000000E+00 -0.82150267821E+03  0.82150267821E+03  0.00000000000E+00 0.  1.
        -24    2    1    2    0    0 -0.50720677477E+03  0.93035635140E+03  0.23229562993E+01  0.10627214503E+04  0.80931031591E+02 0.  0.
        254    2    1    2    0    0  0.50720677477E+03 -0.93035635140E+03  0.13614118704E+04  0.19440187328E+04  0.89607192772E+03 0.  0.
         23    2    4    4    0    0  0.21632859950E+03 -0.99844643724E+03  0.79599196012E+03  0.12983622018E+04  0.91912215705E+02 0.  0.
         23    2    4    4    0    0  0.29087817527E+03  0.68090085840E+02  0.56541991030E+03  0.64565653105E+03  0.89029817964E+02 0.  0.
          3    1    3    3  502    0 -0.85660581454E+02  0.13797969620E+03 -0.27379734257E+02  0.16469906383E+03  0.00000000000E+00 0. -1.
         -4    1    3    3    0  502 -0.42154619331E+03  0.79237665520E+03  0.29702690556E+02  0.89802238649E+03  0.00000000000E+00 0.  1.
         11    1    5    5    0    0  0.10580975181E+02 -0.21028219256E+03  0.18192794113E+03  0.27825947120E+03  0.00000000000E+00 0.  1.
        -11    1    5    5    0    0  0.20574762432E+03 -0.78816424468E+03  0.61406401899E+03  0.10201027306E+04  0.00000000000E+00 0. -1.
          1    1    6    6  503    0  0.18707825171E+03  0.86720872493E+02  0.36777734993E+03  0.42163842461E+03  0.00000000000E+00 0. -1.
         -1    1    6    6    0  503  0.10379992355E+03 -0.18630786652E+02  0.19764256037E+03  0.22401810644E+03  0.00000000000E+00 0.  1.
<mgrwt>
<rscale>  0 0.26796854E+04</rscale>
<asrwt>0</asrwt>
<pdfrwt beam="1">  1        1 0.33619038E+00 0.26796854E+04</pdfrwt>
<pdfrwt beam="2">  1       -2 0.12638503E+00 0.26796854E+04</pdfrwt>
<totfact> 0.79949093E-01</totfact>
</mgrwt>
</event>
<event>
12    4  0.4398275E-008  0.1872570E+04  0.7818608E-02  0.8668632E-01
         -2   -1    0    0    0  501 -0.00000000000E+00  0.00000000000E+00  0.58137098072E+03  0.58137098072E+03  0.00000000000E+00 0.  1.
          1   -1    0    0  501    0  0.00000000000E+00 -0.00000000000E+00 -0.15078653222E+04  0.15078653222E+04  0.00000000000E+00 0. -1.
        -24    2    1    2    0    0  0.32031822638E+03 -0.61732516823E+03 -0.51429412182E+03  0.86931960142E+03  0.86740971798E+02 0.  0.
        254    2    1    2    0    0 -0.32031822638E+03  0.61732516823E+03 -0.41220021961E+03  0.12199167015E+04  0.91356094924E+03 0.  0.
         23    2    4    4    0    0 -0.40987832359E+02  0.79711594205E+03 -0.29867229597E+03  0.85729672236E+03  0.93159552977E+02 0.  0.
         23    2    4    4    0    0 -0.27933039402E+03 -0.17979077383E+03 -0.11352792365E+03  0.36261997910E+03  0.90854105133E+02 0.  0.
          1    1    3    3  502    0  0.26676663431E+03 -0.52792302550E+03 -0.39677247295E+03  0.71224683455E+03  0.00000000000E+00 0. -1.
         -2    1    3    3    0  502  0.53551592068E+02 -0.89402142728E+02 -0.11752164888E+03  0.15707276687E+03  0.00000000000E+00 0.  1.
         11    1    5    5    0    0  0.14012842924E+02  0.45434914009E+03 -0.14028266663E+03  0.47571916865E+03  0.00000000000E+00 0. -1.
        -11    1    5    5    0    0 -0.55000675283E+02  0.34276680197E+03 -0.15838962934E+03  0.38157755371E+03  0.00000000000E+00 0.  1.
          2    1    6    6  503    0 -0.28285022163E+03 -0.16425997632E+03 -0.11479242725E+03  0.34664519188E+03  0.00000000000E+00 0. -1.
         -2    1    6    6    0  503  0.35198276083E+01 -0.15530797507E+02  0.12645036022E+01  0.15974787227E+02  0.00000000000E+00 0.  1.
<mgrwt>
<rscale>  0 0.18725695E+04</rscale>
<asrwt>0</asrwt>
<pdfrwt beam="1">  1        1 0.23197928E+00 0.18725695E+04</pdfrwt>
<pdfrwt beam="2">  1       -2 0.89441690E-01 0.18725695E+04</pdfrwt>
<totfact> 0.57002099E+00</totfact>
</mgrwt>
</event>
<event>
12    4  0.4398275E-008  0.1204880E+04  0.7818608E-02  0.9108596E-01
          1   -1    0    0  501    0  0.00000000000E+00  0.00000000000E+00  0.36659867238E+04  0.36659867238E+04  0.00000000000E+00 0. -1.
         -2   -1    0    0    0  501 -0.00000000000E+00 -0.00000000000E+00 -0.99000394790E+02  0.99000394790E+02  0.00000000000E+00 0.  1.
        -24    2    1    2    0    0  0.81923322926E+01  0.89478922498E+01 -0.35667483251E+02  0.88662211312E+02  0.80259823506E+02 0.  0.
        254    2    1    2    0    0 -0.81923322926E+01 -0.89478922498E+01  0.36026538123E+04  0.36763249073E+04  0.73219065399E+03 0.  0.
         23    2    4    4    0    0  0.11481028100E+03 -0.26599936797E+02  0.12205541916E+03  0.19243853090E+03  0.90808069952E+02 0.  0.
         23    2    4    4    0    0 -0.12300261329E+03  0.17652044547E+02  0.34805983931E+04  0.34838863764E+04  0.86358971174E+02 0.  0.
          3    1    3    3  502    0  0.43228915774E+02  0.14182783332E+02 -0.23489120537E+02  0.51201848459E+02  0.00000000000E+00 0. -1.
         -4    1    3    3    0  502 -0.35036583481E+02 -0.52348910827E+01 -0.12178362714E+02  0.37460362853E+02  0.00000000000E+00 0.  1.
         11    1    5    5    0    0  0.77568474506E+02 -0.19948088006E+02  0.18516922889E+02  0.82205053893E+02  0.00000000000E+00 0. -1.
        -11    1    5    5    0    0  0.37241806490E+02 -0.66518487908E+01  0.10353849627E+03  0.11023347701E+03  0.00000000000E+00 0.  1.
          1    1    6    6  503    0 -0.97680180502E+02 -0.87998646780E+01  0.30948937111E+04  0.30964473092E+04  0.00000000000E+00 0. -1.
         -1    1    6    6    0  503 -0.25322432786E+02  0.26451909225E+02  0.38570468202E+03  0.38743906725E+03  0.00000000000E+00 0.  1.
<mgrwt>
<rscale>  0 0.12048803E+04</rscale>
<asrwt>0</asrwt>
<pdfrwt beam="1">  1        1 0.56399785E+00 0.12048803E+04</pdfrwt>
<pdfrwt beam="2">  1       -2 0.15230833E-01 0.12048803E+04</pdfrwt>
<totfact> 0.56108836E+00</totfact>
</mgrwt>
</event>
<event>
12    4  0.4398275E-008  0.3013512E+04  0.7818608E-02  0.8239883E-01
         -2   -1    0    0    0  501 -0.00000000000E+00  0.00000000000E+00  0.12629400027E+04  0.12629400027E+04  0.00000000000E+00 0.  1.
          1   -1    0    0  501    0  0.00000000000E+00 -0.00000000000E+00 -0.17976421142E+04  0.17976421142E+04  0.00000000000E+00 0. -1.
        -24    2    1    2    0    0 -0.68613340725E+03  0.34045161463E+03 -0.13952746452E+04  0.15937059387E+04  0.80130699254E+02 0.  0.
        254    2    1    2    0    0  0.68613340725E+03 -0.34045161463E+03  0.86057253369E+03  0.14668761782E+04  0.90799464860E+03 0.  0.
         23    2    4    4    0    0  0.26486873459E+03 -0.61301788014E+03  0.43187026659E+03  0.80032934670E+03  0.89826321799E+02 0.  0.
         23    2    4    4    0    0  0.42126467266E+03  0.27256626552E+03  0.42870226710E+03  0.66654683147E+03  0.93502680140E+02 0.  0.
          1    1    3    3  502    0 -0.51357491168E+03  0.27151157894E+03 -0.98990883462E+03  0.11477792594E+04  0.00000000000E+00 0. -1.
         -2    1    3    3    0  502 -0.17255849557E+03  0.68940035688E+02 -0.40536581057E+03  0.44592667927E+03  0.00000000000E+00 0.  1.
         11    1    5    5    0    0  0.65978092331E+02 -0.25644284608E+03  0.15193929037E+03  0.30528935443E+03  0.00000000000E+00 0. -1.
        -11    1    5    5    0    0  0.19889064226E+03 -0.35657503406E+03  0.27993097622E+03  0.49503999227E+03  0.00000000000E+00 0.  1.
          2    1    6    6  503    0  0.31430083780E+01 -0.35562628323E+01  0.18161284509E+02  0.18771195008E+02  0.00000000000E+00 0. -1.
         -2    1    6    6    0  503  0.41812166429E+03  0.27612252835E+03  0.41054098259E+03  0.64777563646E+03  0.00000000000E+00 0.  1.
<mgrwt>
<rscale>  0 0.30135123E+04</rscale>
<asrwt>0</asrwt>
<pdfrwt beam="1">  1        1 0.27656032E+00 0.30135123E+04</pdfrwt>
<pdfrwt beam="2">  1       -2 0.19429846E+00 0.30135123E+04</pdfrwt>
<totfact> 0.44318559E-01</totfact>
</mgrwt>
</event>
<event>
12    4  0.4398275E-008  0.3470795E+04  0.7818608E-02  0.8120746E-01
          1   -1    0    0  501    0  0.00000000000E+00  0.00000000000E+00  0.18435926678E+04  0.18435926678E+04  0.00000000000E+00 0. -1.
         -2   -1    0    0    0  501 -0.00000000000E+00 -0.00000000000E+00 -0.16335518589E+04  0.16335518589E+04  0.00000000000E+00 0.  1.
        -24    2    1    2    0    0 -0.38027580508E+03  0.38336207463E+03  0.16189636930E+04  0.17083603716E+04  0.76652147507E+02 0.  0.
        254    2    1    2    0    0  0.38027580508E+03 -0.38336207463E+03 -0.14089228840E+04  0.17687841551E+04  0.92301545282E+03 0.  0.
         23    2    4    4    0    0  0.12823706192E+03 -0.26051428359E+03 -0.14411707823E+04  0.14732447105E+04  0.95730440501E+02 0.  0.
         23    2    4    4    0    0  0.25203874315E+03 -0.12284779103E+03  0.32247898304E+02  0.29553944462E+03  0.87684254949E+02 0.  0.
          1    1    3    3  502    0 -0.31787078987E+03  0.34530054447E+03  0.14554735803E+04  0.15292735688E+04  0.00000000000E+00 0. -1.
         -2    1    3    3    0  502 -0.62405015208E+02  0.38061530153E+02  0.16349011264E+03  0.17908680278E+03  0.00000000000E+00 0.  1.
         11    1    5    5    0    0  0.15553067613E+02 -0.67254575201E+02 -0.18822172551E+03  0.20048065680E+03  0.00000000000E+00 0. -1.
        -11    1    5    5    0    0  0.11268399431E+03 -0.19325970839E+03 -0.12529490568E+04  0.12727640537E+04  0.00000000000E+00 0.  1.
          4    1    6    6  503    0  0.41255645054E+02 -0.91943079340E+01  0.36772980331E+02  0.56025133910E+02  0.00000000000E+00 0. -1.
         -4    1    6    6    0  503  0.21078309810E+03 -0.11365348310E+03 -0.45250820268E+01  0.23951431070E+03  0.00000000000E+00 0.  1.
<mgrwt>
<rscale>  0 0.34707949E+04</rscale>
<asrwt>0</asrwt>
<pdfrwt beam="1">  1        1 0.28362964E+00 0.34707949E+04</pdfrwt>
<pdfrwt beam="2">  1       -2 0.25131567E+00 0.34707949E+04</pdfrwt>
<totfact> 0.17253960E-01</totfact>
</mgrwt>
</event>
<event>
12    4  0.4398275E-008  0.1918338E+04  0.7818608E-02  0.8645782E-01
          1   -1    0    0  501    0  0.00000000000E+00  0.00000000000E+00  0.21239386344E+04  0.21239386344E+04  0.00000000000E+00 0. -1.
         -2   -1    0    0    0  501 -0.00000000000E+00 -0.00000000000E+00 -0.43315982610E+03  0.43315982610E+03  0.00000000000E+00 0.  1.
        -24    2    1    2    0    0  0.56828436418E+03  0.45962710858E+03  0.86519226454E+03  0.11351642099E+04  0.76393266966E+02 0.  0.
        254    2    1    2    0    0 -0.56828436418E+03 -0.45962710858E+03  0.82558654375E+03  0.14219342506E+04  0.89783053767E+03 0.  0.
         23    2    4    4    0    0  0.14137802500E+03 -0.30402176152E+03  0.43438035470E+02  0.35025385780E+03  0.91509150053E+02 0.  0.
         23    2    4    4    0    0 -0.70966238919E+03 -0.15560534706E+03  0.78214850828E+03  0.10716803928E+04  0.94386676548E+02 0.  0.
          1    1    3    3  502    0  0.57003626142E+03  0.45484646480E+03  0.86221594577E+03  0.11292665686E+04  0.00000000000E+00 0. -1.
         -2    1    3    3    0  502 -0.17518972384E+01  0.47806437745E+01  0.29763187746E+01  0.58976412472E+01  0.00000000000E+00 0.  1.
         11    1    5    5    0    0  0.14964038114E+03 -0.29335983895E+03  0.53217522724E+02  0.33359308072E+03  0.00000000000E+00 0.  1.
        -11    1    5    5    0    0 -0.82623561410E+01 -0.10661922571E+02 -0.97794872538E+01  0.16660777078E+02  0.00000000000E+00 0. -1.
          3    1    6    6  503    0 -0.32172748977E+03 -0.11875754733E+03  0.36657508783E+03  0.50198528637E+03  0.00000000000E+00 0. -1.
         -3    1    6    6    0  503 -0.38793489942E+03 -0.36847799728E+02  0.41557342045E+03  0.56969510646E+03  0.00000000000E+00 0.  1.
<mgrwt>
<rscale>  0 0.19183377E+04</rscale>
<asrwt>0</asrwt>
<pdfrwt beam="1">  1        1 0.32675978E+00 0.19183377E+04</pdfrwt>
<pdfrwt beam="2">  1       -2 0.66639974E-01 0.19183377E+04</pdfrwt>
<totfact> 0.41667717E+00</totfact>
</mgrwt>
</event>
<event>
12    4  0.4398275E-008  0.3262699E+04  0.7818608E-02  0.8172452E-01
          1   -1    0    0  501    0  0.00000000000E+00  0.00000000000E+00  0.17101316247E+04  0.17101316247E+04  0.00000000000E+00 0. -1.
         -2   -1    0    0    0  501 -0.00000000000E+00 -0.00000000000E+00 -0.15561964086E+04  0.15561964086E+04  0.00000000000E+00 0.  1.
        -24    2    1    2    0    0 -0.91831894936E+03  0.28270547105E+03 -0.10921018417E+04  0.14567725157E+04  0.79168514316E+02 0.  0.
        254    2    1    2    0    0  0.91831894936E+03 -0.28270547105E+03  0.12460370578E+04  0.18095555177E+04  0.89367261672E+03 0.  0.
         23    2    4    4    0    0  0.36376675631E+02 -0.26568412696E+03  0.38815363474E+01  0.28339915467E+03  0.91589828547E+02 0.  0.
         23    2    4    4    0    0  0.88194227373E+03 -0.17021344089E+02  0.12421555215E+04  0.15261563630E+04  0.89950010457E+02 0.  0.
          3    1    3    3  502    0 -0.13465126854E+03  0.71282089659E+02 -0.17876842318E+03  0.23488348080E+03  0.00000000000E+00 0. -1.
         -4    1    3    3    0  502 -0.78366768082E+03  0.21142338139E+03 -0.91333341849E+03  0.12218890349E+04  0.00000000000E+00 0.  1.
         11    1    5    5    0    0  0.58038001186E+02 -0.24866758000E+03 -0.13843888958E+01  0.25535444280E+03  0.00000000000E+00 0. -1.
        -11    1    5    5    0    0 -0.21661325555E+02 -0.17016546968E+02  0.52659252432E+01  0.28044711876E+02  0.00000000000E+00 0.  1.
          4    1    6    6  503    0  0.51836938882E+02  0.19608898019E+02  0.67761816690E+02  0.87539938972E+02  0.00000000000E+00 0.  1.
         -4    1    6    6    0  503  0.83010533485E+03 -0.36630242108E+02  0.11743937048E+04  0.14386164240E+04  0.00000000000E+00 0. -1.
<mgrwt>
<rscale>  0 0.32626987E+04</rscale>
<asrwt>0</asrwt>
<pdfrwt beam="1">  1        1 0.26309717E+00 0.32626987E+04</pdfrwt>
<pdfrwt beam="2">  1       -2 0.23941483E+00 0.32626987E+04</pdfrwt>
<totfact> 0.25623535E-01</totfact>
</mgrwt>
</event>
<event>
12    4  0.4398275E-008  0.1453322E+04  0.7818608E-02  0.8916101E-01
          1   -1    0    0  501    0  0.00000000000E+00  0.00000000000E+00  0.39026317495E+03  0.39026317495E+03  0.00000000000E+00 0. -1.
         -2   -1    0    0    0  501 -0.00000000000E+00 -0.00000000000E+00 -0.13530260804E+04  0.13530260804E+04  0.00000000000E+00 0.  1.
        -24    2    1    2    0    0 -0.29819416043E+03 -0.39122481131E+03 -0.28693157503E+03  0.57499351798E+03  0.79443103398E+02 0.  0.
        254    2    1    2    0    0  0.29819416043E+03  0.39122481131E+03 -0.67583133042E+03  0.11682957374E+04  0.81620483488E+03 0.  0.
         23    2    4    4    0    0  0.14156399557E+03  0.62742434235E+03 -0.51852138458E+03  0.83121583741E+03  0.91398423856E+02 0.  0.
         23    2    4    4    0    0  0.15663016486E+03 -0.23619953104E+03 -0.15730994584E+03  0.33707989996E+03  0.92483581717E+02 0.  0.
          1    1    3    3  502    0 -0.17524107951E+03 -0.27369901060E+03 -0.15684121928E+03  0.36085974065E+03  0.00000000000E+00 0. -1.
         -2    1    3    3    0  502 -0.12295308091E+03 -0.11752580070E+03 -0.13009035575E+03  0.21413377733E+03  0.00000000000E+00 0.  1.
         11    1    5    5    0    0 -0.35283462154E+01  0.16300846684E+03 -0.12534778867E+03  0.20566058838E+03  0.00000000000E+00 0.  1.
        -11    1    5    5    0    0  0.14509234179E+03  0.46441587551E+03 -0.39317359591E+03  0.62555524904E+03  0.00000000000E+00 0. -1.
          3    1    6    6  503    0  0.14680461377E+03 -0.14608920136E+03 -0.11706371033E+03  0.23790242044E+03  0.00000000000E+00 0. -1.
         -3    1    6    6    0  503  0.98255510895E+01 -0.90110329684E+02 -0.40246235515E+02  0.99177479516E+02  0.00000000000E+00 0.  1.
<mgrwt>
<rscale>  0 0.14533221E+04</rscale>
<asrwt>0</asrwt>
<pdfrwt beam="1">  1        1 0.60040489E-01 0.14533221E+04</pdfrwt>
<pdfrwt beam="2">  1       -2 0.20815786E+00 0.14533221E+04</pdfrwt>
<totfact> 0.61863852E+00</totfact>
</mgrwt>
</event>
<event>
12    4  0.4398275E-008  0.1358155E+04  0.7818608E-02  0.8984678E-01
          1   -1    0    0  501    0  0.00000000000E+00  0.00000000000E+00  0.14652764648E+04  0.14652764648E+04  0.00000000000E+00 0. -1.
         -2   -1    0    0    0  501 -0.00000000000E+00 -0.00000000000E+00 -0.31471619275E+03  0.31471619275E+03  0.00000000000E+00 0.  1.
        -24    2    1    2    0    0  0.26426633799E+03 -0.24384705545E+03  0.55826721833E+03  0.66898255329E+03  0.81100466661E+02 0.  0.
        254    2    1    2    0    0 -0.26426633799E+03  0.24384705545E+03  0.59229305370E+03  0.11110101042E+04  0.86846664093E+03 0.  0.
         23    2    4    4    0    0 -0.51871525752E+03  0.36176647147E+03  0.45736715946E+03  0.78571717299E+03  0.90698727187E+02 0.  0.
         23    2    4    4    0    0  0.25444891952E+03 -0.11791941602E+03  0.13492589424E+03  0.32529293125E+03  0.94663894192E+02 0.  0.
          1    1    3    3  502    0  0.18301715079E+03 -0.14703943682E+03  0.42354080932E+03  0.48425477863E+03  0.00000000000E+00 0. -1.
         -4    1    3    3    0  502  0.81249187204E+02 -0.96807618631E+02  0.13472640901E+03  0.18472777466E+03  0.00000000000E+00 0.  1.
         11    1    5    5    0    0 -0.51216735410E+01  0.21985769341E+02  0.10794879004E+02  0.25022689825E+02  0.00000000000E+00 0.  1.
        -11    1    5    5    0    0 -0.51359358398E+03  0.33978070212E+03  0.44657228046E+03  0.76069448316E+03  0.00000000000E+00 0. -1.
          4    1    6    6  503    0  0.50299518691E+02 -0.56961588819E+02  0.67996989470E+02  0.10197183316E+03  0.00000000000E+00 0. -1.
         -4    1    6    6    0  503  0.20414940083E+03 -0.60957827198E+02  0.66928904765E+02  0.22332109808E+03  0.00000000000E+00 0.  1.
<mgrwt>
<rscale>  0 0.13581550E+04</rscale>
<asrwt>0</asrwt>
<pdfrwt beam="1">  1        1 0.22542714E+00 0.13581550E+04</pdfrwt>
<pdfrwt beam="2">  1       -2 0.48417877E-01 0.13581550E+04</pdfrwt>
<totfact> 0.23981401E+01</totfact>
</mgrwt>
</event>
<event>
12    4  0.4398275E-008  0.2360104E+04  0.7818608E-02  0.8454593E-01
         -2   -1    0    0    0  501 -0.00000000000E+00  0.00000000000E+00  0.41701265374E+03  0.41701265374E+03  0.00000000000E+00 0.  1.
          1   -1    0    0  501    0  0.00000000000E+00 -0.00000000000E+00 -0.33392830061E+04  0.33392830061E+04  0.00000000000E+00 0. -1.
        -24    2    1    2    0    0  0.74093980603E+03  0.22563243737E+03 -0.22842518512E+04  0.24132880051E+04  0.79061260424E+02 0.  0.
        254    2    1    2    0    0 -0.74093980603E+03 -0.22563243737E+03 -0.63801850120E+03  0.13430076548E+04  0.89258061819E+03 0.  0.
         23    2    4    4    0    0 -0.62994414605E+03 -0.26594958342E+03 -0.84057914369E+03  0.10870175969E+04  0.86458956376E+02 0.  0.
         23    2    4    4    0    0 -0.11099565999E+03  0.40317146043E+02  0.20256064249E+03  0.25599005786E+03  0.10273551984E+03 0.  0.
          1    1    3    3  502    0  0.16787878760E+03  0.75329946571E+02 -0.46901951546E+03  0.50382258192E+03  0.00000000000E+00 0. -1.
         -2    1    3    3    0  502  0.57306101844E+03  0.15030249080E+03 -0.18152323357E+04  0.19094654232E+04  0.00000000000E+00 0.  1.
         11    1    5    5    0    0 -0.56260783732E+03 -0.23284286078E+03 -0.78589648315E+03  0.99417134271E+03  0.00000000000E+00 0. -1.
        -11    1    5    5    0    0 -0.67336308734E+02 -0.33106722638E+02 -0.54682660541E+02  0.92846254214E+02  0.00000000000E+00 0.  1.
          3    1    6    6  503    0 -0.10866375453E+03  0.49888987942E+02  0.21132340107E+03  0.24280507101E+03  0.00000000000E+00 0. -1.
         -3    1    6    6    0  503 -0.23319054508E+01 -0.95718418986E+01 -0.87627585798E+01  0.13184986852E+02  0.00000000000E+00 0.  1.
<mgrwt>
<rscale>  0 0.23601045E+04</rscale>
<asrwt>0</asrwt>
<pdfrwt beam="1">  1        1 0.51373586E+00 0.23601045E+04</pdfrwt>
<pdfrwt beam="2">  1       -2 0.64155792E-01 0.23601045E+04</pdfrwt>
<totfact> 0.59220636E-01</totfact>
</mgrwt>
</event>
<event>
12    4  0.4398275E-008  0.1581563E+04  0.7818608E-02  0.8831955E-01
          1   -1    0    0  501    0  0.00000000000E+00  0.00000000000E+00  0.17591977037E+04  0.17591977037E+04  0.00000000000E+00 0. -1.
         -2   -1    0    0    0  501 -0.00000000000E+00 -0.00000000000E+00 -0.35546627396E+03  0.35546627396E+03  0.00000000000E+00 0.  1.
        -24    2    1    2    0    0  0.20204657183E+03  0.42515270959E+03  0.15574056241E+03  0.50271390985E+03  0.82997040383E+02 0.  0.
        254    2    1    2    0    0 -0.20204657183E+03 -0.42515270959E+03  0.12479908674E+04  0.16119500678E+04  0.90516527360E+03 0.  0.
         23    2    4    4    0    0  0.33366735845E+03 -0.19899087955E+03  0.70982851711E+03  0.81430925131E+03  0.91168836912E+02 0.  0.
         23    2    4    4    0    0 -0.53571393028E+03 -0.22616183004E+03  0.53816235026E+03  0.79764081654E+03  0.92051988039E+02 0.  0.
          3    1    3    3  502    0  0.23839363725E+02  0.12748437348E+02 -0.56266968337E+00  0.27039868986E+02  0.00000000000E+00 0. -1.
         -4    1    3    3    0  502  0.17820720811E+03  0.41240427224E+03  0.15630323209E+03  0.47567404086E+03  0.00000000000E+00 0.  1.
         11    1    5    5    0    0  0.27799941399E+03 -0.17921267590E+03  0.52723617959E+03  0.62239765942E+03  0.00000000000E+00 0. -1.
        -11    1    5    5    0    0  0.55667944461E+02 -0.19778203649E+02  0.18259233752E+03  0.19191159189E+03  0.00000000000E+00 0.  1.
          3    1    6    6  503    0 -0.51862580632E+03 -0.19973735263E+03  0.49510287820E+03  0.74430813312E+03  0.00000000000E+00 0. -1.
         -3    1    6    6    0  503 -0.17088123958E+02 -0.26424477406E+02  0.43059472061E+02  0.53332683420E+02  0.00000000000E+00 0.  1.
<mgrwt>
<rscale>  0 0.15815631E+04</rscale>
<asrwt>0</asrwt>
<pdfrwt beam="1">  1        1 0.27064580E+00 0.15815631E+04</pdfrwt>
<pdfrwt beam="2">  1       -2 0.54687120E-01 0.15815631E+04</pdfrwt>
<totfact> 0.11526359E+01</totfact>
</mgrwt>
</event>
<event>
12    4  0.4398275E-008  0.1461074E+04  0.7818608E-02  0.8910759E-01
          1   -1    0    0  501    0  0.00000000000E+00  0.00000000000E+00  0.76176839021E+03  0.76176839021E+03  0.00000000000E+00 0. -1.
         -2   -1    0    0    0  501 -0.00000000000E+00 -0.00000000000E+00 -0.70058650932E+03  0.70058650932E+03  0.00000000000E+00 0.  1.
        -24    2    1    2    0    0  0.18473303529E+03 -0.17517902774E+03  0.41149642599E+03  0.49026805819E+03  0.78863642995E+02 0.  0.
        254    2    1    2    0    0 -0.18473303529E+03  0.17517902774E+03 -0.35031454510E+03  0.97208684134E+03  0.87029797226E+03 0.  0.
         23    2    4    4    0    0  0.28647130936E+02 -0.19498975690E+03  0.18156534195E+03  0.28375392277E+03  0.93320157981E+02 0.  0.
         23    2    4    4    0    0 -0.21338016623E+03  0.37016878464E+03 -0.53187988704E+03  0.68833291857E+03  0.91378159807E+02 0.  0.
          1    1    3    3  502    0  0.19216178127E+03 -0.17285633810E+03  0.39532786368E+03  0.47232360051E+03  0.00000000000E+00 0. -1.
         -2    1    3    3    0  502 -0.74287459747E+01 -0.23226896372E+01  0.16168562312E+02  0.17944457672E+02  0.00000000000E+00 0.  1.
         11    1    5    5    0    0  0.18469495159E+02 -0.71497503968E+01  0.51157346754E+02  0.54857226590E+02  0.00000000000E+00 0. -1.
        -11    1    5    5    0    0  0.10177635777E+02 -0.18784000650E+03  0.13040799519E+03  0.22889669618E+03  0.00000000000E+00 0.  1.
          2    1    6    6  503    0 -0.81448014222E+01  0.14397850417E+02 -0.62372097826E+02  0.64528400523E+02  0.00000000000E+00 0. -1.
         -2    1    6    6    0  503 -0.20523536481E+03  0.35577093422E+03 -0.46950778922E+03  0.62380451805E+03  0.00000000000E+00 0.  1.
<mgrwt>
<rscale>  0 0.14610745E+04</rscale>
<asrwt>0</asrwt>
<pdfrwt beam="1">  1        1 0.11719514E+00 0.14610745E+04</pdfrwt>
<pdfrwt beam="2">  1       -2 0.10778254E+00 0.14610745E+04</pdfrwt>
<totfact> 0.14020720E+01</totfact>
</mgrwt>
</event>
<event>
12    4  0.4398275E-008  0.1499364E+04  0.7818608E-02  0.8884876E-01
         -2   -1    0    0    0  501 -0.00000000000E+00  0.00000000000E+00  0.86953168186E+03  0.86953168186E+03  0.00000000000E+00 0.  1.
          1   -1    0    0  501    0  0.00000000000E+00 -0.00000000000E+00 -0.64635183935E+03  0.64635183935E+03  0.00000000000E+00 0. -1.
        -24    2    1    2    0    0  0.12541534696E+03  0.18031014268E+03 -0.35835824380E+03  0.42739291284E+03  0.77481057287E+02 0.  0.
        254    2    1    2    0    0 -0.12541534696E+03 -0.18031014268E+03  0.58153808631E+03  0.10884906084E+04  0.89352364373E+03 0.  0.
         23    2    4    4    0    0 -0.12140773594E+02 -0.25752305664E+03  0.78079527997E+03  0.82738312879E+03  0.91956780604E+02 0.  0.
         23    2    4    4    0    0 -0.11327457337E+03  0.77212913960E+02 -0.19925719366E+03  0.26110747959E+03  0.98390668370E+02 0.  0.
          3    1    3    3  502    0  0.11246498247E+03  0.18708359362E+03 -0.33640160539E+03  0.40101706122E+03  0.00000000000E+00 0. -1.
         -4    1    3    3    0  502  0.12950364493E+02 -0.67734509402E+01 -0.21956638409E+02  0.26375851614E+02  0.00000000000E+00 0.  1.
         11    1    5    5    0    0  0.28989115268E+02 -0.19370944018E+03  0.60436509328E+03  0.63531164163E+03  0.00000000000E+00 0. -1.
        -11    1    5    5    0    0 -0.41129888862E+02 -0.63813616455E+02  0.17643018669E+03  0.19207148715E+03  0.00000000000E+00 0.  1.
          4    1    6    6  503    0  0.15212811628E+02  0.24338411532E+02 -0.23705230785E+02  0.37225339221E+02  0.00000000000E+00 0.  1.
         -4    1    6    6    0  503 -0.12848738499E+03  0.52874502427E+02 -0.17555196287E+03  0.22388214037E+03  0.00000000000E+00 0. -1.
<mgrwt>
<rscale>  0 0.14993644E+04</rscale>
<asrwt>0</asrwt>
<pdfrwt beam="1">  1        1 0.99438744E-01 0.14993644E+04</pdfrwt>
<pdfrwt beam="2">  1       -2 0.13377411E+00 0.14993644E+04</pdfrwt>
<totfact> 0.10497537E+01</totfact>
</mgrwt>
</event>
<event>
12    4  0.4398275E-008  0.1625732E+04  0.7818608E-02  0.8804894E-01
         -2   -1    0    0    0  501 -0.00000000000E+00  0.00000000000E+00  0.70667028056E+03  0.70667028056E+03  0.00000000000E+00 0.  1.
          1   -1    0    0  501    0  0.00000000000E+00 -0.00000000000E+00 -0.93502070986E+03  0.93502070986E+03  0.00000000000E+00 0. -1.
        -24    2    1    2    0    0 -0.32991684717E+03 -0.10075142267E+03  0.36477940380E+03  0.50832109863E+03  0.79563500829E+02 0.  0.
        254    2    1    2    0    0  0.32991684717E+03  0.10075142267E+03 -0.59312983310E+03  0.11333698918E+04  0.90206892059E+03 0.  0.
         23    2    4    4    0    0 -0.20298898471E+03  0.31130515474E+03 -0.27953112566E+03  0.47379187523E+03  0.90695443868E+02 0.  0.
         23    2    4    4    0    0  0.53290583187E+03 -0.21055373207E+03 -0.31359870744E+03  0.65957801657E+03  0.91528743541E+02 0.  0.
          3    1    3    3  502    0 -0.74354357770E+02 -0.23757973101E+02  0.39286743929E+02  0.87386841423E+02  0.00000000000E+00 0. -1.
         -4    1    3    3    0  502 -0.25556248940E+03 -0.76993449569E+02  0.32549265987E+03  0.42093425721E+03  0.00000000000E+00 0.  1.
         11    1    5    5    0    0 -0.71282919255E+02  0.87177998166E+02 -0.13692951906E+03  0.17728776363E+03  0.00000000000E+00 0. -1.
        -11    1    5    5    0    0 -0.13170606545E+03  0.22412715658E+03 -0.14260160660E+03  0.29650411160E+03  0.00000000000E+00 0.  1.
          2    1    6    6  503    0  0.33095486864E+02 -0.27135227494E+02 -0.48967332235E+02  0.65034079129E+02  0.00000000000E+00 0.  1.
         -2    1    6    6    0  503  0.49981034501E+03 -0.18341850458E+03 -0.26463137521E+03  0.59454393744E+03  0.00000000000E+00 0. -1.
<mgrwt>
<rscale>  0 0.16257323E+04</rscale>
<asrwt>0</asrwt>
<pdfrwt beam="1">  1        1 0.14384934E+00 0.16257323E+04</pdfrwt>
<pdfrwt beam="2">  1       -2 0.10871850E+00 0.16257323E+04</pdfrwt>
<totfact> 0.96660424E+00</totfact>
</mgrwt>
</event>
<event>
12    4  0.4398275E-008  0.2689570E+04  0.7818608E-02  0.8338397E-01
          1   -1    0    0  501    0  0.00000000000E+00  0.00000000000E+00  0.16062996179E+04  0.16062996179E+04  0.00000000000E+00 0. -1.
         -2   -1    0    0    0  501 -0.00000000000E+00 -0.00000000000E+00 -0.11258467269E+04  0.11258467269E+04  0.00000000000E+00 0.  1.
        -24    2    1    2    0    0 -0.11045477042E+04 -0.14101904176E+03 -0.21547346730E+03  0.11369433452E+04  0.79368470573E+02 0.  0.
        254    2    1    2    0    0  0.11045477042E+04  0.14101904176E+03  0.69592635831E+03  0.15952029996E+04  0.90578535691E+03 0.  0.
         23    2    4    4    0    0  0.10026196632E+04  0.40878087001E+03  0.36176157056E+03  0.11454375444E+04  0.93849589620E+02 0.  0.
         23    2    4    4    0    0  0.10192804104E+03 -0.26776182824E+03  0.33416478776E+03  0.44976545525E+03  0.92396629513E+02 0.  0.
          1    1    3    3  502    0 -0.57185980536E+03 -0.48563757785E+02 -0.78971674622E+02  0.57932598849E+03  0.00000000000E+00 0. -1.
         -2    1    3    3    0  502 -0.53268789886E+03 -0.92455283979E+02 -0.13650179268E+03  0.55761735673E+03  0.00000000000E+00 0.  1.
         11    1    5    5    0    0  0.85812463889E+03  0.32720148042E+03  0.27788679592E+03  0.95951017504E+03  0.00000000000E+00 0. -1.
        -11    1    5    5    0    0  0.14449502428E+03  0.81579389590E+02  0.83874774638E+02  0.18592736934E+03  0.00000000000E+00 0.  1.
          2    1    6    6  503    0  0.69105538840E+02 -0.23035562955E+03  0.22302631611E+03  0.32799394696E+03  0.00000000000E+00 0. -1.
         -2    1    6    6    0  503  0.32822502201E+02 -0.37406198690E+02  0.11113847165E+03  0.12177150829E+03  0.00000000000E+00 0.  1.
<mgrwt>
<rscale>  0 0.26895704E+04</rscale>
<asrwt>0</asrwt>
<pdfrwt beam="1">  1        1 0.24712302E+00 0.26895704E+04</pdfrwt>
<pdfrwt beam="2">  1       -2 0.17320719E+00 0.26895704E+04</pdfrwt>
<totfact> 0.85789775E-01</totfact>
</mgrwt>
</event>
<event>
12    4  0.4398275E-008  0.2209004E+04  0.7818608E-02  0.8514690E-01
         -2   -1    0    0    0  501 -0.00000000000E+00  0.00000000000E+00  0.60555072260E+03  0.60555072260E+03  0.00000000000E+00 0.  1.
          1   -1    0    0  501    0  0.00000000000E+00 -0.00000000000E+00 -0.20145713793E+04  0.20145713793E+04  0.00000000000E+00 0. -1.
        -24    2    1    2    0    0 -0.61980407289E+03  0.50527647732E+03 -0.11135813807E+04  0.13734113756E+04  0.82060391112E+02 0.  0.
        254    2    1    2    0    0  0.61980407289E+03 -0.50527647732E+03 -0.29543927600E+03  0.12467107263E+04  0.90969327911E+03 0.  0.
         23    2    4    4    0    0 -0.92760458163E+02 -0.27720890215E+03  0.18064353958E+03  0.35521537187E+03  0.89981075761E+02 0.  0.
         23    2    4    4    0    0  0.71256453105E+03 -0.22806757517E+03 -0.47608281557E+03  0.89149535446E+03  0.91356937268E+02 0.  0.
          3    1    3    3  502    0 -0.40787588994E+03  0.28969485488E+03 -0.65629367104E+03  0.82523162397E+03  0.00000000000E+00 0. -1.
         -4    1    3    3    0  502 -0.21192818294E+03  0.21558162244E+03 -0.45728770970E+03  0.54817975164E+03  0.00000000000E+00 0.  1.
         11    1    5    5    0    0 -0.54234888091E+02 -0.10491080826E+03  0.26947761825E+02  0.12113580248E+03  0.00000000000E+00 0.  1.
        -11    1    5    5    0    0 -0.38525570072E+02 -0.17229809389E+03  0.15369577775E+03  0.23407956939E+03  0.00000000000E+00 0. -1.
          1    1    6    6  503    0  0.32795065651E+03 -0.10434411548E+03 -0.27312379172E+03  0.43935854736E+03  0.00000000000E+00 0. -1.
         -1    1    6    6    0  503  0.38461387454E+03 -0.12372345969E+03 -0.20295902386E+03  0.45213680710E+03  0.00000000000E+00 0.  1.
<mgrwt>
<rscale>  0 0.22090044E+04</rscale>
<asrwt>0</asrwt>
<pdfrwt beam="1">  1        1 0.30993407E+00 0.22090044E+04</pdfrwt>
<pdfrwt beam="2">  1       -2 0.93161647E-01 0.22090044E+04</pdfrwt>
<totfact> 0.22738466E+00</totfact>
</mgrwt>
</event>
<event>
12    4  0.4398275E-008  0.1569166E+04  0.7818608E-02  0.8839718E-01
         -2   -1    0    0    0  501 -0.00000000000E+00  0.00000000000E+00  0.46471896407E+03  0.46471896407E+03  0.00000000000E+00 0.  1.
          1   -1    0    0  501    0  0.00000000000E+00 -0.00000000000E+00 -0.13246084435E+04  0.13246084435E+04  0.00000000000E+00 0. -1.
        -24    2    1    2    0    0 -0.77508258029E+02 -0.48522980555E+02 -0.87608574854E+03  0.88449993366E+03  0.80323621354E+02 0.  0.
        254    2    1    2    0    0  0.77508258029E+02  0.48522980555E+02  0.16196269089E+02  0.90482747394E+03  0.90004912575E+03 0.  0.
         23    2    4    4    0    0  0.21986847820E+03 -0.22260826595E+03 -0.30838572114E+03  0.44863041215E+03  0.90944521172E+02 0.  0.
         23    2    4    4    0    0 -0.14236022017E+03  0.27113124650E+03  0.32458199023E+03  0.45619706179E+03  0.94782412324E+02 0.  0.
          1    1    3    3  502    0 -0.46786961292E+02  0.63400055962E+00 -0.62762233019E+03  0.62936413233E+03  0.00000000000E+00 0. -1.
         -2    1    3    3    0  502 -0.30721296737E+02 -0.49156981115E+02 -0.24846341835E+03  0.25513580133E+03  0.00000000000E+00 0.  1.
         11    1    5    5    0    0  0.21535383196E+02 -0.76802038757E+01  0.10135487965E+01  0.22886361487E+02  0.00000000000E+00 0.  1.
        -11    1    5    5    0    0  0.19833309500E+03 -0.21492806207E+03 -0.30939926994E+03  0.42574405066E+03  0.00000000000E+00 0. -1.
          3    1    6    6  503    0 -0.19970445803E+02  0.81840775147E+02  0.14623340545E+03  0.16876297002E+03  0.00000000000E+00 0. -1.
         -3    1    6    6    0  503 -0.12238977436E+03  0.18929047135E+03  0.17834858478E+03  0.28743409176E+03  0.00000000000E+00 0.  1.
<mgrwt>
<rscale>  0 0.15691662E+04</rscale>
<asrwt>0</asrwt>
<pdfrwt beam="1">  1        1 0.20378591E+00 0.15691662E+04</pdfrwt>
<pdfrwt beam="2">  1       -2 0.71495226E-01 0.15691662E+04</pdfrwt>
<totfact> 0.13010311E+01</totfact>
</mgrwt>
</event>
<event>
12    4  0.4398275E-008  0.1197040E+04  0.7818608E-02  0.9115451E-01
         -2   -1    0    0    0  501 -0.00000000000E+00  0.00000000000E+00  0.26536372763E+03  0.26536372763E+03  0.00000000000E+00 0.  1.
          1   -1    0    0  501    0  0.00000000000E+00 -0.00000000000E+00 -0.13499447304E+04  0.13499447304E+04  0.00000000000E+00 0. -1.
        -24    2    1    2    0    0 -0.10147540859E+03 -0.19631864542E+03 -0.36927065100E+03  0.43807576693E+03  0.81922492575E+02 0.  0.
        254    2    1    2    0    0  0.10147540859E+03  0.19631864542E+03 -0.71531035172E+03  0.11772326911E+04  0.90849856386E+03 0.  0.
         23    2    4    4    0    0  0.36321440582E+03  0.43044135095E+03 -0.47054642230E+03  0.73968001136E+03  0.92239484242E+02 0.  0.
         23    2    4    4    0    0 -0.26173899723E+03 -0.23412270552E+03 -0.24476392942E+03  0.43755267970E+03  0.90676471365E+02 0.  0.
          1    1    3    3  502    0 -0.50945371315E+02 -0.59856873917E+02 -0.19978718247E+03  0.21469325674E+03  0.00000000000E+00 0. -1.
         -2    1    3    3    0  502 -0.50530037279E+02 -0.13646177151E+03 -0.16948346853E+03  0.22338251018E+03  0.00000000000E+00 0.  1.
         11    1    5    5    0    0  0.21776560488E+03  0.18987893047E+03 -0.22050104736E+03  0.36345093038E+03  0.00000000000E+00 0.  1.
        -11    1    5    5    0    0  0.14544880094E+03  0.24056242048E+03 -0.25004537495E+03  0.37622908098E+03  0.00000000000E+00 0. -1.
          2    1    6    6  503    0  0.63677806445E+01 -0.12053420378E+02 -0.15832459999E+02  0.20892591097E+02  0.00000000000E+00 0. -1.
         -2    1    6    6    0  503 -0.26810677787E+03 -0.22206928515E+03 -0.22893146942E+03  0.41666008861E+03  0.00000000000E+00 0.  1.
<mgrwt>
<rscale>  0 0.11970403E+04</rscale>
<asrwt>0</asrwt>
<pdfrwt beam="1">  1        1 0.20768381E+00 0.11970403E+04</pdfrwt>
<pdfrwt beam="2">  1       -2 0.40825188E-01 0.11970403E+04</pdfrwt>
<totfact> 0.41112818E+01</totfact>
</mgrwt>
</event>
<event>
12    4  0.4398275E-008  0.1588849E+04  0.7818608E-02  0.8827428E-01
         -2   -1    0    0    0  501 -0.00000000000E+00  0.00000000000E+00  0.23597996652E+03  0.23597996652E+03  0.00000000000E+00 0.  1.
          1   -1    0    0  501    0  0.00000000000E+00 -0.00000000000E+00 -0.26744235200E+04  0.26744235200E+04  0.00000000000E+00 0. -1.
        -24    2    1    2    0    0 -0.17235608108E+02 -0.15410574508E+03 -0.15568118310E+04  0.15665743591E+04  0.80290090561E+02 0.  0.
        254    2    1    2    0    0  0.17235608108E+02  0.15410574508E+03 -0.88163172253E+03  0.13438291275E+04  0.10022757020E+04 0.  0.
         23    2    4    4    0    0  0.38891245282E+03 -0.12078074944E+03 -0.94178557821E+02  0.42630382820E+03  0.83812098132E+02 0.  0.
         23    2    4    4    0    0 -0.37167684471E+03  0.27488649451E+03 -0.78745316470E+03  0.91752529925E+03  0.89799367517E+02 0.  0.
          1    1    3    3  502    0 -0.63329607953E+01 -0.14277208704E+03 -0.15177807684E+04  0.15244941574E+04  0.00000000000E+00 0. -1.
         -2    1    3    3    0  502 -0.10902647313E+02 -0.11333658041E+02 -0.39031062609E+02  0.42080201656E+02  0.00000000000E+00 0.  1.
         11    1    5    5    0    0  0.27207967841E+03 -0.10353075068E+03 -0.10066881064E+03  0.30802626053E+03  0.00000000000E+00 0. -1.
        -11    1    5    5    0    0  0.11683277441E+03 -0.17249998761E+02  0.64902528148E+01  0.11827756767E+03  0.00000000000E+00 0.  1.
          1    1    6    6  503    0 -0.13480840241E+03  0.11524199903E+03 -0.22313691907E+03  0.28503352146E+03  0.00000000000E+00 0. -1.
         -1    1    6    6    0  503 -0.23686844229E+03  0.15964449549E+03 -0.56431624563E+03  0.63249177779E+03  0.00000000000E+00 0.  1.
<mgrwt>
<rscale>  0 0.15888491E+04</rscale>
<asrwt>0</asrwt>
<pdfrwt beam="1">  1        1 0.41144978E+00 0.15888491E+04</pdfrwt>
<pdfrwt beam="2">  1       -2 0.36304610E-01 0.15888491E+04</pdfrwt>
<totfact> 0.61792041E+00</totfact>
</mgrwt>
</event>
<event>
12    4  0.4398275E-008  0.1273059E+04  0.7818608E-02  0.9051207E-01
          1   -1    0    0  501    0  0.00000000000E+00  0.00000000000E+00  0.20192725060E+04  0.20192725060E+04  0.00000000000E+00 0. -1.
         -2   -1    0    0    0  501 -0.00000000000E+00 -0.00000000000E+00 -0.20065134233E+03  0.20065134233E+03  0.00000000000E+00 0.  1.
        -24    2    1    2    0    0  0.22872161183E+03 -0.17070006556E+03  0.24636877603E+03  0.38751524728E+03  0.89545546899E+02 0.  0.
        254    2    1    2    0    0 -0.22872161183E+03  0.17070006556E+03  0.15722523877E+04  0.18324086011E+04  0.89682307210E+03 0.  0.
         23    2    4    4    0    0 -0.39126282680E+02  0.22128859277E+03  0.15982708774E+04  0.16166342536E+04  0.92395915253E+02 0.  0.
         23    2    4    4    0    0 -0.18959532915E+03 -0.50588527203E+02 -0.26018489736E+02  0.21577434745E+03  0.85883754509E+02 0.  0.
          3    1    3    3  502    0  0.84157544926E+02 -0.46305318244E+02  0.13806545110E+03  0.16819257907E+03  0.00000000000E+00 0. -1.
         -4    1    3    3    0  502  0.14456406690E+03 -0.12439474732E+03  0.10830332493E+03  0.21932266821E+03  0.00000000000E+00 0.  1.
         11    1    5    5    0    0 -0.26448816732E+02  0.15046393641E+02  0.35576159351E+03  0.35706056249E+03  0.00000000000E+00 0. -1.
        -11    1    5    5    0    0 -0.12677465948E+02  0.20624219912E+03  0.12425092839E+04  0.12595736911E+04  0.00000000000E+00 0.  1.
          1    1    6    6  503    0  0.31656452467E+01 -0.10716783679E+02  0.10775542435E+02  0.15523629634E+02  0.00000000000E+00 0. -1.
         -1    1    6    6    0  503 -0.19276097439E+03 -0.39871743524E+02 -0.36794032171E+02  0.20025071781E+03  0.00000000000E+00 0.  1.
<mgrwt>
<rscale>  0 0.12730589E+04</rscale>
<asrwt>0</asrwt>
<pdfrwt beam="1">  1        1 0.31065729E+00 0.12730589E+04</pdfrwt>
<pdfrwt beam="2">  1       -2 0.30869439E-01 0.12730589E+04</pdfrwt>
<totfact> 0.24328058E+01</totfact>
</mgrwt>
</event>
<event>
12    4  0.4398275E-008  0.1268469E+04  0.7818608E-02  0.9054950E-01
         -2   -1    0    0    0  501 -0.00000000000E+00  0.00000000000E+00  0.70711196171E+03  0.70711196171E+03  0.00000000000E+00 0.  1.
          1   -1    0    0  501    0  0.00000000000E+00 -0.00000000000E+00 -0.56886778048E+03  0.56886778048E+03  0.00000000000E+00 0. -1.
        -24    2    1    2    0    0  0.14050365100E+03 -0.16832082501E+03 -0.17906348758E+03  0.29432215417E+03  0.80551981815E+02 0.  0.
        254    2    1    2    0    0 -0.14050365100E+03  0.16832082501E+03  0.31730766881E+03  0.98165758802E+03  0.90271495354E+03 0.  0.
         23    2    4    4    0    0  0.76761654454E+02  0.43558475761E+03  0.41444968043E+03  0.61291425394E+03  0.90933560473E+02 0.  0.
         23    2    4    4    0    0 -0.21726530546E+03 -0.26726393260E+03 -0.97142011622E+02  0.36874333408E+03  0.88886744695E+02 0.  0.
          1    1    3    3  502    0  0.10377915590E+03 -0.13544764064E+03 -0.17569612615E+03  0.24491897701E+03  0.00000000000E+00 0. -1.
         -2    1    3    3    0  502  0.36724495103E+02 -0.32873184366E+02 -0.33673614352E+01  0.49403177165E+02  0.00000000000E+00 0.  1.
         11    1    5    5    0    0  0.94009262218E+02  0.40984229735E+03  0.38311152912E+03  0.56884347041E+03  0.00000000000E+00 0. -1.
        -11    1    5    5    0    0 -0.17247607764E+02  0.25742460254E+02  0.31338151312E+02  0.44070783532E+02  0.00000000000E+00 0.  1.
          3    1    6    6  503    0 -0.16798033889E+03 -0.22726626839E+03 -0.11125777307E+03  0.30371967843E+03  0.00000000000E+00 0. -1.
         -3    1    6    6    0  503 -0.49284966568E+02 -0.39997664212E+02  0.14115761450E+02  0.65023655644E+02  0.00000000000E+00 0.  1.
<mgrwt>
<rscale>  0 0.12684687E+04</rscale>
<asrwt>0</asrwt>
<pdfrwt beam="1">  1        1 0.87518120E-01 0.12684687E+04</pdfrwt>
<pdfrwt beam="2">  1       -2 0.10878646E+00 0.12684687E+04</pdfrwt>
<totfact> 0.21501535E+01</totfact>
</mgrwt>
</event>
<event>
12    4  0.4398275E-008  0.1823058E+04  0.7818608E-02  0.8694133E-01
         -2   -1    0    0    0  501 -0.00000000000E+00  0.00000000000E+00  0.75326376404E+03  0.75326376404E+03  0.00000000000E+00 0.  1.
          1   -1    0    0  501    0  0.00000000000E+00 -0.00000000000E+00 -0.11030471560E+04  0.11030471560E+04  0.00000000000E+00 0. -1.
        -24    2    1    2    0    0  0.54299510609E+03 -0.56476155910E+01  0.31376874661E+03  0.63213805302E+03  0.79196659891E+02 0.  0.
        254    2    1    2    0    0 -0.54299510609E+03  0.56476155910E+01 -0.66355213852E+03  0.12241728670E+04  0.87374034295E+03 0.  0.
         23    2    4    4    0    0 -0.45750280070E+02  0.20655894287E+03  0.12839275568E+03  0.26334437931E+03  0.90032646280E+02 0.  0.
         23    2    4    4    0    0 -0.49724482602E+03 -0.20091132728E+03 -0.79194489420E+03  0.96082848766E+03  0.91634539426E+02 0.  0.
          1    1    3    3  502    0  0.13556202170E+03  0.28359336002E+01  0.40630333927E+02  0.14154832490E+03  0.00000000000E+00 0. -1.
         -2    1    3    3    0  502  0.40743308438E+03 -0.84835491913E+01  0.27313841268E+03  0.49058972812E+03  0.00000000000E+00 0.  1.
         11    1    5    5    0    0 -0.53643422336E+02  0.13257785330E+03  0.12319322491E+03  0.18876195223E+03  0.00000000000E+00 0. -1.
        -11    1    5    5    0    0  0.78931422662E+01  0.73981089578E+02  0.51995307748E+01  0.74582427088E+02  0.00000000000E+00 0.  1.
          3    1    6    6  503    0 -0.38611039090E+03 -0.19260834137E+03 -0.65357923364E+03  0.78316347066E+03  0.00000000000E+00 0. -1.
         -3    1    6    6    0  503 -0.11113443511E+03 -0.83029859092E+01 -0.13836566056E+03  0.17766501700E+03  0.00000000000E+00 0.  1.
<mgrwt>
<rscale>  0 0.18230584E+04</rscale>
<asrwt>0</asrwt>
<pdfrwt beam="1">  1        1 0.16969956E+00 0.18230584E+04</pdfrwt>
<pdfrwt beam="2">  1       -2 0.11588673E+00 0.18230584E+04</pdfrwt>
<totfact> 0.60271640E+00</totfact>
</mgrwt>
</event>
<event>
12    4  0.4398275E-008  0.1062240E+04  0.7818608E-02  0.9242798E-01
          1   -1    0    0  501    0  0.00000000000E+00  0.00000000000E+00  0.96631427886E+03  0.96631427886E+03  0.00000000000E+00 0. -1.
         -2   -1    0    0    0  501 -0.00000000000E+00 -0.00000000000E+00 -0.29192190340E+03  0.29192190340E+03  0.00000000000E+00 0.  1.
        -24    2    1    2    0    0  0.50399166527E+02  0.60809641146E+02  0.20512010221E+03  0.23402331461E+03  0.80341564627E+02 0.  0.
        254    2    1    2    0    0 -0.50399166527E+02 -0.60809641146E+02  0.46927227325E+03  0.10242128676E+04  0.90694963663E+03 0.  0.
         23    2    4    4    0    0  0.36245149405E+03 -0.23834385490E+03  0.16012814203E+03  0.47138832451E+03  0.91580849020E+02 0.  0.
         23    2    4    4    0    0 -0.41285066057E+03  0.17753421376E+03  0.30914413122E+03  0.55282454314E+03  0.89893362599E+02 0.  0.
          3    1    3    3  502    0  0.71481127634E+02  0.43128368370E+02  0.17014025910E+03  0.18951864165E+03  0.00000000000E+00 0. -1.
         -4    1    3    3    0  502 -0.21081961107E+02  0.17681272776E+02  0.34979843106E+02  0.44504672955E+02  0.00000000000E+00 0.  1.
         11    1    5    5    0    0  0.15961388575E+02 -0.26608089597E+02  0.34354744128E+02  0.46292599855E+02  0.00000000000E+00 0. -1.
        -11    1    5    5    0    0  0.34649010547E+03 -0.21173576531E+03  0.12577339790E+03  0.42509572465E+03  0.00000000000E+00 0.  1.
          2    1    6    6  503    0 -0.55102952653E+02  0.31313389495E+02  0.10136808936E+02  0.64184255454E+02  0.00000000000E+00 0. -1.
         -2    1    6    6    0  503 -0.35774770792E+03  0.14622082426E+03  0.29900732228E+03  0.48864028769E+03  0.00000000000E+00 0.  1.
<mgrwt>
<rscale>  0 0.10622397E+04</rscale>
<asrwt>0</asrwt>
<pdfrwt beam="1">  1        1 0.14866373E+00 0.10622397E+04</pdfrwt>
<pdfrwt beam="2">  1       -2 0.44911063E-01 0.10622397E+04</pdfrwt>
<totfact> 0.66205979E+01</totfact>
</mgrwt>
</event>
<event>
12    4  0.4398275E-008  0.1433594E+04  0.7818608E-02  0.8929854E-01
          1   -1    0    0  501    0  0.00000000000E+00  0.00000000000E+00  0.31948520362E+04  0.31948520362E+04  0.00000000000E+00 0. -1.
         -2   -1    0    0    0  501 -0.00000000000E+00 -0.00000000000E+00 -0.16082046249E+03  0.16082046249E+03  0.00000000000E+00 0.  1.
        -24    2    1    2    0    0 -0.25704314459E+03 -0.35978873540E+03  0.97124298673E+03  0.10701467777E+04  0.79887885014E+02 0.  0.
        254    2    1    2    0    0  0.25704314459E+03  0.35978873540E+03  0.20627885870E+04  0.22855257210E+04  0.87921098409E+03 0.  0.
         23    2    4    4    0    0  0.37786534542E+02 -0.12841025413E+03  0.15004276018E+02  0.16720250389E+03  0.99068327171E+02 0.  0.
         23    2    4    4    0    0  0.21925661005E+03  0.48819898953E+03  0.20477843109E+04  0.21183232171E+04  0.86376811613E+02 0.  0.
          3    1    3    3  502    0 -0.21750579609E+03 -0.28784802743E+03  0.85341040304E+03  0.92653903007E+03  0.00000000000E+00 0. -1.
         -4    1    3    3    0  502 -0.39537348503E+02 -0.71940707971E+02  0.11783258369E+03  0.14360774759E+03  0.00000000000E+00 0.  1.
         11    1    5    5    0    0 -0.31381501034E+02 -0.31536469971E+02  0.18343600753E+02  0.48123125770E+02  0.00000000000E+00 0. -1.
        -11    1    5    5    0    0  0.69168035576E+02 -0.96873784159E+02 -0.33393247348E+01  0.11907937812E+03  0.00000000000E+00 0.  1.
          1    1    6    6  503    0  0.15030345862E+03  0.24157845497E+03  0.11561503576E+04  0.11906447535E+04  0.00000000000E+00 0. -1.
         -1    1    6    6    0  503  0.68953151433E+02  0.24662053456E+03  0.89163395335E+03  0.92767846365E+03  0.00000000000E+00 0.  1.
<mgrwt>
<rscale>  0 0.14335935E+04</rscale>
<asrwt>0</asrwt>
<pdfrwt beam="1">  1        1 0.49151565E+00 0.14335935E+04</pdfrwt>
<pdfrwt beam="2">  1       -2 0.24741612E-01 0.14335935E+04</pdfrwt>
<totfact> 0.54050748E+00</totfact>
</mgrwt>
</event>
<event>
12    4  0.4398275E-008  0.1638029E+04  0.7818608E-02  0.8797520E-01
          1   -1    0    0  501    0  0.00000000000E+00  0.00000000000E+00  0.12855515883E+04  0.12855515883E+04  0.00000000000E+00 0. -1.
         -2   -1    0    0    0  501 -0.00000000000E+00 -0.00000000000E+00 -0.52178734874E+03  0.52178734874E+03  0.00000000000E+00 0.  1.
        -24    2    1    2    0    0  0.56447778012E+03 -0.95416411142E+02  0.27868533800E+03  0.64163810628E+03  0.79337797142E+02 0.  0.
        254    2    1    2    0    0 -0.56447778012E+03  0.95416411142E+02  0.48507890161E+03  0.11657008308E+04  0.89208599944E+03 0.  0.
         23    2    4    4    0    0 -0.74931257295E+03  0.14697489415E+03  0.54766754780E+03  0.94412467404E+03  0.91436894765E+02 0.  0.
         23    2    4    4    0    0  0.18483479283E+03 -0.51558483005E+02 -0.62588646192E+02  0.22157615677E+03  0.91413767045E+02 0.  0.
          3    1    3    3  502    0  0.56353183954E+03 -0.89876909737E+02  0.27002852818E+03  0.63131719374E+03  0.00000000000E+00 0. -1.
         -4    1    3    3    0  502  0.94594057414E+00 -0.55395014050E+01  0.86568098219E+01  0.10320912541E+02  0.00000000000E+00 0.  1.
         11    1    5    5    0    0 -0.45346741384E+03  0.79931773489E+02  0.38325347304E+03  0.59908681210E+03  0.00000000000E+00 0. -1.
        -11    1    5    5    0    0 -0.29584515911E+03  0.67043120658E+02  0.16441407476E+03  0.34503786194E+03  0.00000000000E+00 0.  1.
          4    1    6    6  503    0 -0.84242075185E+01 -0.30090567835E+00  0.58341831535E+01  0.10251610098E+02  0.00000000000E+00 0.  1.
         -4    1    6    6    0  503  0.19325900035E+03 -0.51257577326E+02 -0.68422829346E+02  0.21132454667E+03  0.00000000000E+00 0. -1.
<mgrwt>
<rscale>  0 0.16380288E+04</rscale>
<asrwt>0</asrwt>
<pdfrwt beam="1">  1        1 0.19777717E+00 0.16380288E+04</pdfrwt>
<pdfrwt beam="2">  1       -2 0.80274977E-01 0.16380288E+04</pdfrwt>
<totfact> 0.10662265E+01</totfact>
</mgrwt>
</event>
<event>
12    4  0.4398275E-008  0.1155212E+04  0.7818608E-02  0.9152988E-01
         -2   -1    0    0    0  501 -0.00000000000E+00  0.00000000000E+00  0.17602572159E+03  0.17602572159E+03  0.00000000000E+00 0.  1.
          1   -1    0    0  501    0  0.00000000000E+00 -0.00000000000E+00 -0.18953412505E+04  0.18953412505E+04  0.00000000000E+00 0. -1.
        -24    2    1    2    0    0  0.14164639952E+03  0.11212579238E+03 -0.13546101261E+03  0.23802774098E+03  0.75310183403E+02 0.  0.
        254    2    1    2    0    0 -0.14164639952E+03 -0.11212579238E+03 -0.15838545163E+04  0.18333392311E+04  0.90548424157E+03 0.  0.
         23    2    4    4    0    0  0.37149218064E+03 -0.56800444966E+02 -0.83740038987E+03  0.92240259554E+03  0.91402431462E+02 0.  0.
         23    2    4    4    0    0 -0.51313858016E+03 -0.55325347416E+02 -0.74645412643E+03  0.91093663558E+03  0.78991737918E+02 0.  0.
          1    1    3    3  502    0  0.54550216063E+02  0.45357549693E+02 -0.10498170481E+02  0.71716420505E+02  0.00000000000E+00 0. -1.
         -2    1    3    3    0  502  0.87096183458E+02  0.66768242689E+02 -0.12496284213E+03  0.16631132048E+03  0.00000000000E+00 0.  1.
         11    1    5    5    0    0  0.14781353719E+03  0.38784515895E+01 -0.24345512641E+03  0.28484080245E+03  0.00000000000E+00 0.  1.
        -11    1    5    5    0    0  0.22367864344E+03 -0.60678896555E+02 -0.59394526346E+03  0.63756179309E+03  0.00000000000E+00 0. -1.
          1    1    6    6  503    0 -0.94005269780E+02 -0.36284573787E+01 -0.88807430003E+02  0.12937123356E+03  0.00000000000E+00 0. -1.
         -1    1    6    6    0  503 -0.41913331038E+03 -0.51696890038E+02 -0.65764669642E+03  0.78156540201E+03  0.00000000000E+00 0.  1.
<mgrwt>
<rscale>  0 0.11552122E+04</rscale>
<asrwt>0</asrwt>
<pdfrwt beam="1">  1        1 0.29159097E+00 0.11552122E+04</pdfrwt>
<pdfrwt beam="2">  1       -2 0.27080880E-01 0.11552122E+04</pdfrwt>
<totfact> 0.37975473E+01</totfact>
</mgrwt>
</event>
<event>
12    4  0.4398275E-008  0.1754876E+04  0.7818608E-02  0.8730671E-01
          1   -1    0    0  501    0  0.00000000000E+00  0.00000000000E+00  0.69413766285E+03  0.69413766285E+03  0.00000000000E+00 0. -1.
         -2   -1    0    0    0  501 -0.00000000000E+00 -0.00000000000E+00 -0.11091426122E+04  0.11091426122E+04  0.00000000000E+00 0.  1.
        -24    2    1    2    0    0 -0.24975261917E+02 -0.49895354258E+03  0.26113698009E+03  0.56939012754E+03  0.80213425390E+02 0.  0.
        254    2    1    2    0    0  0.24975261917E+02  0.49895354258E+03 -0.67614192947E+03  0.12338901475E+04  0.90318247659E+03 0.  0.
         23    2    4    4    0    0  0.33791951405E+03  0.13591131688E+03  0.28512725700E+02  0.37673435379E+03  0.91947342353E+02 0.  0.
         23    2    4    4    0    0 -0.31294425213E+03  0.36304222570E+03 -0.70465465517E+03  0.85715579374E+03  0.91891833709E+02 0.  0.
          3    1    3    3  502    0  0.15588048176E+02 -0.36035505932E+03  0.17117564637E+03  0.39924911764E+03  0.00000000000E+00 0. -1.
         -4    1    3    3    0  502 -0.40563310093E+02 -0.13859848326E+03  0.89961333714E+02  0.17014100990E+03  0.00000000000E+00 0.  1.
         11    1    5    5    0    0  0.14178587332E+03  0.88045064796E+02 -0.22738830890E+02  0.16844055847E+03  0.00000000000E+00 0. -1.
        -11    1    5    5    0    0  0.19613364073E+03  0.47866252084E+02  0.51251556590E+02  0.20829379532E+03  0.00000000000E+00 0.  1.
          3    1    6    6  503    0 -0.30656853867E+02  0.79582713184E+02 -0.91902845071E+02  0.12537696702E+03  0.00000000000E+00 0. -1.
         -3    1    6    6    0  503 -0.28228739827E+03  0.28345951252E+03 -0.61275181010E+03  0.73177882672E+03  0.00000000000E+00 0.  1.
<mgrwt>
<rscale>  0 0.17548762E+04</rscale>
<asrwt>0</asrwt>
<pdfrwt beam="1">  1        1 0.10679041E+00 0.17548762E+04</pdfrwt>
<pdfrwt beam="2">  1       -2 0.17063732E+00 0.17548762E+04</pdfrwt>
<totfact> 0.48245107E+00</totfact>
</mgrwt>
</event>
<event>
12    4  0.4398275E-008  0.1948553E+04  0.7818608E-02  0.8631059E-01
          1   -1    0    0  501    0  0.00000000000E+00  0.00000000000E+00  0.32499032747E+03  0.32499032747E+03  0.00000000000E+00 0. -1.
         -2   -1    0    0    0  501 -0.00000000000E+00 -0.00000000000E+00 -0.29207489505E+04  0.29207489505E+04  0.00000000000E+00 0.  1.
        -24    2    1    2    0    0  0.46564535910E+03 -0.45206328878E+02 -0.68910056878E+00  0.47453717912E+03  0.79472302664E+02 0.  0.
        254    2    1    2    0    0 -0.46564535910E+03  0.45206328878E+02 -0.25950695225E+04  0.27712020989E+04  0.85223590258E+03 0.  0.
         23    2    4    4    0    0 -0.68937162556E+03  0.73743005370E+02 -0.21660041993E+04  0.22760506711E+04  0.90339342493E+02 0.  0.
         23    2    4    4    0    0  0.22372626647E+03 -0.28536676492E+02 -0.42906532316E+03  0.49515142781E+03  0.10104504295E+03 0.  0.
          1    1    3    3  502    0  0.35914807855E+03 -0.37909783430E+02  0.32878363110E+02  0.36263684420E+03  0.00000000000E+00 0. -1.
         -2    1    3    3    0  502  0.10649728054E+03 -0.72965454478E+01 -0.33567463678E+02  0.11190033493E+03  0.00000000000E+00 0.  1.
         11    1    5    5    0    0 -0.36435567079E+03  0.21644482048E+02 -0.12738229156E+04  0.13250842836E+04  0.00000000000E+00 0.  1.
        -11    1    5    5    0    0 -0.32501595477E+03  0.52098523322E+02 -0.89218128371E+03  0.95096638741E+03  0.00000000000E+00 0. -1.
          4    1    6    6  503    0  0.18205550762E+02 -0.29007994713E+02 -0.11355367805E+03  0.11860583305E+03  0.00000000000E+00 0. -1.
         -4    1    6    6    0  503  0.20552071571E+03  0.47131822083E+00 -0.31551164511E+03  0.37654559475E+03  0.00000000000E+00 0.  1.
<mgrwt>
<rscale>  0 0.19485535E+04</rscale>
<asrwt>0</asrwt>
<pdfrwt beam="1">  1        1 0.49998509E-01 0.19485535E+04</pdfrwt>
<pdfrwt beam="2">  1       -2 0.44934601E+00 0.19485535E+04</pdfrwt>
<totfact> 0.22597719E-01</totfact>
</mgrwt>
</event>
<event>
12    4  0.4398275E-008  0.1145764E+04  0.7818608E-02  0.9161700E-01
          1   -1    0    0  501    0  0.00000000000E+00  0.00000000000E+00  0.17514105105E+04  0.17514105105E+04  0.00000000000E+00 0. -1.
         -2   -1    0    0    0  501 -0.00000000000E+00 -0.00000000000E+00 -0.18738821264E+03  0.18738821264E+03  0.00000000000E+00 0.  1.
        -24    2    1    2    0    0 -0.51961442728E+02  0.12352711987E+03  0.38831865427E+02  0.15957648024E+03  0.77445454334E+02 0.  0.
        254    2    1    2    0    0  0.51961442728E+02 -0.12352711987E+03  0.15251904324E+04  0.17792222429E+04  0.90634816356E+03 0.  0.
         23    2    4    4    0    0  0.34494302573E+03  0.24426731351E+03  0.79827199438E+03  0.90851129360E+03  0.97480162808E+02 0.  0.
         23    2    4    4    0    0 -0.29298158300E+03 -0.36779443338E+03  0.72691843801E+03  0.87071094927E+03  0.92823426233E+02 0.  0.
          1    1    3    3  502    0 -0.31353874701E+02  0.34430059911E+02 -0.20167738424E+02  0.50746745289E+02  0.00000000000E+00 0. -1.
         -2    1    3    3    0  502 -0.20607568027E+02  0.89097059963E+02  0.58999603850E+02  0.10882973495E+03  0.00000000000E+00 0.  1.
         11    1    5    5    0    0  0.10871882536E+03  0.82747181401E+02  0.16970262322E+03  0.21786660906E+03  0.00000000000E+00 0.  1.
        -11    1    5    5    0    0  0.23622420036E+03  0.16152013210E+03  0.62856937117E+03  0.69064468454E+03  0.00000000000E+00 0. -1.
          4    1    6    6  503    0 -0.30018338864E+02 -0.88413902779E+02  0.17793684547E+03  0.20094685827E+03  0.00000000000E+00 0.  1.
         -4    1    6    6    0  503 -0.26296324413E+03 -0.27938053060E+03  0.54898159253E+03  0.66976409099E+03  0.00000000000E+00 0. -1.
<mgrwt>
<rscale>  0 0.11457638E+04</rscale>
<asrwt>0</asrwt>
<pdfrwt beam="1">  1        1 0.26944776E+00 0.11457638E+04</pdfrwt>
<pdfrwt beam="2">  1       -2 0.28828957E-01 0.11457638E+04</pdfrwt>
<totfact> 0.42369678E+01</totfact>
</mgrwt>
</event>
<event>
12    4  0.4398275E-008  0.1653740E+04  0.7818608E-02  0.8788197E-01
          1   -1    0    0  501    0  0.00000000000E+00  0.00000000000E+00  0.14590592256E+04  0.14590592256E+04  0.00000000000E+00 0. -1.
         -2   -1    0    0    0  501 -0.00000000000E+00 -0.00000000000E+00 -0.46859915407E+03  0.46859915407E+03  0.00000000000E+00 0.  1.
        -24    2    1    2    0    0  0.29579793511E+03 -0.42994690454E+03  0.61690246496E+02  0.53094448336E+03  0.75799727947E+02 0.  0.
        254    2    1    2    0    0 -0.29579793511E+03  0.42994690454E+03  0.92876982506E+03  0.13967138963E+04  0.90324169586E+03 0.  0.
         23    2    4    4    0    0 -0.34559651686E+03 -0.65642980685E+02  0.79432834951E+03  0.87255887651E+03  0.81581326086E+02 0.  0.
         23    2    4    4    0    0  0.49798581751E+02  0.49558988522E+03  0.13444147555E+03  0.52415501982E+03  0.92599899443E+02 0.  0.
          3    1    3    3  502    0  0.25387595059E+03 -0.40491373377E+03  0.63276654232E+02  0.48209134513E+03  0.00000000000E+00 0. -1.
         -4    1    3    3    0  502  0.41921984519E+02 -0.25033170774E+02 -0.15864077358E+01  0.48853138226E+02  0.00000000000E+00 0.  1.
         11    1    5    5    0    0 -0.10237452710E+03 -0.49953114354E+02  0.31208163958E+03  0.33222102161E+03  0.00000000000E+00 0.  1.
        -11    1    5    5    0    0 -0.24322198976E+03 -0.15689866330E+02  0.48224670993E+03  0.54033785490E+03  0.00000000000E+00 0. -1.
          3    1    6    6  503    0  0.51893850353E+02  0.18174538240E+03  0.81665822429E+02  0.20589721290E+03  0.00000000000E+00 0. -1.
         -3    1    6    6    0  503 -0.20952686015E+01  0.31384450283E+03  0.52775653123E+02  0.31825780692E+03  0.00000000000E+00 0.  1.
<mgrwt>
<rscale>  0 0.16537399E+04</rscale>
<asrwt>0</asrwt>
<pdfrwt beam="1">  1        1 0.22447065E+00 0.16537399E+04</pdfrwt>
<pdfrwt beam="2">  1       -2 0.72092178E-01 0.16537399E+04</pdfrwt>
<totfact> 0.10202969E+01</totfact>
</mgrwt>
</event>
<event>
12    4  0.4398275E-008  0.1643358E+04  0.7818608E-02  0.8794346E-01
          1   -1    0    0  501    0  0.00000000000E+00  0.00000000000E+00  0.59717910619E+03  0.59717910619E+03  0.00000000000E+00 0. -1.
         -2   -1    0    0    0  501 -0.00000000000E+00 -0.00000000000E+00 -0.11305757943E+04  0.11305757943E+04  0.00000000000E+00 0.  1.
        -24    2    1    2    0    0  0.21285710864E+03 -0.54819824252E+03 -0.23011244820E+03  0.63648172162E+03  0.79547352833E+02 0.  0.
        254    2    1    2    0    0 -0.21285710864E+03  0.54819824252E+03 -0.30328423996E+03  0.10912731789E+04  0.86779396116E+03 0.  0.
         23    2    4    4    0    0 -0.42026529021E+03  0.61355754003E+03 -0.59026018522E+02  0.75155219901E+03  0.90944312077E+02 0.  0.
         23    2    4    4    0    0  0.20740818157E+03 -0.65359297511E+02 -0.24425822144E+03  0.33972097990E+03  0.91968874596E+02 0.  0.
          3    1    3    3  502    0  0.30119647016E+02 -0.13432099119E+03 -0.25755213300E+02  0.14004518137E+03  0.00000000000E+00 0. -1.
         -4    1    3    3    0  502  0.18273746163E+03 -0.41387725132E+03 -0.20435723490E+03  0.49643654025E+03  0.00000000000E+00 0.  1.
         11    1    5    5    0    0 -0.41580701068E+03  0.61627518782E+03 -0.61090867351E+02  0.74593744464E+03  0.00000000000E+00 0.  1.
        -11    1    5    5    0    0 -0.44582795369E+01 -0.27176477919E+01  0.20648488296E+01  0.56147543703E+01  0.00000000000E+00 0. -1.
          3    1    6    6  503    0  0.25776315472E+02 -0.52004426592E+01 -0.90553084313E+02  0.94293818047E+02  0.00000000000E+00 0. -1.
         -3    1    6    6    0  503  0.18163186610E+03 -0.60158854851E+02 -0.15370513712E+03  0.24542716186E+03  0.00000000000E+00 0.  1.
<mgrwt>
<rscale>  0 0.16433578E+04</rscale>
<asrwt>0</asrwt>
<pdfrwt beam="1">  1        1 0.91873710E-01 0.16433578E+04</pdfrwt>
<pdfrwt beam="2">  1       -2 0.17393474E+00 0.16433578E+04</pdfrwt>
<totfact> 0.57632169E+00</totfact>
</mgrwt>
</event>
<event>
12    4  0.4398275E-008  0.1309585E+04  0.7818608E-02  0.9021998E-01
          1   -1    0    0  501    0  0.00000000000E+00  0.00000000000E+00  0.44767152787E+03  0.44767152787E+03  0.00000000000E+00 0. -1.
         -2   -1    0    0    0  501 -0.00000000000E+00 -0.00000000000E+00 -0.95774096961E+03  0.95774096961E+03  0.00000000000E+00 0.  1.
        -24    2    1    2    0    0 -0.24591246537E+03  0.79201774274E+02  0.10581854827E+03  0.28862302888E+03  0.73210832316E+02 0.  0.
        254    2    1    2    0    0  0.24591246537E+03 -0.79201774274E+02 -0.61588799002E+03  0.11167894686E+04  0.89507253296E+03 0.  0.
         23    2    4    4    0    0  0.25627704479E+03 -0.50160792227E+02 -0.83424899941E+03  0.87894608746E+03  0.91546725094E+02 0.  0.
         23    2    4    4    0    0 -0.10364579426E+02 -0.29040982046E+02  0.21836100940E+03  0.23784338114E+03  0.89090630161E+02 0.  0.
          1    1    3    3  502    0 -0.45603303410E+02  0.12682218071E+02  0.52978677221E+02  0.71043931318E+02  0.00000000000E+00 0. -1.
         -2    1    3    3    0  502 -0.20030916196E+03  0.66519556203E+02  0.52839871050E+02  0.21757909756E+03  0.00000000000E+00 0.  1.
         11    1    5    5    0    0  0.22168920525E+03 -0.75069610281E+02 -0.70001628355E+03  0.73810862842E+03  0.00000000000E+00 0.  1.
        -11    1    5    5    0    0  0.34587839541E+02  0.24908818053E+02 -0.13423271587E+03  0.14083745904E+03  0.00000000000E+00 0. -1.
          2    1    6    6  503    0  0.49146209117E+01 -0.59661935649E+02  0.13154422859E+03  0.14452537542E+03  0.00000000000E+00 0. -1.
         -2    1    6    6    0  503 -0.15279200338E+02  0.30620953603E+02  0.86816780807E+02  0.93318005723E+02  0.00000000000E+00 0.  1.
<mgrwt>
<rscale>  0 0.13095852E+04</rscale>
<asrwt>0</asrwt>
<pdfrwt beam="1">  1        1 0.68872542E-01 0.13095852E+04</pdfrwt>
<pdfrwt beam="2">  1       -2 0.14734477E+00 0.13095852E+04</pdfrwt>
<totfact> 0.13889151E+01</totfact>
</mgrwt>
</event>
<event>
12    4  0.4398275E-008  0.2230835E+04  0.7818608E-02  0.8505702E-01
         -2   -1    0    0    0  501 -0.00000000000E+00  0.00000000000E+00  0.69159574265E+03  0.69159574265E+03  0.00000000000E+00 0.  1.
          1   -1    0    0  501    0  0.00000000000E+00 -0.00000000000E+00 -0.17989642985E+04  0.17989642985E+04  0.00000000000E+00 0. -1.
        -24    2    1    2    0    0  0.61506686841E+02 -0.19769075366E+03 -0.14646741544E+04  0.14814006980E+04  0.80080851828E+02 0.  0.
        254    2    1    2    0    0 -0.61506686841E+02  0.19769075366E+03  0.35730559858E+03  0.10091593431E+04  0.92079888274E+03 0.  0.
         23    2    4    4    0    0 -0.32992428603E+03  0.27932854076E+03  0.51250451748E+03  0.67548201647E+03  0.82101193269E+02 0.  0.
         23    2    4    4    0    0  0.26841759919E+03 -0.81637787105E+02 -0.15519891890E+03  0.33367732667E+03  0.92418169562E+02 0.  0.
          3    1    3    3  502    0  0.62169684473E+02 -0.20399710202E+03 -0.13684275114E+04  0.13849453929E+04  0.00000000000E+00 0. -1.
         -4    1    3    3    0  502 -0.66299763241E+00  0.63063483588E+01 -0.96246642942E+02  0.96455305055E+02  0.00000000000E+00 0.  1.
         11    1    5    5    0    0 -0.28885223704E+03  0.23765291491E+03  0.39375937802E+03  0.54310309388E+03  0.00000000000E+00 0. -1.
        -11    1    5    5    0    0 -0.41072048987E+02  0.41675625854E+02  0.11874513946E+03  0.13237892259E+03  0.00000000000E+00 0.  1.
          4    1    6    6  503    0  0.47193241243E+02  0.11904223181E+02 -0.54955734936E+02  0.73410117497E+02  0.00000000000E+00 0.  1.
         -4    1    6    6    0  503  0.22122435795E+03 -0.93542010287E+02 -0.10024318396E+03  0.26026720917E+03  0.00000000000E+00 0. -1.
<mgrwt>
<rscale>  0 0.22308349E+04</rscale>
<asrwt>0</asrwt>
<pdfrwt beam="1">  1        1 0.27676373E+00 0.22308349E+04</pdfrwt>
<pdfrwt beam="2">  1       -2 0.10639935E+00 0.22308349E+04</pdfrwt>
<totfact> 0.23203808E+00</totfact>
</mgrwt>
</event>
<event>
12    4  0.4398275E-008  0.1638117E+04  0.7818608E-02  0.8797467E-01
          3   -1    0    0  501    0  0.00000000000E+00  0.00000000000E+00  0.11403570035E+04  0.11403570035E+04  0.00000000000E+00 0. -1.
         -4   -1    0    0    0  501 -0.00000000000E+00 -0.00000000000E+00 -0.58828699855E+03  0.58828699855E+03  0.00000000000E+00 0.  1.
        -24    2    1    2    0    0  0.37949630332E+03 -0.38565844832E+03  0.12391122281E+02  0.54781925340E+03  0.84867611531E+02 0.  0.
        254    2    1    2    0    0 -0.37949630332E+03  0.38565844832E+03  0.53967888264E+03  0.11808247486E+04  0.90019103950E+03 0.  0.
         23    2    4    4    0    0 -0.11867498576E+03 -0.25132273598E+03  0.36091945720E+03  0.46367296386E+03  0.86503716499E+02 0.  0.
         23    2    4    4    0    0 -0.26082131756E+03  0.63698118430E+03  0.17875942544E+03  0.71715178476E+03  0.92622682718E+02 0.  0.
          1    1    3    3  502    0  0.93635508331E+02 -0.82817422451E+02  0.37803429300E+02  0.13059645152E+03  0.00000000000E+00 0. -1.
         -2    1    3    3    0  502  0.28586079499E+03 -0.30284102587E+03 -0.25412307019E+02  0.41722280188E+03  0.00000000000E+00 0.  1.
         11    1    5    5    0    0 -0.12508435291E+03 -0.17843172939E+03  0.26922638324E+03  0.34636227109E+03  0.00000000000E+00 0.  1.
        -11    1    5    5    0    0  0.64093671534E+01 -0.72891006583E+02  0.91693073955E+02  0.11731069277E+03  0.00000000000E+00 0. -1.
          4    1    6    6  503    0 -0.25887852789E+02  0.15764722728E+03  0.57064682274E+02  0.16964435491E+03  0.00000000000E+00 0. -1.
         -4    1    6    6    0  503 -0.23493346477E+03  0.47933395702E+03  0.12169474316E+03  0.54750742985E+03  0.00000000000E+00 0.  1.
<mgrwt>
<rscale>  0 0.16381175E+04</rscale>
<asrwt>0</asrwt>
<pdfrwt beam="1">  1        3 0.17543954E+00 0.16381175E+04</pdfrwt>
<pdfrwt beam="2">  1       -4 0.90505692E-01 0.16381175E+04</pdfrwt>
<totfact> 0.48777946E-01</totfact>
</mgrwt>
</event>
<event>
12    4  0.4398275E-008  0.1766261E+04  0.7818608E-02  0.8724450E-01
         -2   -1    0    0    0  501 -0.00000000000E+00  0.00000000000E+00  0.63022116663E+03  0.63022116663E+03  0.00000000000E+00 0.  1.
          1   -1    0    0  501    0  0.00000000000E+00 -0.00000000000E+00 -0.12375323765E+04  0.12375323765E+04  0.00000000000E+00 0. -1.
        -24    2    1    2    0    0 -0.25757293525E+03  0.56232884132E+03 -0.40210375255E+03  0.74334131772E+03  0.91166573156E+02 0.  0.
        254    2    1    2    0    0  0.25757293525E+03 -0.56232884132E+03 -0.20520745730E+03  0.11244122254E+04  0.91631610775E+03 0.  0.
         23    2    4    4    0    0  0.27305518459E+00 -0.31176470701E+03 -0.53694324123E+03  0.62743622261E+03  0.90392820754E+02 0.  0.
         23    2    4    4    0    0  0.25729988006E+03 -0.25056413431E+03  0.33173578394E+03  0.49697600277E+03  0.89167837850E+02 0.  0.
          3    1    3    3  502    0 -0.14381704430E+03  0.38076925686E+03 -0.22313372742E+03  0.46417370618E+03  0.00000000000E+00 0. -1.
         -4    1    3    3    0  502 -0.11375589095E+03  0.18155958446E+03 -0.17897002513E+03  0.27916761153E+03  0.00000000000E+00 0.  1.
         11    1    5    5    0    0 -0.17839683906E+02 -0.27301172973E+03 -0.50389843369E+03  0.57338232478E+03  0.00000000000E+00 0.  1.
        -11    1    5    5    0    0  0.18112739090E+02 -0.38752977281E+02 -0.33044807539E+02  0.54053897831E+02  0.00000000000E+00 0. -1.
          2    1    6    6  503    0  0.13578581335E+03 -0.18726578983E+03  0.18478039621E+03  0.29605752476E+03  0.00000000000E+00 0. -1.
         -2    1    6    6    0  503  0.12151406671E+03 -0.63298344480E+02  0.14695538773E+03  0.20091847801E+03  0.00000000000E+00 0.  1.
<mgrwt>
<rscale>  0 0.17662606E+04</rscale>
<asrwt>0</asrwt>
<pdfrwt beam="1">  1        1 0.19038959E+00 0.17662606E+04</pdfrwt>
<pdfrwt beam="2">  1       -2 0.96957104E-01 0.17662606E+04</pdfrwt>
<totfact> 0.74000947E+00</totfact>
</mgrwt>
</event>
<event>
12    4  0.4398275E-008  0.1955685E+04  0.7818608E-02  0.8627624E-01
          1   -1    0    0  501    0  0.00000000000E+00  0.00000000000E+00  0.89605044207E+03  0.89605044207E+03  0.00000000000E+00 0. -1.
         -2   -1    0    0    0  501 -0.00000000000E+00 -0.00000000000E+00 -0.10671004831E+04  0.10671004831E+04  0.00000000000E+00 0.  1.
        -24    2    1    2    0    0 -0.39056473298E+03 -0.42440597008E+03  0.44307446928E+03  0.73189129424E+03  0.81784125405E+02 0.  0.
        254    2    1    2    0    0  0.39056473298E+03  0.42440597008E+03 -0.61412451033E+03  0.12312596309E+04  0.89788090888E+03 0.  0.
         23    2    4    4    0    0  0.50520051050E+03  0.26695806429E+03  0.16038018034E+01  0.57899998474E+03  0.93510674517E+02 0.  0.
         23    2    4    4    0    0 -0.11463577753E+03  0.15744790579E+03 -0.61572831213E+03  0.65225964621E+03  0.91597419099E+02 0.  0.
          3    1    3    3  502    0 -0.33559166085E+03 -0.39928663588E+03  0.40612442505E+03  0.66105115464E+03  0.00000000000E+00 0. -1.
         -4    1    3    3    0  502 -0.54973072133E+02 -0.25119334197E+02  0.36950044229E+02  0.70840139601E+02  0.00000000000E+00 0.  1.
         11    1    5    5    0    0  0.14959030114E+02  0.14375475570E+02  0.17714589187E+02  0.27280644235E+02  0.00000000000E+00 0.  1.
        -11    1    5    5    0    0  0.49024148039E+03  0.25258258872E+03 -0.16110787384E+02  0.55171934051E+03  0.00000000000E+00 0. -1.
          1    1    6    6  503    0 -0.74460741585E+02  0.13948978590E+03 -0.55615377483E+03  0.57819445143E+03  0.00000000000E+00 0. -1.
         -1    1    6    6    0  503 -0.40175035940E+02  0.17958119886E+02 -0.59574537300E+02  0.74065194775E+02  0.00000000000E+00 0.  1.
<mgrwt>
<rscale>  0 0.19556849E+04</rscale>
<asrwt>0</asrwt>
<pdfrwt beam="1">  1        1 0.13785391E+00 0.19556849E+04</pdfrwt>
<pdfrwt beam="2">  1       -2 0.16416931E+00 0.19556849E+04</pdfrwt>
<totfact> 0.35112729E+00</totfact>
</mgrwt>
</event>
<event>
12    4  0.4398275E-008  0.1261004E+04  0.7818608E-02  0.9061074E-01
          1   -1    0    0  501    0  0.00000000000E+00  0.00000000000E+00  0.35016723552E+03  0.35016723552E+03  0.00000000000E+00 0. -1.
         -2   -1    0    0    0  501 -0.00000000000E+00 -0.00000000000E+00 -0.11352648515E+04  0.11352648515E+04  0.00000000000E+00 0.  1.
        -24    2    1    2    0    0 -0.28438128812E+03 -0.24436147209E+02 -0.26165556844E+03  0.39628403914E+03  0.84306351219E+02 0.  0.
        254    2    1    2    0    0  0.28438128812E+03  0.24436147209E+02 -0.52344204750E+03  0.10891480478E+04  0.91147246294E+03 0.  0.
         23    2    4    4    0    0  0.38275911267E+03  0.39410901633E+03 -0.36439448539E+03  0.66474213640E+03  0.85277850843E+02 0.  0.
         23    2    4    4    0    0 -0.98377824550E+02 -0.36967286912E+03 -0.15904756212E+03  0.42440591144E+03  0.92130473348E+02 0.  0.
          1    1    3    3  502    0 -0.93563044592E+02  0.67474503226E+01 -0.13768821456E+03  0.16660616984E+03  0.00000000000E+00 0. -1.
         -2    1    3    3    0  502 -0.19081824353E+03 -0.31183597531E+02 -0.12396735388E+03  0.22967786930E+03  0.00000000000E+00 0.  1.
         11    1    5    5    0    0  0.22808164069E+02  0.20634455327E+02  0.14465898054E+00  0.30757340929E+02  0.00000000000E+00 0.  1.
        -11    1    5    5    0    0  0.35995094860E+03  0.37347456100E+03 -0.36453914437E+03  0.63398479547E+03  0.00000000000E+00 0. -1.
          1    1    6    6  503    0 -0.72870704279E+02 -0.24454603285E+03 -0.15088697185E+03  0.29644523946E+03  0.00000000000E+00 0. -1.
         -1    1    6    6    0  503 -0.25507120271E+02 -0.12512683627E+03 -0.81605902727E+01  0.12796067198E+03  0.00000000000E+00 0.  1.
<mgrwt>
<rscale>  0 0.12610037E+04</rscale>
<asrwt>0</asrwt>
<pdfrwt beam="1">  1        1 0.53871882E-01 0.12610037E+04</pdfrwt>
<pdfrwt beam="2">  1       -2 0.17465613E+00 0.12610037E+04</pdfrwt>
<totfact> 0.12154843E+01</totfact>
</mgrwt>
</event>
<event>
12    4  0.4398275E-008  0.1603420E+04  0.7818608E-02  0.8818450E-01
         -4   -1    0    0    0  501 -0.00000000000E+00  0.00000000000E+00  0.95130721500E+03  0.95130721500E+03  0.00000000000E+00 0.  1.
          3   -1    0    0  501    0  0.00000000000E+00 -0.00000000000E+00 -0.67563728790E+03  0.67563728790E+03  0.00000000000E+00 0. -1.
        -24    2    1    2    0    0 -0.29721691605E+03 -0.42317603569E+03 -0.31327101924E+02  0.52433515494E+03  0.80809127130E+02 0.  0.
        254    2    1    2    0    0  0.29721691605E+03  0.42317603569E+03  0.30699702902E+03  0.11026093480E+04  0.92416683883E+03 0.  0.
         23    2    4    4    0    0 -0.19245834590E+03  0.34379687099E+03 -0.14054690908E+03  0.42816086475E+03  0.91278634062E+02 0.  0.
         23    2    4    4    0    0  0.48967526195E+03  0.79379164696E+02  0.44754393811E+03  0.67444848321E+03  0.92207732916E+02 0.  0.
          1    1    3    3  502    0 -0.18294866750E+03 -0.28077182148E+03 -0.57089775244E+02  0.33994451476E+03  0.00000000000E+00 0. -1.
         -2    1    3    3    0  502 -0.11426824855E+03 -0.14240421421E+03  0.25762673320E+02  0.18439064019E+03  0.00000000000E+00 0.  1.
         11    1    5    5    0    0 -0.15607122979E+03  0.29662944221E+03 -0.15109213828E+03  0.36766301011E+03  0.00000000000E+00 0. -1.
        -11    1    5    5    0    0 -0.36387116107E+02  0.47167428783E+02  0.10545229195E+02  0.60497854635E+02  0.00000000000E+00 0.  1.
          4    1    6    6  503    0  0.37268981365E+03  0.24658697214E+02  0.35737173828E+03  0.51693356234E+03  0.00000000000E+00 0. -1.
         -4    1    6    6    0  503  0.11698544830E+03  0.54720467482E+02  0.90172199823E+02  0.15751492087E+03  0.00000000000E+00 0.  1.
<mgrwt>
<rscale>  0 0.16034196E+04</rscale>
<asrwt>0</asrwt>
<pdfrwt beam="1">  1        3 0.10394420E+00 0.16034196E+04</pdfrwt>
<pdfrwt beam="2">  1       -4 0.14635496E+00 0.16034196E+04</pdfrwt>
<totfact> 0.55729320E-01</totfact>
</mgrwt>
</event>
<event>
12    4  0.4398275E-008  0.1772479E+04  0.7818608E-02  0.8721073E-01
          1   -1    0    0  501    0  0.00000000000E+00  0.00000000000E+00  0.17217699841E+04  0.17217699841E+04  0.00000000000E+00 0. -1.
         -2   -1    0    0    0  501 -0.00000000000E+00 -0.00000000000E+00 -0.45617016593E+03  0.45617016593E+03  0.00000000000E+00 0.  1.
        -24    2    1    2    0    0  0.38226366944E+03  0.52294582238E+03  0.48199142099E+03  0.81123137755E+03  0.78630604113E+02 0.  0.
        254    2    1    2    0    0 -0.38226366944E+03 -0.52294582238E+03  0.78360839717E+03  0.13667087725E+04  0.91337445907E+03 0.  0.
         23    2    4    4    0    0  0.19591694120E+03 -0.22196468834E+03  0.61266364752E+03  0.68669291656E+03  0.92404793917E+02 0.  0.
         23    2    4    4    0    0 -0.57818061064E+03 -0.30098113404E+03  0.17094474964E+03  0.68001585590E+03  0.91197561759E+02 0.  0.
          1    1    3    3  502    0  0.96949693422E+02  0.11563394672E+03  0.74416821670E+02  0.16825075345E+03  0.00000000000E+00 0. -1.
         -2    1    3    3    0  502  0.28531397602E+03  0.40731187566E+03  0.40757459932E+03  0.64298062411E+03  0.00000000000E+00 0.  1.
         11    1    5    5    0    0  0.15645803138E+03 -0.18888112939E+03  0.41154670308E+03  0.47908859874E+03  0.00000000000E+00 0. -1.
        -11    1    5    5    0    0  0.39458909819E+02 -0.33083558948E+02  0.20111694444E+03  0.20760431782E+03  0.00000000000E+00 0.  1.
          2    1    6    6  503    0 -0.53506857337E+03 -0.24764944882E+03  0.15283359928E+03  0.60908680562E+03  0.00000000000E+00 0. -1.
         -2    1    6    6    0  503 -0.43112037272E+02 -0.53331685218E+02  0.18111150364E+02  0.70929050279E+02  0.00000000000E+00 0.  1.
<mgrwt>
<rscale>  0 0.17724786E+04</rscale>
<asrwt>0</asrwt>
<pdfrwt beam="1">  1        1 0.26488769E+00 0.17724786E+04</pdfrwt>
<pdfrwt beam="2">  1       -2 0.70180026E-01 0.17724786E+04</pdfrwt>
<totfact> 0.70683673E+00</totfact>
</mgrwt>
</event>
<event>
12    4  0.4398275E-008  0.1382686E+04  0.7818608E-02  0.8966448E-01
          1   -1    0    0  501    0  0.00000000000E+00  0.00000000000E+00  0.20539822059E+04  0.20539822059E+04  0.00000000000E+00 0. -1.
         -2   -1    0    0    0  501 -0.00000000000E+00 -0.00000000000E+00 -0.23269679747E+03  0.23269679747E+03  0.00000000000E+00 0.  1.
        -24    2    1    2    0    0  0.13986423300E+02  0.70466069074E+02 -0.11137520659E+03  0.15336637954E+03  0.77173329603E+02 0.  0.
        254    2    1    2    0    0 -0.13986423300E+02 -0.70466069074E+02  0.19326606150E+04  0.21333126238E+04  0.90038025924E+03 0.  0.
         23    2    4    4    0    0 -0.29290205634E+03 -0.14361313659E+03  0.24846134159E+03  0.42246858761E+03  0.10163818988E+03 0.  0.
         23    2    4    4    0    0  0.27891563304E+03  0.73147067520E+02  0.16841992734E+04  0.17108440362E+04  0.85531864337E+02 0.  0.
          1    1    3    3  502    0  0.36952392816E+02  0.51891991923E+02 -0.37779055755E+02  0.74064264084E+02  0.00000000000E+00 0. -1.
         -2    1    3    3    0  502 -0.22965969516E+02  0.18574077152E+02 -0.73596150832E+02  0.79302115452E+02  0.00000000000E+00 0.  1.
         11    1    5    5    0    0 -0.17940329744E+03 -0.54176549624E+02  0.18915080709E+03  0.26626804067E+03  0.00000000000E+00 0.  1.
        -11    1    5    5    0    0 -0.11349875890E+03 -0.89436586971E+02  0.59310534501E+02  0.15620054694E+03  0.00000000000E+00 0. -1.
          3    1    6    6  503    0  0.68750057993E+02  0.58186441404E+02  0.50588786759E+03  0.51384313463E+03  0.00000000000E+00 0. -1.
         -3    1    6    6    0  503  0.21016557505E+03  0.14960626116E+02  0.11783114058E+04  0.11970009015E+04  0.00000000000E+00 0.  1.
<mgrwt>
<rscale>  0 0.13826859E+04</rscale>
<asrwt>0</asrwt>
<pdfrwt beam="1">  1        1 0.31599725E+00 0.13826859E+04</pdfrwt>
<pdfrwt beam="2">  1       -2 0.35799509E-01 0.13826859E+04</pdfrwt>
<totfact> 0.17241572E+01</totfact>
</mgrwt>
</event>
<event>
12    4  0.4398275E-008  0.1494076E+04  0.7818608E-02  0.8888402E-01
          1   -1    0    0  501    0  0.00000000000E+00  0.00000000000E+00  0.76945244928E+03  0.76945244928E+03  0.00000000000E+00 0. -1.
         -2   -1    0    0    0  501 -0.00000000000E+00 -0.00000000000E+00 -0.72527605021E+03  0.72527605021E+03  0.00000000000E+00 0.  1.
        -24    2    1    2    0    0  0.29052917800E+03 -0.32983318043E+03 -0.14358495896E+03  0.46963193991E+03  0.82099868246E+02 0.  0.
        254    2    1    2    0    0 -0.29052917800E+03  0.32983318043E+03  0.18776135802E+03  0.10250965596E+04  0.90684700955E+03 0.  0.
         23    2    4    4    0    0 -0.54428401215E+03  0.23961929194E+03  0.35324956315E+03  0.69817683070E+03  0.94884888722E+02 0.  0.
         23    2    4    4    0    0  0.25375483415E+03  0.90213888485E+02 -0.16548820513E+03  0.32691972888E+03  0.83427223159E+02 0.  0.
          1    1    3    3  502    0  0.95881143165E+02 -0.16617010208E+03 -0.77217312738E+02  0.20680476258E+03  0.00000000000E+00 0. -1.
         -2    1    3    3    0  502  0.19464803483E+03 -0.16366307835E+03 -0.66367646220E+02  0.26282717733E+03  0.00000000000E+00 0.  1.
         11    1    5    5    0    0 -0.21353965286E+03  0.81254673337E+02  0.84765958194E+02  0.24369401501E+03  0.00000000000E+00 0. -1.
        -11    1    5    5    0    0 -0.33074435929E+03  0.15836461861E+03  0.26848360496E+03  0.45448281569E+03  0.00000000000E+00 0.  1.
          3    1    6    6  503    0  0.80667731162E+02  0.58008196523E+02 -0.94394928020E+02  0.13704975794E+03  0.00000000000E+00 0. -1.
         -3    1    6    6    0  503  0.17308710299E+03  0.32205691962E+02 -0.71093277107E+02  0.18986997095E+03  0.00000000000E+00 0.  1.
<mgrwt>
<rscale>  0 0.14940755E+04</rscale>
<asrwt>0</asrwt>
<pdfrwt beam="1">  1        1 0.11837730E+00 0.14940755E+04</pdfrwt>
<pdfrwt beam="2">  1       -2 0.11158093E+00 0.14940755E+04</pdfrwt>
<totfact> 0.12656223E+01</totfact>
</mgrwt>
</event>
<event>
12    4  0.4398275E-008  0.2246640E+04  0.7818608E-02  0.8499262E-01
         -2   -1    0    0    0  501 -0.00000000000E+00  0.00000000000E+00  0.21646414338E+04  0.21646414338E+04  0.00000000000E+00 0.  1.
          1   -1    0    0  501    0  0.00000000000E+00 -0.00000000000E+00 -0.58293623232E+03  0.58293623232E+03  0.00000000000E+00 0. -1.
        -24    2    1    2    0    0 -0.28930684779E+03  0.83110095224E+03  0.10626976751E+04  0.13818467905E+04  0.75808698848E+02 0.  0.
        254    2    1    2    0    0  0.28930684779E+03 -0.83110095224E+03  0.51900752644E+03  0.13657308756E+04  0.90632486847E+03 0.  0.
         23    2    4    4    0    0  0.34474029358E+03 -0.15722485992E+03  0.56062555928E+03  0.68253883413E+03  0.89401989829E+02 0.  0.
         23    2    4    4    0    0 -0.55433445795E+02 -0.67387609232E+03 -0.41618032837E+02  0.68319204151E+03  0.88529374878E+02 0.  0.
          3    1    3    3  502    0 -0.17036911382E+03  0.42827093678E+03  0.50568700834E+03  0.68422290274E+03  0.00000000000E+00 0. -1.
         -4    1    3    3    0  502 -0.11893773397E+03  0.40283001546E+03  0.55701066672E+03  0.69762388775E+03  0.00000000000E+00 0.  1.
         11    1    5    5    0    0  0.48657426137E+02 -0.32367240570E+02  0.40295837115E+02  0.70985476467E+02  0.00000000000E+00 0.  1.
        -11    1    5    5    0    0  0.29608286745E+03 -0.12485761935E+03  0.52032972217E+03  0.61155335767E+03  0.00000000000E+00 0. -1.
          1    1    6    6  503    0 -0.12980410499E+02 -0.54138829153E+03 -0.49797092828E+02  0.54382857935E+03  0.00000000000E+00 0. -1.
         -1    1    6    6    0  503 -0.42453035297E+02 -0.13248780079E+03  0.81790599906E+01  0.13936346217E+03  0.00000000000E+00 0.  1.
<mgrwt>
<rscale>  0 0.22466401E+04</rscale>
<asrwt>0</asrwt>
<pdfrwt beam="1">  1        1 0.89682498E-01 0.22466401E+04</pdfrwt>
<pdfrwt beam="2">  1       -2 0.33302176E+00 0.22466401E+04</pdfrwt>
<totfact> 0.56514888E-01</totfact>
</mgrwt>
</event>
<event>
12    4  0.4398275E-008  0.2436606E+04  0.7818608E-02  0.8425924E-01
          1   -1    0    0  501    0  0.00000000000E+00  0.00000000000E+00  0.15052033212E+04  0.15052033212E+04  0.00000000000E+00 0. -1.
         -2   -1    0    0    0  501 -0.00000000000E+00 -0.00000000000E+00 -0.98608779446E+03  0.98608779446E+03  0.00000000000E+00 0.  1.
        -24    2    1    2    0    0 -0.60938954519E+02 -0.69142784350E+03 -0.58186444145E+03  0.90943201134E+03  0.81941052512E+02 0.  0.
        254    2    1    2    0    0  0.60938954519E+02  0.69142784350E+03  0.11009799682E+04  0.15818591043E+04  0.89907470024E+03 0.  0.
         23    2    4    4    0    0  0.60569381014E+02  0.29473440741E+03  0.11298291387E+04  0.11733577965E+04  0.98577964808E+02 0.  0.
         23    2    4    4    0    0  0.36957350454E+00  0.39669343609E+03 -0.28849170505E+02  0.40850130781E+03  0.93140888036E+02 0.  0.
          3    1    3    3  502    0 -0.54065330974E+02 -0.47161520521E+03 -0.44325184383E+03  0.64947375532E+03  0.00000000000E+00 0. -1.
         -4    1    3    3    0  502 -0.68736235448E+01 -0.21981263829E+03 -0.13861259763E+03  0.25995825602E+03  0.00000000000E+00 0.  1.
         11    1    5    5    0    0  0.23653665759E+02  0.26798664681E+03  0.91421859037E+03  0.95298057155E+03  0.00000000000E+00 0. -1.
        -11    1    5    5    0    0  0.36915715255E+02  0.26747760602E+02  0.21561054834E+03  0.22037722497E+03  0.00000000000E+00 0.  1.
          1    1    6    6  503    0 -0.21932542223E+02  0.37513850664E+03 -0.32923986352E+02  0.37721866928E+03  0.00000000000E+00 0. -1.
         -1    1    6    6    0  503  0.22302115728E+02  0.21554929442E+02  0.40748158474E+01  0.31282638530E+02  0.00000000000E+00 0.  1.
<mgrwt>
<rscale>  0 0.24366063E+04</rscale>
<asrwt>0</asrwt>
<pdfrwt beam="1">  1        1 0.23156974E+00 0.24366063E+04</pdfrwt>
<pdfrwt beam="2">  1       -2 0.15170581E+00 0.24366063E+04</pdfrwt>
<totfact> 0.14795149E+00</totfact>
</mgrwt>
</event>
<event>
12    4  0.4398275E-008  0.1324474E+04  0.7818608E-02  0.9010379E-01
         -2   -1    0    0    0  501 -0.00000000000E+00  0.00000000000E+00  0.13707514682E+04  0.13707514682E+04  0.00000000000E+00 0.  1.
          1   -1    0    0  501    0  0.00000000000E+00 -0.00000000000E+00 -0.31993950407E+03  0.31993950407E+03  0.00000000000E+00 0. -1.
        -24    2    1    2    0    0 -0.62113037430E+02  0.23775849920E+03  0.59950462829E+03  0.65241298773E+03  0.76483814343E+02 0.  0.
        254    2    1    2    0    0  0.62113037430E+02 -0.23775849920E+03  0.45130733582E+03  0.10382779845E+04  0.90219495034E+03 0.  0.
         23    2    4    4    0    0  0.18170756660E+03 -0.88219168368E+02  0.68708802953E+03  0.72195684296E+03  0.91276839069E+02 0.  0.
         23    2    4    4    0    0 -0.11959452917E+03 -0.14953933083E+03 -0.23578069371E+03  0.31632114156E+03  0.88327041166E+02 0.  0.
          3    1    3    3  502    0 -0.21623521325E+02  0.21223387133E+02  0.34129796938E+02  0.45638272041E+02  0.00000000000E+00 0. -1.
         -4    1    3    3    0  502 -0.40489516105E+02  0.21653511207E+03  0.56537483136E+03  0.60677471569E+03  0.00000000000E+00 0.  1.
         11    1    5    5    0    0  0.70215681530E+01 -0.46834840872E+01  0.16339825669E+03  0.16361609863E+03  0.00000000000E+00 0.  1.
        -11    1    5    5    0    0  0.17468599845E+03 -0.83535684281E+02  0.52368977284E+03  0.55834074433E+03  0.00000000000E+00 0. -1.
          3    1    6    6  503    0 -0.13011132973E+03 -0.14115171135E+03 -0.23412749274E+03  0.30276797485E+03  0.00000000000E+00 0. -1.
         -3    1    6    6    0  503  0.10516800554E+02 -0.83876194812E+01 -0.16532009705E+01  0.13553166712E+02  0.00000000000E+00 0.  1.
<mgrwt>
<rscale>  0 0.13244735E+04</rscale>
<asrwt>0</asrwt>
<pdfrwt beam="1">  1        1 0.49221463E-01 0.13244735E+04</pdfrwt>
<pdfrwt beam="2">  1       -2 0.21088484E+00 0.13244735E+04</pdfrwt>
<totfact> 0.77954892E+00</totfact>
</mgrwt>
</event>
<event>
12    4  0.4398275E-008  0.2066381E+04  0.7818608E-02  0.8576199E-01
         -2   -1    0    0    0  501 -0.00000000000E+00  0.00000000000E+00  0.86597841965E+03  0.86597841965E+03  0.00000000000E+00 0.  1.
          1   -1    0    0  501    0  0.00000000000E+00 -0.00000000000E+00 -0.12326896867E+04  0.12326896867E+04  0.00000000000E+00 0. -1.
        -24    2    1    2    0    0 -0.56997522412E+03 -0.19790290980E+03  0.43438841834E+03  0.74762798943E+03  0.78847921847E+02 0.  0.
        254    2    1    2    0    0  0.56997522412E+03  0.19790290980E+03 -0.80109968541E+03  0.13510401170E+04  0.90526867494E+03 0.  0.
         23    2    4    4    0    0  0.20266285910E+03  0.46483933195E+03 -0.12314891967E+03  0.52969407422E+03  0.90897287436E+02 0.  0.
         23    2    4    4    0    0  0.36731236502E+03 -0.26693642215E+03 -0.67795076574E+03  0.82134604273E+03  0.93907689650E+02 0.  0.
          1    1    3    3  502    0 -0.52276618302E+03 -0.19176027170E+03  0.42131968149E+03  0.69825980690E+03  0.00000000000E+00 0. -1.
         -2    1    3    3    0  502 -0.47209041095E+02 -0.61426381014E+01  0.13068736842E+02  0.49368182533E+02  0.00000000000E+00 0.  1.
         11    1    5    5    0    0  0.16672255147E+03  0.43769763462E+03 -0.99509618393E+02  0.47882960714E+03  0.00000000000E+00 0.  1.
        -11    1    5    5    0    0  0.35940307632E+02  0.27141697327E+02 -0.23639301277E+02  0.50864467080E+02  0.00000000000E+00 0. -1.
          4    1    6    6  503    0  0.17384253738E+03 -0.18323494626E+03 -0.35495068499E+03  0.43564465118E+03  0.00000000000E+00 0. -1.
         -4    1    6    6    0  503  0.19346982764E+03 -0.83701475885E+02 -0.32300008076E+03  0.38570139155E+03  0.00000000000E+00 0.  1.
<mgrwt>
<rscale>  0 0.20663811E+04</rscale>
<asrwt>0</asrwt>
<pdfrwt beam="1">  1        1 0.18964457E+00 0.20663811E+04</pdfrwt>
<pdfrwt beam="2">  1       -2 0.13322745E+00 0.20663811E+04</pdfrwt>
<totfact> 0.33398940E+00</totfact>
</mgrwt>
</event>
<event>
12    4  0.4398275E-008  0.2265813E+04  0.7818608E-02  0.8491524E-01
         -2   -1    0    0    0  501 -0.00000000000E+00  0.00000000000E+00  0.71698491374E+03  0.71698491374E+03  0.00000000000E+00 0.  1.
          3   -1    0    0  501    0  0.00000000000E+00 -0.00000000000E+00 -0.17901029043E+04  0.17901029043E+04  0.00000000000E+00 0. -1.
        -24    2    1    2    0    0  0.20919092652E+03  0.73483700153E+03 -0.10841371398E+04  0.13287492923E+04  0.80467891376E+02 0.  0.
        254    2    1    2    0    0 -0.20919092652E+03 -0.73483700153E+03  0.11019149233E+02  0.11783385257E+04  0.89700278530E+03 0.  0.
         23    2    4    4    0    0  0.29346928710E+03 -0.47114953736E+03  0.15876471335E+03  0.58391680572E+03  0.87444226704E+02 0.  0.
         23    2    4    4    0    0 -0.50266021362E+03 -0.26368746418E+03 -0.14774556412E+03  0.59442171993E+03  0.96488653702E+02 0.  0.
          1    1    3    3  502    0  0.21086743869E+03  0.69127401091E+03 -0.10421112605E+04  0.12681958500E+04  0.00000000000E+00 0. -1.
         -2    1    3    3    0  502 -0.16765121680E+01  0.43562990628E+02 -0.42025879295E+02  0.60553442313E+02  0.00000000000E+00 0.  1.
         11    1    5    5    0    0  0.26066593256E+02 -0.77234149398E+02  0.49737401126E+02  0.95490262268E+02  0.00000000000E+00 0. -1.
        -11    1    5    5    0    0  0.26740269384E+03 -0.39391538796E+03  0.10902731222E+03  0.48842654346E+03  0.00000000000E+00 0.  1.
          1    1    6    6  503    0 -0.15903681812E+03 -0.13445389982E+03 -0.64016135363E+02  0.21787295905E+03  0.00000000000E+00 0. -1.
         -1    1    6    6    0  503 -0.34362339549E+03 -0.12923356436E+03 -0.83729428755E+02  0.37654876089E+03  0.00000000000E+00 0.  1.
<mgrwt>
<rscale>  0 0.22658127E+04</rscale>
<asrwt>0</asrwt>
<pdfrwt beam="1">  1        3 0.27540044E+00 0.22658127E+04</pdfrwt>
<pdfrwt beam="2">  1       -2 0.11030537E+00 0.22658127E+04</pdfrwt>
<totfact> 0.12891854E-01</totfact>
</mgrwt>
</event>
<event>
12    4  0.4398275E-008  0.1437039E+04  0.7818608E-02  0.8927436E-01
         -4   -1    0    0    0  501 -0.00000000000E+00  0.00000000000E+00  0.10444553213E+04  0.10444553213E+04  0.00000000000E+00 0.  1.
          3   -1    0    0  501    0  0.00000000000E+00 -0.00000000000E+00 -0.49429626977E+03  0.49429626977E+03  0.00000000000E+00 0. -1.
        -24    2    1    2    0    0 -0.82058891937E+02  0.40866642536E+03  0.41907869609E+02  0.42672443688E+03  0.81213093370E+02 0.  0.
        254    2    1    2    0    0  0.82058891937E+02 -0.40866642536E+03  0.50825118196E+03  0.11120271542E+04  0.89696333191E+03 0.  0.
         23    2    4    4    0    0 -0.32627635988E+02  0.15990224750E+03  0.48827191400E+03  0.52259047450E+03  0.89766645573E+02 0.  0.
         23    2    4    4    0    0  0.11468652793E+03 -0.56856867286E+03  0.19979267957E+02  0.58943667971E+03  0.10301986601E+03 0.  0.
          1    1    3    3  502    0 -0.42106266967E+02  0.11079866649E+03 -0.19102267987E+02  0.12005906403E+03  0.00000000000E+00 0. -1.
         -2    1    3    3    0  502 -0.39952624970E+02  0.29786775887E+03  0.61010137596E+02  0.30666537285E+03  0.00000000000E+00 0.  1.
         11    1    5    5    0    0 -0.21484752736E+02 -0.19805148777E+01  0.34635175428E+02  0.40805789004E+02  0.00000000000E+00 0. -1.
        -11    1    5    5    0    0 -0.11142883252E+02  0.16188276238E+03  0.45363673857E+03  0.48178468550E+03  0.00000000000E+00 0.  1.
          4    1    6    6  503    0  0.32122230260E+02 -0.60270729467E+02  0.29484557988E+02  0.74389096426E+02  0.00000000000E+00 0. -1.
         -4    1    6    6    0  503  0.82564297665E+02 -0.50829794340E+03 -0.95052900309E+01  0.51504758329E+03  0.00000000000E+00 0.  1.
<mgrwt>
<rscale>  0 0.14370391E+04</rscale>
<asrwt>0</asrwt>
<pdfrwt beam="1">  1        3 0.76045580E-01 0.14370391E+04</pdfrwt>
<pdfrwt beam="2">  1       -4 0.16068543E+00 0.14370391E+04</pdfrwt>
<totfact> 0.89396272E-01</totfact>
</mgrwt>
</event>
<event>
12    4  0.4800247E-008  0.1270015E+04  0.7818608E-02  0.9053687E-01
         -2   -1    0    0    0  501 -0.00000000000E+00  0.00000000000E+00  0.45628039498E+03  0.45628039498E+03  0.00000000000E+00 0.  1.
          1   -1    0    0  501    0  0.00000000000E+00 -0.00000000000E+00 -0.88374326731E+03  0.88374326731E+03  0.00000000000E+00 0. -1.
        -24    2    1    2    0    0  0.98003202622E+02  0.86644292434E+02 -0.39032069534E+03  0.41928098973E+03  0.79589207851E+02 0.  0.
        254    2    1    2    0    0 -0.98003202622E+02 -0.86644292434E+02 -0.37142176992E+02  0.92074267256E+03  0.91064574156E+03 0.  0.
         23    2    4    4    0    0  0.36988568599E+03 -0.15803116906E+03 -0.12462905352E+03  0.43111466039E+03  0.92402263648E+02 0.  0.
         23    2    4    4    0    0 -0.46788888861E+03  0.71386876625E+02  0.87486876530E+02  0.48962801217E+03  0.89808343177E+02 0.  0.
          1    1    3    3  502    0  0.10322542415E+03  0.67512532072E+02 -0.37329157628E+03  0.39314123556E+03  0.00000000000E+00 0. -1.
         -2    1    3    3    0  502 -0.52222215260E+01  0.19131760362E+02 -0.17029119059E+02  0.26139754171E+02  0.00000000000E+00 0.  1.
         11    1    5    5    0    0  0.28090498933E+03 -0.15752764803E+03 -0.11333003916E+03  0.34141802926E+03  0.00000000000E+00 0.  1.
        -11    1    5    5    0    0  0.88980696656E+02 -0.50352102979E+00 -0.11299014359E+02  0.89696631131E+02  0.00000000000E+00 0. -1.
          3    1    6    6  503    0 -0.41342160086E+03  0.91946668231E+02  0.76041007164E+02  0.43029506694E+03  0.00000000000E+00 0.  1.
         -3    1    6    6    0  503 -0.54467287746E+02 -0.20559791606E+02  0.11445869366E+02  0.59332945239E+02  0.00000000000E+00 0. -1.
<mgrwt>
<rscale>  0 0.12700153E+04</rscale>
<asrwt>0</asrwt>
<pdfrwt beam="1">  1        1 0.13596050E+00 0.12700153E+04</pdfrwt>
<pdfrwt beam="2">  1       -2 0.70196985E-01 0.12700153E+04</pdfrwt>
<totfact> 0.29926833E+01</totfact>
</mgrwt>
</event>
<event>
12    4  0.4398275E-008  0.1689149E+04  0.7818608E-02  0.8767577E-01
          1   -1    0    0  501    0  0.00000000000E+00  0.00000000000E+00  0.13122002259E+04  0.13122002259E+04  0.00000000000E+00 0. -1.
         -2   -1    0    0    0  501 -0.00000000000E+00 -0.00000000000E+00 -0.54359534080E+03  0.54359534080E+03  0.00000000000E+00 0.  1.
        -24    2    1    2    0    0 -0.11935163904E+02  0.41942463023E+02 -0.38152876953E+03  0.39214527138E+03  0.79448684984E+02 0.  0.
        254    2    1    2    0    0  0.11935163904E+02 -0.41942463023E+02  0.11501336546E+04  0.14636502953E+04  0.90419198466E+03 0.  0.
         23    2    4    4    0    0  0.16297808486E+03 -0.32098109716E+03  0.10558757855E+04  0.11192474911E+04  0.90832543865E+02 0.  0.
         23    2    4    4    0    0 -0.15104292096E+03  0.27903863414E+03  0.94257869121E+02  0.34440280423E+03  0.95143167668E+02 0.  0.
          1    1    3    3  502    0  0.24949114063E+02 -0.65894798613E+01 -0.67698892358E+02  0.72450117762E+02  0.00000000000E+00 0. -1.
         -2    1    3    3    0  502 -0.36884277966E+02  0.48531942884E+02 -0.31382987717E+03  0.31969515362E+03  0.00000000000E+00 0.  1.
         11    1    5    5    0    0  0.12249743755E+03 -0.30020621411E+03  0.95621603469E+03  0.10096922790E+04  0.00000000000E+00 0. -1.
        -11    1    5    5    0    0  0.40480647313E+02 -0.20774883049E+02  0.99659750784E+02  0.10955521210E+03  0.00000000000E+00 0.  1.
          3    1    6    6  503    0 -0.56287436542E+02  0.14167695240E+03 -0.60544102691E+00  0.15244999479E+03  0.00000000000E+00 0. -1.
         -3    1    6    6    0  503 -0.94755484416E+02  0.13736168174E+03  0.94863310148E+02  0.19195280944E+03  0.00000000000E+00 0.  1.
<mgrwt>
<rscale>  0 0.16891488E+04</rscale>
<asrwt>0</asrwt>
<pdfrwt beam="1">  1        1 0.20187696E+00 0.16891488E+04</pdfrwt>
<pdfrwt beam="2">  1       -2 0.83630053E-01 0.16891488E+04</pdfrwt>
<totfact> 0.92623312E+00</totfact>
</mgrwt>
</event>
<event>
12    4  0.4398275E-008  0.2452568E+04  0.7818608E-02  0.8420081E-01
         -2   -1    0    0    0  501 -0.00000000000E+00  0.00000000000E+00  0.13516817435E+04  0.13516817435E+04  0.00000000000E+00 0.  1.
          1   -1    0    0  501    0  0.00000000000E+00 -0.00000000000E+00 -0.11125197472E+04  0.11125197472E+04  0.00000000000E+00 0. -1.
        -24    2    1    2    0    0  0.48807773165E+03 -0.93084758424E+03 -0.31376772279E+02  0.10543987133E+04  0.77942591138E+02 0.  0.
        254    2    1    2    0    0 -0.48807773165E+03  0.93084758424E+03  0.27053876849E+03  0.14098027774E+04  0.89980861783E+03 0.  0.
         23    2    4    4    0    0 -0.45670362153E+03  0.26907881758E+03 -0.21868978741E+03  0.58098822607E+03  0.93490575610E+02 0.  0.
         23    2    4    4    0    0 -0.31374110118E+02  0.66176876667E+03  0.48922855590E+03  0.82881455134E+03  0.93095355856E+02 0.  0.
          3    1    3    3  502    0  0.55029616043E+02 -0.15639501590E+03  0.10330577170E+02  0.16611556358E+03  0.00000000000E+00 0. -1.
         -4    1    3    3    0  502  0.43304811561E+03 -0.77445256835E+03 -0.41707349449E+02  0.88828314970E+03  0.00000000000E+00 0.  1.
         11    1    5    5    0    0 -0.33793734583E+03  0.24281203573E+03 -0.15865622887E+03  0.44534383723E+03  0.00000000000E+00 0. -1.
        -11    1    5    5    0    0 -0.11876627570E+03  0.26266781849E+02 -0.60033558543E+02  0.13564438884E+03  0.00000000000E+00 0.  1.
          4    1    6    6  503    0 -0.51002299041E+02  0.27796354264E+03  0.24005207436E+03  0.37079639149E+03  0.00000000000E+00 0. -1.
         -4    1    6    6    0  503  0.19628188922E+02  0.38380522403E+03  0.24917648155E+03  0.45801815984E+03  0.00000000000E+00 0.  1.
<mgrwt>
<rscale>  0 0.24525681E+04</rscale>
<asrwt>0</asrwt>
<pdfrwt beam="1">  1        1 0.17115688E+00 0.24525681E+04</pdfrwt>
<pdfrwt beam="2">  1       -2 0.20795104E+00 0.24525681E+04</pdfrwt>
<totfact> 0.11459906E+00</totfact>
</mgrwt>
</event>
<event>
12    4  0.4398275E-008  0.3081780E+04  0.7818608E-02  0.8220756E-01
         -2   -1    0    0    0  501 -0.00000000000E+00  0.00000000000E+00  0.17098227086E+04  0.17098227086E+04  0.00000000000E+00 0.  1.
          1   -1    0    0  501    0  0.00000000000E+00 -0.00000000000E+00 -0.13886482368E+04  0.13886482368E+04  0.00000000000E+00 0. -1.
        -24    2    1    2    0    0 -0.54499889099E+03 -0.58025588901E+03  0.13147149341E+04  0.15391311116E+04  0.82027634253E+02 0.  0.
        254    2    1    2    0    0  0.54499889099E+03  0.58025588901E+03 -0.99354046237E+03  0.15593398338E+04  0.90038734937E+03 0.  0.
         23    2    4    4    0    0  0.51750605763E+03 -0.80820201485E+02 -0.38705163786E+03  0.65700537946E+03  0.86617975144E+02 0.  0.
         23    2    4    4    0    0  0.27492833360E+02  0.66107609049E+03 -0.60648882451E+03  0.90233445431E+03  0.92743300983E+02 0.  0.
          3    1    3    3  502    0 -0.61053986148E+02 -0.53999818338E+02  0.18547007946E+03  0.20259002932E+03  0.00000000000E+00 0. -1.
         -4    1    3    3    0  502 -0.48394490484E+03 -0.52625607067E+03  0.11292448547E+04  0.13365410823E+04  0.00000000000E+00 0.  1.
         11    1    5    5    0    0  0.24090899632E+03 -0.74479646657E+02 -0.21353121659E+03  0.33042388342E+03  0.00000000000E+00 0. -1.
        -11    1    5    5    0    0  0.27659706130E+03 -0.63405548287E+01 -0.17352042127E+03  0.32658149604E+03  0.00000000000E+00 0.  1.
          4    1    6    6  503    0 -0.97012227270E+01  0.55797546291E+03 -0.51894570795E+03  0.76205995743E+03  0.00000000000E+00 0.  1.
         -4    1    6    6    0  503  0.37194056087E+02  0.10310062759E+03 -0.87543116558E+02  0.14027449687E+03  0.00000000000E+00 0. -1.
<mgrwt>
<rscale>  0 0.30817802E+04</rscale>
<asrwt>0</asrwt>
<pdfrwt beam="1">  1        1 0.21363819E+00 0.30817802E+04</pdfrwt>
<pdfrwt beam="2">  1       -2 0.26304965E+00 0.30817802E+04</pdfrwt>
<totfact> 0.31038539E-01</totfact>
</mgrwt>
</event>
<event>
12    4  0.4398275E-008  0.1508141E+04  0.7818608E-02  0.8879057E-01
         -2   -1    0    0    0  501 -0.00000000000E+00  0.00000000000E+00  0.24011398493E+03  0.24011398493E+03  0.00000000000E+00 0.  1.
          1   -1    0    0  501    0  0.00000000000E+00 -0.00000000000E+00 -0.23681361706E+04  0.23681361706E+04  0.00000000000E+00 0. -1.
        -24    2    1    2    0    0 -0.91747667542E+02 -0.28738530588E+03 -0.37882064652E+02  0.31413814049E+03  0.78992227174E+02 0.  0.
        254    2    1    2    0    0  0.91747667542E+02  0.28738530588E+03 -0.20901401210E+04  0.22941120151E+04  0.89624564912E+03 0.  0.
         23    2    4    4    0    0  0.43785624388E+03  0.23731937754E+03 -0.74140338781E+03  0.89784048597E+03  0.91651391289E+02 0.  0.
         23    2    4    4    0    0 -0.34610857634E+03  0.50065928334E+02 -0.13487367332E+04  0.13962715291E+04  0.90474657327E+02 0.  0.
          3    1    3    3  502    0  0.47185992237E+00 -0.12492394214E+03 -0.11087429242E+02  0.12541588839E+03  0.00000000000E+00 0. -1.
         -4    1    3    3    0  502 -0.92219527464E+02 -0.16246136373E+03 -0.26794635410E+02  0.18872225210E+03  0.00000000000E+00 0.  1.
         11    1    5    5    0    0  0.38398513991E+03  0.17261792262E+03 -0.59356336576E+03  0.72770804864E+03  0.00000000000E+00 0. -1.
        -11    1    5    5    0    0  0.53871103973E+02  0.64701454925E+02 -0.14784002205E+03  0.17013243733E+03  0.00000000000E+00 0.  1.
          4    1    6    6  503    0 -0.34112828266E+03  0.60633424140E+02 -0.12599917373E+04  0.13067609175E+04  0.00000000000E+00 0. -1.
         -4    1    6    6    0  503 -0.49802936794E+01 -0.10567495807E+02 -0.88744995893E+02  0.89510611599E+02  0.00000000000E+00 0.  1.
<mgrwt>
<rscale>  0 0.15081414E+04</rscale>
<asrwt>0</asrwt>
<pdfrwt beam="1">  1        1 0.36432865E+00 0.15081414E+04</pdfrwt>
<pdfrwt beam="2">  1       -2 0.36940612E-01 0.15081414E+04</pdfrwt>
<totfact> 0.98131850E+00</totfact>
</mgrwt>
</event>
<event>
12    4  0.4398275E-008  0.1444184E+04  0.7818608E-02  0.8922442E-01
          1   -1    0    0  501    0  0.00000000000E+00  0.00000000000E+00  0.17118663923E+04  0.17118663923E+04  0.00000000000E+00 0. -1.
         -2   -1    0    0    0  501 -0.00000000000E+00 -0.00000000000E+00 -0.30458977142E+03  0.30458977142E+03  0.00000000000E+00 0.  1.
        -24    2    1    2    0    0 -0.16789362547E+03  0.38767539501E+03  0.61101584642E+03  0.74708565451E+03  0.79474078923E+02 0.  0.
        254    2    1    2    0    0  0.16789362547E+03 -0.38767539501E+03  0.79626077445E+03  0.12693705092E+04  0.89375040551E+03 0.  0.
         23    2    4    4    0    0 -0.28402896494E+03 -0.43748322031E+02  0.58199524559E+03  0.65537800580E+03  0.90639373347E+02 0.  0.
         23    2    4    4    0    0  0.45192259041E+03 -0.34392707298E+03  0.21426552886E+03  0.61399250341E+03  0.92505233005E+02 0.  0.
          1    1    3    3  502    0 -0.14471267846E+03  0.37751854698E+03  0.58089809260E+03  0.70774614559E+03  0.00000000000E+00 0. -1.
         -2    1    3    3    0  502 -0.23180947009E+02  0.10156848039E+02  0.30117753828E+02  0.39339508918E+02  0.00000000000E+00 0.  1.
         11    1    5    5    0    0 -0.18801337874E+03 -0.35858925140E+02  0.47099627466E+03  0.50840179370E+03  0.00000000000E+00 0. -1.
        -11    1    5    5    0    0 -0.96015586200E+02 -0.78893968914E+01  0.11099897093E+03  0.14697621210E+03  0.00000000000E+00 0.  1.
          1    1    6    6  503    0  0.33531042920E+03 -0.20758217856E+03  0.12570636365E+03  0.41391488817E+03  0.00000000000E+00 0. -1.
         -1    1    6    6    0  503  0.11661216120E+03 -0.13634489442E+03  0.88559165213E+02  0.20007761524E+03  0.00000000000E+00 0.  1.
<mgrwt>
<rscale>  0 0.14441842E+04</rscale>
<asrwt>0</asrwt>
<pdfrwt beam="1">  1        1 0.26336406E+00 0.14441842E+04</pdfrwt>
<pdfrwt beam="2">  1       -2 0.46859966E-01 0.14441842E+04</pdfrwt>
<totfact> 0.17224809E+01</totfact>
</mgrwt>
</event>
<event>
12    4  0.4398275E-008  0.1859883E+04  0.7818608E-02  0.8675087E-01
          1   -1    0    0  501    0  0.00000000000E+00  0.00000000000E+00  0.19975112198E+04  0.19975112198E+04  0.00000000000E+00 0. -1.
         -2   -1    0    0    0  501 -0.00000000000E+00 -0.00000000000E+00 -0.43293429161E+03  0.43293429161E+03  0.00000000000E+00 0.  1.
        -24    2    1    2    0    0 -0.31303954259E+03  0.59758906912E+03  0.88118306135E+03  0.11124270696E+04  0.76837145120E+02 0.  0.
        254    2    1    2    0    0  0.31303954259E+03 -0.59758906912E+03  0.68339386685E+03  0.13180184418E+04  0.90279509574E+03 0.  0.
         23    2    4    4    0    0  0.29002744606E+03 -0.75955217301E+03  0.75912977271E+03  0.11154991915E+04  0.83815340758E+02 0.  0.
         23    2    4    4    0    0  0.23012096536E+02  0.16196310390E+03 -0.75735905866E+02  0.20251925032E+03  0.92284970079E+02 0.  0.
          3    1    3    3  502    0 -0.16660494784E+03  0.39706103088E+03  0.55085300067E+03  0.69918073432E+03  0.00000000000E+00 0. -1.
         -4    1    3    3    0  502 -0.14643459475E+03  0.20052803824E+03  0.33033006068E+03  0.41324633532E+03  0.00000000000E+00 0.  1.
         11    1    5    5    0    0  0.27588100876E+03 -0.74961754381E+03  0.73272053242E+03  0.10839355016E+04  0.00000000000E+00 0. -1.
        -11    1    5    5    0    0  0.14146437300E+02 -0.99346292043E+01  0.26409240290E+02  0.31563689873E+02  0.00000000000E+00 0.  1.
          1    1    6    6  503    0  0.47802415783E+02  0.67359798699E+02 -0.68196090922E+01  0.82878950908E+02  0.00000000000E+00 0. -1.
         -1    1    6    6    0  503 -0.24790319247E+02  0.94603305197E+02 -0.68916296774E+02  0.11964029941E+03  0.00000000000E+00 0.  1.
<mgrwt>
<rscale>  0 0.18598829E+04</rscale>
<asrwt>0</asrwt>
<pdfrwt beam="1">  1        1 0.30730941E+00 0.18598829E+04</pdfrwt>
<pdfrwt beam="2">  1       -2 0.66605277E-01 0.18598829E+04</pdfrwt>
<totfact> 0.51082639E+00</totfact>
</mgrwt>
</event>
<event>
12    4  0.4398275E-008  0.2150291E+04  0.7818608E-02  0.8539408E-01
         -2   -1    0    0    0  501 -0.00000000000E+00  0.00000000000E+00  0.46152594392E+03  0.46152594392E+03  0.00000000000E+00 0.  1.
          1   -1    0    0  501    0  0.00000000000E+00 -0.00000000000E+00 -0.25046004239E+04  0.25046004239E+04  0.00000000000E+00 0. -1.
        -24    2    1    2    0    0 -0.72323879717E+03 -0.49165583160E+01 -0.15891410538E+04  0.17477365785E+04  0.78200567447E+02 0.  0.
        254    2    1    2    0    0  0.72323879717E+03  0.49165583160E+01 -0.45393342620E+03  0.12183897893E+04  0.86909124550E+03 0.  0.
         23    2    4    4    0    0  0.48705591667E+03  0.18072583611E+03 -0.66225820062E+03  0.84659069523E+03  0.90799708964E+02 0.  0.
         23    2    4    4    0    0  0.23618288050E+03 -0.17580927779E+03  0.20832477442E+03  0.37179909409E+03  0.90244664830E+02 0.  0.
          1    1    3    3  502    0 -0.68575742973E+03  0.76531142000E+01 -0.15291089458E+04  0.16758567930E+04  0.00000000000E+00 0. -1.
         -2    1    3    3    0  502 -0.37481367438E+02 -0.12569672516E+02 -0.60032107968E+02  0.71879785471E+02  0.00000000000E+00 0.  1.
         11    1    5    5    0    0  0.12861339895E+03  0.26045345240E+02 -0.22453025882E+03  0.26006461413E+03  0.00000000000E+00 0. -1.
        -11    1    5    5    0    0  0.35844251773E+03  0.15468049087E+03 -0.43772794180E+03  0.58652608109E+03  0.00000000000E+00 0.  1.
          4    1    6    6  503    0  0.70645075441E+02 -0.29921881044E+02  0.14436584764E+02  0.78067026515E+02  0.00000000000E+00 0. -1.
         -4    1    6    6    0  503  0.16553780505E+03 -0.14588739675E+03  0.19388818966E+03  0.29373206757E+03  0.00000000000E+00 0.  1.
<mgrwt>
<rscale>  0 0.21502912E+04</rscale>
<asrwt>0</asrwt>
<pdfrwt beam="1">  1        1 0.38532314E+00 0.21502912E+04</pdfrwt>
<pdfrwt beam="2">  1       -2 0.71003992E-01 0.21502912E+04</pdfrwt>
<totfact> 0.19498968E+00</totfact>
</mgrwt>
</event>
<event>
12    4  0.4398275E-008  0.1616425E+04  0.7818608E-02  0.8810520E-01
         -2   -1    0    0    0  501 -0.00000000000E+00  0.00000000000E+00  0.87484798471E+03  0.87484798471E+03  0.00000000000E+00 0.  1.
          1   -1    0    0  501    0  0.00000000000E+00 -0.00000000000E+00 -0.74665279080E+03  0.74665279080E+03  0.00000000000E+00 0. -1.
        -24    2    1    2    0    0  0.50983375045E+02 -0.31895718924E+03 -0.41493723287E+03  0.53236948445E+03  0.83134635684E+02 0.  0.
        254    2    1    2    0    0 -0.50983375045E+02  0.31895718924E+03  0.54313242678E+03  0.10891312911E+04  0.88706321254E+03 0.  0.
         23    2    4    4    0    0 -0.88207986074E+02  0.10183589874E+03 -0.22837314540E+03  0.28172290800E+03  0.95196135815E+02 0.  0.
         23    2    4    4    0    0  0.37224611029E+02  0.21712129050E+03  0.77150557218E+03  0.80740838306E+03  0.90333397305E+02 0.  0.
          1    1    3    3  502    0  0.57093460617E+02 -0.27848645826E+03 -0.31464453832E+03  0.42404664387E+03  0.00000000000E+00 0. -1.
         -2    1    3    3    0  502 -0.61100855725E+01 -0.40470730981E+02 -0.10029269455E+03  0.10832284058E+03  0.00000000000E+00 0.  1.
         11    1    5    5    0    0 -0.46536847196E+02  0.10106911475E+03 -0.20670159917E+03  0.23474708774E+03  0.00000000000E+00 0.  1.
        -11    1    5    5    0    0 -0.41671138878E+02  0.76678398228E+00 -0.21671546232E+02  0.46975820260E+02  0.00000000000E+00 0. -1.
          4    1    6    6  503    0  0.14506170925E+02  0.56588677661E+02  0.93200974399E+02  0.10999604112E+03  0.00000000000E+00 0. -1.
         -4    1    6    6    0  503  0.22718440104E+02  0.16053261284E+03  0.67830459778E+03  0.69741234193E+03  0.00000000000E+00 0.  1.
<mgrwt>
<rscale>  0 0.16164253E+04</rscale>
<asrwt>0</asrwt>
<pdfrwt beam="1">  1        1 0.11486966E+00 0.16164253E+04</pdfrwt>
<pdfrwt beam="2">  1       -2 0.13459200E+00 0.16164253E+04</pdfrwt>
<totfact> 0.82265985E+00</totfact>
</mgrwt>
</event>
<event>
12    4  0.4398275E-008  0.1422537E+04  0.7818608E-02  0.8937665E-01
         -2   -1    0    0    0  501 -0.00000000000E+00  0.00000000000E+00  0.12123709380E+04  0.12123709380E+04  0.00000000000E+00 0.  1.
          1   -1    0    0  501    0  0.00000000000E+00 -0.00000000000E+00 -0.41728391680E+03  0.41728391680E+03  0.00000000000E+00 0. -1.
        -24    2    1    2    0    0  0.12528633844E+03 -0.36850913737E+03  0.45893766322E+02  0.40010316994E+03  0.80502533388E+02 0.  0.
        254    2    1    2    0    0 -0.12528633844E+03  0.36850913737E+03  0.74919325491E+03  0.12295516849E+04  0.89387424266E+03 0.  0.
         23    2    4    4    0    0 -0.39771136891E+03  0.47385996053E+02  0.57214963595E+02  0.41404872809E+03  0.87994497511E+02 0.  0.
         23    2    4    4    0    0  0.27242503047E+03  0.32112314132E+03  0.69197829132E+03  0.81550295681E+03  0.94210656469E+02 0.  0.
          1    1    3    3  502    0  0.13594472409E+03 -0.32821851476E+03  0.47358521379E+02  0.35840088028E+03  0.00000000000E+00 0. -1.
         -2    1    3    3    0  502 -0.10658385654E+02 -0.40290622612E+02 -0.14647550567E+01  0.41702289657E+02  0.00000000000E+00 0.  1.
         11    1    5    5    0    0 -0.21534880263E+03 -0.15856479487E+02  0.45518278976E+02  0.22067724952E+03  0.00000000000E+00 0. -1.
        -11    1    5    5    0    0 -0.18236256628E+03  0.63242475540E+02  0.11696684619E+02  0.19337147857E+03  0.00000000000E+00 0.  1.
          3    1    6    6  503    0  0.14858183723E+03  0.24253333210E+03  0.47336700176E+03  0.55224568616E+03  0.00000000000E+00 0. -1.
         -3    1    6    6    0  503  0.12384319323E+03  0.78589809220E+02  0.21861128956E+03  0.26325727065E+03  0.00000000000E+00 0.  1.
<mgrwt>
<rscale>  0 0.14225370E+04</rscale>
<asrwt>0</asrwt>
<pdfrwt beam="1">  1        1 0.64197526E-01 0.14225370E+04</pdfrwt>
<pdfrwt beam="2">  1       -2 0.18651860E+00 0.14225370E+04</pdfrwt>
<totfact> 0.78829322E+00</totfact>
</mgrwt>
</event>
<event>
12    4  0.4398275E-008  0.1418837E+04  0.7818608E-02  0.8940295E-01
          3   -1    0    0  501    0  0.00000000000E+00  0.00000000000E+00  0.80681515536E+03  0.80681515536E+03  0.00000000000E+00 0. -1.
         -4   -1    0    0    0  501 -0.00000000000E+00 -0.00000000000E+00 -0.62377904161E+03  0.62377904161E+03  0.00000000000E+00 0.  1.
        -24    2    1    2    0    0 -0.28483299983E+03 -0.21234801108E+03 -0.17887934237E+03  0.40484521769E+03  0.75367868227E+02 0.  0.
        254    2    1    2    0    0  0.28483299983E+03  0.21234801108E+03  0.36191545613E+03  0.10257489793E+04  0.89160341829E+03 0.  0.
         23    2    4    4    0    0  0.47848007645E+03  0.43315943528E+03  0.24717976859E+03  0.69677550580E+03  0.88475915177E+02 0.  0.
         23    2    4    4    0    0 -0.19364707662E+03 -0.22081142420E+03  0.11473568754E+03  0.32897347347E+03  0.93821068611E+02 0.  0.
          3    1    3    3  502    0 -0.48283502693E+02 -0.70771591246E+02 -0.25589698224E+02  0.89413351436E+02  0.00000000000E+00 0. -1.
         -4    1    3    3    0  502 -0.23654949713E+03 -0.14157641983E+03 -0.15328964415E+03  0.31543186626E+03  0.00000000000E+00 0.  1.
         11    1    5    5    0    0  0.36828549829E+03  0.28650051907E+03  0.15653551730E+03  0.49215863689E+03  0.00000000000E+00 0. -1.
        -11    1    5    5    0    0  0.11019457815E+03  0.14665891620E+03  0.90644251285E+02  0.20461686892E+03  0.00000000000E+00 0.  1.
          4    1    6    6  503    0 -0.16056822286E+03 -0.11538930299E+03  0.77565162811E+02  0.21239868154E+03  0.00000000000E+00 0. -1.
         -4    1    6    6    0  503 -0.33078853755E+02 -0.10542212121E+03  0.37170524727E+02  0.11657479193E+03  0.00000000000E+00 0.  1.
<mgrwt>
<rscale>  0 0.14188367E+04</rscale>
<asrwt>0</asrwt>
<pdfrwt beam="1">  1        3 0.12412541E+00 0.14188367E+04</pdfrwt>
<pdfrwt beam="2">  1       -4 0.95966006E-01 0.14188367E+04</pdfrwt>
<totfact> 0.10566157E+00</totfact>
</mgrwt>
</event>
<event>
12    4  0.4398275E-008  0.1159778E+04  0.7818608E-02  0.9148810E-01
         -4   -1    0    0    0  501 -0.00000000000E+00  0.00000000000E+00  0.51632883732E+03  0.51632883732E+03  0.00000000000E+00 0.  1.
          3   -1    0    0  501    0  0.00000000000E+00 -0.00000000000E+00 -0.65127363765E+03  0.65127363765E+03  0.00000000000E+00 0. -1.
        -24    2    1    2    0    0  0.12074871267E+03 -0.18697892014E+03  0.89980911868E+01  0.23801668401E+03  0.83842757781E+02 0.  0.
        254    2    1    2    0    0 -0.12074871267E+03  0.18697892014E+03 -0.14394289153E+03  0.92958579096E+03  0.89099316414E+03 0.  0.
         23    2    4    4    0    0  0.19283703772E+03  0.27301513717E+03 -0.38282580776E+03  0.51599595605E+03  0.89290757222E+02 0.  0.
         23    2    4    4    0    0 -0.31358575039E+03 -0.86036217029E+02  0.23888291624E+03  0.41358983492E+03  0.90847401647E+02 0.  0.
          3    1    3    3  502    0  0.10160265666E+03 -0.16882511505E+03 -0.20894796217E+02  0.19814543099E+03  0.00000000000E+00 0. -1.
         -4    1    3    3    0  502  0.19146056010E+02 -0.18153805088E+02  0.29892887403E+02  0.39871253018E+02  0.00000000000E+00 0.  1.
         11    1    5    5    0    0  0.50204220349E+02  0.98116984504E+02 -0.18764293795E+03  0.21761727540E+03  0.00000000000E+00 0.  1.
        -11    1    5    5    0    0  0.14263281737E+03  0.17489815267E+03 -0.19518286982E+03  0.29837868065E+03  0.00000000000E+00 0. -1.
          1    1    6    6  503    0 -0.26489536271E+03 -0.10236526242E+03  0.18377681376E+03  0.33826338467E+03  0.00000000000E+00 0. -1.
         -1    1    6    6    0  503 -0.48690387682E+02  0.16329045388E+02  0.55106102477E+02  0.75326450242E+02  0.00000000000E+00 0.  1.
<mgrwt>
<rscale>  0 0.11597782E+04</rscale>
<asrwt>0</asrwt>
<pdfrwt beam="1">  1        3 0.10019594E+00 0.11597782E+04</pdfrwt>
<pdfrwt beam="2">  1       -4 0.79435206E-01 0.11597782E+04</pdfrwt>
<totfact> 0.27785377E+00</totfact>
</mgrwt>
</event>
<event>
12    4  0.4398275E-008  0.1219714E+04  0.7818608E-02  0.9095773E-01
         -2   -1    0    0    0  501 -0.00000000000E+00  0.00000000000E+00  0.41886801911E+03  0.41886801911E+03  0.00000000000E+00 0.  1.
          1   -1    0    0  501    0  0.00000000000E+00 -0.00000000000E+00 -0.88793080041E+03  0.88793080041E+03  0.00000000000E+00 0. -1.
        -24    2    1    2    0    0  0.17276113547E+03 -0.79321287917E+02  0.10381117846E+03  0.23040580608E+03  0.78560792116E+02 0.  0.
        254    2    1    2    0    0 -0.17276113547E+03  0.79321287917E+02 -0.57287395975E+03  0.10763930134E+04  0.89123457574E+03 0.  0.
         23    2    4    4    0    0 -0.37592586371E+02  0.39852083267E+03 -0.11913023336E+02  0.41079361865E+03  0.91528249084E+02 0.  0.
         23    2    4    4    0    0 -0.13516854909E+03 -0.31919954475E+03 -0.56096093642E+03  0.66559939480E+03  0.90479258020E+02 0.  0.
          3    1    3    3  502    0  0.21300504685E+01 -0.25423800672E+02  0.21835655445E+02  0.33581283542E+02  0.00000000000E+00 0. -1.
         -4    1    3    3    0  502  0.17063108500E+03 -0.53897487245E+02  0.81975523010E+02  0.19682452254E+03  0.00000000000E+00 0.  1.
         11    1    5    5    0    0  0.19505985118E+02  0.73760918093E+02  0.21756540595E+02  0.79337907409E+02  0.00000000000E+00 0. -1.
        -11    1    5    5    0    0 -0.57098571489E+02  0.32475991458E+03 -0.33669563931E+02  0.33145571124E+03  0.00000000000E+00 0.  1.
          1    1    6    6  503    0 -0.65745584978E+02 -0.97753149550E+02 -0.26090946808E+03  0.28627244144E+03  0.00000000000E+00 0. -1.
         -1    1    6    6    0  503 -0.69422964117E+02 -0.22144639520E+03 -0.30005146833E+03  0.37932695336E+03  0.00000000000E+00 0.  1.
<mgrwt>
<rscale>  0 0.12197144E+04</rscale>
<asrwt>0</asrwt>
<pdfrwt beam="1">  1        1 0.13660474E+00 0.12197144E+04</pdfrwt>
<pdfrwt beam="2">  1       -2 0.64441234E-01 0.12197144E+04</pdfrwt>
<totfact> 0.35871454E+01</totfact>
</mgrwt>
</event>
<event>
12    4  0.4398275E-008  0.2211728E+04  0.7818608E-02  0.8513562E-01
          1   -1    0    0  501    0  0.00000000000E+00  0.00000000000E+00  0.14425330864E+04  0.14425330864E+04  0.00000000000E+00 0. -1.
         -2   -1    0    0    0  501 -0.00000000000E+00 -0.00000000000E+00 -0.84776952690E+03  0.84776952690E+03  0.00000000000E+00 0.  1.
        -24    2    1    2    0    0  0.13785514172E+03 -0.82463225524E+03  0.63842357675E+03  0.10550948106E+04  0.81351087871E+02 0.  0.
        254    2    1    2    0    0 -0.13785514172E+03  0.82463225524E+03 -0.43660017212E+02  0.12352078028E+04  0.90819035583E+03 0.  0.
         23    2    4    4    0    0 -0.39329860233E+03  0.75929745413E+02  0.10912803299E+03  0.42443202601E+03  0.88229815155E+02 0.  0.
         23    2    4    4    0    0  0.25544346061E+03  0.74870250983E+03 -0.15278805021E+03  0.81077577675E+03  0.90588973348E+02 0.  0.
          3    1    3    3  502    0  0.88456370478E+02 -0.59708292661E+03  0.41587235351E+03  0.73299547416E+03  0.00000000000E+00 0. -1.
         -4    1    3    3    0  502  0.49398771247E+02 -0.22754932863E+03  0.22255122324E+03  0.32209933643E+03  0.00000000000E+00 0.  1.
         11    1    5    5    0    0 -0.17483721909E+02  0.86267278949E+01 -0.13171437699E+02  0.23528445274E+02  0.00000000000E+00 0. -1.
        -11    1    5    5    0    0 -0.37581488042E+03  0.67303017518E+02  0.12229947069E+03  0.40090358074E+03  0.00000000000E+00 0.  1.
          2    1    6    6  503    0  0.31049665385E+02  0.45018043106E+02 -0.28924742783E+02  0.61865553184E+02  0.00000000000E+00 0. -1.
         -2    1    6    6    0  503  0.22439379522E+03  0.70368446672E+03 -0.12386330742E+03  0.74891022357E+03  0.00000000000E+00 0.  1.
<mgrwt>
<rscale>  0 0.22117284E+04</rscale>
<asrwt>0</asrwt>
<pdfrwt beam="1">  1        1 0.22192817E+00 0.22117284E+04</pdfrwt>
<pdfrwt beam="2">  1       -2 0.13042608E+00 0.22117284E+04</pdfrwt>
<totfact> 0.24701615E+00</totfact>
</mgrwt>
</event>
<event>
12    4  0.4398275E-008  0.1551198E+04  0.7818608E-02  0.8851103E-01
          1   -1    0    0  501    0  0.00000000000E+00  0.00000000000E+00  0.19676963727E+04  0.19676963727E+04  0.00000000000E+00 0. -1.
         -2   -1    0    0    0  501 -0.00000000000E+00 -0.00000000000E+00 -0.30571461135E+03  0.30571461135E+03  0.00000000000E+00 0.  1.
        -24    2    1    2    0    0 -0.37441621619E+03 -0.13490550479E+03  0.10336879737E+04  0.11124954959E+04  0.10367450710E+03 0.  0.
        254    2    1    2    0    0  0.37441621619E+03  0.13490550479E+03  0.62829378772E+03  0.11609154881E+04  0.89139479960E+03 0.  0.
         23    2    4    4    0    0  0.45283657321E+03  0.27192758835E+03  0.32213372712E+02  0.53698414472E+03  0.91152043075E+02 0.  0.
         23    2    4    4    0    0 -0.78420357018E+02 -0.13702208356E+03  0.59608041501E+03  0.62393134343E+03  0.95150703501E+02 0.  0.
          1    1    3    3  502    0 -0.21433476847E+03 -0.10649599846E+03  0.72693508561E+03  0.76532046186E+03  0.00000000000E+00 0. -1.
         -2    1    3    3    0  502 -0.16008144772E+03 -0.28409506329E+02  0.30675288806E+03  0.34717503408E+03  0.00000000000E+00 0.  1.
         11    1    5    5    0    0  0.12740261018E+03  0.38918029611E+02 -0.14569074936E+02  0.13400856709E+03  0.00000000000E+00 0. -1.
        -11    1    5    5    0    0  0.32543396303E+03  0.23300955874E+03  0.46782447648E+02  0.40297557763E+03  0.00000000000E+00 0.  1.
          3    1    6    6  503    0 -0.66533170822E+02 -0.44711454900E+02  0.17206720783E+03  0.18982334164E+03  0.00000000000E+00 0. -1.
         -3    1    6    6    0  503 -0.11887186196E+02 -0.92310628662E+02  0.42401320717E+03  0.43410800179E+03  0.00000000000E+00 0.  1.
<mgrwt>
<rscale>  0 0.15511976E+04</rscale>
<asrwt>0</asrwt>
<pdfrwt beam="1">  1        1 0.30272251E+00 0.15511976E+04</pdfrwt>
<pdfrwt beam="2">  1       -2 0.47033018E-01 0.15511976E+04</pdfrwt>
<totfact> 0.11363465E+01</totfact>
</mgrwt>
</event>
<event>
12    4  0.4398275E-008  0.1987944E+04  0.7818608E-02  0.8612278E-01
          1   -1    0    0  501    0  0.00000000000E+00  0.00000000000E+00  0.21103758734E+04  0.21103758734E+04  0.00000000000E+00 0. -1.
         -2   -1    0    0    0  501 -0.00000000000E+00 -0.00000000000E+00 -0.46815378909E+03  0.46815378909E+03  0.00000000000E+00 0.  1.
        -24    2    1    2    0    0 -0.11010713541E+03 -0.58544166376E+03 -0.17729406843E+02  0.60131382352E+03  0.79990371698E+02 0.  0.
        254    2    1    2    0    0  0.11010713541E+03  0.58544166376E+03  0.16599514912E+04  0.19772158390E+04  0.89391162759E+03 0.  0.
         23    2    4    4    0    0 -0.14522416510E+03 -0.18688020872E+03  0.33681858751E+03  0.42151414313E+03  0.90626383738E+02 0.  0.
         23    2    4    4    0    0  0.25533130051E+03  0.77232187247E+03  0.13231329037E+04  0.15557016958E+04  0.88611161820E+02 0.  0.
          1    1    3    3  502    0  0.42666454533E+01 -0.14138399013E+03  0.10919616152E+02  0.14186921775E+03  0.00000000000E+00 0. -1.
         -2    1    3    3    0  502 -0.11437378086E+03 -0.44405767363E+03 -0.28649022995E+02  0.45944460577E+03  0.00000000000E+00 0.  1.
         11    1    5    5    0    0 -0.98938563467E+02 -0.54890138870E+02  0.13867597761E+03  0.17897707522E+03  0.00000000000E+00 0. -1.
        -11    1    5    5    0    0 -0.46285601633E+02 -0.13199006985E+03  0.19814260989E+03  0.24253706791E+03  0.00000000000E+00 0.  1.
          3    1    6    6  503    0  0.81855061965E+02  0.14370116214E+03  0.24164146660E+03  0.29281542573E+03  0.00000000000E+00 0. -1.
         -3    1    6    6    0  503  0.17347623854E+03  0.62862071033E+03  0.10814914371E+04  0.12628862701E+04  0.00000000000E+00 0.  1.
<mgrwt>
<rscale>  0 0.19879441E+04</rscale>
<asrwt>0</asrwt>
<pdfrwt beam="1">  1        1 0.32467321E+00 0.19879441E+04</pdfrwt>
<pdfrwt beam="2">  1       -2 0.72023661E-01 0.19879441E+04</pdfrwt>
<totfact> 0.35712599E+00</totfact>
</mgrwt>
</event>
<event>
12    4  0.4398275E-008  0.2010604E+04  0.7818608E-02  0.8601679E-01
          1   -1    0    0  501    0  0.00000000000E+00  0.00000000000E+00  0.14035117663E+04  0.14035117663E+04  0.00000000000E+00 0. -1.
         -2   -1    0    0    0  501 -0.00000000000E+00 -0.00000000000E+00 -0.72007352759E+03  0.72007352759E+03  0.00000000000E+00 0.  1.
        -24    2    1    2    0    0  0.76129345533E+03 -0.25667888715E+03  0.34490391534E+03  0.87785044847E+03  0.78809408154E+02 0.  0.
        254    2    1    2    0    0 -0.76129345533E+03  0.25667888715E+03  0.33853432340E+03  0.12457348455E+04  0.88983034384E+03 0.  0.
         23    2    4    4    0    0 -0.37631611935E+03 -0.22614077676E+03 -0.12715082438E+03  0.46682453858E+03  0.94891227622E+02 0.  0.
         23    2    4    4    0    0 -0.38497733598E+03  0.48281966390E+03  0.46568514778E+03  0.77891030688E+03  0.92283434198E+02 0.  0.
          3    1    3    3  502    0  0.39529023618E+03 -0.11918481011E+03  0.13681012663E+03  0.43494413495E+03  0.00000000000E+00 0. -1.
         -4    1    3    3    0  502  0.36600321915E+03 -0.13749407704E+03  0.20809378871E+03  0.44290631351E+03  0.00000000000E+00 0.  1.
         11    1    5    5    0    0 -0.16872682010E+03 -0.15641382190E+03 -0.70400310661E+02  0.24060388036E+03  0.00000000000E+00 0.  1.
        -11    1    5    5    0    0 -0.20758929925E+03 -0.69726954860E+02 -0.56750513722E+02  0.22622065822E+03  0.00000000000E+00 0. -1.
          2    1    6    6  503    0 -0.14484978634E+03  0.12344391204E+03  0.17042321975E+03  0.25546806817E+03  0.00000000000E+00 0. -1.
         -2    1    6    6    0  503 -0.24012754964E+03  0.35937575186E+03  0.29526192803E+03  0.52344223871E+03  0.00000000000E+00 0.  1.
<mgrwt>
<rscale>  0 0.20106036E+04</rscale>
<asrwt>0</asrwt>
<pdfrwt beam="1">  1        1 0.21592489E+00 0.20106036E+04</pdfrwt>
<pdfrwt beam="2">  1       -2 0.11078054E+00 0.20106036E+04</pdfrwt>
<totfact> 0.40130502E+00</totfact>
</mgrwt>
</event>
<event>
12    4  0.4398275E-008  0.1353343E+04  0.7818608E-02  0.8988302E-01
         -4   -1    0    0    0  501 -0.00000000000E+00  0.00000000000E+00  0.39372040143E+03  0.39372040143E+03  0.00000000000E+00 0.  1.
          1   -1    0    0  501    0  0.00000000000E+00 -0.00000000000E+00 -0.11629675636E+04  0.11629675636E+04  0.00000000000E+00 0. -1.
        -24    2    1    2    0    0  0.62711958897E+02 -0.26323709641E+03  0.80695036965E+02  0.29274188214E+03  0.77198198530E+02 0.  0.
        254    2    1    2    0    0 -0.62711958897E+02  0.26323709641E+03 -0.84994219910E+03  0.12639460828E+04  0.89550622545E+03 0.  0.
         23    2    4    4    0    0 -0.30173883661E+03  0.49652546978E+03 -0.52515405678E+03  0.78887342598E+03  0.94607775658E+02 0.  0.
         23    2    4    4    0    0  0.23902687772E+03 -0.23328837337E+03 -0.32478814232E+03  0.47507265686E+03  0.93002034851E+02 0.  0.
          1    1    3    3  502    0  0.16096490947E+02 -0.18610953523E+02 -0.11544865026E+02  0.27179928630E+02  0.00000000000E+00 0. -1.
         -2    1    3    3    0  502  0.46615467949E+02 -0.24462614288E+03  0.92239901991E+02  0.26556195351E+03  0.00000000000E+00 0.  1.
         11    1    5    5    0    0 -0.29301653099E+03  0.47737841480E+03 -0.47476759186E+03  0.73427045742E+03  0.00000000000E+00 0.  1.
        -11    1    5    5    0    0 -0.87223056226E+01  0.19147054973E+02 -0.50386464913E+02  0.54602968564E+02  0.00000000000E+00 0. -1.
          3    1    6    6  503    0  0.28456109134E+02 -0.76855573056E+02 -0.10250694778E+03  0.13124101341E+03  0.00000000000E+00 0. -1.
         -3    1    6    6    0  503  0.21057076858E+03 -0.15643280031E+03 -0.22228119454E+03  0.34383164346E+03  0.00000000000E+00 0.  1.
<mgrwt>
<rscale>  0 0.13533426E+04</rscale>
<asrwt>0</asrwt>
<pdfrwt beam="1">  1        1 0.17891808E+00 0.13533426E+04</pdfrwt>
<pdfrwt beam="2">  1       -4 0.60572370E-01 0.13533426E+04</pdfrwt>
<totfact> 0.13976968E+01</totfact>
</mgrwt>
</event>
<event>
12    4  0.4398275E-008  0.1491011E+04  0.7818608E-02  0.8890453E-01
          3   -1    0    0  501    0  0.00000000000E+00  0.00000000000E+00  0.86929925192E+03  0.86929925192E+03  0.00000000000E+00 0. -1.
         -4   -1    0    0    0  501 -0.00000000000E+00 -0.00000000000E+00 -0.63934040008E+03  0.63934040008E+03  0.00000000000E+00 0.  1.
        -24    2    1    2    0    0 -0.35330835384E+03 -0.76356012542E+01 -0.21195946314E+03  0.41969187426E+03  0.79557274978E+02 0.  0.
        254    2    1    2    0    0  0.35330835384E+03  0.76356012542E+01  0.44191831498E+03  0.10889477777E+04  0.93039258930E+03 0.  0.
         23    2    4    4    0    0 -0.24627252212E+03  0.23158186081E+03  0.16047111773E+03  0.38386089918E+03  0.85544706916E+02 0.  0.
         23    2    4    4    0    0  0.59958087596E+03 -0.22394625956E+03  0.28144719726E+03  0.70508687856E+03  0.91026520781E+02 0.  0.
          3    1    3    3  502    0 -0.11489584338E+03 -0.15076404947E+02 -0.30050008116E+02  0.11971364083E+03  0.00000000000E+00 0. -1.
         -4    1    3    3    0  502 -0.23841251046E+03  0.74408036924E+01 -0.18190945503E+03  0.29997823343E+03  0.00000000000E+00 0.  1.
         11    1    5    5    0    0 -0.29439553709E+02 -0.19966603229E+01  0.19487301046E+02  0.35361403778E+02  0.00000000000E+00 0. -1.
        -11    1    5    5    0    0 -0.21683296841E+03  0.23357852114E+03  0.14098381668E+03  0.34849949540E+03  0.00000000000E+00 0.  1.
          3    1    6    6  503    0  0.31890822079E+03 -0.13166080691E+03  0.19921593897E+03  0.39840182191E+03  0.00000000000E+00 0. -1.
         -3    1    6    6    0  503  0.28067265517E+03 -0.92285452649E+02  0.82231258286E+02  0.30668505665E+03  0.00000000000E+00 0.  1.
<mgrwt>
<rscale>  0 0.14910106E+04</rscale>
<asrwt>0</asrwt>
<pdfrwt beam="1">  1        3 0.13373835E+00 0.14910106E+04</pdfrwt>
<pdfrwt beam="2">  1       -4 0.98360061E-01 0.14910106E+04</pdfrwt>
<totfact> 0.82423618E-01</totfact>
</mgrwt>
</event>
<event>
12    4  0.4398275E-008  0.1432361E+04  0.7818608E-02  0.8930722E-01
         -2   -1    0    0    0  501 -0.00000000000E+00  0.00000000000E+00  0.43188881892E+03  0.43188881892E+03  0.00000000000E+00 0.  1.
          1   -1    0    0  501    0  0.00000000000E+00 -0.00000000000E+00 -0.11876070118E+04  0.11876070118E+04  0.00000000000E+00 0. -1.
        -24    2    1    2    0    0  0.77094304902E+02 -0.33211010507E+03 -0.65818203171E+02  0.35638546370E+03  0.80236582237E+02 0.  0.
        254    2    1    2    0    0 -0.77094304902E+02  0.33211010507E+03 -0.68989998974E+03  0.12631103671E+04  0.10016212607E+04 0.  0.
         23    2    4    4    0    0 -0.32243162360E+03 -0.22202661523E+03 -0.45253892414E+03  0.60538166297E+03  0.91855921039E+02 0.  0.
         23    2    4    4    0    0  0.24533731870E+03  0.55413672030E+03 -0.23736106560E+03  0.65772870409E+03  0.94915056675E+02 0.  0.
          1    1    3    3  502    0  0.21116275852E+02 -0.21963834369E+03 -0.67491133028E+02  0.23074217681E+03  0.00000000000E+00 0. -1.
         -2    1    3    3    0  502  0.55978029050E+02 -0.11247176139E+03  0.16729298565E+01  0.12564328689E+03  0.00000000000E+00 0.  1.
         11    1    5    5    0    0 -0.13985267496E+03 -0.14049069575E+03 -0.18313278243E+03  0.26987779140E+03  0.00000000000E+00 0.  1.
        -11    1    5    5    0    0 -0.18257894864E+03 -0.81535919477E+02 -0.26940614171E+03  0.33550387158E+03  0.00000000000E+00 0. -1.
          3    1    6    6  503    0  0.11998938922E+03  0.22609693003E+03 -0.54116274900E+02  0.26162157118E+03  0.00000000000E+00 0. -1.
         -3    1    6    6    0  503  0.12534792949E+03  0.32803979027E+03 -0.18324479070E+03  0.39610713291E+03  0.00000000000E+00 0.  1.
<mgrwt>
<rscale>  0 0.14323606E+04</rscale>
<asrwt>0</asrwt>
<pdfrwt beam="1">  1        1 0.18270877E+00 0.14323606E+04</pdfrwt>
<pdfrwt beam="2">  1       -2 0.66444435E-01 0.14323606E+04</pdfrwt>
<totfact> 0.19378841E+01</totfact>
</mgrwt>
</event>
<event>
12    4  0.4398275E-008  0.1669845E+04  0.7818608E-02  0.8778752E-01
          3   -1    0    0  501    0  0.00000000000E+00  0.00000000000E+00  0.13887970630E+04  0.13887970630E+04  0.00000000000E+00 0. -1.
         -4   -1    0    0    0  501 -0.00000000000E+00 -0.00000000000E+00 -0.50194185466E+03  0.50194185466E+03  0.00000000000E+00 0.  1.
        -24    2    1    2    0    0  0.27865701572E+03  0.33699369027E+03  0.75798157321E+03  0.87873508318E+03  0.80154858878E+02 0.  0.
        254    2    1    2    0    0 -0.27865701572E+03 -0.33699369027E+03  0.12887363509E+03  0.10120038344E+04  0.90350919608E+03 0.  0.
         23    2    4    4    0    0 -0.45259769879E+03  0.14424103663E+03  0.74165450035E+02  0.48927673473E+03  0.90780259786E+02 0.  0.
         23    2    4    4    0    0  0.17394068308E+03 -0.48123472690E+03  0.54708185059E+02  0.52272709971E+03  0.91697391767E+02 0.  0.
          1    1    3    3  502    0  0.24555842813E+03  0.32718550430E+03  0.68205470149E+03  0.79532880727E+03  0.00000000000E+00 0. -1.
         -2    1    3    3    0  502  0.33098587585E+02  0.98081859655E+01  0.75926871726E+02  0.83406275916E+02  0.00000000000E+00 0.  1.
         11    1    5    5    0    0 -0.43582278772E+03  0.12644920306E+03  0.52897351115E+02  0.45686872623E+03  0.00000000000E+00 0.  1.
        -11    1    5    5    0    0 -0.16774911073E+02  0.17791833570E+02  0.21268098920E+02  0.32408008500E+02  0.00000000000E+00 0. -1.
          1    1    6    6  503    0  0.91147430904E+01 -0.26508137160E+02 -0.18435513527E+02  0.33550380568E+02  0.00000000000E+00 0. -1.
         -1    1    6    6    0  503  0.16482593998E+03 -0.45472658974E+03  0.73143698586E+02  0.48917671914E+03  0.00000000000E+00 0.  1.
<mgrwt>
<rscale>  0 0.16698448E+04</rscale>
<asrwt>0</asrwt>
<pdfrwt beam="1">  1        3 0.21366109E+00 0.16698448E+04</pdfrwt>
<pdfrwt beam="2">  1       -4 0.77221824E-01 0.16698448E+04</pdfrwt>
<totfact> 0.39836889E-01</totfact>
</mgrwt>
</event>
<event>
12    4  0.4398275E-008  0.1621062E+04  0.7818608E-02  0.8807713E-01
         -4   -1    0    0    0  501 -0.00000000000E+00  0.00000000000E+00  0.40564262804E+03  0.40564262804E+03  0.00000000000E+00 0.  1.
          1   -1    0    0  501    0  0.00000000000E+00 -0.00000000000E+00 -0.16195541932E+04  0.16195541932E+04  0.00000000000E+00 0. -1.
        -24    2    1    2    0    0 -0.12899499329E+02  0.42406276174E+03 -0.86816231287E+03  0.96972873204E+03  0.81684694285E+02 0.  0.
        254    2    1    2    0    0  0.12899499329E+02 -0.42406276174E+03 -0.34574925229E+03  0.10554680892E+04  0.90248253107E+03 0.  0.
         23    2    4    4    0    0  0.18268769943E+03 -0.98329945796E+00  0.23518220174E+03  0.31154667577E+03  0.91514483941E+02 0.  0.
         23    2    4    4    0    0 -0.16978820010E+03 -0.42307946228E+03 -0.58093145402E+03  0.74392141343E+03  0.90074695581E+02 0.  0.
          3    1    3    3  502    0  0.43430298317E+01  0.39450920802E+03 -0.82634053908E+03  0.91569376085E+03  0.00000000000E+00 0. -1.
         -4    1    3    3    0  502 -0.17242529161E+02  0.29553553716E+02 -0.41821773784E+02  0.54034971190E+02  0.00000000000E+00 0.  1.
         11    1    5    5    0    0  0.93829525465E+02 -0.43551636497E+02  0.14397340383E+03  0.17728244668E+03  0.00000000000E+00 0. -1.
        -11    1    5    5    0    0  0.88858173963E+02  0.42568337039E+02  0.91208797911E+02  0.13426422910E+03  0.00000000000E+00 0.  1.
          4    1    6    6  503    0 -0.64633556135E+02 -0.11389028601E+03 -0.22905471534E+03  0.26384570575E+03  0.00000000000E+00 0. -1.
         -4    1    6    6    0  503 -0.10515464396E+03 -0.30918917627E+03 -0.35187673869E+03  0.48007570767E+03  0.00000000000E+00 0.  1.
<mgrwt>
<rscale>  0 0.16210617E+04</rscale>
<asrwt>0</asrwt>
<pdfrwt beam="1">  1        1 0.24916219E+00 0.16210617E+04</pdfrwt>
<pdfrwt beam="2">  1       -4 0.62406557E-01 0.16210617E+04</pdfrwt>
<totfact> 0.61345687E+00</totfact>
</mgrwt>
</event>
<event>
12    4  0.4398275E-008  0.1274494E+04  0.7818608E-02  0.9050040E-01
         -2   -1    0    0    0  501 -0.00000000000E+00  0.00000000000E+00  0.50059172123E+03  0.50059172123E+03  0.00000000000E+00 0.  1.
          1   -1    0    0  501    0  0.00000000000E+00 -0.00000000000E+00 -0.81120686684E+03  0.81120686684E+03  0.00000000000E+00 0. -1.
        -24    2    1    2    0    0  0.21785165996E+03 -0.18834629806E+03  0.78225006921E+01  0.29899103323E+03  0.80004829180E+02 0.  0.
        254    2    1    2    0    0 -0.21785165996E+03  0.18834629806E+03 -0.31843764630E+03  0.10128075548E+04  0.91730198671E+03 0.  0.
         23    2    4    4    0    0 -0.12849985147E+03  0.53235686906E+03 -0.32976507379E+03  0.64581671262E+03  0.91750610627E+02 0.  0.
         23    2    4    4    0    0 -0.89351808487E+02 -0.34401057100E+03  0.11327427487E+02  0.36699084222E+03  0.90702530391E+02 0.  0.
          1    1    3    3  502    0 -0.68807752442E+01 -0.37830005801E+01 -0.16788051255E+01  0.80296044734E+01  0.00000000000E+00 0. -1.
         -2    1    3    3    0  502  0.22473243520E+03 -0.18456329748E+03  0.95013058176E+01  0.29096142875E+03  0.00000000000E+00 0.  1.
         11    1    5    5    0    0 -0.13054952561E+03  0.36079735492E+03 -0.22553875227E+03  0.44506812819E+03  0.00000000000E+00 0. -1.
        -11    1    5    5    0    0  0.20496741332E+01  0.17155951414E+03 -0.10422632152E+03  0.20074858444E+03  0.00000000000E+00 0.  1.
          3    1    6    6  503    0  0.13921677783E+02 -0.10645620031E+03 -0.46826702827E+01  0.10746470629E+03  0.00000000000E+00 0. -1.
         -3    1    6    6    0  503 -0.10327348627E+03 -0.23755437069E+03  0.16010097770E+02  0.25952613593E+03  0.00000000000E+00 0.  1.
<mgrwt>
<rscale>  0 0.12744935E+04</rscale>
<asrwt>0</asrwt>
<pdfrwt beam="1">  1        1 0.12480106E+00 0.12744935E+04</pdfrwt>
<pdfrwt beam="2">  1       -2 0.77014111E-01 0.12744935E+04</pdfrwt>
<totfact> 0.28072905E+01</totfact>
</mgrwt>
</event>
<event>
12    4  0.4398275E-008  0.1347914E+04  0.7818608E-02  0.8992408E-01
          1   -1    0    0  501    0  0.00000000000E+00  0.00000000000E+00  0.24450826555E+03  0.24450826555E+03  0.00000000000E+00 0. -1.
         -2   -1    0    0    0  501 -0.00000000000E+00 -0.00000000000E+00 -0.18576805782E+04  0.18576805782E+04  0.00000000000E+00 0.  1.
        -24    2    1    2    0    0  0.50186215649E+02  0.21515442614E+03 -0.90591674903E+03  0.93607926515E+03  0.82153217443E+02 0.  0.
        254    2    1    2    0    0 -0.50186215649E+02 -0.21515442614E+03 -0.70725556361E+03  0.11661095786E+04  0.90043935593E+03 0.  0.
         23    2    4    4    0    0 -0.16263865650E+03 -0.53889952349E+03 -0.39987024504E+03  0.69656504603E+03  0.91883738919E+02 0.  0.
         23    2    4    4    0    0  0.11245244085E+03  0.32374509735E+03 -0.30738531857E+03  0.46954453257E+03  0.92357427846E+02 0.  0.
          3    1    3    3  502    0  0.92427967677E+01  0.11738305948E+02 -0.19307707108E+03  0.19365426020E+03  0.00000000000E+00 0. -1.
         -4    1    3    3    0  502  0.40943418881E+02  0.20341612019E+03 -0.71283967795E+03  0.74242500494E+03  0.00000000000E+00 0.  1.
         11    1    5    5    0    0 -0.25927513757E+02 -0.14454571253E+03 -0.61306585909E+02  0.15913577994E+03  0.00000000000E+00 0.  1.
        -11    1    5    5    0    0 -0.13671114275E+03 -0.39435381095E+03 -0.33856365913E+03  0.53742926609E+03  0.00000000000E+00 0. -1.
          2    1    6    6  503    0  0.10888856904E+03  0.33011188657E+03 -0.30205988539E+03  0.46051140321E+03  0.00000000000E+00 0. -1.
         -2    1    6    6    0  503  0.35638718145E+01 -0.63667892272E+01 -0.53254331861E+01  0.90331293577E+01  0.00000000000E+00 0.  1.
<mgrwt>
<rscale>  0 0.13479143E+04</rscale>
<asrwt>0</asrwt>
<pdfrwt beam="1">  1        1 0.37616655E-01 0.13479143E+04</pdfrwt>
<pdfrwt beam="2">  1       -2 0.28579702E+00 0.13479143E+04</pdfrwt>
<totfact> 0.38117059E+00</totfact>
</mgrwt>
</event>
<event>
12    4  0.4398275E-008  0.1311050E+04  0.7818608E-02  0.9020848E-01
          1   -1    0    0  501    0  0.00000000000E+00  0.00000000000E+00  0.16483279561E+04  0.16483279561E+04  0.00000000000E+00 0. -1.
         -2   -1    0    0    0  501 -0.00000000000E+00 -0.00000000000E+00 -0.26069650545E+03  0.26069650545E+03  0.00000000000E+00 0.  1.
        -24    2    1    2    0    0 -0.16950693629E+03 -0.29373496638E+03  0.39475886610E+03  0.52671682732E+03  0.81137056178E+02 0.  0.
        254    2    1    2    0    0  0.16950693629E+03  0.29373496638E+03  0.99287258455E+03  0.13823076342E+04  0.89998088568E+03 0.  0.
         23    2    4    4    0    0 -0.29754425799E+03  0.30162361283E+03  0.24933706579E+03  0.49950707450E+03  0.88481386853E+02 0.  0.
         23    2    4    4    0    0  0.46705119428E+03 -0.78886464469E+01  0.74353551877E+03  0.88280055974E+03  0.91064327706E+02 0.  0.
          3    1    3    3  502    0 -0.24885537543E+01 -0.42150554512E+02  0.80404834239E+02  0.90817396541E+02  0.00000000000E+00 0. -1.
         -4    1    3    3    0  502 -0.16701838254E+03 -0.25158441187E+03  0.31435403186E+03  0.43589943078E+03  0.00000000000E+00 0.  1.
         11    1    5    5    0    0 -0.22768330041E+03  0.18784837937E+03  0.20276166907E+03  0.35810472401E+03  0.00000000000E+00 0. -1.
        -11    1    5    5    0    0 -0.69860957578E+02  0.11377523346E+03  0.46575396718E+02  0.14140235048E+03  0.00000000000E+00 0.  1.
          3    1    6    6  503    0  0.38914137235E+03  0.27605446389E+02  0.60026891076E+03  0.71590211173E+03  0.00000000000E+00 0. -1.
         -3    1    6    6    0  503  0.77909821939E+02 -0.35494092836E+02  0.14326660800E+03  0.16689844801E+03  0.00000000000E+00 0.  1.
<mgrwt>
<rscale>  0 0.13110505E+04</rscale>
<asrwt>0</asrwt>
<pdfrwt beam="1">  1        1 0.25358891E+00 0.13110505E+04</pdfrwt>
<pdfrwt beam="2">  1       -2 0.40107156E-01 0.13110505E+04</pdfrwt>
<totfact> 0.26209212E+01</totfact>
</mgrwt>
</event>
<event>
12    4  0.4398275E-008  0.1453169E+04  0.7818608E-02  0.8916206E-01
         -2   -1    0    0    0  501 -0.00000000000E+00  0.00000000000E+00  0.35833957057E+03  0.35833957057E+03  0.00000000000E+00 0.  1.
          1   -1    0    0  501    0  0.00000000000E+00 -0.00000000000E+00 -0.14732534097E+04  0.14732534097E+04  0.00000000000E+00 0. -1.
        -24    2    1    2    0    0  0.55692226357E+02  0.23590233849E+03  0.12898079274E+03  0.28649486622E+03  0.81802971158E+02 0.  0.
        254    2    1    2    0    0 -0.55692226357E+02 -0.23590233849E+03 -0.12438946319E+04  0.15450981140E+04  0.88391333822E+03 0.  0.
         23    2    4    4    0    0 -0.79760235586E+01  0.32875501723E+03 -0.45279770917E+03  0.56703458211E+03  0.91427422424E+02 0.  0.
         23    2    4    4    0    0 -0.47716202798E+02 -0.56465735573E+03 -0.79109692269E+03  0.97806353194E+03  0.98281056324E+02 0.  0.
          3    1    3    3  502    0 -0.16601744487E+02  0.26960042436E+02  0.24575787296E+01  0.31756912655E+02  0.00000000000E+00 0. -1.
         -4    1    3    3    0  502  0.72293970844E+02  0.20894229606E+03  0.12652321401E+03  0.25473795356E+03  0.00000000000E+00 0.  1.
         11    1    5    5    0    0 -0.20333024135E+02  0.13161364667E+02 -0.46380048409E+02  0.52323630233E+02  0.00000000000E+00 0.  1.
        -11    1    5    5    0    0  0.12357000576E+02  0.31559365256E+03 -0.40641766076E+03  0.51471095187E+03  0.00000000000E+00 0. -1.
          2    1    6    6  503    0 -0.31645124280E+02 -0.54682300218E+03 -0.73173710032E+03  0.91403281865E+03  0.00000000000E+00 0. -1.
         -2    1    6    6    0  503 -0.16071078518E+02 -0.17834353551E+02 -0.59359822373E+02  0.64030713282E+02  0.00000000000E+00 0.  1.
<mgrwt>
<rscale>  0 0.14531689E+04</rscale>
<asrwt>0</asrwt>
<pdfrwt beam="1">  1        1 0.22665437E+00 0.14531689E+04</pdfrwt>
<pdfrwt beam="2">  1       -2 0.55129165E-01 0.14531689E+04</pdfrwt>
<totfact> 0.17996506E+01</totfact>
</mgrwt>
</event>
<event>
12    4  0.4398275E-008  0.1366309E+04  0.7818608E-02  0.8978573E-01
          1   -1    0    0  501    0  0.00000000000E+00  0.00000000000E+00  0.10965956494E+04  0.10965956494E+04  0.00000000000E+00 0. -1.
         -2   -1    0    0    0  501 -0.00000000000E+00 -0.00000000000E+00 -0.42559017672E+03  0.42559017672E+03  0.00000000000E+00 0.  1.
        -24    2    1    2    0    0 -0.13416317759E+03 -0.18874804187E+03  0.52288398781E+03  0.57813745384E+03  0.84909771460E+02 0.  0.
        254    2    1    2    0    0  0.13416317759E+03  0.18874804187E+03  0.14812148488E+03  0.94404837230E+03  0.90313995229E+03 0.  0.
         23    2    4    4    0    0  0.26575495968E+02  0.13208125684E+03  0.51884800322E+03  0.54333717960E+03  0.88658473342E+02 0.  0.
         23    2    4    4    0    0  0.10758768162E+03  0.56666785022E+02 -0.37072651833E+03  0.40071119270E+03  0.91351380943E+02 0.  0.
          1    1    3    3  502    0 -0.92608542957E+02 -0.75887073329E+02  0.19421334642E+03  0.22815348793E+03  0.00000000000E+00 0. -1.
         -2    1    3    3    0  502 -0.41554634632E+02 -0.11286096854E+03  0.32867064139E+03  0.34998396591E+03  0.00000000000E+00 0.  1.
         11    1    5    5    0    0  0.11592765955E+02  0.24494898941E+02  0.27569921971E+03  0.27702789038E+03  0.00000000000E+00 0. -1.
        -11    1    5    5    0    0  0.14982730013E+02  0.10758635790E+03  0.24314878350E+03  0.26630928922E+03  0.00000000000E+00 0.  1.
          3    1    6    6  503    0  0.45432222209E+02  0.72941752903E+02 -0.24275002693E+03  0.25751147878E+03  0.00000000000E+00 0. -1.
         -3    1    6    6    0  503  0.62155459412E+02 -0.16274967880E+02 -0.12797649140E+03  0.14319971392E+03  0.00000000000E+00 0.  1.
<mgrwt>
<rscale>  0 0.13663094E+04</rscale>
<asrwt>0</asrwt>
<pdfrwt beam="1">  1        1 0.16870702E+00 0.13663094E+04</pdfrwt>
<pdfrwt beam="2">  1       -2 0.65475412E-01 0.13663094E+04</pdfrwt>
<totfact> 0.23497456E+01</totfact>
</mgrwt>
</event>
<event>
12    4  0.4398275E-008  0.2414891E+04  0.7818608E-02  0.8433950E-01
          1   -1    0    0  501    0  0.00000000000E+00  0.00000000000E+00  0.15965322085E+04  0.15965322085E+04  0.00000000000E+00 0. -1.
         -2   -1    0    0    0  501 -0.00000000000E+00 -0.00000000000E+00 -0.91318222147E+03  0.91318222147E+03  0.00000000000E+00 0.  1.
        -24    2    1    2    0    0  0.71124451373E+03  0.73171663619E+03  0.97464620797E+02  0.10280977764E+04  0.78788905597E+02 0.  0.
        254    2    1    2    0    0 -0.71124451373E+03 -0.73171663619E+03  0.58588536624E+03  0.14816166535E+04  0.90036006777E+03 0.  0.
         23    2    4    4    0    0 -0.85652367802E+03 -0.67171677447E+03  0.27849952368E+03  0.11267509946E+04  0.84673390448E+02 0.  0.
         23    2    4    4    0    0  0.14527916429E+03 -0.59999861715E+02  0.30738584256E+03  0.35486565891E+03  0.82082645470E+02 0.  0.
          3    1    3    3  502    0  0.53380788849E+03  0.50066674343E+03  0.80697193401E+02  0.73629483688E+03  0.00000000000E+00 0. -1.
         -4    1    3    3    0  502  0.17743662524E+03  0.23104989276E+03  0.16767427396E+02  0.29180293957E+03  0.00000000000E+00 0.  1.
         11    1    5    5    0    0 -0.46638451613E+03 -0.41764114507E+03  0.15011341792E+03  0.64379552746E+03  0.00000000000E+00 0. -1.
        -11    1    5    5    0    0 -0.39013916189E+03 -0.25407562941E+03  0.12838610576E+03  0.48295546715E+03  0.00000000000E+00 0.  1.
          2    1    6    6  503    0  0.11286841316E+03 -0.79200604581E+02  0.26030456184E+03  0.29456829322E+03  0.00000000000E+00 0.  1.
         -2    1    6    6    0  503  0.32410751131E+02  0.19200742865E+02  0.47081280713E+02  0.60297365689E+02  0.00000000000E+00 0. -1.
<mgrwt>
<rscale>  0 0.24148912E+04</rscale>
<asrwt>0</asrwt>
<pdfrwt beam="1">  1        1 0.24562034E+00 0.24148912E+04</pdfrwt>
<pdfrwt beam="2">  1       -2 0.14048957E+00 0.24148912E+04</pdfrwt>
<totfact> 0.15695758E+00</totfact>
</mgrwt>
</event>
<event>
12    4  0.4398275E-008  0.1453405E+04  0.7818608E-02  0.8916043E-01
         -2   -1    0    0    0  501 -0.00000000000E+00  0.00000000000E+00  0.83026025784E+03  0.83026025784E+03  0.00000000000E+00 0.  1.
          1   -1    0    0  501    0  0.00000000000E+00 -0.00000000000E+00 -0.63606127985E+03  0.63606127985E+03  0.00000000000E+00 0. -1.
        -24    2    1    2    0    0 -0.92488433063E+02 -0.35206506318E+03  0.31349873533E+03  0.48344065624E+03  0.54124782629E+02 0.  0.
        254    2    1    2    0    0  0.92488433063E+02  0.35206506318E+03 -0.11929975734E+03  0.98288088145E+03  0.90516212695E+03 0.  0.
         23    2    4    4    0    0 -0.87052519341E+02  0.17726513515E+03  0.36722348804E+03  0.42823832215E+03  0.97641697692E+02 0.  0.
         23    2    4    4    0    0  0.17954095240E+03  0.17479992803E+03 -0.48652324537E+03  0.55464255930E+03  0.90186095778E+02 0.  0.
          3    1    3    3  502    0 -0.13334397704E+00 -0.29138141036E+01  0.13864769774E+02  0.14168272094E+02  0.00000000000E+00 0. -1.
         -4    1    3    3    0  502 -0.92355089086E+02 -0.34915124908E+03  0.29963396555E+03  0.46927238415E+03  0.00000000000E+00 0.  1.
         11    1    5    5    0    0 -0.69611627842E+02  0.62880810943E+02  0.10038425962E+03  0.13739277527E+03  0.00000000000E+00 0.  1.
        -11    1    5    5    0    0 -0.17440891499E+02  0.11438432420E+03  0.26683922841E+03  0.29084554688E+03  0.00000000000E+00 0. -1.
          3    1    6    6  503    0  0.17231682670E+03  0.16786125887E+03 -0.48841910401E+03  0.54444808031E+03  0.00000000000E+00 0. -1.
         -3    1    6    6    0  503  0.72241257067E+01  0.69386691664E+01  0.18958586345E+01  0.10194478995E+02  0.00000000000E+00 0.  1.
<mgrwt>
<rscale>  0 0.14534048E+04</rscale>
<asrwt>0</asrwt>
<pdfrwt beam="1">  1        1 0.97855581E-01 0.14534048E+04</pdfrwt>
<pdfrwt beam="2">  1       -2 0.12773235E+00 0.14534048E+04</pdfrwt>
<totfact> 0.12131965E+01</totfact>
</mgrwt>
</event>
<event>
12    4  0.4398275E-008  0.2011551E+04  0.7818608E-02  0.8601239E-01
          1   -1    0    0  501    0  0.00000000000E+00  0.00000000000E+00  0.26918874502E+04  0.26918874502E+04  0.00000000000E+00 0. -1.
         -2   -1    0    0    0  501 -0.00000000000E+00 -0.00000000000E+00 -0.37578995354E+03  0.37578995354E+03  0.00000000000E+00 0.  1.
        -24    2    1    2    0    0  0.76873344332E+02 -0.43853246296E+03  0.19485593995E+04  0.19998350004E+04  0.65085047011E+02 0.  0.
        254    2    1    2    0    0 -0.76873344332E+02  0.43853246296E+03  0.36753809715E+03  0.10678424033E+04  0.89832227698E+03 0.  0.
         23    2    4    4    0    0 -0.37519365062E+03  0.14689335159E+03 -0.10970097019E+03  0.42765450231E+03  0.92228728059E+02 0.  0.
         23    2    4    4    0    0  0.29832030629E+03  0.29163911137E+03  0.47723906734E+03  0.64018790101E+03  0.89638411274E+02 0.  0.
          1    1    3    3  502    0  0.55522482757E+02 -0.17228772102E+03  0.87727506631E+03  0.89575518244E+03  0.00000000000E+00 0. -1.
         -2    1    3    3    0  502  0.21350861574E+02 -0.26624474194E+03  0.10712843332E+04  0.11040798179E+04  0.00000000000E+00 0.  1.
         11    1    5    5    0    0 -0.13361839301E+03  0.99384990695E+02 -0.32847488196E+02  0.16973570280E+03  0.00000000000E+00 0.  1.
        -11    1    5    5    0    0 -0.24157525761E+03  0.47508360899E+02 -0.76853481989E+02  0.25791879951E+03  0.00000000000E+00 0. -1.
          1    1    6    6  503    0  0.10110663979E+03  0.53001469304E+02  0.16363263419E+03  0.19951778700E+03  0.00000000000E+00 0. -1.
         -1    1    6    6    0  503  0.19721366649E+03  0.23863764207E+03  0.31360643315E+03  0.44067011400E+03  0.00000000000E+00 0.  1.
<mgrwt>
<rscale>  0 0.20115509E+04</rscale>
<asrwt>0</asrwt>
<pdfrwt beam="1">  1        1 0.41413652E+00 0.20115509E+04</pdfrwt>
<pdfrwt beam="2">  1       -2 0.57813841E-01 0.20115509E+04</pdfrwt>
<totfact> 0.22695973E+00</totfact>
</mgrwt>
</event>
<event>
12    4  0.4398275E-008  0.2310231E+04  0.7818608E-02  0.8473898E-01
          1   -1    0    0  501    0  0.00000000000E+00  0.00000000000E+00  0.91943720125E+03  0.91943720125E+03  0.00000000000E+00 0. -1.
         -2   -1    0    0    0  501 -0.00000000000E+00 -0.00000000000E+00 -0.14512045100E+04  0.14512045100E+04  0.00000000000E+00 0.  1.
        -24    2    1    2    0    0  0.65259608025E+03 -0.28236523896E+03  0.46498729700E+03  0.85338225165E+03  0.80226609874E+02 0.  0.
        254    2    1    2    0    0 -0.65259608025E+03  0.28236523896E+03 -0.99675460573E+03  0.15172594596E+04  0.89607184506E+03 0.  0.
         23    2    4    4    0    0 -0.33615285275E+03  0.40803893161E+03 -0.89704106429E+02  0.54401792228E+03  0.91728746428E+02 0.  0.
         23    2    4    4    0    0 -0.31644322750E+03 -0.12567369266E+03 -0.90705049930E+03  0.97324153730E+03  0.92348732465E+02 0.  0.
          3    1    3    3  502    0  0.44243838599E+03 -0.20978617989E+03  0.27935342575E+03  0.56373779645E+03  0.00000000000E+00 0. -1.
         -4    1    3    3    0  502  0.21015769426E+03 -0.72579059063E+02  0.18563387125E+03  0.28964445520E+03  0.00000000000E+00 0.  1.
         11    1    5    5    0    0 -0.16490526205E+03  0.13083841286E+03 -0.43077417876E+02  0.21486763288E+03  0.00000000000E+00 0. -1.
        -11    1    5    5    0    0 -0.17124759070E+03  0.27720051876E+03 -0.46626688553E+02  0.32915028939E+03  0.00000000000E+00 0.  1.
          3    1    6    6  503    0 -0.26638138071E+02  0.15038768569E+02 -0.74782559077E+02  0.80797191177E+02  0.00000000000E+00 0. -1.
         -3    1    6    6    0  503 -0.28980508943E+03 -0.14071246123E+03 -0.83226794023E+03  0.89244434613E+03  0.00000000000E+00 0.  1.
<mgrwt>
<rscale>  0 0.23102306E+04</rscale>
<asrwt>0</asrwt>
<pdfrwt beam="1">  1        1 0.14145188E+00 0.23102306E+04</pdfrwt>
<pdfrwt beam="2">  1       -2 0.22326223E+00 0.23102306E+04</pdfrwt>
<totfact> 0.13088819E+00</totfact>
</mgrwt>
</event>
<event>
12    4  0.4398275E-008  0.1966630E+04  0.7818608E-02  0.8622383E-01
          1   -1    0    0  501    0  0.00000000000E+00  0.00000000000E+00  0.68225461943E+03  0.68225461943E+03  0.00000000000E+00 0. -1.
         -4   -1    0    0    0  501 -0.00000000000E+00 -0.00000000000E+00 -0.14172245073E+04  0.14172245073E+04  0.00000000000E+00 0.  1.
        -24    2    1    2    0    0 -0.22186711457E+03 -0.69252961539E+03 -0.58248679175E+03  0.93498484289E+03  0.77996853415E+02 0.  0.
        254    2    1    2    0    0  0.22186711457E+03  0.69252961539E+03 -0.15248309613E+03  0.11644942838E+04  0.89664572591E+03 0.  0.
         23    2    4    4    0    0  0.25781271005E+03  0.85183014821E+03  0.41033778685E+02  0.89484674726E+03  0.83575924840E+02 0.  0.
         23    2    4    4    0    0 -0.35945595483E+02 -0.15930053282E+03 -0.19351687481E+03  0.26964753659E+03  0.92694485061E+02 0.  0.
          1    1    3    3  502    0 -0.12711768615E+03 -0.37110299504E+03 -0.36256809893E+03  0.53416473622E+03  0.00000000000E+00 0. -1.
         -2    1    3    3    0  502 -0.94749428416E+02 -0.32142662035E+03 -0.21991869282E+03  0.40082010666E+03  0.00000000000E+00 0.  1.
         11    1    5    5    0    0  0.18925896807E+03  0.60913912372E+03 -0.81138372883E+01  0.63791477753E+03  0.00000000000E+00 0.  1.
        -11    1    5    5    0    0  0.68553741978E+02  0.24269102449E+03  0.49147615973E+02  0.25693196972E+03  0.00000000000E+00 0. -1.
          3    1    6    6  503    0  0.26948501599E+02 -0.18372925029E+02 -0.44014522792E+02  0.54781970841E+02  0.00000000000E+00 0. -1.
         -3    1    6    6    0  503 -0.62894097082E+02 -0.14092760779E+03 -0.14950235202E+03  0.21486556575E+03  0.00000000000E+00 0.  1.
<mgrwt>
<rscale>  0 0.19666296E+04</rscale>
<asrwt>0</asrwt>
<pdfrwt beam="1">  1        1 0.10496225E+00 0.19666296E+04</pdfrwt>
<pdfrwt beam="2">  1       -4 0.21803454E+00 0.19666296E+04</pdfrwt>
<totfact> 0.12700638E+00</totfact>
</mgrwt>
</event>
<event>
12    4  0.4398275E-008  0.2209026E+04  0.7818608E-02  0.8514681E-01
          1   -1    0    0  501    0  0.00000000000E+00  0.00000000000E+00  0.79003643498E+03  0.79003643498E+03  0.00000000000E+00 0. -1.
         -2   -1    0    0    0  501 -0.00000000000E+00 -0.00000000000E+00 -0.15441680086E+04  0.15441680086E+04  0.00000000000E+00 0.  1.
        -24    2    1    2    0    0 -0.66639814371E+02  0.54530021111E+03  0.46397924000E+03  0.72331930758E+03  0.78236183941E+02 0.  0.
        254    2    1    2    0    0  0.66639814371E+02 -0.54530021111E+03 -0.12181108136E+04  0.16108851360E+04  0.89964647612E+03 0.  0.
         23    2    4    4    0    0  0.13161367892E+03  0.15344481701E+03 -0.24336451001E+02  0.22313602827E+03  0.91268570269E+02 0.  0.
         23    2    4    4    0    0 -0.64973864547E+02 -0.69874502812E+03 -0.11937743626E+04  0.13877491077E+04  0.91017249758E+02 0.  0.
          3    1    3    3  502    0 -0.58273899719E+02  0.48729786774E+03  0.37892815896E+03  0.62003355469E+03  0.00000000000E+00 0. -1.
         -4    1    3    3    0  502 -0.83659146521E+01  0.58002343372E+02  0.85051081041E+02  0.10328575289E+03  0.00000000000E+00 0.  1.
         11    1    5    5    0    0  0.70612586056E+02  0.12996927789E+03 -0.44964129322E+02  0.15459600069E+03  0.00000000000E+00 0. -1.
        -11    1    5    5    0    0  0.61001092863E+02  0.23475539122E+02  0.20627678321E+02  0.68540027579E+02  0.00000000000E+00 0.  1.
          4    1    6    6  503    0 -0.59503349406E+02 -0.69225923710E+03 -0.11909381700E+04  0.13788028230E+04  0.00000000000E+00 0. -1.
         -4    1    6    6    0  503 -0.54705151408E+01 -0.64857910150E+01 -0.28361925311E+01  0.89462846517E+01  0.00000000000E+00 0.  1.
<mgrwt>
<rscale>  0 0.22090260E+04</rscale>
<asrwt>0</asrwt>
<pdfrwt beam="1">  1        1 0.12154407E+00 0.22090260E+04</pdfrwt>
<pdfrwt beam="2">  1       -2 0.23756431E+00 0.22090260E+04</pdfrwt>
<totfact> 0.13810464E+00</totfact>
</mgrwt>
</event>
<event>
12    4  0.4398275E-008  0.4163711E+04  0.7818608E-02  0.7972311E-01
         -2   -1    0    0    0  501 -0.00000000000E+00  0.00000000000E+00  0.12911317302E+04  0.12911317302E+04  0.00000000000E+00 0.  1.
          1   -1    0    0  501    0  0.00000000000E+00 -0.00000000000E+00 -0.33568391063E+04  0.33568391063E+04  0.00000000000E+00 0. -1.
        -24    2    1    2    0    0 -0.29609016142E+03 -0.14156031481E+04  0.53627997995E+03  0.15448747991E+04  0.86257008321E+02 0.  0.
        254    2    1    2    0    0  0.29609016142E+03  0.14156031481E+04 -0.26019873561E+04  0.31030960375E+04  0.87593673285E+03 0.  0.
         23    2    4    4    0    0 -0.14253610445E+03  0.11594266405E+04 -0.17322986606E+04  0.20913448639E+04  0.90983596686E+02 0.  0.
         23    2    4    4    0    0  0.43862626588E+03  0.25617650763E+03 -0.86968869550E+03  0.10117511735E+04  0.96242432596E+02 0.  0.
          1    1    3    3  502    0 -0.52832752750E+02 -0.43702120651E+03  0.15005848605E+03  0.46507675059E+03  0.00000000000E+00 0. -1.
         -2    1    3    3    0  502 -0.24325740867E+03 -0.97858194161E+03  0.38622149390E+03  0.10797980486E+04  0.00000000000E+00 0.  1.
         11    1    5    5    0    0 -0.15268563944E+03  0.11267962094E+04 -0.16716388546E+04  0.20217218063E+04  0.00000000000E+00 0. -1.
        -11    1    5    5    0    0  0.10149534984E+02  0.32630431102E+02 -0.60659805927E+02  0.69623057599E+02  0.00000000000E+00 0.  1.
          2    1    6    6  503    0  0.41859377376E+03  0.24881009541E+03 -0.86003503585E+03  0.98832559103E+03  0.00000000000E+00 0. -1.
         -2    1    6    6    0  503  0.20032492118E+02  0.73664122235E+01 -0.96536596518E+01  0.23425582472E+02  0.00000000000E+00 0.  1.
<mgrwt>
<rscale>  0 0.41637106E+04</rscale>
<asrwt>0</asrwt>
<pdfrwt beam="1">  1        1 0.51643678E+00 0.41637106E+04</pdfrwt>
<pdfrwt beam="2">  1       -2 0.19863565E+00 0.41637106E+04</pdfrwt>
<totfact> 0.29808594E-02</totfact>
</mgrwt>
</event>
<event>
12    4  0.4398275E-008  0.1053319E+04  0.7818608E-02  0.9251924E-01
          1   -1    0    0  501    0  0.00000000000E+00  0.00000000000E+00  0.33008608329E+04  0.33008608329E+04  0.00000000000E+00 0. -1.
         -2   -1    0    0    0  501 -0.00000000000E+00 -0.00000000000E+00 -0.84029730505E+02  0.84029730505E+02  0.00000000000E+00 0.  1.
        -24    2    1    2    0    0  0.42530498212E+02  0.92886187555E+02  0.66892404657E+03  0.68129133668E+03  0.79131651317E+02 0.  0.
        254    2    1    2    0    0 -0.42530498212E+02 -0.92886187555E+02  0.25479070558E+04  0.27035992267E+04  0.89843292821E+03 0.  0.
         23    2    4    4    0    0  0.34811453955E+03  0.15544203342E+03  0.77252434664E+03  0.86652083631E+03  0.93373096807E+02 0.  0.
         23    2    4    4    0    0 -0.39064503776E+03 -0.24832822098E+03  0.17753827092E+04  0.18370783904E+04  0.92751267343E+02 0.  0.
          3    1    3    3  502    0  0.38598844906E+02  0.52018954499E+02  0.57688829824E+03  0.58051352362E+03  0.00000000000E+00 0. -1.
         -4    1    3    3    0  502  0.39316533060E+01  0.40867233056E+02  0.92035748328E+02  0.10077781306E+03  0.00000000000E+00 0.  1.
         11    1    5    5    0    0  0.15632242429E+03  0.23513345739E+02  0.35193575363E+03  0.38580869929E+03  0.00000000000E+00 0. -1.
        -11    1    5    5    0    0  0.19179211526E+03  0.13192868768E+03  0.42058859301E+03  0.48071213702E+03  0.00000000000E+00 0.  1.
          4    1    6    6  503    0 -0.29010760588E+03 -0.15478986358E+03  0.11103151747E+04  0.11579819136E+04  0.00000000000E+00 0. -1.
         -4    1    6    6    0  503 -0.10053743188E+03 -0.93538357393E+02  0.66506753443E+03  0.67909647685E+03  0.00000000000E+00 0.  1.
<mgrwt>
<rscale>  0 0.10533194E+04</rscale>
<asrwt>0</asrwt>
<pdfrwt beam="1">  1        1 0.50782464E+00 0.10533194E+04</pdfrwt>
<pdfrwt beam="2">  1       -2 0.12927653E-01 0.10533194E+04</pdfrwt>
<totfact> 0.14484208E+01</totfact>
</mgrwt>
</event>
<event>
12    4  0.4398275E-008  0.3257085E+04  0.7818608E-02  0.8173902E-01
          1   -1    0    0  501    0  0.00000000000E+00  0.00000000000E+00  0.26588441902E+04  0.26588441902E+04  0.00000000000E+00 0. -1.
         -2   -1    0    0    0  501 -0.00000000000E+00 -0.00000000000E+00 -0.99748280997E+03  0.99748280997E+03  0.00000000000E+00 0.  1.
        -24    2    1    2    0    0  0.69390224858E+03 -0.74167017756E+03  0.20087944982E+04  0.22523672942E+04  0.79549414165E+02 0.  0.
        254    2    1    2    0    0 -0.69390224858E+03  0.74167017756E+03 -0.34743311796E+03  0.14039597059E+04  0.90488568428E+03 0.  0.
         23    2    4    4    0    0 -0.55856349970E+03  0.30033768683E+03  0.20998102666E+03  0.67421948952E+03  0.91016367534E+02 0.  0.
         23    2    4    4    0    0 -0.13533874888E+03  0.44133249072E+03 -0.55741414462E+03  0.72974021643E+03  0.93377248480E+02 0.  0.
          1    1    3    3  502    0  0.50058942763E+03 -0.54851146089E+03  0.13904305248E+04  0.15763095007E+04  0.00000000000E+00 0. -1.
         -2    1    3    3    0  502  0.19331282095E+03 -0.19315871666E+03  0.61836397343E+03  0.67605779354E+03  0.00000000000E+00 0.  1.
         11    1    5    5    0    0 -0.40334161587E+03  0.18854875356E+03  0.11110486856E+03  0.45888929316E+03  0.00000000000E+00 0. -1.
        -11    1    5    5    0    0 -0.15522188383E+03  0.11178893327E+03  0.98876158098E+02  0.21533019636E+03  0.00000000000E+00 0.  1.
          3    1    6    6  503    0  0.10732136841E+02  0.73829993955E+02 -0.10563461670E+03  0.12932408520E+03  0.00000000000E+00 0. -1.
         -3    1    6    6    0  503 -0.14607088572E+03  0.36750249677E+03 -0.45177952792E+03  0.60041613122E+03  0.00000000000E+00 0.  1.
<mgrwt>
<rscale>  0 0.32570854E+04</rscale>
<asrwt>0</asrwt>
<pdfrwt beam="1">  1        1 0.40905295E+00 0.32570854E+04</pdfrwt>
<pdfrwt beam="2">  1       -2 0.15345889E+00 0.32570854E+04</pdfrwt>
<totfact> 0.21669228E-01</totfact>
</mgrwt>
</event>
<event>
12    4  0.4398275E-008  0.2138191E+04  0.7818608E-02  0.8544604E-01
         -2   -1    0    0    0  501 -0.00000000000E+00  0.00000000000E+00  0.40527786578E+03  0.40527786578E+03  0.00000000000E+00 0.  1.
          1   -1    0    0  501    0  0.00000000000E+00 -0.00000000000E+00 -0.28202012845E+04  0.28202012845E+04  0.00000000000E+00 0. -1.
        -24    2    1    2    0    0  0.47212757329E+03 -0.35922079857E+03 -0.19793383388E+04  0.20678719921E+04  0.79814088664E+02 0.  0.
        254    2    1    2    0    0 -0.47212757329E+03  0.35922079857E+03 -0.43558507993E+03  0.11576071582E+04  0.89351885442E+03 0.  0.
         23    2    4    4    0    0 -0.66704693868E+03  0.47845347400E+03 -0.34568580524E+03  0.89522510033E+03  0.89777275177E+02 0.  0.
         23    2    4    4    0    0  0.19491936539E+03 -0.11923267543E+03 -0.89899274688E+02  0.26238205784E+03  0.92479591220E+02 0.  0.
          3    1    3    3  502    0  0.17585168777E+03 -0.16356639187E+03 -0.69307988451E+03  0.73351040003E+03  0.00000000000E+00 0. -1.
         -4    1    3    3    0  502  0.29627588552E+03 -0.19565440671E+03 -0.12862584543E+04  0.13343615921E+04  0.00000000000E+00 0.  1.
         11    1    5    5    0    0 -0.53000641052E+03  0.34791651329E+03 -0.29514941651E+03  0.69933244846E+03  0.00000000000E+00 0. -1.
        -11    1    5    5    0    0 -0.13704052816E+03  0.13053696071E+03 -0.50536388733E+02  0.19589265187E+03  0.00000000000E+00 0.  1.
          4    1    6    6  503    0  0.12825756379E+03 -0.40568297963E+02 -0.15881418698E+02  0.13545482246E+03  0.00000000000E+00 0. -1.
         -4    1    6    6    0  503  0.66661801602E+02 -0.78664377462E+02 -0.74017855991E+02  0.12692723537E+03  0.00000000000E+00 0.  1.
<mgrwt>
<rscale>  0 0.21381910E+04</rscale>
<asrwt>0</asrwt>
<pdfrwt beam="1">  1        1 0.43387711E+00 0.21381910E+04</pdfrwt>
<pdfrwt beam="2">  1       -2 0.62350443E-01 0.21381910E+04</pdfrwt>
<totfact> 0.15509796E+00</totfact>
</mgrwt>
</event>
<event>
12    4  0.4398275E-008  0.1334003E+04  0.7818608E-02  0.9003027E-01
          1   -1    0    0  501    0  0.00000000000E+00  0.00000000000E+00  0.34790310061E+03  0.34790310061E+03  0.00000000000E+00 0. -1.
         -2   -1    0    0    0  501 -0.00000000000E+00 -0.00000000000E+00 -0.12787788899E+04  0.12787788899E+04  0.00000000000E+00 0.  1.
        -24    2    1    2    0    0 -0.17829693756E+03 -0.52364930514E+02  0.12222386165E+03  0.23639465098E+03  0.80074182897E+02 0.  0.
        254    2    1    2    0    0  0.17829693756E+03  0.52364930514E+02 -0.10530996510E+04  0.13902873396E+04  0.88845265929E+03 0.  0.
         23    2    4    4    0    0 -0.18831770702E+02  0.44624430761E+01 -0.11457394961E+04  0.11494924312E+04  0.90770630901E+02 0.  0.
         23    2    4    4    0    0  0.19712870826E+03  0.47902487438E+02  0.92639845124E+02  0.24079490839E+03  0.90805677579E+02 0.  0.
          3    1    3    3  502    0 -0.15387578852E+03 -0.71855638220E+02  0.93053596684E+02  0.19364907150E+03  0.00000000000E+00 0. -1.
         -4    1    3    3    0  502 -0.24421149034E+02  0.19490707706E+02  0.29170264964E+02  0.42745579480E+02  0.00000000000E+00 0.  1.
         11    1    5    5    0    0 -0.15255660308E+02  0.12784983442E+02 -0.11360642829E+04  0.11362386395E+04  0.00000000000E+00 0. -1.
        -11    1    5    5    0    0 -0.35761103943E+01 -0.83225403661E+01 -0.96752131683E+01  0.13253791667E+02  0.00000000000E+00 0.  1.
          1    1    6    6  503    0  0.19933430346E+03  0.53691425783E+02  0.10145409364E+03  0.23002144868E+03  0.00000000000E+00 0. -1.
         -1    1    6    6    0  503 -0.22055951993E+01 -0.57889383450E+01 -0.88142485113E+01  0.10773459712E+02  0.00000000000E+00 0.  1.
<mgrwt>
<rscale>  0 0.13340032E+04</rscale>
<asrwt>0</asrwt>
<pdfrwt beam="1">  1        1 0.53523554E-01 0.13340032E+04</pdfrwt>
<pdfrwt beam="2">  1       -2 0.19673521E+00 0.13340032E+04</pdfrwt>
<totfact> 0.86278504E+00</totfact>
</mgrwt>
</event>
<event>
12    4  0.4398275E-008  0.1363609E+04  0.7818608E-02  0.8980589E-01
          3   -1    0    0  501    0  0.00000000000E+00  0.00000000000E+00  0.90163409690E+03  0.90163409690E+03  0.00000000000E+00 0. -1.
         -4   -1    0    0    0  501 -0.00000000000E+00 -0.00000000000E+00 -0.51557242311E+03  0.51557242311E+03  0.00000000000E+00 0.  1.
        -24    2    1    2    0    0  0.14035384594E+03 -0.13804236963E+03 -0.22710917858E+03  0.30593605820E+03  0.57126130882E+02 0.  0.
        254    2    1    2    0    0 -0.14035384594E+03  0.13804236963E+03  0.61317085237E+03  0.11112704618E+04  0.90564267082E+03 0.  0.
         23    2    4    4    0    0  0.31599173407E+03  0.22708970712E+03  0.47122448705E+03  0.61690325340E+03  0.84241295000E+02 0.  0.
         23    2    4    4    0    0 -0.45634558001E+03 -0.89047337484E+02  0.14194636532E+03  0.49436720841E+03  0.89830114189E+02 0.  0.
          3    1    3    3  502    0  0.10756768795E+02  0.49719293076E+01 -0.10674809247E+02  0.15949285514E+02  0.00000000000E+00 0. -1.
         -4    1    3    3    0  502  0.12959707714E+03 -0.14301429894E+03 -0.21643436933E+03  0.28998677269E+03  0.00000000000E+00 0.  1.
         11    1    5    5    0    0  0.20070505166E+02  0.39009140761E+02  0.82259511456E+02  0.93226420426E+02  0.00000000000E+00 0. -1.
        -11    1    5    5    0    0  0.29592122890E+03  0.18808056636E+03  0.38896497560E+03  0.52367683298E+03  0.00000000000E+00 0.  1.
          2    1    6    6  503    0 -0.61707787125E+01 -0.15969690895E+02  0.16079404288E+01  0.17195784647E+02  0.00000000000E+00 0. -1.
         -2    1    6    6    0  503 -0.45017480129E+03 -0.73077646589E+02  0.14033842489E+03  0.47717142376E+03  0.00000000000E+00 0.  1.
<mgrwt>
<rscale>  0 0.13636094E+04</rscale>
<asrwt>0</asrwt>
<pdfrwt beam="1">  1        3 0.13871294E+00 0.13636094E+04</pdfrwt>
<pdfrwt beam="2">  1       -4 0.79318835E-01 0.13636094E+04</pdfrwt>
<totfact> 0.12500025E+00</totfact>
</mgrwt>
</event>
<event>
12    4  0.4398275E-008  0.1458934E+04  0.7818608E-02  0.8912230E-01
          1   -1    0    0  501    0  0.00000000000E+00  0.00000000000E+00  0.72016419724E+03  0.72016419724E+03  0.00000000000E+00 0. -1.
         -2   -1    0    0    0  501 -0.00000000000E+00 -0.00000000000E+00 -0.73888986519E+03  0.73888986519E+03  0.00000000000E+00 0.  1.
        -24    2    1    2    0    0 -0.13631667887E+02 -0.28353047237E+03 -0.34813784431E+03  0.45632754089E+03  0.80371106755E+02 0.  0.
        254    2    1    2    0    0  0.13631667887E+02  0.28353047237E+03  0.32941217636E+03  0.10027265215E+04  0.90353347693E+03 0.  0.
         23    2    4    4    0    0 -0.32666723913E+03  0.44337363161E+03  0.16349575660E+03  0.58318961862E+03  0.10043707738E+03 0.  0.
         23    2    4    4    0    0  0.34029890702E+03 -0.15984315924E+03  0.16591641976E+03  0.41953690292E+03  0.84437982528E+02 0.  0.
          1    1    3    3  502    0  0.25076292079E+02 -0.35013999302E+02 -0.42482470914E+02  0.60494304745E+02  0.00000000000E+00 0. -1.
         -2    1    3    3    0  502 -0.38707959965E+02 -0.24851647307E+03 -0.30565537340E+03  0.39583323614E+03  0.00000000000E+00 0.  1.
         11    1    5    5    0    0 -0.25155309868E+03  0.28419652933E+03  0.14468349980E+03  0.40617723207E+03  0.00000000000E+00 0.  1.
        -11    1    5    5    0    0 -0.75114140450E+02  0.15917710228E+03  0.18812256796E+02  0.17701238655E+03  0.00000000000E+00 0. -1.
          2    1    6    6  503    0  0.25441892143E+03 -0.96654809168E+02  0.83204454527E+02  0.28459466082E+03  0.00000000000E+00 0. -1.
         -2    1    6    6    0  503  0.85879985592E+02 -0.63188350070E+02  0.82711965236E+02  0.13494224210E+03  0.00000000000E+00 0.  1.
<mgrwt>
<rscale>  0 0.14589339E+04</rscale>
<asrwt>0</asrwt>
<pdfrwt beam="1">  1        1 0.11079449E+00 0.14589339E+04</pdfrwt>
<pdfrwt beam="2">  1       -2 0.11367536E+00 0.14589339E+04</pdfrwt>
<totfact> 0.13445574E+01</totfact>
</mgrwt>
</event>
<event>
12    4  0.4398275E-008  0.1481962E+04  0.7818608E-02  0.8896538E-01
         -2   -1    0    0    0  501 -0.00000000000E+00  0.00000000000E+00  0.48329097833E+03  0.48329097833E+03  0.00000000000E+00 0.  1.
          1   -1    0    0  501    0  0.00000000000E+00 -0.00000000000E+00 -0.11360703304E+04  0.11360703304E+04  0.00000000000E+00 0. -1.
        -24    2    1    2    0    0  0.73223934509E+02  0.11926045927E+03  0.27446452723E+03  0.31803207975E+03  0.78922907400E+02 0.  0.
        254    2    1    2    0    0 -0.73223934509E+02 -0.11926045927E+03 -0.92724387931E+03  0.13013292290E+04  0.90227033020E+03 0.  0.
         23    2    4    4    0    0 -0.39482133936E+03  0.12697534240E+03 -0.72204512364E+03  0.83785429118E+03  0.92973249294E+02 0.  0.
         23    2    4    4    0    0  0.32159740485E+03 -0.24623580167E+03 -0.20519875567E+03  0.46347493780E+03  0.92981330444E+02 0.  0.
          1    1    3    3  502    0  0.12813045071E+02  0.30605361333E+02  0.13397875548E+02  0.35782192995E+02  0.00000000000E+00 0. -1.
         -2    1    3    3    0  502  0.60410889438E+02  0.88655097936E+02  0.26106665169E+03  0.28224988676E+03  0.00000000000E+00 0.  1.
         11    1    5    5    0    0 -0.23033557374E+03  0.11857250961E+03 -0.47244474625E+03  0.53881161348E+03  0.00000000000E+00 0. -1.
        -11    1    5    5    0    0 -0.16448576562E+03  0.84028327908E+01 -0.24960037739E+03  0.29904267770E+03  0.00000000000E+00 0.  1.
          4    1    6    6  503    0  0.30373575036E+03 -0.19832947039E+03 -0.19304940320E+03  0.41092341981E+03  0.00000000000E+00 0. -1.
         -4    1    6    6    0  503  0.17861654489E+02 -0.47906331281E+02 -0.12149352474E+02  0.52551517994E+02  0.00000000000E+00 0.  1.
<mgrwt>
<rscale>  0 0.14819616E+04</rscale>
<asrwt>0</asrwt>
<pdfrwt beam="1">  1        1 0.17478005E+00 0.14819616E+04</pdfrwt>
<pdfrwt beam="2">  1       -2 0.74352458E-01 0.14819616E+04</pdfrwt>
<totfact> 0.16475270E+01</totfact>
</mgrwt>
</event>
<event>
12    4  0.4398275E-008  0.2089775E+04  0.7818608E-02  0.8565761E-01
          1   -1    0    0  501    0  0.00000000000E+00  0.00000000000E+00  0.14923620172E+04  0.14923620172E+04  0.00000000000E+00 0. -1.
         -2   -1    0    0    0  501 -0.00000000000E+00 -0.00000000000E+00 -0.73158542338E+03  0.73158542338E+03  0.00000000000E+00 0.  1.
        -24    2    1    2    0    0  0.62968444477E+03  0.67881361804E+02  0.90969348907E+03  0.11112364937E+04  0.78701471373E+02 0.  0.
        254    2    1    2    0    0 -0.62968444477E+03 -0.67881361804E+02 -0.14891689522E+03  0.11127109469E+04  0.90268434706E+03 0.  0.
         23    2    4    4    0    0  0.14927296149E+03 -0.15577008445E+03  0.13792742701E+03  0.27380647424E+03  0.96949852871E+02 0.  0.
         23    2    4    4    0    0 -0.77895740626E+03  0.87888722651E+02 -0.28684432224E+03  0.83890447266E+03  0.83558247440E+02 0.  0.
          1    1    3    3  502    0  0.56780781109E+03  0.78331096921E+02  0.78926037750E+03  0.97543498737E+03  0.00000000000E+00 0. -1.
         -2    1    3    3    0  502  0.61876633677E+02 -0.10449735117E+02  0.12043311156E+03  0.13580150632E+03  0.00000000000E+00 0.  1.
         11    1    5    5    0    0  0.10488648915E+02 -0.74754395512E+02  0.37288712654E+02  0.84194296100E+02  0.00000000000E+00 0.  1.
        -11    1    5    5    0    0  0.13878431258E+03 -0.81015688943E+02  0.10063871436E+03  0.18961217814E+03  0.00000000000E+00 0. -1.
          1    1    6    6  503    0 -0.73018696843E+03  0.73861790098E+02 -0.24692842982E+03  0.77433986230E+03  0.00000000000E+00 0. -1.
         -1    1    6    6    0  503 -0.48770437835E+02  0.14026932553E+02 -0.39915892421E+02  0.64564610362E+02  0.00000000000E+00 0.  1.
<mgrwt>
<rscale>  0 0.20897754E+04</rscale>
<asrwt>0</asrwt>
<pdfrwt beam="1">  1        1 0.22959416E+00 0.20897754E+04</pdfrwt>
<pdfrwt beam="2">  1       -2 0.11255160E+00 0.20897754E+04</pdfrwt>
<totfact> 0.33250429E+00</totfact>
</mgrwt>
</event>
<event>
12    4  0.4398275E-008  0.1288786E+04  0.7818608E-02  0.9038505E-01
         -2   -1    0    0    0  501 -0.00000000000E+00  0.00000000000E+00  0.14515773909E+03  0.14515773909E+03  0.00000000000E+00 0.  1.
          1   -1    0    0  501    0  0.00000000000E+00 -0.00000000000E+00 -0.28606290715E+04  0.28606290715E+04  0.00000000000E+00 0. -1.
        -24    2    1    2    0    0  0.29391251226E+03  0.81072012935E+02 -0.95352364310E+03  0.10043920457E+04  0.81478877222E+02 0.  0.
        254    2    1    2    0    0 -0.29391251226E+03 -0.81072012935E+02 -0.17619476893E+04  0.20013947648E+04  0.89897948186E+03 0.  0.
         23    2    4    4    0    0  0.12943372414E+03 -0.34951491369E+03 -0.43491298160E+03  0.57989621369E+03  0.90645205345E+02 0.  0.
         23    2    4    4    0    0 -0.42334623640E+03  0.26844290075E+03 -0.13270347077E+04  0.14214985511E+04  0.91396874574E+02 0.  0.
          1    1    3    3  502    0  0.17351169079E+02  0.23512746016E+02 -0.52020947253E+02  0.59666500205E+02  0.00000000000E+00 0. -1.
         -2    1    3    3    0  502  0.27656134318E+03  0.57559266919E+02 -0.90150269585E+03  0.94472554553E+03  0.00000000000E+00 0.  1.
         11    1    5    5    0    0  0.93246822410E+02 -0.19238921682E+03 -0.30686132618E+03  0.37399525952E+03  0.00000000000E+00 0. -1.
        -11    1    5    5    0    0  0.36186901732E+02 -0.15712569687E+03 -0.12805165543E+03  0.20590095417E+03  0.00000000000E+00 0.  1.
          3    1    6    6  503    0 -0.40591570296E+03  0.26628224486E+03 -0.12201313779E+04  0.13131619745E+04  0.00000000000E+00 0. -1.
         -3    1    6    6    0  503 -0.17430533443E+02  0.21606558942E+01 -0.10690332975E+03  0.10833657665E+03  0.00000000000E+00 0.  1.
<mgrwt>
<rscale>  0 0.12887862E+04</rscale>
<asrwt>0</asrwt>
<pdfrwt beam="1">  1        1 0.44009678E+00 0.12887862E+04</pdfrwt>
<pdfrwt beam="2">  1       -2 0.22331960E-01 0.12887862E+04</pdfrwt>
<totfact> 0.11545128E+01</totfact>
</mgrwt>
</event>
<event>
12    4  0.4398275E-008  0.1893250E+04  0.7818608E-02  0.8658224E-01
         -2   -1    0    0    0  501 -0.00000000000E+00  0.00000000000E+00  0.29790468601E+03  0.29790468601E+03  0.00000000000E+00 0.  1.
          1   -1    0    0  501    0  0.00000000000E+00 -0.00000000000E+00 -0.30080051659E+04  0.30080051659E+04  0.00000000000E+00 0. -1.
        -24    2    1    2    0    0 -0.24016951307E+03  0.33736131514E+03 -0.21391890637E+04  0.21804421404E+04  0.81878113583E+02 0.  0.
        254    2    1    2    0    0  0.24016951307E+03 -0.33736131514E+03 -0.57091141627E+03  0.11254677116E+04  0.87706537534E+03 0.  0.
         23    2    4    4    0    0  0.12243864275E+03 -0.54872293199E+03 -0.85286454204E+02  0.57584913597E+03  0.90776488148E+02 0.  0.
         23    2    4    4    0    0  0.11773087032E+03  0.21136161684E+03 -0.48562496207E+03  0.54961857562E+03  0.87833273726E+02 0.  0.
          3    1    3    3  502    0 -0.20189912343E+03  0.30234200267E+03 -0.19772974038E+04  0.20104424801E+04  0.00000000000E+00 0. -1.
         -4    1    3    3    0  502 -0.38270389644E+02  0.35019312475E+02 -0.16189165981E+03  0.16999966025E+03  0.00000000000E+00 0.  1.
         11    1    5    5    0    0  0.78365302055E+02 -0.28246437040E+03 -0.87650182823E+02  0.30595717945E+03  0.00000000000E+00 0.  1.
        -11    1    5    5    0    0  0.44073340694E+02 -0.26625856159E+03  0.23637286190E+01  0.26989195651E+03  0.00000000000E+00 0. -1.
          2    1    6    6  503    0  0.88752343542E+02  0.13173006964E+03 -0.39400925105E+03  0.42482123258E+03  0.00000000000E+00 0. -1.
         -2    1    6    6    0  503  0.28978526781E+02  0.79631547205E+02 -0.91615711018E+02  0.12479734304E+03  0.00000000000E+00 0.  1.
<mgrwt>
<rscale>  0 0.18932499E+04</rscale>
<asrwt>0</asrwt>
<pdfrwt beam="1">  1        1 0.46277001E+00 0.18932499E+04</pdfrwt>
<pdfrwt beam="2">  1       -2 0.45831492E-01 0.18932499E+04</pdfrwt>
<totfact> 0.21949298E+00</totfact>
</mgrwt>
</event>
<event>
12    4  0.4398275E-008  0.2022668E+04  0.7818608E-02  0.8596096E-01
          1   -1    0    0  501    0  0.00000000000E+00  0.00000000000E+00  0.14725513219E+04  0.14725513219E+04  0.00000000000E+00 0. -1.
         -2   -1    0    0    0  501 -0.00000000000E+00 -0.00000000000E+00 -0.69457411080E+03  0.69457411080E+03  0.00000000000E+00 0.  1.
        -24    2    1    2    0    0 -0.50258325533E+03  0.54509675802E+03 -0.33716172902E+02  0.74637980832E+03  0.78902685648E+02 0.  0.
        254    2    1    2    0    0  0.50258325533E+03 -0.54509675802E+03  0.81169338398E+03  0.14207456244E+04  0.89997309704E+03 0.  0.
         23    2    4    4    0    0 -0.12088225528E+03 -0.51463339103E+03  0.37459950187E+03  0.65434435389E+03  0.91551624020E+02 0.  0.
         23    2    4    4    0    0  0.62346551061E+03 -0.30463366990E+02  0.43709388210E+03  0.76640127047E+03  0.81747085299E+02 0.  0.
          3    1    3    3  502    0 -0.27578846369E+03  0.29712467391E+03  0.20880027807E+02  0.40592896437E+03  0.00000000000E+00 0. -1.
         -4    1    3    3    0  502 -0.22679479164E+03  0.24797208412E+03 -0.54596200709E+02  0.34045084395E+03  0.00000000000E+00 0.  1.
         11    1    5    5    0    0 -0.37427086305E+02 -0.57985611095E+02  0.74616818720E+02  0.10164048170E+03  0.00000000000E+00 0. -1.
        -11    1    5    5    0    0 -0.83455168974E+02 -0.45664777994E+03  0.29998268315E+03  0.55270387220E+03  0.00000000000E+00 0.  1.
          4    1    6    6  503    0  0.32387228476E+02 -0.52743156543E+01  0.48574132379E+02  0.58619086570E+02  0.00000000000E+00 0. -1.
         -4    1    6    6    0  503  0.59107828213E+03 -0.25189051336E+02  0.38851974973E+03  0.70778218390E+03  0.00000000000E+00 0.  1.
<mgrwt>
<rscale>  0 0.20226676E+04</rscale>
<asrwt>0</asrwt>
<pdfrwt beam="1">  1        1 0.22654636E+00 0.20226676E+04</pdfrwt>
<pdfrwt beam="2">  1       -2 0.10685756E+00 0.20226676E+04</pdfrwt>
<totfact> 0.39144118E+00</totfact>
</mgrwt>
</event>
<event>
12    4  0.4398275E-008  0.1118760E+04  0.7818608E-02  0.9187098E-01
          1   -1    0    0  501    0  0.00000000000E+00  0.00000000000E+00  0.23866413674E+04  0.23866413674E+04  0.00000000000E+00 0. -1.
         -2   -1    0    0    0  501 -0.00000000000E+00 -0.00000000000E+00 -0.13110721496E+03  0.13110721496E+03  0.00000000000E+00 0.  1.
        -24    2    1    2    0    0  0.59784308991E+02  0.21081830607E+02  0.81770669541E+03  0.82394000800E+03  0.78830767361E+02 0.  0.
        254    2    1    2    0    0 -0.59784308991E+02 -0.21081830607E+02  0.14378274571E+04  0.16938085744E+04  0.89309634601E+03 0.  0.
         23    2    4    4    0    0  0.38665479508E+02 -0.13319922816E+03 -0.67206337969E+02  0.17837212735E+03  0.89793486752E+02 0.  0.
         23    2    4    4    0    0 -0.98449788499E+02  0.11211739755E+03  0.15050337950E+04  0.15154364471E+04  0.95698637318E+02 0.  0.
          3    1    3    3  502    0  0.70243265689E+02 -0.72084568913E+01  0.60458797684E+03  0.60869754391E+03  0.00000000000E+00 0. -1.
         -4    1    3    3    0  502 -0.10458956698E+02  0.28290287499E+02  0.21311871856E+03  0.21524246408E+03  0.00000000000E+00 0.  1.
         11    1    5    5    0    0  0.52309889563E+02 -0.83943230077E+02 -0.78205868628E+02  0.12609103184E+03  0.00000000000E+00 0. -1.
        -11    1    5    5    0    0 -0.13644410056E+02 -0.49255998083E+02  0.10999530660E+02  0.52281095509E+02  0.00000000000E+00 0.  1.
          2    1    6    6  503    0 -0.39143567292E+02  0.79543856034E+02  0.11858715055E+04  0.11891806723E+04  0.00000000000E+00 0. -1.
         -2    1    6    6    0  503 -0.59306221207E+02  0.32573541519E+02  0.31916228959E+03  0.32625577478E+03  0.00000000000E+00 0.  1.
<mgrwt>
<rscale>  0 0.11187599E+04</rscale>
<asrwt>0</asrwt>
<pdfrwt beam="1">  1        1 0.36717556E+00 0.11187599E+04</pdfrwt>
<pdfrwt beam="2">  1       -2 0.20170343E-01 0.11187599E+04</pdfrwt>
<totfact> 0.30062099E+01</totfact>
</mgrwt>
</event>
<event>
12    4  0.4398275E-008  0.2022570E+04  0.7818608E-02  0.8596141E-01
          3   -1    0    0  501    0  0.00000000000E+00  0.00000000000E+00  0.97697691578E+03  0.97697691578E+03  0.00000000000E+00 0. -1.
         -4   -1    0    0    0  501 -0.00000000000E+00 -0.00000000000E+00 -0.10467977461E+04  0.10467977461E+04  0.00000000000E+00 0.  1.
        -24    2    1    2    0    0 -0.69609561041E+03 -0.16349562939E+03 -0.40927068053E+03  0.82763037475E+03  0.78674186412E+02 0.  0.
        254    2    1    2    0    0  0.69609561041E+03  0.16349562939E+03  0.33944985022E+03  0.11961442871E+04  0.89680267345E+03 0.  0.
         23    2    4    4    0    0  0.81134613381E+03  0.77087802226E+02  0.50023752469E+03  0.96103725961E+03  0.95550798713E+02 0.  0.
         23    2    4    4    0    0 -0.11525052340E+03  0.86407827168E+02 -0.16078767447E+03  0.23510702750E+03  0.93132391662E+02 0.  0.
          3    1    3    3  502    0 -0.10920934637E+03 -0.57827828264E+01 -0.39561567024E+02  0.11629806317E+03  0.00000000000E+00 0. -1.
         -4    1    3    3    0  502 -0.58688626404E+03 -0.15771284657E+03 -0.36970911350E+03  0.71133231158E+03  0.00000000000E+00 0.  1.
         11    1    5    5    0    0  0.70031177572E+03  0.85503566678E+02  0.46191221801E+03  0.84327358566E+03  0.00000000000E+00 0.  1.
        -11    1    5    5    0    0  0.11103435809E+03 -0.84157644522E+01  0.38325306679E+02  0.11776367394E+03  0.00000000000E+00 0. -1.
          3    1    6    6  503    0 -0.31701647107E+02 -0.11447234430E+02 -0.67065458844E+01  0.34365845880E+02  0.00000000000E+00 0. -1.
         -3    1    6    6    0  503 -0.83548876297E+02  0.97855061598E+02 -0.15408112859E+03  0.20074118162E+03  0.00000000000E+00 0.  1.
<mgrwt>
<rscale>  0 0.20225699E+04</rscale>
<asrwt>0</asrwt>
<pdfrwt beam="1">  1        3 0.15030414E+00 0.20225699E+04</pdfrwt>
<pdfrwt beam="2">  1       -4 0.16104581E+00 0.20225699E+04</pdfrwt>
<totfact> 0.16773866E-01</totfact>
</mgrwt>
</event>
<event>
12    4  0.4398275E-008  0.1777621E+04  0.7818608E-02  0.8718292E-01
          1   -1    0    0  501    0  0.00000000000E+00  0.00000000000E+00  0.42586907221E+03  0.42586907221E+03  0.00000000000E+00 0. -1.
         -2   -1    0    0    0  501 -0.00000000000E+00 -0.00000000000E+00 -0.18549926072E+04  0.18549926072E+04  0.00000000000E+00 0.  1.
        -24    2    1    2    0    0  0.37371668273E+03 -0.51529924805E+03 -0.64622024971E+03  0.91064183490E+03  0.80439208957E+02 0.  0.
        254    2    1    2    0    0 -0.37371668273E+03  0.51529924805E+03 -0.78290328532E+03  0.13702198446E+04  0.92702070865E+03 0.  0.
         23    2    4    4    0    0 -0.34899184289E+02  0.66272175590E+03 -0.24989334623E+03  0.71534004459E+03  0.94056451696E+02 0.  0.
         23    2    4    4    0    0 -0.33881749844E+03 -0.14742250785E+03 -0.53300993910E+03  0.65487979997E+03  0.90759375026E+02 0.  0.
          3    1    3    3  502    0  0.25457804233E+02 -0.11869208528E+02 -0.41951923566E+02  0.50487045847E+02  0.00000000000E+00 0. -1.
         -4    1    3    3    0  502  0.34825887850E+03 -0.50343003952E+03 -0.60426832614E+03  0.86015478905E+03  0.00000000000E+00 0.  1.
         11    1    5    5    0    0 -0.13345540773E+00  0.50289993319E+03 -0.22069651846E+03  0.54919515099E+03  0.00000000000E+00 0.  1.
        -11    1    5    5    0    0 -0.34765728882E+02  0.15982182270E+03 -0.29196827770E+02  0.16614489360E+03  0.00000000000E+00 0. -1.
          3    1    6    6  503    0 -0.86657388981E+01 -0.21767337727E+02 -0.60801830339E+02  0.65159608616E+02  0.00000000000E+00 0. -1.
         -3    1    6    6    0  503 -0.33015175955E+03 -0.12565517012E+03 -0.47220810876E+03  0.58972019135E+03  0.00000000000E+00 0.  1.
<mgrwt>
<rscale>  0 0.17776209E+04</rscale>
<asrwt>0</asrwt>
<pdfrwt beam="1">  1        1 0.65518320E-01 0.17776209E+04</pdfrwt>
<pdfrwt beam="2">  1       -2 0.28538347E+00 0.17776209E+04</pdfrwt>
<totfact> 0.17832402E+00</totfact>
</mgrwt>
</event>
<event>
12    4  0.4398275E-008  0.1675953E+04  0.7818608E-02  0.8775199E-01
         -2   -1    0    0    0  501 -0.00000000000E+00  0.00000000000E+00  0.55439965428E+03  0.55439965428E+03  0.00000000000E+00 0.  1.
          1   -1    0    0  501    0  0.00000000000E+00 -0.00000000000E+00 -0.12666038355E+04  0.12666038355E+04  0.00000000000E+00 0. -1.
        -24    2    1    2    0    0 -0.36054284479E+03 -0.31740691512E+03 -0.63849221966E+03  0.80278563359E+03  0.77808522903E+02 0.  0.
        254    2    1    2    0    0  0.36054284479E+03  0.31740691512E+03 -0.73711961520E+02  0.10182178562E+04  0.89476022298E+03 0.  0.
         23    2    4    4    0    0  0.52891662759E+03 -0.83759034191E+02 -0.16009251712E+03  0.56592322042E+03  0.88719234831E+02 0.  0.
         23    2    4    4    0    0 -0.16837378280E+03  0.40116594931E+03  0.86380555596E+02  0.45229463574E+03  0.88458959489E+02 0.  0.
          3    1    3    3  502    0 -0.81522940866E+02 -0.11306437539E+03 -0.21153404159E+03  0.25333020669E+03  0.00000000000E+00 0. -1.
         -4    1    3    3    0  502 -0.27901990392E+03 -0.20434253972E+03 -0.42695817806E+03  0.54945542689E+03  0.00000000000E+00 0.  1.
         11    1    5    5    0    0  0.50526348555E+03 -0.84525569831E+02 -0.17071787137E+03  0.53998180839E+03  0.00000000000E+00 0.  1.
        -11    1    5    5    0    0  0.23653142041E+02  0.76653564055E+00  0.10625354257E+02  0.25941412035E+02  0.00000000000E+00 0. -1.
          3    1    6    6  503    0 -0.64356184957E+02  0.65357538814E+02  0.28216504687E+02  0.95966127143E+02  0.00000000000E+00 0. -1.
         -3    1    6    6    0  503 -0.10401759784E+03  0.33580841049E+03  0.58164050909E+02  0.35632850859E+03  0.00000000000E+00 0.  1.
<mgrwt>
<rscale>  0 0.16759531E+04</rscale>
<asrwt>0</asrwt>
<pdfrwt beam="1">  1        1 0.19486213E+00 0.16759531E+04</pdfrwt>
<pdfrwt beam="2">  1       -2 0.85292254E-01 0.16759531E+04</pdfrwt>
<totfact> 0.95590543E+00</totfact>
</mgrwt>
</event>
<event>
12    4  0.4398275E-008  0.1213964E+04  0.7818608E-02  0.9100721E-01
          1   -1    0    0  501    0  0.00000000000E+00  0.00000000000E+00  0.17463440776E+04  0.17463440776E+04  0.00000000000E+00 0. -1.
         -2   -1    0    0    0  501 -0.00000000000E+00 -0.00000000000E+00 -0.21097066659E+03  0.21097066659E+03  0.00000000000E+00 0.  1.
        -24    2    1    2    0    0  0.15359731745E+03 -0.30974925455E+01  0.54281024773E+03  0.56984376960E+03  0.80481217192E+02 0.  0.
        254    2    1    2    0    0 -0.15359731745E+03  0.30974925455E+01  0.99256316332E+03  0.13874709746E+04  0.95723160305E+03 0.  0.
         23    2    4    4    0    0  0.76775891580E+02 -0.34483792456E+03  0.87012633369E+03  0.94334500741E+03  0.89287371277E+02 0.  0.
         23    2    4    4    0    0 -0.23037320903E+03  0.34793541711E+03  0.12243682962E+03  0.44412596722E+03  0.90145591121E+02 0.  0.
          1    1    3    3  502    0  0.10568547565E+03 -0.39851679541E+02  0.36273625612E+03  0.37991468467E+03  0.00000000000E+00 0. -1.
         -2    1    3    3    0  502  0.47911841800E+02  0.36754186995E+02  0.18007399162E+03  0.18992908493E+03  0.00000000000E+00 0.  1.
         11    1    5    5    0    0  0.26026443850E+02 -0.61825524957E+02  0.92486750727E+02  0.11425222263E+03  0.00000000000E+00 0. -1.
        -11    1    5    5    0    0  0.50749447730E+02 -0.28301239961E+03  0.77763958297E+03  0.82909278478E+03  0.00000000000E+00 0.  1.
          4    1    6    6  503    0 -0.17622549748E+03  0.18642260419E+03  0.76390150710E+02  0.26766446989E+03  0.00000000000E+00 0. -1.
         -4    1    6    6    0  503 -0.54147711543E+02  0.16151281292E+03  0.46046678914E+02  0.17646149733E+03  0.00000000000E+00 0.  1.
<mgrwt>
<rscale>  0 0.12139644E+04</rscale>
<asrwt>0</asrwt>
<pdfrwt beam="1">  1        1 0.26866831E+00 0.12139644E+04</pdfrwt>
<pdfrwt beam="2">  1       -2 0.32457027E-01 0.12139644E+04</pdfrwt>
<totfact> 0.34028550E+01</totfact>
</mgrwt>
</event>
<event>
12    4  0.4398275E-008  0.2865420E+04  0.7818608E-02  0.8283241E-01
          1   -1    0    0  501    0  0.00000000000E+00  0.00000000000E+00  0.26224524957E+04  0.26224524957E+04  0.00000000000E+00 0. -1.
         -2   -1    0    0    0  501 -0.00000000000E+00 -0.00000000000E+00 -0.78272468758E+03  0.78272468758E+03  0.00000000000E+00 0.  1.
        -24    2    1    2    0    0 -0.10877162486E+04  0.33316766113E+03  0.11181265003E+03  0.11458677983E+04  0.79897524753E+02 0.  0.
        254    2    1    2    0    0  0.10877162486E+04 -0.33316766113E+03  0.17279151581E+04  0.22593093850E+04  0.90810835021E+03 0.  0.
         23    2    4    4    0    0  0.11573360004E+04 -0.16814797982E+03  0.16856663716E+04  0.20537525033E+04  0.93423057811E+02 0.  0.
         23    2    4    4    0    0 -0.69619751734E+02 -0.16501968131E+03  0.42248786477E+02  0.20555688168E+03  0.91598398438E+02 0.  0.
          3    1    3    3  502    0 -0.24569880563E+03  0.83869220115E+02  0.58344367410E+02  0.26609399539E+03  0.00000000000E+00 0. -1.
         -4    1    3    3    0  502 -0.84201744299E+03  0.24929844101E+03  0.53468282616E+02  0.87977380288E+03  0.00000000000E+00 0.  1.
         11    1    5    5    0    0  0.10908644505E+04 -0.13579729379E+03  0.15804831458E+04  0.19251891150E+04  0.00000000000E+00 0.  1.
        -11    1    5    5    0    0  0.66471549837E+02 -0.32350686032E+02  0.10518322583E+03  0.12856338833E+03  0.00000000000E+00 0. -1.
          2    1    6    6  503    0 -0.32246661614E+02 -0.14095216149E+03  0.61482072681E+02  0.15712225901E+03  0.00000000000E+00 0.  1.
         -2    1    6    6    0  503 -0.37373090120E+02 -0.24067519818E+02 -0.19233286204E+02  0.48434622674E+02  0.00000000000E+00 0. -1.
<mgrwt>
<rscale>  0 0.28654203E+04</rscale>
<asrwt>0</asrwt>
<pdfrwt beam="1">  1        1 0.40345423E+00 0.28654203E+04</pdfrwt>
<pdfrwt beam="2">  1       -2 0.12041918E+00 0.28654203E+04</pdfrwt>
<totfact> 0.44345940E-01</totfact>
</mgrwt>
</event>
<event>
12    4  0.4398275E-008  0.2533869E+04  0.7818608E-02  0.8391018E-01
         -2   -1    0    0    0  501 -0.00000000000E+00  0.00000000000E+00  0.75908131779E+03  0.75908131779E+03  0.00000000000E+00 0.  1.
          1   -1    0    0  501    0  0.00000000000E+00 -0.00000000000E+00 -0.21145598844E+04  0.21145598844E+04  0.00000000000E+00 0. -1.
        -24    2    1    2    0    0 -0.11025887747E+04 -0.45612380398E+02 -0.56379145385E+03  0.12418579901E+04  0.81043005348E+02 0.  0.
        254    2    1    2    0    0  0.11025887747E+04  0.45612380398E+02 -0.79168711275E+03  0.16317832121E+04  0.90452499767E+03 0.  0.
         23    2    4    4    0    0  0.11570765286E+04  0.25347047240E+03 -0.71282426639E+03  0.13855199770E+04  0.92053238282E+02 0.  0.
         23    2    4    4    0    0 -0.54487753836E+02 -0.20785809200E+03 -0.78862846360E+02  0.24626323507E+03  0.90842339720E+02 0.  0.
          1    1    3    3  502    0 -0.97109979474E+02 -0.13538741193E+02 -0.27428227097E+02  0.10181332559E+03  0.00000000000E+00 0. -1.
         -2    1    3    3    0  502 -0.10054787952E+04 -0.32073639205E+02 -0.53636322676E+03  0.11400446645E+04  0.00000000000E+00 0.  1.
         11    1    5    5    0    0  0.11038535751E+04  0.23359877993E+03 -0.69820420404E+03  0.13268572703E+04  0.00000000000E+00 0. -1.
        -11    1    5    5    0    0  0.53222953454E+02  0.19871692465E+02 -0.14620062352E+02  0.58662706713E+02  0.00000000000E+00 0.  1.
          3    1    6    6  503    0 -0.50463947780E+02 -0.18500788335E+03 -0.98755108402E+02  0.21570141020E+03  0.00000000000E+00 0. -1.
         -3    1    6    6    0  503 -0.40238060563E+01 -0.22850208646E+02  0.19892262041E+02  0.30561824871E+02  0.00000000000E+00 0.  1.
<mgrwt>
<rscale>  0 0.25338689E+04</rscale>
<asrwt>0</asrwt>
<pdfrwt beam="1">  1        1 0.32531691E+00 0.25338689E+04</pdfrwt>
<pdfrwt beam="2">  1       -2 0.11678174E+00 0.25338689E+04</pdfrwt>
<totfact> 0.11011899E+00</totfact>
</mgrwt>
</event>
<event>
12    4  0.4398275E-008  0.3107272E+04  0.7818608E-02  0.8213745E-01
          1   -1    0    0  501    0  0.00000000000E+00  0.00000000000E+00  0.29398111750E+04  0.29398111750E+04  0.00000000000E+00 0. -1.
         -2   -1    0    0    0  501 -0.00000000000E+00 -0.00000000000E+00 -0.82106799545E+03  0.82106799545E+03  0.00000000000E+00 0.  1.
        -24    2    1    2    0    0  0.42672102386E+03  0.13160144598E+04  0.12702920920E+04  0.18799232394E+04  0.80526372449E+02 0.  0.
        254    2    1    2    0    0 -0.42672102386E+03 -0.13160144598E+04  0.84845108750E+03  0.18809559310E+04  0.95086333186E+03 0.  0.
         23    2    4    4    0    0 -0.25928513242E+03 -0.14169967227E+04  0.63493197218E+03  0.15769414959E+04  0.92181235296E+02 0.  0.
         23    2    4    4    0    0 -0.16743589145E+03  0.10098226291E+03  0.21351911532E+03  0.30401443510E+03  0.92747878557E+02 0.  0.
          3    1    3    3  502    0  0.33019936877E+03  0.11130925545E+04  0.10709779404E+04  0.15795570287E+04  0.00000000000E+00 0. -1.
         -4    1    3    3    0  502  0.96521655095E+02  0.20292190528E+03  0.19931415159E+03  0.30036621076E+03  0.00000000000E+00 0.  1.
         11    1    5    5    0    0 -0.17090659220E+03 -0.77016395853E+03  0.30894983693E+03  0.84723762193E+03  0.00000000000E+00 0.  1.
        -11    1    5    5    0    0 -0.88378540221E+02 -0.64683276415E+03  0.32598213525E+03  0.72970387395E+03  0.00000000000E+00 0. -1.
          3    1    6    6  503    0 -0.96672165281E+02  0.18877511765E+02  0.57544551911E+02  0.11407560408E+03  0.00000000000E+00 0. -1.
         -3    1    6    6    0  503 -0.70763726166E+02  0.82104751148E+02  0.15597456341E+03  0.18993883103E+03  0.00000000000E+00 0.  1.
<mgrwt>
<rscale>  0 0.31072720E+04</rscale>
<asrwt>0</asrwt>
<pdfrwt beam="1">  1        1 0.45227864E+00 0.31072720E+04</pdfrwt>
<pdfrwt beam="2">  1       -2 0.12631815E+00 0.31072720E+04</pdfrwt>
<totfact> 0.22902294E-01</totfact>
</mgrwt>
</event>
<event>
12    4  0.4398275E-008  0.1307601E+04  0.7818608E-02  0.9023559E-01
          1   -1    0    0  501    0  0.00000000000E+00  0.00000000000E+00  0.18927328983E+04  0.18927328983E+04  0.00000000000E+00 0. -1.
         -2   -1    0    0    0  501 -0.00000000000E+00 -0.00000000000E+00 -0.22584011720E+03  0.22584011720E+03  0.00000000000E+00 0.  1.
        -24    2    1    2    0    0 -0.18346857504E+02  0.31502490383E+03  0.24628258374E+03  0.41082669150E+03  0.92445455186E+02 0.  0.
        254    2    1    2    0    0  0.18346857504E+02 -0.31502490383E+03  0.14206101974E+04  0.17077463240E+04  0.89369283149E+03 0.  0.
         23    2    4    4    0    0 -0.24256017174E+03 -0.90405229990E+02  0.13046504444E+04  0.13331965269E+04  0.91058523559E+02 0.  0.
         23    2    4    4    0    0  0.26090702924E+03 -0.22461967384E+03  0.11595975299E+03  0.37454979712E+03  0.91183388996E+02 0.  0.
          1    1    3    3  502    0  0.17892346085E+02  0.87769970353E+02  0.11539847695E+03  0.14608392187E+03  0.00000000000E+00 0. -1.
         -2    1    3    3    0  502 -0.36239203589E+02  0.22725493348E+03  0.13088410679E+03  0.26474276964E+03  0.00000000000E+00 0.  1.
         11    1    5    5    0    0 -0.21341872310E+01  0.91445933063E+01  0.16145496434E+02  0.18677671080E+02  0.00000000000E+00 0.  1.
        -11    1    5    5    0    0 -0.24042598451E+03 -0.99549823297E+02  0.12885049480E+04  0.13145188558E+04  0.00000000000E+00 0. -1.
          2    1    6    6  503    0  0.26514737111E+03 -0.21727686521E+03  0.12229833609E+03  0.36396325031E+03  0.00000000000E+00 0. -1.
         -2    1    6    6    0  503 -0.42403418699E+01 -0.73428086328E+01 -0.63385831035E+01  0.10586546819E+02  0.00000000000E+00 0.  1.
<mgrwt>
<rscale>  0 0.13076009E+04</rscale>
<asrwt>0</asrwt>
<pdfrwt beam="1">  1        1 0.29118967E+00 0.13076009E+04</pdfrwt>
<pdfrwt beam="2">  1       -2 0.34744635E-01 0.13076009E+04</pdfrwt>
<totfact> 0.23617493E+01</totfact>
</mgrwt>
</event>
<event>
12    4  0.4398275E-008  0.1680884E+04  0.7818608E-02  0.8772342E-01
          1   -1    0    0  501    0  0.00000000000E+00  0.00000000000E+00  0.77560437606E+03  0.77560437606E+03  0.00000000000E+00 0. -1.
         -2   -1    0    0    0  501 -0.00000000000E+00 -0.00000000000E+00 -0.91070034163E+03  0.91070034163E+03  0.00000000000E+00 0.  1.
        -24    2    1    2    0    0 -0.29352553592E+03 -0.48844915325E+03  0.10895430383E+03  0.58396860239E+03  0.66396330568E+02 0.  0.
        254    2    1    2    0    0  0.29352553592E+03  0.48844915325E+03 -0.24405026940E+03  0.11023361153E+04  0.91150675343E+03 0.  0.
         23    2    4    4    0    0  0.13288353153E+03  0.44306035827E+03 -0.56067972433E+03  0.73247678077E+03  0.90553669560E+02 0.  0.
         23    2    4    4    0    0  0.16064200438E+03  0.45388794978E+02  0.31662945493E+03  0.36985933452E+03  0.93143541492E+02 0.  0.
          1    1    3    3  502    0 -0.11677364769E+03 -0.17669594727E+03  0.71979686112E+02  0.22369313309E+03  0.00000000000E+00 0. -1.
         -2    1    3    3    0  502 -0.17675188822E+03 -0.31175320598E+03  0.36974617714E+02  0.36027546930E+03  0.00000000000E+00 0.  1.
         11    1    5    5    0    0  0.50171727062E+02  0.20341777745E+03 -0.18645951424E+03  0.28046950784E+03  0.00000000000E+00 0.  1.
        -11    1    5    5    0    0  0.82711804473E+02  0.23964258083E+03 -0.37422021009E+03  0.45200727293E+03  0.00000000000E+00 0. -1.
          1    1    6    6  503    0  0.13476266532E+03  0.46982558486E+02  0.31257578222E+03  0.34361600137E+03  0.00000000000E+00 0. -1.
         -1    1    6    6    0  503  0.25879339066E+02 -0.15937635081E+01  0.40536727102E+01  0.26243333154E+02  0.00000000000E+00 0.  1.
<mgrwt>
<rscale>  0 0.16808845E+04</rscale>
<asrwt>0</asrwt>
<pdfrwt beam="1">  1        1 0.11932375E+00 0.16808845E+04</pdfrwt>
<pdfrwt beam="2">  1       -2 0.14010774E+00 0.16808845E+04</pdfrwt>
<totfact> 0.69494938E+00</totfact>
</mgrwt>
</event>
<event>
12    4  0.4398275E-008  0.1834259E+04  0.7818608E-02  0.8688290E-01
          1   -1    0    0  501    0  0.00000000000E+00  0.00000000000E+00  0.13939810475E+04  0.13939810475E+04  0.00000000000E+00 0. -1.
         -2   -1    0    0    0  501 -0.00000000000E+00 -0.00000000000E+00 -0.60339903837E+03  0.60339903837E+03  0.00000000000E+00 0.  1.
        -24    2    1    2    0    0 -0.26691592288E+03  0.13681086448E+03  0.10022497510E+04  0.10491930626E+04  0.79625352857E+02 0.  0.
        254    2    1    2    0    0  0.26691592288E+03 -0.13681086448E+03 -0.21166774180E+03  0.94818702329E+03  0.87423914102E+03 0.  0.
         23    2    4    4    0    0 -0.18810022014E+03 -0.27360256064E+03  0.11738775498E+03  0.36331793676E+03  0.89330756978E+02 0.  0.
         23    2    4    4    0    0  0.45501614302E+03  0.13679169616E+03 -0.32905549678E+03  0.58486908653E+03  0.89680933733E+02 0.  0.
          3    1    3    3  502    0 -0.19145308130E+03  0.79832045031E+02  0.56599578337E+03  0.60280897849E+03  0.00000000000E+00 0. -1.
         -4    1    3    3    0  502 -0.75462841575E+02  0.56978819450E+02  0.43625396759E+03  0.44638408413E+03  0.00000000000E+00 0.  1.
         11    1    5    5    0    0 -0.23781757550E+02 -0.78733058736E+02  0.60617970524E+02  0.10217144846E+03  0.00000000000E+00 0.  1.
        -11    1    5    5    0    0 -0.16431846259E+03 -0.19486950191E+03  0.56769784454E+02  0.26114648830E+03  0.00000000000E+00 0. -1.
          1    1    6    6  503    0  0.32732871256E+03  0.55532150226E+02 -0.21887647483E+03  0.39766168663E+03  0.00000000000E+00 0. -1.
         -1    1    6    6    0  503  0.12768743046E+03  0.81259545936E+02 -0.11017902195E+03  0.18720739991E+03  0.00000000000E+00 0.  1.
<mgrwt>
<rscale>  0 0.18342593E+04</rscale>
<asrwt>0</asrwt>
<pdfrwt beam="1">  1        1 0.21445862E+00 0.18342593E+04</pdfrwt>
<pdfrwt beam="2">  1       -2 0.92830621E-01 0.18342593E+04</pdfrwt>
<totfact> 0.62999587E+00</totfact>
</mgrwt>
</event>
<event>
12    4  0.4398275E-008  0.1587327E+04  0.7818608E-02  0.8828371E-01
         -2   -1    0    0    0  501 -0.00000000000E+00  0.00000000000E+00  0.61133556100E+03  0.61133556100E+03  0.00000000000E+00 0.  1.
          1   -1    0    0  501    0  0.00000000000E+00 -0.00000000000E+00 -0.10303699915E+04  0.10303699915E+04  0.00000000000E+00 0. -1.
        -24    2    1    2    0    0 -0.33650890461E+03 -0.19262294053E+03  0.23841906464E+03  0.46247360152E+03  0.81831177562E+02 0.  0.
        254    2    1    2    0    0  0.33650890461E+03  0.19262294053E+03 -0.65745349508E+03  0.11792319509E+04  0.89888878945E+03 0.  0.
         23    2    4    4    0    0 -0.44117295078E+02  0.46094863922E+03 -0.47632346157E+03  0.67030852421E+03  0.89495775651E+02 0.  0.
         23    2    4    4    0    0  0.38062619969E+03 -0.26832569869E+03 -0.18113003352E+03  0.50892342673E+03  0.96540047444E+02 0.  0.
          3    1    3    3  502    0  0.18938641144E+01 -0.13030786737E+02  0.84298220535E+01  0.15634897637E+02  0.00000000000E+00 0. -1.
         -4    1    3    3    0  502 -0.33840276873E+03 -0.17959215379E+03  0.22998924258E+03  0.44683870388E+03  0.00000000000E+00 0.  1.
         11    1    5    5    0    0 -0.57255505586E+02  0.37566805033E+03 -0.42412499273E+03  0.56946175150E+03  0.00000000000E+00 0. -1.
        -11    1    5    5    0    0  0.13138210508E+02  0.85280588891E+02 -0.52198468833E+02  0.10084677271E+03  0.00000000000E+00 0.  1.
          3    1    6    6  503    0  0.28812817500E+03 -0.15223343186E+03 -0.14164441029E+03  0.35532520593E+03  0.00000000000E+00 0. -1.
         -3    1    6    6    0  503  0.92498024692E+02 -0.11609226683E+03 -0.39485623228E+02  0.15359822080E+03  0.00000000000E+00 0.  1.
<mgrwt>
<rscale>  0 0.15873271E+04</rscale>
<asrwt>0</asrwt>
<pdfrwt beam="1">  1        1 0.15851846E+00 0.15873271E+04</pdfrwt>
<pdfrwt beam="2">  1       -2 0.94051626E-01 0.15873271E+04</pdfrwt>
<totfact> 0.11513892E+01</totfact>
</mgrwt>
</event>
<event>
12    4  0.4398275E-008  0.1876423E+04  0.7818608E-02  0.8666682E-01
         -2   -1    0    0    0  501 -0.00000000000E+00  0.00000000000E+00  0.11448553104E+04  0.11448553104E+04  0.00000000000E+00 0.  1.
          1   -1    0    0  501    0  0.00000000000E+00 -0.00000000000E+00 -0.76886656700E+03  0.76886656700E+03  0.00000000000E+00 0. -1.
        -24    2    1    2    0    0 -0.22031165701E+03 -0.26198925897E+03  0.79113188925E+03  0.86570084785E+03  0.79829153497E+02 0.  0.
        254    2    1    2    0    0  0.22031165701E+03  0.26198925897E+03 -0.41514314585E+03  0.10480210295E+04  0.89934901390E+03 0.  0.
         23    2    4    4    0    0  0.35659844706E+03  0.45384030617E+03 -0.26609087459E+02  0.58530206402E+03  0.93471849573E+02 0.  0.
         23    2    4    4    0    0 -0.13628679006E+03 -0.19185104720E+03 -0.38853405839E+03  0.46271896552E+03  0.88143139676E+02 0.  0.
          1    1    3    3  502    0 -0.47413574402E+01 -0.27786329880E+02  0.32653341388E+02  0.43137006182E+02  0.00000000000E+00 0. -1.
         -2    1    3    3    0  502 -0.21557029957E+03 -0.23420292909E+03  0.75847854786E+03  0.82256384167E+03  0.00000000000E+00 0.  1.
         11    1    5    5    0    0  0.62969097901E+02  0.12387278055E+03 -0.35846111287E+02  0.14350789785E+03  0.00000000000E+00 0. -1.
        -11    1    5    5    0    0  0.29362934916E+03  0.32996752562E+03  0.92370238282E+01  0.44179416617E+03  0.00000000000E+00 0.  1.
          1    1    6    6  503    0 -0.22915045106E+02 -0.99739941765E+02 -0.19526518089E+03  0.22045781035E+03  0.00000000000E+00 0. -1.
         -1    1    6    6    0  503 -0.11337174495E+03 -0.92111105431E+02 -0.19326887750E+03  0.24226115518E+03  0.00000000000E+00 0.  1.
<mgrwt>
<rscale>  0 0.18764232E+04</rscale>
<asrwt>0</asrwt>
<pdfrwt beam="1">  1        1 0.11828716E+00 0.18764232E+04</pdfrwt>
<pdfrwt beam="2">  1       -2 0.17613159E+00 0.18764232E+04</pdfrwt>
<totfact> 0.37298855E+00</totfact>
</mgrwt>
</event>
<event>
12    4  0.4398275E-008  0.1267988E+04  0.7818608E-02  0.9055344E-01
          1   -1    0    0  501    0  0.00000000000E+00  0.00000000000E+00  0.20415403409E+04  0.20415403409E+04  0.00000000000E+00 0. -1.
         -2   -1    0    0    0  501 -0.00000000000E+00 -0.00000000000E+00 -0.19688474110E+03  0.19688474110E+03  0.00000000000E+00 0.  1.
        -24    2    1    2    0    0 -0.97850797888E+02 -0.12848084219E+03 -0.22869544420E+00  0.18087797900E+03  0.81453578974E+02 0.  0.
        254    2    1    2    0    0  0.97850797888E+02  0.12848084219E+03  0.18448842952E+04  0.20575471030E+04  0.89656004418E+03 0.  0.
         23    2    4    4    0    0 -0.36944445379E+03 -0.47508034213E+02  0.10110903036E+04  0.10813882111E+04  0.91381855118E+02 0.  0.
         23    2    4    4    0    0  0.46729525167E+03  0.17598887640E+03  0.83379399168E+03  0.97615889189E+03  0.91306214468E+02 0.  0.
          1    1    3    3  502    0 -0.14801291711E+02 -0.21430321729E+02  0.32346654401E+02  0.41528821036E+02  0.00000000000E+00 0. -1.
         -2    1    3    3    0  502 -0.83049506178E+02 -0.10705052046E+03 -0.32575349845E+02  0.13934915796E+03  0.00000000000E+00 0.  1.
         11    1    5    5    0    0 -0.24527091548E+03  0.95529124135E+01  0.60387426068E+03  0.65185366673E+03  0.00000000000E+00 0.  1.
        -11    1    5    5    0    0 -0.12417353831E+03 -0.57060946626E+02  0.40721604288E+03  0.42953454439E+03  0.00000000000E+00 0. -1.
          2    1    6    6  503    0  0.51158423965E+02  0.20869884411E+01  0.13579390539E+03  0.14512589227E+03  0.00000000000E+00 0. -1.
         -2    1    6    6    0  503  0.41613682771E+03  0.17390188796E+03  0.69800008629E+03  0.83103299963E+03  0.00000000000E+00 0.  1.
<mgrwt>
<rscale>  0 0.12679876E+04</rscale>
<asrwt>0</asrwt>
<pdfrwt beam="1">  1        1 0.31408311E+00 0.12679876E+04</pdfrwt>
<pdfrwt beam="2">  1       -2 0.30289962E-01 0.12679876E+04</pdfrwt>
<totfact> 0.24357726E+01</totfact>
</mgrwt>
</event>
<event>
12    4  0.4398275E-008  0.1295495E+04  0.7818608E-02  0.9033146E-01
          3   -1    0    0  501    0  0.00000000000E+00  0.00000000000E+00  0.12004056881E+04  0.12004056881E+04  0.00000000000E+00 0. -1.
         -4   -1    0    0    0  501 -0.00000000000E+00 -0.00000000000E+00 -0.34952891686E+03  0.34952891686E+03  0.00000000000E+00 0.  1.
        -24    2    1    2    0    0 -0.96482569175E+02 -0.17794588530E+03  0.46408024001E+03  0.51262921764E+03  0.80278399111E+02 0.  0.
        254    2    1    2    0    0  0.96482569175E+02  0.17794588530E+03  0.38679653126E+03  0.10373053873E+04  0.94096614486E+03 0.  0.
         23    2    4    4    0    0  0.39267675797E+03 -0.12377065615E+02  0.51276955622E+03  0.65241899978E+03  0.91486094485E+02 0.  0.
         23    2    4    4    0    0 -0.29619418880E+03  0.19032295091E+03 -0.12597302497E+03  0.38488638756E+03  0.91183908582E+02 0.  0.
          1    1    3    3  502    0 -0.36339520934E+02 -0.10903569024E+03  0.17450984670E+03  0.20895700305E+03  0.00000000000E+00 0. -1.
         -2    1    3    3    0  502 -0.60143048240E+02 -0.68910195059E+02  0.28957039331E+03  0.30367221459E+03  0.00000000000E+00 0.  1.
         11    1    5    5    0    0  0.54868449783E+02  0.45883233694E+01  0.13253869339E+03  0.14352039833E+03  0.00000000000E+00 0.  1.
        -11    1    5    5    0    0  0.33780830819E+03 -0.16965388984E+02  0.38023086284E+03  0.50889860145E+03  0.00000000000E+00 0. -1.
          1    1    6    6  503    0 -0.25882547855E+03  0.12433938028E+03 -0.10932150484E+03  0.30724924940E+03  0.00000000000E+00 0. -1.
         -1    1    6    6    0  503 -0.37368710253E+02  0.65983570632E+02 -0.16651520125E+02  0.77637138161E+02  0.00000000000E+00 0.  1.
<mgrwt>
<rscale>  0 0.12954945E+04</rscale>
<asrwt>0</asrwt>
<pdfrwt beam="1">  1        3 0.18467780E+00 0.12954945E+04</pdfrwt>
<pdfrwt beam="2">  1       -4 0.53773680E-01 0.12954945E+04</pdfrwt>
<totfact> 0.13760428E+00</totfact>
</mgrwt>
</event>
<event>
12    4  0.4398275E-008  0.1122133E+04  0.7818608E-02  0.9183884E-01
         -2   -1    0    0    0  501 -0.00000000000E+00  0.00000000000E+00  0.37648186363E+03  0.37648186363E+03  0.00000000000E+00 0.  1.
          1   -1    0    0  501    0  0.00000000000E+00 -0.00000000000E+00 -0.83615104157E+03  0.83615104157E+03  0.00000000000E+00 0. -1.
        -24    2    1    2    0    0  0.34426831449E+02  0.57231669817E+01 -0.20446372101E+03  0.22036201718E+03  0.74404596920E+02 0.  0.
        254    2    1    2    0    0 -0.34426831449E+02 -0.57231669817E+01 -0.25520545693E+03  0.99227088802E+03  0.95825556538E+03 0.  0.
         23    2    4    4    0    0  0.35039639174E+03 -0.22430114157E+03 -0.32130827962E+03  0.53373827626E+03  0.92460280829E+02 0.  0.
         23    2    4    4    0    0 -0.38482322319E+03  0.21857797458E+03  0.66102822689E+02  0.45853261176E+03  0.10008660649E+03 0.  0.
          3    1    3    3  502    0  0.66746444180E+01  0.14500647789E+02 -0.18421290998E+03  0.18490326083E+03  0.00000000000E+00 0. -1.
         -4    1    3    3    0  502  0.27752187031E+02 -0.87774808069E+01 -0.20250811035E+02  0.35458756350E+02  0.00000000000E+00 0.  1.
         11    1    5    5    0    0  0.33397575296E+03 -0.18356288714E+03 -0.27532278979E+03  0.47014654702E+03  0.00000000000E+00 0.  1.
        -11    1    5    5    0    0  0.16420638785E+02 -0.40738254423E+02 -0.45985489831E+02  0.63591729231E+02  0.00000000000E+00 0. -1.
          1    1    6    6  503    0 -0.38729891810E+02 -0.76230236208E+01 -0.19046313454E+01  0.39518889525E+02  0.00000000000E+00 0. -1.
         -1    1    6    6    0  503 -0.34609333138E+03  0.22620099820E+03  0.68007454034E+02  0.41901372223E+03  0.00000000000E+00 0.  1.
<mgrwt>
<rscale>  0 0.11221332E+04</rscale>
<asrwt>0</asrwt>
<pdfrwt beam="1">  1        1 0.12863862E+00 0.11221332E+04</pdfrwt>
<pdfrwt beam="2">  1       -2 0.57920287E-01 0.11221332E+04</pdfrwt>
<totfact> 0.50064547E+01</totfact>
</mgrwt>
</event>
<event>
12    4  0.4398275E-008  0.1496177E+04  0.7818608E-02  0.8886999E-01
         -2   -1    0    0    0  501 -0.00000000000E+00  0.00000000000E+00  0.12014544182E+04  0.12014544182E+04  0.00000000000E+00 0.  1.
          1   -1    0    0  501    0  0.00000000000E+00 -0.00000000000E+00 -0.46579920449E+03  0.46579920449E+03  0.00000000000E+00 0. -1.
        -24    2    1    2    0    0 -0.13228383064E+03 -0.35743305094E+02 -0.27013567378E+03  0.31340362507E+03  0.80448457087E+02 0.  0.
        254    2    1    2    0    0  0.13228383064E+03  0.35743305094E+02  0.10057908875E+04  0.13538499976E+04  0.89583364026E+03 0.  0.
         23    2    4    4    0    0  0.14363647297E+03 -0.39458958226E+03  0.30624983384E+03  0.52749978267E+03  0.90192489625E+02 0.  0.
         23    2    4    4    0    0 -0.11352642334E+02  0.43033288736E+03  0.69954105365E+03  0.82635021497E+03  0.90452836355E+02 0.  0.
          1    1    3    3  502    0 -0.79253494727E+02  0.89871977513E+01 -0.19731216922E+03  0.21282381980E+03  0.00000000000E+00 0. -1.
         -2    1    3    3    0  502 -0.53030335911E+02 -0.44730502845E+02 -0.72823504560E+02  0.10057980527E+03  0.00000000000E+00 0.  1.
         11    1    5    5    0    0  0.12020577043E+03 -0.38604877102E+03  0.28429524515E+03  0.49427408112E+03  0.00000000000E+00 0.  1.
        -11    1    5    5    0    0  0.23430702547E+02 -0.85408112394E+01  0.21954588698E+02  0.33225701548E+02  0.00000000000E+00 0. -1.
          2    1    6    6  503    0 -0.98992177316E+01  0.36817210910E+03  0.52697417597E+03  0.64292338468E+03  0.00000000000E+00 0.  1.
         -2    1    6    6    0  503 -0.14534246027E+01  0.62160778261E+02  0.17256687768E+03  0.18342683029E+03  0.00000000000E+00 0. -1.
<mgrwt>
<rscale>  0 0.14961771E+04</rscale>
<asrwt>0</asrwt>
<pdfrwt beam="1">  1        1 0.71661417E-01 0.14961771E+04</pdfrwt>
<pdfrwt beam="2">  1       -2 0.18483914E+00 0.14961771E+04</pdfrwt>
<totfact> 0.69364260E+00</totfact>
</mgrwt>
</event>
<event>
12    4  0.4398275E-008  0.1934560E+04  0.7818608E-02  0.8637842E-01
         -2   -1    0    0    0  501 -0.00000000000E+00  0.00000000000E+00  0.13501458005E+04  0.13501458005E+04  0.00000000000E+00 0.  1.
          1   -1    0    0  501    0  0.00000000000E+00 -0.00000000000E+00 -0.69298480097E+03  0.69298480097E+03  0.00000000000E+00 0. -1.
        -24    2    1    2    0    0  0.17979185848E+03 -0.23621799164E+03 -0.47557919071E+03  0.56626856609E+03  0.79752557026E+02 0.  0.
        254    2    1    2    0    0 -0.17979185848E+03  0.23621799164E+03  0.11327401903E+04  0.14768620354E+04  0.89994282096E+03 0.  0.
         23    2    4    4    0    0  0.22021041481E+03 -0.21990060442E+03  0.49900773691E+03  0.59475828263E+03  0.88768184884E+02 0.  0.
         23    2    4    4    0    0 -0.40000227329E+03  0.45611859607E+03  0.63373245336E+03  0.88210375277E+03  0.91892414746E+02 0.  0.
          3    1    3    3  502    0  0.18742499606E+03 -0.22003759695E+03 -0.45447002587E+03  0.53859788121E+03  0.00000000000E+00 0. -1.
         -4    1    3    3    0  502 -0.76331375866E+01 -0.16180394689E+02 -0.21109164837E+02  0.27670684882E+02  0.00000000000E+00 0.  1.
         11    1    5    5    0    0  0.64515009273E+02 -0.11148066372E+03  0.25486550985E+03  0.28556357071E+03  0.00000000000E+00 0. -1.
        -11    1    5    5    0    0  0.15569540554E+03 -0.10841994070E+03  0.24414222706E+03  0.30919471192E+03  0.00000000000E+00 0.  1.
          3    1    6    6  503    0 -0.49537776050E+02  0.75472520006E+02  0.54614640914E+02  0.10551232883E+03  0.00000000000E+00 0. -1.
         -3    1    6    6    0  503 -0.35046449724E+03  0.38064607606E+03  0.57911781245E+03  0.77659142394E+03  0.00000000000E+00 0.  1.
<mgrwt>
<rscale>  0 0.19345599E+04</rscale>
<asrwt>0</asrwt>
<pdfrwt beam="1">  1        1 0.10661305E+00 0.19345599E+04</pdfrwt>
<pdfrwt beam="2">  1       -2 0.20771474E+00 0.19345599E+04</pdfrwt>
<totfact> 0.26760084E+00</totfact>
</mgrwt>
</event>
<event>
12    4  0.4398275E-008  0.1491532E+04  0.7818608E-02  0.8890104E-01
          1   -1    0    0  501    0  0.00000000000E+00  0.00000000000E+00  0.17797736468E+04  0.17797736468E+04  0.00000000000E+00 0. -1.
         -2   -1    0    0    0  501 -0.00000000000E+00 -0.00000000000E+00 -0.31249289368E+03  0.31249289368E+03  0.00000000000E+00 0.  1.
        -24    2    1    2    0    0  0.35299491542E+03  0.42533772144E+02  0.37809238103E+02  0.36623352107E+03  0.79264881121E+02 0.  0.
        254    2    1    2    0    0 -0.35299491542E+03 -0.42533772144E+02  0.14294715150E+04  0.17260330194E+04  0.89965917977E+03 0.  0.
         23    2    4    4    0    0 -0.59509645125E+03  0.14445616163E+03  0.11290047812E+04  0.12876991603E+04  0.92249457599E+02 0.  0.
         23    2    4    4    0    0  0.24210153583E+03 -0.18698993377E+03  0.30046673378E+03  0.43833385912E+03  0.90983102608E+02 0.  0.
          1    1    3    3  502    0  0.10454644756E+03  0.13967982035E+02  0.48124795044E+02  0.11593558607E+03  0.00000000000E+00 0. -1.
         -2    1    3    3    0  502  0.24844846786E+03  0.28565790109E+02 -0.10315556940E+02  0.25029793499E+03  0.00000000000E+00 0.  1.
         11    1    5    5    0    0 -0.27038350434E+03  0.42056952162E+02  0.42149419674E+03  0.50252699881E+03  0.00000000000E+00 0.  1.
        -11    1    5    5    0    0 -0.32471294691E+03  0.10239920946E+03  0.70751058448E+03  0.78517216147E+03  0.00000000000E+00 0. -1.
          1    1    6    6  503    0  0.96651935806E+02 -0.12905463693E+03  0.13227987156E+03  0.20855373511E+03  0.00000000000E+00 0. -1.
         -1    1    6    6    0  503  0.14544960002E+03 -0.57935296841E+02  0.16818686222E+03  0.22978012401E+03  0.00000000000E+00 0.  1.
<mgrwt>
<rscale>  0 0.14915316E+04</rscale>
<asrwt>0</asrwt>
<pdfrwt beam="1">  1        1 0.27381132E+00 0.14915316E+04</pdfrwt>
<pdfrwt beam="2">  1       -2 0.48075831E-01 0.14915316E+04</pdfrwt>
<totfact> 0.14648400E+01</totfact>
</mgrwt>
</event>
<event>
12    4  0.4398275E-008  0.1439614E+04  0.7818608E-02  0.8925633E-01
          1   -1    0    0  501    0  0.00000000000E+00  0.00000000000E+00  0.15254867096E+04  0.15254867096E+04  0.00000000000E+00 0. -1.
         -2   -1    0    0    0  501 -0.00000000000E+00 -0.00000000000E+00 -0.33964387271E+03  0.33964387271E+03  0.00000000000E+00 0.  1.
        -24    2    1    2    0    0 -0.41473806826E+03 -0.10987884758E+03  0.32602740097E+03  0.54543798058E+03  0.84425695518E+02 0.  0.
        254    2    1    2    0    0  0.41473806826E+03  0.10987884758E+03  0.85981543592E+03  0.13196926017E+04  0.90455787697E+03 0.  0.
         23    2    4    4    0    0  0.61634993272E+03  0.31508787553E+03  0.56926136726E+03  0.90095130120E+03  0.92125642469E+02 0.  0.
         23    2    4    4    0    0 -0.20161186446E+03 -0.20520902796E+03  0.29055406866E+03  0.41874130052E+03  0.90357738507E+02 0.  0.
          1    1    3    3  502    0 -0.14855322408E+03  0.18533010298E+01  0.11356690375E+03  0.18699983084E+03  0.00000000000E+00 0. -1.
         -2    1    3    3    0  502 -0.26618484418E+03 -0.11173214860E+03  0.21246049722E+03  0.35843814973E+03  0.00000000000E+00 0.  1.
         11    1    5    5    0    0  0.58740746839E+03  0.31800076873E+03  0.55553255357E+03  0.86878561275E+03  0.00000000000E+00 0. -1.
        -11    1    5    5    0    0  0.28942464326E+02 -0.29128932010E+01  0.13728813690E+02  0.32165688449E+02  0.00000000000E+00 0.  1.
          2    1    6    6  503    0 -0.18809643365E+03 -0.17975062678E+03  0.21379021043E+03  0.33674442869E+03  0.00000000000E+00 0. -1.
         -2    1    6    6    0  503 -0.13515430805E+02 -0.25458401178E+02  0.76763858229E+02  0.81996871834E+02  0.00000000000E+00 0.  1.
<mgrwt>
<rscale>  0 0.14396141E+04</rscale>
<asrwt>0</asrwt>
<pdfrwt beam="1">  1        1 0.23469026E+00 0.14396141E+04</pdfrwt>
<pdfrwt beam="2">  1       -2 0.52252904E-01 0.14396141E+04</pdfrwt>
<totfact> 0.18520323E+01</totfact>
</mgrwt>
</event>
<event>
12    4  0.4398275E-008  0.2361342E+04  0.7818608E-02  0.8454120E-01
         -2   -1    0    0    0  501 -0.00000000000E+00  0.00000000000E+00  0.81705859907E+03  0.81705859907E+03  0.00000000000E+00 0.  1.
          1   -1    0    0  501    0  0.00000000000E+00 -0.00000000000E+00 -0.17060998002E+04  0.17060998002E+04  0.00000000000E+00 0. -1.
        -24    2    1    2    0    0 -0.94588677241E+03  0.26867506144E+03 -0.15250793943E+03  0.99828899826E+03  0.80213325570E+02 0.  0.
        254    2    1    2    0    0  0.94588677241E+03 -0.26867506144E+03 -0.73653326169E+03  0.15248694010E+04  0.90324823261E+03 0.  0.
         23    2    4    4    0    0 -0.16103381014E+03 -0.52583788976E+02 -0.39341889748E+02  0.19585696013E+03  0.90084525151E+02 0.  0.
         23    2    4    4    0    0  0.11069205825E+04 -0.21609127246E+03 -0.69719137194E+03  0.13290124409E+04  0.90717389779E+02 0.  0.
          3    1    3    3  502    0 -0.38088142717E+03  0.10025058418E+03 -0.22155850103E+02  0.39447651753E+03  0.00000000000E+00 0. -1.
         -4    1    3    3    0  502 -0.56500534524E+03  0.16842447725E+03 -0.13035208933E+03  0.60381248073E+03  0.00000000000E+00 0.  1.
         11    1    5    5    0    0 -0.17212590890E+03 -0.46090999525E+02 -0.41144258697E+02  0.18287853558E+03  0.00000000000E+00 0. -1.
        -11    1    5    5    0    0  0.11092098766E+02 -0.64927894508E+01  0.18023689492E+01  0.12978424547E+02  0.00000000000E+00 0.  1.
          2    1    6    6  503    0  0.96808664018E+03 -0.21676155072E+03 -0.62513690327E+03  0.11725926235E+04  0.00000000000E+00 0. -1.
         -2    1    6    6    0  503  0.13883394236E+03  0.67027826238E+00 -0.72054468670E+02  0.15641981742E+03  0.00000000000E+00 0.  1.
<mgrwt>
<rscale>  0 0.23613416E+04</rscale>
<asrwt>0</asrwt>
<pdfrwt beam="1">  1        1 0.26247689E+00 0.23613416E+04</pdfrwt>
<pdfrwt beam="2">  1       -2 0.12570132E+00 0.23613416E+04</pdfrwt>
<totfact> 0.17624671E+00</totfact>
</mgrwt>
</event>
<event>
12    4  0.4398275E-008  0.1475933E+04  0.7818608E-02  0.8900616E-01
         -2   -1    0    0    0  501 -0.00000000000E+00  0.00000000000E+00  0.73580582667E+03  0.73580582667E+03  0.00000000000E+00 0.  1.
          1   -1    0    0  501    0  0.00000000000E+00 -0.00000000000E+00 -0.74013399070E+03  0.74013399070E+03  0.00000000000E+00 0. -1.
        -24    2    1    2    0    0 -0.16888340993E+03 -0.20719124789E+03  0.38240909684E+03  0.47338392621E+03  0.80036272376E+02 0.  0.
        254    2    1    2    0    0  0.16888340993E+03  0.20719124789E+03 -0.38673726088E+03  0.10025558912E+04  0.88549578575E+03 0.  0.
         23    2    4    4    0    0  0.19495801969E+03  0.19066192325E+03  0.23619573531E+03  0.37198396407E+03  0.90681010865E+02 0.  0.
         23    2    4    4    0    0 -0.26074609756E+02  0.16529324637E+02 -0.62293299619E+03  0.63057192708E+03  0.92856521749E+02 0.  0.
          1    1    3    3  502    0 -0.89823748427E+01 -0.61485603944E+02  0.73281348597E+02  0.96079751261E+02  0.00000000000E+00 0. -1.
         -2    1    3    3    0  502 -0.15990103509E+03 -0.14570564394E+03  0.30912774825E+03  0.37730417495E+03  0.00000000000E+00 0.  1.
         11    1    5    5    0    0  0.23064970917E+02  0.35515125819E+02  0.86345222815E+02  0.96170757241E+02  0.00000000000E+00 0. -1.
        -11    1    5    5    0    0  0.17189304877E+03  0.15514679743E+03  0.14985051250E+03  0.27581320683E+03  0.00000000000E+00 0.  1.
          1    1    6    6  503    0  0.99680848302E+00 -0.10611110113E+02 -0.52914561685E+03  0.52925293870E+03  0.00000000000E+00 0. -1.
         -1    1    6    6    0  503 -0.27071418239E+02  0.27140434749E+02 -0.93787379336E+02  0.10131898838E+03  0.00000000000E+00 0.  1.
<mgrwt>
<rscale>  0 0.14759335E+04</rscale>
<asrwt>0</asrwt>
<pdfrwt beam="1">  1        1 0.11386677E+00 0.14759335E+04</pdfrwt>
<pdfrwt beam="2">  1       -2 0.11320090E+00 0.14759335E+04</pdfrwt>
<totfact> 0.13004187E+01</totfact>
</mgrwt>
</event>
<event>
12    4  0.4398275E-008  0.1631713E+04  0.7818608E-02  0.8801299E-01
          1   -1    0    0  501    0  0.00000000000E+00  0.00000000000E+00  0.35154187011E+04  0.35154187011E+04  0.00000000000E+00 0. -1.
         -2   -1    0    0    0  501 -0.00000000000E+00 -0.00000000000E+00 -0.18934358138E+03  0.18934358138E+03  0.00000000000E+00 0.  1.
        -24    2    1    2    0    0 -0.36240405828E+03  0.34625709225E+03  0.56774432717E+03  0.76156978532E+03  0.80151366075E+02 0.  0.
        254    2    1    2    0    0  0.36240405828E+03 -0.34625709225E+03  0.27583307925E+04  0.29431924971E+04  0.89597022205E+03 0.  0.
         23    2    4    4    0    0  0.62707356190E+03 -0.38813668688E+03  0.19813440340E+04  0.21162080015E+04  0.93492165825E+02 0.  0.
         23    2    4    4    0    0 -0.26466950362E+03  0.41879594622E+02  0.77698675854E+03  0.82698449559E+03  0.91602873340E+02 0.  0.
          1    1    3    3  502    0 -0.84929371794E+02  0.63742787547E+02  0.77970135971E+02  0.13174021125E+03  0.00000000000E+00 0. -1.
         -2    1    3    3    0  502 -0.27747468649E+03  0.28251430471E+03  0.48977419120E+03  0.62982957407E+03  0.00000000000E+00 0.  1.
         11    1    5    5    0    0  0.20622762766E+03 -0.15800526127E+03  0.80291043271E+03  0.84389611917E+03  0.00000000000E+00 0.  1.
        -11    1    5    5    0    0  0.42084593424E+03 -0.23013142560E+03  0.11784336013E+04  0.12723118824E+04  0.00000000000E+00 0. -1.
          4    1    6    6  503    0 -0.52953512480E+02 -0.72674380331E+01  0.27214774832E+03  0.27734687136E+03  0.00000000000E+00 0. -1.
         -4    1    6    6    0  503 -0.21171599114E+03  0.49147032655E+02  0.50483901022E+03  0.54963762422E+03  0.00000000000E+00 0.  1.
<mgrwt>
<rscale>  0 0.16317132E+04</rscale>
<asrwt>0</asrwt>
<pdfrwt beam="1">  1        1 0.54083360E+00 0.16317132E+04</pdfrwt>
<pdfrwt beam="2">  1       -2 0.29129784E-01 0.16317132E+04</pdfrwt>
<totfact> 0.22330764E+00</totfact>
</mgrwt>
</event>
<event>
12    4  0.4398275E-008  0.1532006E+04  0.7818608E-02  0.8863444E-01
         -2   -1    0    0    0  501 -0.00000000000E+00  0.00000000000E+00  0.29215275631E+04  0.29215275631E+04  0.00000000000E+00 0.  1.
          1   -1    0    0  501    0  0.00000000000E+00 -0.00000000000E+00 -0.20084030270E+03  0.20084030270E+03  0.00000000000E+00 0. -1.
        -24    2    1    2    0    0  0.16070129531E+03  0.31529734090E+03  0.14966689649E+04  0.15395961682E+04  0.71421643032E+02 0.  0.
        254    2    1    2    0    0 -0.16070129531E+03 -0.31529734090E+03  0.12240182955E+04  0.15827716976E+04  0.93899315202E+03 0.  0.
         23    2    4    4    0    0 -0.37961701481E+03 -0.18999484429E+03  0.12408351838E+04  0.13141917267E+04  0.84975421986E+02 0.  0.
         23    2    4    4    0    0  0.21891571950E+03 -0.12530249661E+03 -0.16816888330E+02  0.26857997090E+03  0.90706036905E+02 0.  0.
          1    1    3    3  502    0  0.55696623855E+02  0.53432118569E+02  0.26394489333E+03  0.27499820348E+03  0.00000000000E+00 0. -1.
         -2    1    3    3    0  502  0.10500467145E+03  0.26186522233E+03  0.12327240716E+04  0.12645979647E+04  0.00000000000E+00 0.  1.
         11    1    5    5    0    0 -0.20443905456E+03 -0.14389226648E+03  0.65982368764E+03  0.70559734279E+03  0.00000000000E+00 0. -1.
        -11    1    5    5    0    0 -0.17517796025E+03 -0.46102577813E+02  0.58101149620E+03  0.60859438393E+03  0.00000000000E+00 0.  1.
          2    1    6    6  503    0  0.11375663660E+03 -0.99365289892E+02  0.23794811696E+02  0.15290593929E+03  0.00000000000E+00 0.  1.
         -2    1    6    6    0  503  0.10515908290E+03 -0.25937206716E+02 -0.40611700026E+02  0.11567403161E+03  0.00000000000E+00 0. -1.
<mgrwt>
<rscale>  0 0.15320058E+04</rscale>
<asrwt>0</asrwt>
<pdfrwt beam="1">  1        1 0.30898510E-01 0.15320058E+04</pdfrwt>
<pdfrwt beam="2">  1       -2 0.44946575E+00 0.15320058E+04</pdfrwt>
<totfact> 0.43937092E-01</totfact>
</mgrwt>
</event>
<event>
12    4  0.4398275E-008  0.2112471E+04  0.7818608E-02  0.8555769E-01
          1   -1    0    0  501    0  0.00000000000E+00  0.00000000000E+00  0.21481148272E+04  0.21481148272E+04  0.00000000000E+00 0. -1.
         -2   -1    0    0    0  501 -0.00000000000E+00 -0.00000000000E+00 -0.51935483754E+03  0.51935483754E+03  0.00000000000E+00 0.  1.
        -24    2    1    2    0    0  0.24233746945E+03 -0.25838518514E+03 -0.32061270871E+03  0.48446559233E+03  0.80150160110E+02 0.  0.
        254    2    1    2    0    0 -0.24233746945E+03  0.25838518514E+03  0.19493726983E+04  0.21830040724E+04  0.91649468631E+03 0.  0.
         23    2    4    4    0    0  0.17505799118E+03 -0.95475606991E+02  0.80507480431E+02  0.23362192030E+03  0.91306382201E+02 0.  0.
         23    2    4    4    0    0 -0.41739546063E+03  0.35386079214E+03  0.18688652179E+04  0.19493821521E+04  0.89426737772E+02 0.  0.
          3    1    3    3  502    0  0.14174654245E+03 -0.18980385906E+03 -0.17418672593E+03  0.29403843746E+03  0.00000000000E+00 0. -1.
         -4    1    3    3    0  502  0.10059092700E+03 -0.68581326086E+02 -0.14642598277E+03  0.19042715487E+03  0.00000000000E+00 0.  1.
         11    1    5    5    0    0  0.70478641646E+02 -0.17361615986E+01 -0.23878858769E+01  0.70540450695E+02  0.00000000000E+00 0.  1.
        -11    1    5    5    0    0  0.10457934954E+03 -0.93739445392E+02  0.82895366308E+02  0.16308146960E+03  0.00000000000E+00 0. -1.
          1    1    6    6  503    0 -0.23677572329E+03  0.21579892180E+03  0.93967340228E+03  0.99278296759E+03  0.00000000000E+00 0. -1.
         -1    1    6    6    0  503 -0.18061973734E+03  0.13806187033E+03  0.92919181561E+03  0.95659918449E+03  0.00000000000E+00 0.  1.
<mgrwt>
<rscale>  0 0.21124714E+04</rscale>
<asrwt>0</asrwt>
<pdfrwt beam="1">  1        1 0.33047920E+00 0.21124714E+04</pdfrwt>
<pdfrwt beam="2">  1       -2 0.79900745E-01 0.21124714E+04</pdfrwt>
<totfact> 0.26437205E+00</totfact>
</mgrwt>
</event>
<event>
12    4  0.4398275E-008  0.1714436E+04  0.7818608E-02  0.8753174E-01
          1   -1    0    0  501    0  0.00000000000E+00  0.00000000000E+00  0.92528269251E+03  0.92528269251E+03  0.00000000000E+00 0. -1.
         -2   -1    0    0    0  501 -0.00000000000E+00 -0.00000000000E+00 -0.79415997435E+03  0.79415997435E+03  0.00000000000E+00 0.  1.
        -24    2    1    2    0    0 -0.35166357633E+03  0.49984888241E+03 -0.73346368955E+02  0.62050459274E+03  0.78294850454E+02 0.  0.
        254    2    1    2    0    0  0.35166357633E+03 -0.49984888241E+03  0.20446908711E+03  0.10989380741E+04  0.89013544307E+03 0.  0.
         23    2    4    4    0    0  0.57570393224E+03 -0.38159526853E+03 -0.86441070978E+02  0.70255634967E+03  0.95201886242E+02 0.  0.
         23    2    4    4    0    0 -0.22404035592E+03 -0.11825361389E+03  0.29091015809E+03  0.39638172445E+03  0.91168816639E+02 0.  0.
          1    1    3    3  502    0 -0.85648636247E+02  0.71041271073E+02 -0.63492123886E+01  0.11145790050E+03  0.00000000000E+00 0. -1.
         -2    1    3    3    0  502 -0.26601494008E+03  0.42880761134E+03 -0.66997156567E+02  0.50904669223E+03  0.00000000000E+00 0.  1.
         11    1    5    5    0    0  0.43343523892E+03 -0.32078651829E+03 -0.95282488918E+02  0.54758455909E+03  0.00000000000E+00 0. -1.
        -11    1    5    5    0    0  0.14226869332E+03 -0.60808750237E+02  0.88414179402E+01  0.15497179058E+03  0.00000000000E+00 0.  1.
          1    1    6    6  503    0 -0.22925007366E+03 -0.11821960626E+03  0.26444439359E+03  0.36940805199E+03  0.00000000000E+00 0. -1.
         -1    1    6    6    0  503  0.52097177436E+01 -0.34007623862E-01  0.26465764501E+02  0.26973672462E+02  0.00000000000E+00 0.  1.
<mgrwt>
<rscale>  0 0.17144357E+04</rscale>
<asrwt>0</asrwt>
<pdfrwt beam="1">  1        1 0.14235118E+00 0.17144357E+04</pdfrwt>
<pdfrwt beam="2">  1       -2 0.12217846E+00 0.17144357E+04</pdfrwt>
<totfact> 0.73380254E+00</totfact>
</mgrwt>
</event>
<event>
12    4  0.4398275E-008  0.1221267E+04  0.7818608E-02  0.9094442E-01
         -2   -1    0    0    0  501 -0.00000000000E+00  0.00000000000E+00  0.34979043746E+03  0.34979043746E+03  0.00000000000E+00 0.  1.
          1   -1    0    0  501    0  0.00000000000E+00 -0.00000000000E+00 -0.10659912324E+04  0.10659912324E+04  0.00000000000E+00 0. -1.
        -24    2    1    2    0    0  0.12889563286E+03 -0.10347582078E+03  0.75080322222E+02  0.19932740018E+03  0.82298408375E+02 0.  0.
        254    2    1    2    0    0 -0.12889563286E+03  0.10347582078E+03 -0.79128111716E+03  0.12164542697E+04  0.90901807144E+03 0.  0.
         23    2    4    4    0    0 -0.37949941218E+03  0.26200165112E+03 -0.13240879475E+03  0.48820865151E+03  0.90282498005E+02 0.  0.
         23    2    4    4    0    0  0.25060377933E+03 -0.15852583035E+03 -0.65887232241E+03  0.72824561818E+03  0.91083752937E+02 0.  0.
          1    1    3    3  502    0  0.57824144305E+02 -0.23480819748E+00  0.35657155761E+02  0.67934671240E+02  0.00000000000E+00 0. -1.
         -2    1    3    3    0  502  0.71071488550E+02 -0.10324101258E+03  0.39423166461E+02  0.13139272894E+03  0.00000000000E+00 0.  1.
         11    1    5    5    0    0 -0.26255311764E+03  0.22045885495E+03 -0.12107329709E+03  0.36358628904E+03  0.00000000000E+00 0. -1.
        -11    1    5    5    0    0 -0.11694629454E+03  0.41542796168E+02 -0.11335497657E+02  0.12462236247E+03  0.00000000000E+00 0.  1.
          1    1    6    6  503    0  0.25033410260E+03 -0.13089124345E+03 -0.60483283409E+03  0.66754957698E+03  0.00000000000E+00 0. -1.
         -1    1    6    6    0  503  0.26967673024E+00 -0.27634586893E+02 -0.54039488328E+02  0.60696041198E+02  0.00000000000E+00 0.  1.
<mgrwt>
<rscale>  0 0.12212674E+04</rscale>
<asrwt>0</asrwt>
<pdfrwt beam="1">  1        1 0.16399865E+00 0.12212674E+04</pdfrwt>
<pdfrwt beam="2">  1       -2 0.53813914E-01 0.12212674E+04</pdfrwt>
<totfact> 0.37922013E+01</totfact>
</mgrwt>
</event>
<event>
12    4  0.4398275E-008  0.3777722E+04  0.7818608E-02  0.8050953E-01
          1   -1    0    0  501    0  0.00000000000E+00  0.00000000000E+00  0.26817409898E+04  0.26817409898E+04  0.00000000000E+00 0. -1.
         -4   -1    0    0    0  501 -0.00000000000E+00 -0.00000000000E+00 -0.13304029102E+04  0.13304029102E+04  0.00000000000E+00 0.  1.
        -24    2    1    2    0    0 -0.43609897802E+03  0.11966353928E+04 -0.66873192318E+03  0.14406957294E+04  0.79266750777E+02 0.  0.
        254    2    1    2    0    0  0.43609897802E+03 -0.11966353928E+04  0.20200700029E+04  0.25714481706E+04  0.95370031758E+03 0.  0.
         23    2    4    4    0    0  0.58739097740E+02 -0.11812745027E+04  0.16674206193E+04  0.20463834933E+04  0.92380450445E+02 0.  0.
         23    2    4    4    0    0  0.37735988028E+03 -0.15360890058E+02  0.35264938353E+03  0.52506467727E+03  0.93246401683E+02 0.  0.
          1    1    3    3  502    0 -0.38627929672E+03  0.10388469157E+04 -0.55195564652E+03  0.12381718964E+04  0.00000000000E+00 0. -1.
         -2    1    3    3    0  502 -0.49819681297E+02  0.15778847712E+03 -0.11677627665E+03  0.20252383303E+03  0.00000000000E+00 0.  1.
         11    1    5    5    0    0  0.33532111715E+02 -0.59642677827E+03  0.92149468488E+03  0.10981811138E+04  0.00000000000E+00 0. -1.
        -11    1    5    5    0    0  0.25206986025E+02 -0.58484772445E+03  0.74592593445E+03  0.94820237957E+03  0.00000000000E+00 0.  1.
          3    1    6    6  503    0  0.20070769610E+03  0.14433765320E+02  0.13117499453E+03  0.24020572859E+03  0.00000000000E+00 0. -1.
         -3    1    6    6    0  503  0.17665218418E+03 -0.29794655378E+02  0.22147438900E+03  0.28485894868E+03  0.00000000000E+00 0.  1.
<mgrwt>
<rscale>  0 0.37777221E+04</rscale>
<asrwt>0</asrwt>
<pdfrwt beam="1">  1        1 0.41257554E+00 0.37777221E+04</pdfrwt>
<pdfrwt beam="2">  1       -4 0.20467737E+00 0.37777221E+04</pdfrwt>
<totfact> 0.48276876E-02</totfact>
</mgrwt>
</event>
<event>
12    4  0.4398275E-008  0.2254128E+04  0.7818608E-02  0.8496231E-01
          1   -1    0    0  501    0  0.00000000000E+00  0.00000000000E+00  0.29357534676E+04  0.29357534676E+04  0.00000000000E+00 0. -1.
         -4   -1    0    0    0  501 -0.00000000000E+00 -0.00000000000E+00 -0.43269058594E+03  0.43269058594E+03  0.00000000000E+00 0.  1.
        -24    2    1    2    0    0 -0.20399510449E+02  0.51622743448E+03 -0.98711879374E+02  0.53253948036E+03  0.83350818086E+02 0.  0.
        254    2    1    2    0    0  0.20399510449E+02 -0.51622743448E+03  0.26017747610E+04  0.28359045731E+04  0.10031031536E+04 0.  0.
         23    2    4    4    0    0 -0.68256516955E+02 -0.35009180612E+03  0.18508125623E+03  0.41018725413E+03  0.82312132904E+02 0.  0.
         23    2    4    4    0    0  0.88656027404E+02 -0.16613562836E+03  0.24166935048E+04  0.24257173190E+04  0.90752837696E+02 0.  0.
          3    1    3    3  502    0 -0.43250710014E+02  0.26211037878E+03 -0.76404114349E+02  0.27642370244E+03  0.00000000000E+00 0. -1.
         -4    1    3    3    0  502  0.22851199564E+02  0.25411705570E+03 -0.22307765025E+02  0.25611577792E+03  0.00000000000E+00 0.  1.
         11    1    5    5    0    0  0.79113675379E+01 -0.39612708485E+02 -0.77356229295E+00  0.40402410923E+02  0.00000000000E+00 0.  1.
        -11    1    5    5    0    0 -0.76167884492E+02 -0.31047909764E+03  0.18585481852E+03  0.36978484321E+03  0.00000000000E+00 0. -1.
          2    1    6    6  503    0  0.94832681514E+02 -0.90075757056E+02  0.13614265830E+04  0.13676948565E+04  0.00000000000E+00 0. -1.
         -2    1    6    6    0  503 -0.61766541102E+01 -0.76059871303E+02  0.10552669217E+04  0.10580224625E+04  0.00000000000E+00 0.  1.
<mgrwt>
<rscale>  0 0.22541277E+04</rscale>
<asrwt>0</asrwt>
<pdfrwt beam="1">  1        1 0.45165437E+00 0.22541277E+04</pdfrwt>
<pdfrwt beam="2">  1       -4 0.66567784E-01 0.22541277E+04</pdfrwt>
<totfact> 0.62758158E-01</totfact>
</mgrwt>
</event>
<event>
12    4  0.4398275E-008  0.1164132E+04  0.7818608E-02  0.9144844E-01
         -2   -1    0    0    0  501 -0.00000000000E+00  0.00000000000E+00  0.10352115303E+03  0.10352115303E+03  0.00000000000E+00 0.  1.
          1   -1    0    0  501    0  0.00000000000E+00 -0.00000000000E+00 -0.32727699358E+04  0.32727699358E+04  0.00000000000E+00 0. -1.
        -24    2    1    2    0    0  0.12586278734E+03  0.17210202692E+02 -0.14463504895E+03  0.20794722654E+03  0.78645529596E+02 0.  0.
        254    2    1    2    0    0 -0.12586278734E+03 -0.17210202692E+02 -0.30246137339E+04  0.31683438623E+04  0.93486734814E+03 0.  0.
         23    2    4    4    0    0 -0.32310614538E+03  0.41170696237E+01 -0.35050478650E+03  0.48534741329E+03  0.91071262152E+02 0.  0.
         23    2    4    4    0    0  0.19724335804E+03 -0.21327272316E+02 -0.26741089474E+04  0.26829964490E+04  0.90837703405E+02 0.  0.
          1    1    3    3  502    0 -0.11388767345E+01  0.10326449055E+02 -0.45546931003E+02  0.46716758386E+02  0.00000000000E+00 0. -1.
         -2    1    3    3    0  502  0.12700166407E+03  0.68837536377E+01 -0.99088117952E+02  0.16123046815E+03  0.00000000000E+00 0.  1.
         11    1    5    5    0    0 -0.23748664119E+02 -0.44831609803E+01  0.20404602726E+00  0.24168976284E+02  0.00000000000E+00 0. -1.
        -11    1    5    5    0    0 -0.29935748126E+03  0.86002306040E+01 -0.35070883252E+03  0.46117843701E+03  0.00000000000E+00 0.  1.
          1    1    6    6  503    0  0.92835515195E+02  0.34926200004E+02 -0.13006326556E+04  0.13044092828E+04  0.00000000000E+00 0. -1.
         -1    1    6    6    0  503  0.10440784284E+03 -0.56253472320E+02 -0.13734762918E+04  0.13785871662E+04  0.00000000000E+00 0.  1.
<mgrwt>
<rscale>  0 0.11641322E+04</rscale>
<asrwt>0</asrwt>
<pdfrwt beam="1">  1        1 0.50350309E+00 0.11641322E+04</pdfrwt>
<pdfrwt beam="2">  1       -2 0.15926330E-01 0.11641322E+04</pdfrwt>
<totfact> 0.10552997E+01</totfact>
</mgrwt>
</event>
<event>
12    4  0.4398275E-008  0.1400386E+04  0.7818608E-02  0.8953539E-01
         -2   -1    0    0    0  501 -0.00000000000E+00  0.00000000000E+00  0.62536792440E+03  0.62536792440E+03  0.00000000000E+00 0.  1.
          1   -1    0    0  501    0  0.00000000000E+00 -0.00000000000E+00 -0.78397114631E+03  0.78397114631E+03  0.00000000000E+00 0. -1.
        -24    2    1    2    0    0 -0.21634992725E+03  0.19420447629E+03 -0.33331119251E+03  0.44802844124E+03  0.71487505722E+02 0.  0.
        254    2    1    2    0    0  0.21634992725E+03 -0.19420447629E+03  0.17470797061E+03  0.96131062948E+03  0.89948462006E+03 0.  0.
         23    2    4    4    0    0  0.17341578667E+03 -0.38977834829E+03  0.43773717158E+03  0.61809793082E+03  0.91820612288E+02 0.  0.
         23    2    4    4    0    0  0.42934140574E+02  0.19557387200E+03 -0.26302920097E+03  0.34321269866E+03  0.92293640742E+02 0.  0.
          3    1    3    3  502    0 -0.21618581048E+03  0.19705729424E+03 -0.31649869366E+03  0.43097483100E+03  0.00000000000E+00 0. -1.
         -4    1    3    3    0  502 -0.16411676587E+00 -0.28528179514E+01 -0.16812498846E+02  0.17053610235E+02  0.00000000000E+00 0.  1.
         11    1    5    5    0    0  0.52928797407E+02 -0.42093782854E+02  0.81971985138E+02  0.10626735386E+03  0.00000000000E+00 0.  1.
        -11    1    5    5    0    0  0.12048698926E+03 -0.34768456543E+03  0.35576518644E+03  0.51183057695E+03  0.00000000000E+00 0. -1.
          3    1    6    6  503    0 -0.13193579730E+01  0.15106519105E+03 -0.14429594915E+03  0.20891087476E+03  0.00000000000E+00 0. -1.
         -3    1    6    6    0  503  0.44253498547E+02  0.44508680944E+02 -0.11873325182E+03  0.13430182389E+03  0.00000000000E+00 0.  1.
<mgrwt>
<rscale>  0 0.14003862E+04</rscale>
<asrwt>0</asrwt>
<pdfrwt beam="1">  1        1 0.12061095E+00 0.14003862E+04</pdfrwt>
<pdfrwt beam="2">  1       -2 0.96210450E-01 0.14003862E+04</pdfrwt>
<totfact> 0.17649949E+01</totfact>
</mgrwt>
</event>
<event>
12    4  0.4398275E-008  0.1565206E+04  0.7818608E-02  0.8842213E-01
          1   -1    0    0  501    0  0.00000000000E+00  0.00000000000E+00  0.99202934754E+03  0.99202934754E+03  0.00000000000E+00 0. -1.
         -4   -1    0    0    0  501 -0.00000000000E+00 -0.00000000000E+00 -0.61738846640E+03  0.61738846640E+03  0.00000000000E+00 0.  1.
        -24    2    1    2    0    0 -0.10810118844E+03 -0.20113171474E+03 -0.37352185521E+03  0.44453491181E+03  0.77154895351E+02 0.  0.
        254    2    1    2    0    0  0.10810118844E+03  0.20113171474E+03  0.74816273635E+03  0.11648829021E+04  0.86317139781E+03 0.  0.
         23    2    4    4    0    0  0.98906823882E+02 -0.28241592418E+03  0.55222331989E+03  0.63493034220E+03  0.92976504407E+02 0.  0.
         23    2    4    4    0    0  0.91943645621E+01  0.48354763892E+03  0.19593941646E+03  0.52995255994E+03  0.92491109927E+02 0.  0.
          1    1    3    3  502    0 -0.45251236140E+02 -0.21828399035E+02 -0.64226469847E+02  0.81542582775E+02  0.00000000000E+00 0. -1.
         -2    1    3    3    0  502 -0.62849952303E+02 -0.17930331571E+03 -0.30929538536E+03  0.36299232903E+03  0.00000000000E+00 0.  1.
         11    1    5    5    0    0  0.21086178017E+02 -0.10976214791E+03  0.12540996206E+03  0.16798813828E+03  0.00000000000E+00 0. -1.
        -11    1    5    5    0    0  0.77820645865E+02 -0.17265377627E+03  0.42681335783E+03  0.46694220392E+03  0.00000000000E+00 0.  1.
          2    1    6    6  503    0  0.12978023083E+02  0.40269147083E+03  0.19812321232E+03  0.44897845941E+03  0.00000000000E+00 0. -1.
         -2    1    6    6    0  503 -0.37836585207E+01  0.80856168095E+02 -0.21837958623E+01  0.80974100521E+02  0.00000000000E+00 0.  1.
<mgrwt>
<rscale>  0 0.15652060E+04</rscale>
<asrwt>0</asrwt>
<pdfrwt beam="1">  1        1 0.15261990E+00 0.15652060E+04</pdfrwt>
<pdfrwt beam="2">  1       -4 0.94982841E-01 0.15652060E+04</pdfrwt>
<totfact> 0.66994305E+00</totfact>
</mgrwt>
</event>
<event>
12    4  0.4398275E-008  0.1438438E+04  0.7818608E-02  0.8926456E-01
         -2   -1    0    0    0  501 -0.00000000000E+00  0.00000000000E+00  0.45612768452E+03  0.45612768452E+03  0.00000000000E+00 0.  1.
          1   -1    0    0  501    0  0.00000000000E+00 -0.00000000000E+00 -0.11340598417E+04  0.11340598417E+04  0.00000000000E+00 0. -1.
        -24    2    1    2    0    0  0.12087265161E+02  0.42861240929E+02  0.27445907159E+03  0.28937515193E+03  0.80168626185E+02 0.  0.
        254    2    1    2    0    0 -0.12087265161E+02 -0.42861240929E+02 -0.95239122878E+03  0.13008123743E+04  0.88491841008E+03 0.  0.
         23    2    4    4    0    0 -0.96403981662E+02 -0.22399366147E+03  0.57180985109E+02  0.26651445960E+03  0.91068128659E+02 0.  0.
         23    2    4    4    0    0  0.84316716501E+02  0.18113242055E+03 -0.10095722139E+04  0.10342979147E+04  0.10304299505E+03 0.  0.
          3    1    3    3  502    0 -0.31917994870E+02  0.67319501941E+01  0.71662998047E+02  0.78737937736E+02  0.00000000000E+00 0. -1.
         -4    1    3    3    0  502  0.44005260031E+02  0.36129290735E+02  0.20279607354E+03  0.21063721420E+03  0.00000000000E+00 0.  1.
         11    1    5    5    0    0 -0.86773787165E+02 -0.22786030742E+03  0.40933777602E+02  0.24723588733E+03  0.00000000000E+00 0.  1.
        -11    1    5    5    0    0 -0.96301944969E+01  0.38666459455E+01  0.16247207507E+02  0.19278572268E+02  0.00000000000E+00 0. -1.
          4    1    6    6  503    0  0.18973048824E+02 -0.75212689859E+00 -0.27683762407E+02  0.33569822424E+02  0.00000000000E+00 0. -1.
         -4    1    6    6    0  503  0.65343667677E+02  0.18188454744E+03 -0.98188845148E+03  0.10007280923E+04  0.00000000000E+00 0.  1.
<mgrwt>
<rscale>  0 0.14384382E+04</rscale>
<asrwt>0</asrwt>
<pdfrwt beam="1">  1        1 0.17447074E+00 0.14384382E+04</pdfrwt>
<pdfrwt beam="2">  1       -2 0.70173491E-01 0.14384382E+04</pdfrwt>
<totfact> 0.18842571E+01</totfact>
</mgrwt>
</event>
<event>
12    4  0.4398275E-008  0.1654114E+04  0.7818608E-02  0.8787976E-01
         -2   -1    0    0    0  501 -0.00000000000E+00  0.00000000000E+00  0.17567417890E+04  0.17567417890E+04  0.00000000000E+00 0.  1.
          1   -1    0    0  501    0  0.00000000000E+00 -0.00000000000E+00 -0.38937034849E+03  0.38937034849E+03  0.00000000000E+00 0. -1.
        -24    2    1    2    0    0 -0.37918696204E+03  0.30409650426E+03  0.80635446872E+02  0.49905069068E+03  0.79322635433E+02 0.  0.
        254    2    1    2    0    0  0.37918696204E+03 -0.30409650426E+03  0.12867359936E+04  0.16470614468E+04  0.90601570415E+03 0.  0.
         23    2    4    4    0    0  0.39666258961E+03 -0.53442487415E+03  0.54579497241E+03  0.86560003907E+03  0.91761209847E+02 0.  0.
         23    2    4    4    0    0 -0.17475627571E+02  0.23032836988E+03  0.74094102124E+03  0.78146140775E+03  0.91278580793E+02 0.  0.
          1    1    3    3  502    0 -0.43200470857E+02  0.70768117573E+02  0.50370986673E+01  0.83064911425E+02  0.00000000000E+00 0. -1.
         -4    1    3    3    0  502 -0.33598649118E+03  0.23332838669E+03  0.75598348205E+02  0.41598577926E+03  0.00000000000E+00 0.  1.
         11    1    5    5    0    0  0.39457102313E+03 -0.52840596101E+03  0.52227274848E+03  0.84123003735E+03  0.00000000000E+00 0. -1.
        -11    1    5    5    0    0  0.20915664785E+01 -0.60189131337E+01  0.23522223924E+02  0.24370001723E+02  0.00000000000E+00 0.  1.
          1    1    6    6  503    0 -0.53056465079E+02  0.16680328728E+03  0.49954863456E+03  0.52932708549E+03  0.00000000000E+00 0. -1.
         -1    1    6    6    0  503  0.35580837508E+02  0.63525082601E+02  0.24139238668E+03  0.25213432226E+03  0.00000000000E+00 0.  1.
<mgrwt>
<rscale>  0 0.16541139E+04</rscale>
<asrwt>0</asrwt>
<pdfrwt beam="1">  1        1 0.59903131E-01 0.16541139E+04</pdfrwt>
<pdfrwt beam="2">  1       -2 0.27026796E+00 0.16541139E+04</pdfrwt>
<totfact> 0.25103601E+00</totfact>
</mgrwt>
</event>
<event>
12    4  0.4398275E-008  0.1366521E+04  0.7818608E-02  0.8978416E-01
         -2   -1    0    0    0  501 -0.00000000000E+00  0.00000000000E+00  0.50851626260E+03  0.50851626260E+03  0.00000000000E+00 0.  1.
          1   -1    0    0  501    0  0.00000000000E+00 -0.00000000000E+00 -0.91805263394E+03  0.91805263394E+03  0.00000000000E+00 0. -1.
        -24    2    1    2    0    0 -0.88656275050E+02 -0.45038067607E+03 -0.20481346699E+03  0.50917816789E+03  0.81309051868E+02 0.  0.
        254    2    1    2    0    0  0.88656275050E+02  0.45038067607E+03 -0.20472290436E+03  0.91739072865E+03  0.76745787700E+03 0.  0.
         23    2    4    4    0    0  0.20234928822E+03  0.10899825304E+03 -0.42116591360E+03  0.48826624568E+03  0.90539197486E+02 0.  0.
         23    2    4    4    0    0 -0.11369301317E+03  0.34138242302E+03  0.21644300924E+03  0.42912448297E+03  0.88499636410E+02 0.  0.
          1    1    3    3  502    0  0.91031956987E+01 -0.70927327721E+02 -0.52761422284E+02  0.88866876118E+02  0.00000000000E+00 0. -1.
         -2    1    3    3    0  502 -0.97759470749E+02 -0.37945334835E+03 -0.15205204471E+03  0.42031129177E+03  0.00000000000E+00 0.  1.
         11    1    5    5    0    0  0.14443795782E+03  0.27474381262E+02 -0.25154957342E+03  0.29136635559E+03  0.00000000000E+00 0.  1.
        -11    1    5    5    0    0  0.57911330400E+02  0.81523871783E+02 -0.16961634018E+03  0.19689989008E+03  0.00000000000E+00 0. -1.
          2    1    6    6  503    0 -0.43844635413E+02  0.13797486487E+03  0.13854648709E+03  0.20038598873E+03  0.00000000000E+00 0. -1.
         -2    1    6    6    0  503 -0.69848377759E+02  0.20340755815E+03  0.77896522143E+02  0.22873849425E+03  0.00000000000E+00 0.  1.
<mgrwt>
<rscale>  0 0.13665207E+04</rscale>
<asrwt>0</asrwt>
<pdfrwt beam="1">  1        1 0.14123887E+00 0.13665207E+04</pdfrwt>
<pdfrwt beam="2">  1       -2 0.78233272E-01 0.13665207E+04</pdfrwt>
<totfact> 0.21905197E+01</totfact>
</mgrwt>
</event>
<event>
12    4  0.4398275E-008  0.1962936E+04  0.7818608E-02  0.8624148E-01
          1   -1    0    0  501    0  0.00000000000E+00  0.00000000000E+00  0.14776839503E+04  0.14776839503E+04  0.00000000000E+00 0. -1.
         -2   -1    0    0    0  501 -0.00000000000E+00 -0.00000000000E+00 -0.65188492464E+03  0.65188492464E+03  0.00000000000E+00 0.  1.
        -24    2    1    2    0    0 -0.68542423572E+03 -0.22106807819E+03  0.64204245145E+03  0.96820332893E+03  0.80757034297E+02 0.  0.
        254    2    1    2    0    0  0.68542423572E+03  0.22106807819E+03  0.18375657423E+03  0.11613655460E+04  0.89237098497E+03 0.  0.
         23    2    4    4    0    0  0.76118185750E+02  0.26047018365E+03  0.41383102127E+03  0.50264833174E+03  0.88093907079E+02 0.  0.
         23    2    4    4    0    0  0.60930604997E+03 -0.39402105453E+02 -0.23007444704E+03  0.65871721429E+03  0.90375487704E+02 0.  0.
          3    1    3    3  502    0 -0.43318747922E+03 -0.10915652433E+03  0.43164036267E+03  0.62119235478E+03  0.00000000000E+00 0. -1.
         -4    1    3    3    0  502 -0.25223675650E+03 -0.11191155386E+03  0.21040208878E+03  0.34701097415E+03  0.00000000000E+00 0.  1.
         11    1    5    5    0    0  0.79001207694E+02  0.16671917984E+03  0.32360814046E+03  0.37250329437E+03  0.00000000000E+00 0.  1.
        -11    1    5    5    0    0 -0.28830219439E+01  0.93751003808E+02  0.90222880805E+02  0.13014503737E+03  0.00000000000E+00 0. -1.
          1    1    6    6  503    0  0.71271969283E+02 -0.33469746787E+02 -0.37648181995E+02  0.87277162895E+02  0.00000000000E+00 0. -1.
         -1    1    6    6    0  503  0.53803408069E+03 -0.59323586665E+01 -0.19242626505E+03  0.57144005140E+03  0.00000000000E+00 0.  1.
<mgrwt>
<rscale>  0 0.19629365E+04</rscale>
<asrwt>0</asrwt>
<pdfrwt beam="1">  1        1 0.22733599E+00 0.19629365E+04</pdfrwt>
<pdfrwt beam="2">  1       -2 0.10028999E+00 0.19629365E+04</pdfrwt>
<totfact> 0.45424768E+00</totfact>
</mgrwt>
</event>
<event>
12    4  0.4398275E-008  0.1371870E+04  0.7818608E-02  0.8974436E-01
         -2   -1    0    0    0  501 -0.00000000000E+00  0.00000000000E+00  0.23802534427E+03  0.23802534427E+03  0.00000000000E+00 0.  1.
          1   -1    0    0  501    0  0.00000000000E+00 -0.00000000000E+00 -0.19767102141E+04  0.19767102141E+04  0.00000000000E+00 0. -1.
        -24    2    1    2    0    0  0.55957724826E+02  0.31089791177E+03 -0.15942103195E+03  0.36267559287E+03  0.79559673991E+02 0.  0.
        254    2    1    2    0    0 -0.55957724826E+02 -0.31089791177E+03 -0.15792638378E+04  0.18520599655E+04  0.91447420283E+03 0.  0.
         23    2    4    4    0    0  0.38867042874E+03 -0.15313822493E+03 -0.10705731408E+04  0.11523872026E+04  0.85751949115E+02 0.  0.
         23    2    4    4    0    0 -0.44462815356E+03 -0.15775968684E+03 -0.50869069707E+03  0.69967276290E+03  0.90517601200E+02 0.  0.
          1    1    3    3  502    0  0.32825287354E+02  0.38125448374E+02 -0.38773465650E+02  0.63517170451E+02  0.00000000000E+00 0. -1.
         -2    1    3    3    0  502  0.23132437472E+02  0.27277246340E+03 -0.12064756630E+03  0.29915842242E+03  0.00000000000E+00 0.  1.
         11    1    5    5    0    0  0.88798847602E+02  0.19693306584E+01 -0.22854727408E+03  0.24519985744E+03  0.00000000000E+00 0.  1.
        -11    1    5    5    0    0  0.29987158114E+03 -0.15510755559E+03 -0.84202586670E+03  0.90718734513E+03  0.00000000000E+00 0. -1.
          3    1    6    6  503    0  0.10322669464E+00 -0.12537391170E+02 -0.12497154052E+02  0.17702420526E+02  0.00000000000E+00 0.  1.
         -3    1    6    6    0  503 -0.44473138026E+03 -0.14522229567E+03 -0.49619354301E+03  0.68197034237E+03  0.00000000000E+00 0. -1.
<mgrwt>
<rscale>  0 0.13718704E+04</rscale>
<asrwt>0</asrwt>
<pdfrwt beam="1">  1        1 0.30410926E+00 0.13718704E+04</pdfrwt>
<pdfrwt beam="2">  1       -2 0.36619284E-01 0.13718704E+04</pdfrwt>
<totfact> 0.18635084E+01</totfact>
</mgrwt>
</event>
<event>
12    4  0.4398275E-008  0.2268683E+04  0.7818608E-02  0.8490372E-01
          1   -1    0    0  501    0  0.00000000000E+00  0.00000000000E+00  0.62211201702E+03  0.62211201702E+03  0.00000000000E+00 0. -1.
         -2   -1    0    0    0  501 -0.00000000000E+00 -0.00000000000E+00 -0.20683253903E+04  0.20683253903E+04  0.00000000000E+00 0.  1.
        -24    2    1    2    0    0  0.65730562546E+03  0.46638703330E+03 -0.68346759184E+01  0.80996185270E+03  0.80149485060E+02 0.  0.
        254    2    1    2    0    0 -0.65730562546E+03 -0.46638703330E+03 -0.14393786973E+04  0.18804755546E+04  0.90266811562E+03 0.  0.
         23    2    4    4    0    0 -0.75948834711E+03 -0.16895610646E+03 -0.62297135725E+03  0.10008437535E+04  0.90698355892E+02 0.  0.
         23    2    4    4    0    0  0.10218272165E+03 -0.29743092684E+03 -0.81640734008E+03  0.87963180103E+03  0.91239769863E+02 0.  0.
          1    1    3    3  502    0  0.52751715714E+02  0.58016778585E+02 -0.17437233705E+02  0.80328993691E+02  0.00000000000E+00 0. -1.
         -2    1    3    3    0  502  0.60455390974E+03  0.40837025471E+03  0.10602557787E+02  0.72963285901E+03  0.00000000000E+00 0.  1.
         11    1    5    5    0    0 -0.14768998357E+03 -0.70375401613E+02 -0.12639496435E+03  0.20673827757E+03  0.00000000000E+00 0.  1.
        -11    1    5    5    0    0 -0.61179836354E+03 -0.98580704843E+02 -0.49657639290E+03  0.79410547598E+03  0.00000000000E+00 0. -1.
          3    1    6    6  503    0  0.92171807705E+02 -0.28737725757E+03 -0.80934633142E+03  0.86378400916E+03  0.00000000000E+00 0. -1.
         -3    1    6    6    0  503  0.10010913946E+02 -0.10053669268E+02 -0.70610086605E+01  0.15847791867E+02  0.00000000000E+00 0.  1.
<mgrwt>
<rscale>  0 0.22686825E+04</rscale>
<asrwt>0</asrwt>
<pdfrwt beam="1">  1        1 0.95709541E-01 0.22686825E+04</pdfrwt>
<pdfrwt beam="2">  1       -2 0.31820391E+00 0.22686825E+04</pdfrwt>
<totfact> 0.63419056E-01</totfact>
</mgrwt>
</event>
<event>
12    4  0.4398275E-008  0.1180047E+04  0.7818608E-02  0.9130503E-01
         -2   -1    0    0    0  501 -0.00000000000E+00  0.00000000000E+00  0.15782548381E+03  0.15782548381E+03  0.00000000000E+00 0.  1.
          1   -1    0    0  501    0  0.00000000000E+00 -0.00000000000E+00 -0.22057750693E+04  0.22057750693E+04  0.00000000000E+00 0. -1.
        -24    2    1    2    0    0 -0.24982381954E+03 -0.89781695212E+02 -0.70090107135E+03  0.75360122986E+03  0.78611756241E+02 0.  0.
        254    2    1    2    0    0  0.24982381954E+03  0.89781695212E+02 -0.13470485141E+04  0.16099993233E+04  0.84088371838E+03 0.  0.
         23    2    4    4    0    0  0.86700505599E+02  0.40690387507E+03 -0.10611360335E+04  0.11437713984E+04  0.95475594457E+02 0.  0.
         23    2    4    4    0    0  0.16312331394E+03 -0.31712217986E+03 -0.28591248069E+03  0.46622792483E+03  0.91906685116E+02 0.  0.
          1    1    3    3  502    0 -0.12610191073E+03 -0.83949045320E+02 -0.42437424598E+03  0.45060252413E+03  0.00000000000E+00 0. -1.
         -2    1    3    3    0  502 -0.12372190881E+03 -0.58326498912E+01 -0.27652682537E+03  0.30299870573E+03  0.00000000000E+00 0.  1.
         11    1    5    5    0    0  0.53862843145E+02  0.37699461420E+03 -0.91656140527E+03  0.99252755863E+03  0.00000000000E+00 0.  1.
        -11    1    5    5    0    0  0.32837662454E+02  0.29909260876E+02 -0.14457462819E+03  0.15124383980E+03  0.00000000000E+00 0. -1.
          3    1    6    6  503    0  0.35801548561E+02 -0.24198712704E+02 -0.64322512328E+02  0.77490090773E+02  0.00000000000E+00 0. -1.
         -3    1    6    6    0  503  0.12732176538E+03 -0.29292346716E+03 -0.22158996836E+03  0.38873783406E+03  0.00000000000E+00 0.  1.
<mgrwt>
<rscale>  0 0.11800466E+04</rscale>
<asrwt>0</asrwt>
<pdfrwt beam="1">  1        1 0.33935000E+00 0.11800466E+04</pdfrwt>
<pdfrwt beam="2">  1       -2 0.24280844E-01 0.11800466E+04</pdfrwt>
<totfact> 0.28517350E+01</totfact>
</mgrwt>
</event>
<event>
12    4  0.4398275E-008  0.1361243E+04  0.7818608E-02  0.8982361E-01
          1   -1    0    0  501    0  0.00000000000E+00  0.00000000000E+00  0.73505802701E+03  0.73505802701E+03  0.00000000000E+00 0. -1.
         -2   -1    0    0    0  501 -0.00000000000E+00 -0.00000000000E+00 -0.63021636085E+03  0.63021636085E+03  0.00000000000E+00 0.  1.
        -24    2    1    2    0    0 -0.18121000030E+03 -0.42216226133E+02 -0.31467455196E+03  0.37426897071E+03  0.80236617772E+02 0.  0.
        254    2    1    2    0    0  0.18121000030E+03  0.42216226133E+02  0.41951621811E+03  0.99100541715E+03  0.87833854840E+03 0.  0.
         23    2    4    4    0    0  0.77242716850E+02  0.45180506246E+03  0.22761195982E+03  0.51809025767E+03  0.80722110166E+02 0.  0.
         23    2    4    4    0    0  0.10396728345E+03 -0.40958883632E+03  0.19190425829E+03  0.47291515948E+03  0.90825617771E+02 0.  0.
          3    1    3    3  502    0  0.36430111446E+01 -0.53041643906E+01  0.10823281758E+01  0.65251148927E+01  0.00000000000E+00 0. -1.
         -4    1    3    3    0  502 -0.18485301145E+03 -0.36912061743E+02 -0.31575688013E+03  0.36774385582E+03  0.00000000000E+00 0.  1.
         11    1    5    5    0    0  0.42451313916E+02  0.24192076290E+03  0.76920554345E+02  0.25738014930E+03  0.00000000000E+00 0.  1.
        -11    1    5    5    0    0  0.34791402933E+02  0.20988429956E+03  0.15069140548E+03  0.26071010837E+03  0.00000000000E+00 0. -1.
          1    1    6    6  503    0  0.65292197831E+02 -0.14398587974E+03  0.34696660910E+02  0.16186062814E+03  0.00000000000E+00 0. -1.
         -1    1    6    6    0  503  0.38675085622E+02 -0.26560295658E+03  0.15720759738E+03  0.31105453134E+03  0.00000000000E+00 0.  1.
<mgrwt>
<rscale>  0 0.13612430E+04</rscale>
<asrwt>0</asrwt>
<pdfrwt beam="1">  1        1 0.11308585E+00 0.13612430E+04</pdfrwt>
<pdfrwt beam="2">  1       -2 0.96956363E-01 0.13612430E+04</pdfrwt>
<totfact> 0.19234472E+01</totfact>
</mgrwt>
</event>
<event>
12    4  0.4398275E-008  0.1461760E+04  0.7818608E-02  0.8910288E-01
          1   -1    0    0  501    0  0.00000000000E+00  0.00000000000E+00  0.17409732151E+04  0.17409732151E+04  0.00000000000E+00 0. -1.
         -2   -1    0    0    0  501 -0.00000000000E+00 -0.00000000000E+00 -0.30683161083E+03  0.30683161083E+03  0.00000000000E+00 0.  1.
        -24    2    1    2    0    0 -0.11070072078E+03  0.29303678490E+03  0.62154703626E+00  0.32297522188E+03  0.78660032650E+02 0.  0.
        254    2    1    2    0    0  0.11070072078E+03 -0.29303678490E+03  0.14335200573E+04  0.17248296041E+04  0.90660476597E+03 0.  0.
         23    2    4    4    0    0  0.18388337565E+03 -0.43066864238E+03  0.27173173997E+03  0.54878014662E+03  0.89626644759E+02 0.  0.
         23    2    4    4    0    0 -0.73182654868E+02  0.13763185747E+03  0.11617883173E+04  0.11760494575E+04  0.95089447603E+02 0.  0.
          3    1    3    3  502    0 -0.11828661992E+02  0.13498371161E+03  0.13066040211E+02  0.13612950103E+03  0.00000000000E+00 0. -1.
         -4    1    3    3    0  502 -0.98872058792E+02  0.15805307329E+03 -0.12444493174E+02  0.18684572084E+03  0.00000000000E+00 0.  1.
         11    1    5    5    0    0  0.26500750223E+02 -0.17108807289E+03  0.10382244535E+03  0.20187253059E+03  0.00000000000E+00 0. -1.
        -11    1    5    5    0    0  0.15738262543E+03 -0.25958056949E+03  0.16790929462E+03  0.34690761604E+03  0.00000000000E+00 0.  1.
          3    1    6    6  503    0  0.16896435194E+02  0.10941494831E+02  0.58560344419E+02  0.61923499334E+02  0.00000000000E+00 0. -1.
         -3    1    6    6    0  503 -0.90079090062E+02  0.12669036264E+03  0.11032279729E+04  0.11141259581E+04  0.00000000000E+00 0.  1.
<mgrwt>
<rscale>  0 0.14617601E+04</rscale>
<asrwt>0</asrwt>
<pdfrwt beam="1">  1        1 0.26784203E+00 0.14617601E+04</pdfrwt>
<pdfrwt beam="2">  1       -2 0.47204864E-01 0.14617601E+04</pdfrwt>
<totfact> 0.16191685E+01</totfact>
</mgrwt>
</event>
<event>
12    4  0.4398275E-008  0.1843426E+04  0.7818608E-02  0.8683541E-01
          1   -1    0    0  501    0  0.00000000000E+00  0.00000000000E+00  0.14020102201E+04  0.14020102201E+04  0.00000000000E+00 0. -1.
         -2   -1    0    0    0  501 -0.00000000000E+00 -0.00000000000E+00 -0.60595493951E+03  0.60595493951E+03  0.00000000000E+00 0.  1.
        -24    2    1    2    0    0  0.46877763308E+03 -0.61689104959E+02 -0.28235022218E+03  0.55650256987E+03  0.80096487802E+02 0.  0.
        254    2    1    2    0    0 -0.46877763308E+03  0.61689104959E+02  0.10784055028E+04  0.14514625898E+04  0.84866200932E+03 0.  0.
         23    2    4    4    0    0 -0.18973305113E+02 -0.33781804329E+03  0.51030778743E+03  0.61896623811E+03  0.90687095677E+02 0.  0.
         23    2    4    4    0    0 -0.44980432797E+03  0.39950714825E+03  0.56809771535E+03  0.83249635165E+03  0.91571099993E+02 0.  0.
          1    1    3    3  502    0  0.97431100970E+02 -0.45049743080E+02 -0.73964498652E+02  0.13035737742E+03  0.00000000000E+00 0. -1.
         -2    1    3    3    0  502  0.37134653211E+03 -0.16639361880E+02 -0.20838572353E+03  0.42614519245E+03  0.00000000000E+00 0.  1.
         11    1    5    5    0    0 -0.33786705684E+02 -0.33018281159E+03  0.49700689580E+03  0.59764377770E+03  0.00000000000E+00 0. -1.
        -11    1    5    5    0    0  0.14813400571E+02 -0.76352317032E+01  0.13300891631E+02  0.21322460407E+02  0.00000000000E+00 0.  1.
          4    1    6    6  503    0 -0.44836385856E+03  0.39962412703E+03  0.57133751786E+03  0.82894882344E+03  0.00000000000E+00 0. -1.
         -4    1    6    6    0  503 -0.14404694139E+01 -0.11697877722E+00 -0.32398025036E+01  0.35475282139E+01  0.00000000000E+00 0.  1.
<mgrwt>
<rscale>  0 0.18434262E+04</rscale>
<asrwt>0</asrwt>
<pdfrwt beam="1">  1        1 0.21569388E+00 0.18434262E+04</pdfrwt>
<pdfrwt beam="2">  1       -2 0.93223837E-01 0.18434262E+04</pdfrwt>
<totfact> 0.61529745E+00</totfact>
</mgrwt>
</event>
<event>
12    4  0.4398275E-008  0.1993658E+04  0.7818608E-02  0.8609591E-01
          1   -1    0    0  501    0  0.00000000000E+00  0.00000000000E+00  0.20038380194E+04  0.20038380194E+04  0.00000000000E+00 0. -1.
         -2   -1    0    0    0  501 -0.00000000000E+00 -0.00000000000E+00 -0.49588258325E+03  0.49588258325E+03  0.00000000000E+00 0.  1.
        -24    2    1    2    0    0  0.35923451250E+03 -0.36679299235E+03  0.13347419156E+04  0.14322594975E+04  0.79023747742E+02 0.  0.
        254    2    1    2    0    0 -0.35923451250E+03  0.36679299235E+03  0.17321352062E+03  0.10674611052E+04  0.91971938829E+03 0.  0.
         23    2    4    4    0    0 -0.20113932620E+03 -0.28561377010E+03  0.13481945307E+03  0.38840415331E+03  0.10319518965E+03 0.  0.
         23    2    4    4    0    0 -0.15809518630E+03  0.65240676245E+03  0.38394067542E+02  0.67905695190E+03  0.94950344241E+02 0.  0.
          3    1    3    3  502    0  0.34399226935E+03 -0.32028763424E+03  0.11894832486E+04  0.12789782050E+04  0.00000000000E+00 0. -1.
         -4    1    3    3    0  502  0.15242243152E+02 -0.46505358112E+02  0.14525866695E+03  0.15328129251E+03  0.00000000000E+00 0.  1.
         11    1    5    5    0    0 -0.59823559303E+02 -0.97937689226E+02 -0.52554238305E+01  0.11488371816E+03  0.00000000000E+00 0. -1.
        -11    1    5    5    0    0 -0.14131576690E+03 -0.18767608087E+03  0.14007487690E+03  0.27352043515E+03  0.00000000000E+00 0.  1.
          1    1    6    6  503    0 -0.49770193633E+02  0.98244197279E+02  0.30790880202E+02  0.11435502952E+03  0.00000000000E+00 0. -1.
         -1    1    6    6    0  503 -0.10832499266E+03  0.55416256517E+03  0.76031873404E+01  0.56470192237E+03  0.00000000000E+00 0.  1.
<mgrwt>
<rscale>  0 0.19936583E+04</rscale>
<asrwt>0</asrwt>
<pdfrwt beam="1">  1        1 0.30828277E+00 0.19936583E+04</pdfrwt>
<pdfrwt beam="2">  1       -2 0.76289629E-01 0.19936583E+04</pdfrwt>
<totfact> 0.37120880E+00</totfact>
</mgrwt>
</event>
<event>
12    4  0.4398275E-008  0.1797624E+04  0.7818608E-02  0.8707564E-01
         -2   -1    0    0    0  501 -0.00000000000E+00  0.00000000000E+00  0.35611336261E+03  0.35611336261E+03  0.00000000000E+00 0.  1.
          3   -1    0    0  501    0  0.00000000000E+00 -0.00000000000E+00 -0.22685549620E+04  0.22685549620E+04  0.00000000000E+00 0. -1.
        -24    2    1    2    0    0  0.21975374759E+03  0.51783144304E+03 -0.12301383012E+04  0.13549263120E+04  0.78383403486E+02 0.  0.
        254    2    1    2    0    0 -0.21975374759E+03 -0.51783144304E+03 -0.68230329819E+03  0.12697420126E+04  0.91118926402E+03 0.  0.
         23    2    4    4    0    0  0.17322265983E+03 -0.59429443183E+03 -0.25167724313E+03  0.67445486929E+03  0.91411019106E+02 0.  0.
         23    2    4    4    0    0 -0.39297640742E+03  0.76462988793E+02 -0.43062605506E+03  0.59528714331E+03  0.93010420123E+02 0.  0.
          3    1    3    3  502    0  0.16644181758E+03  0.44991243489E+03 -0.10796721543E+04  0.11814465873E+04  0.00000000000E+00 0. -1.
         -4    1    3    3    0  502  0.53311930001E+02  0.67919008150E+02 -0.15046614685E+03  0.17347972474E+03  0.00000000000E+00 0.  1.
         11    1    5    5    0    0  0.15179063686E+03 -0.44621518041E+03 -0.15432039486E+03  0.49594674002E+03  0.00000000000E+00 0. -1.
        -11    1    5    5    0    0  0.21432022975E+02 -0.14807925142E+03 -0.97356848273E+02  0.17850812927E+03  0.00000000000E+00 0.  1.
          1    1    6    6  503    0 -0.14564447444E+03  0.57743084475E+02 -0.11758482574E+03  0.19588968320E+03  0.00000000000E+00 0. -1.
         -1    1    6    6    0  503 -0.24733193297E+03  0.18719904318E+02 -0.31304122932E+03  0.39939746011E+03  0.00000000000E+00 0.  1.
<mgrwt>
<rscale>  0 0.17976237E+04</rscale>
<asrwt>0</asrwt>
<pdfrwt beam="1">  1        3 0.34900845E+00 0.17976237E+04</pdfrwt>
<pdfrwt beam="2">  1       -2 0.54786672E-01 0.17976237E+04</pdfrwt>
<totfact> 0.25250288E-01</totfact>
</mgrwt>
</event>
<event>
12    4  0.4398275E-008  0.1902050E+04  0.7818608E-02  0.8653837E-01
          1   -1    0    0  501    0  0.00000000000E+00  0.00000000000E+00  0.37541226830E+03  0.37541226830E+03  0.00000000000E+00 0. -1.
         -2   -1    0    0    0  501 -0.00000000000E+00 -0.00000000000E+00 -0.24092137907E+04  0.24092137907E+04  0.00000000000E+00 0.  1.
        -24    2    1    2    0    0  0.59361300603E+03 -0.44048057152E+02 -0.16418240822E+03  0.62252860086E+03  0.79179312032E+02 0.  0.
        254    2    1    2    0    0 -0.59361300603E+03  0.44048057152E+02 -0.18696191142E+04  0.21620974581E+04  0.90822527717E+03 0.  0.
         23    2    4    4    0    0 -0.43057688180E+03  0.13549840654E+02 -0.19167894251E+04  0.19667844862E+04  0.92625405988E+02 0.  0.
         23    2    4    4    0    0 -0.16303612423E+03  0.30498216498E+02  0.47170310920E+02  0.19531297189E+03  0.91712593152E+02 0.  0.
          3    1    3    3  502    0  0.32991551290E+03 -0.20984014610E+02 -0.50384709902E+02  0.33439975106E+03  0.00000000000E+00 0. -1.
         -4    1    3    3    0  502  0.26369749313E+03 -0.23064042542E+02 -0.11379769832E+03  0.28812884980E+03  0.00000000000E+00 0.  1.
         11    1    5    5    0    0 -0.39720759998E+03  0.33354792989E+02 -0.16666789539E+04  0.17136817543E+04  0.00000000000E+00 0. -1.
        -11    1    5    5    0    0 -0.33369281820E+02 -0.19804952334E+02 -0.25011047125E+03  0.25310273198E+03  0.00000000000E+00 0.  1.
          2    1    6    6  503    0 -0.10680010124E+03 -0.13214300401E+01  0.68946113178E+02  0.12712818068E+03  0.00000000000E+00 0. -1.
         -2    1    6    6    0  503 -0.56236022995E+02  0.31819646538E+02 -0.21775802258E+02  0.68184791208E+02  0.00000000000E+00 0.  1.
<mgrwt>
<rscale>  0 0.19020499E+04</rscale>
<asrwt>0</asrwt>
<pdfrwt beam="1">  1        1 0.57755737E-01 0.19020499E+04</pdfrwt>
<pdfrwt beam="2">  1       -2 0.37064825E+00 0.19020499E+04</pdfrwt>
<totfact> 0.61632823E-01</totfact>
</mgrwt>
</event>
<event>
12    4  0.4398275E-008  0.1587603E+04  0.7818608E-02  0.8828200E-01
         -2   -1    0    0    0  501 -0.00000000000E+00  0.00000000000E+00  0.11174165946E+04  0.11174165946E+04  0.00000000000E+00 0.  1.
          1   -1    0    0  501    0  0.00000000000E+00 -0.00000000000E+00 -0.56390878126E+03  0.56390878126E+03  0.00000000000E+00 0. -1.
        -24    2    1    2    0    0 -0.19878053945E+03 -0.20340144433E+03 -0.29686850250E+03  0.41956612800E+03  0.83779338524E+02 0.  0.
        254    2    1    2    0    0  0.19878053945E+03  0.20340144433E+03  0.85037631580E+03  0.12617592478E+04  0.88769965111E+03 0.  0.
         23    2    4    4    0    0  0.24032194170E+03  0.47593858626E+03  0.25176066649E+03  0.59654250266E+03  0.90594429917E+02 0.  0.
         23    2    4    4    0    0 -0.41541402245E+02 -0.27253714194E+03  0.59861564930E+03  0.66521674516E+03  0.90390489625E+02 0.  0.
          3    1    3    3  502    0 -0.18440003730E+03 -0.19268447546E+03 -0.23605706557E+03  0.35616515698E+03  0.00000000000E+00 0. -1.
         -4    1    3    3    0  502 -0.14380502154E+02 -0.10716968862E+02 -0.60811436936E+02  0.63400971018E+02  0.00000000000E+00 0.  1.
         11    1    5    5    0    0  0.12444362807E+03  0.34046586127E+03  0.16507245509E+03  0.39831160501E+03  0.00000000000E+00 0. -1.
        -11    1    5    5    0    0  0.11587831363E+03  0.13547272500E+03  0.86688211403E+02  0.19823089765E+03  0.00000000000E+00 0.  1.
          4    1    6    6  503    0 -0.38563594113E+02 -0.27689176000E+03  0.59771746030E+03  0.65986541044E+03  0.00000000000E+00 0. -1.
         -4    1    6    6    0  503 -0.29778081320E+01  0.43546180665E+01  0.89818900166E+00  0.53513347175E+01  0.00000000000E+00 0.  1.
<mgrwt>
<rscale>  0 0.15876033E+04</rscale>
<asrwt>0</asrwt>
<pdfrwt beam="1">  1        1 0.86755198E-01 0.15876033E+04</pdfrwt>
<pdfrwt beam="2">  1       -2 0.17191024E+00 0.15876033E+04</pdfrwt>
<totfact> 0.64945306E+00</totfact>
</mgrwt>
</event>
<event>
12    4  0.4398275E-008  0.2355836E+04  0.7818608E-02  0.8456225E-01
         -2   -1    0    0    0  501 -0.00000000000E+00  0.00000000000E+00  0.72589641133E+03  0.72589641133E+03  0.00000000000E+00 0.  1.
          1   -1    0    0  501    0  0.00000000000E+00 -0.00000000000E+00 -0.19114168765E+04  0.19114168765E+04  0.00000000000E+00 0. -1.
        -24    2    1    2    0    0  0.94001848517E+03  0.15185828112E+03 -0.23592689197E+03  0.98419199326E+03  0.79225571804E+02 0.  0.
        254    2    1    2    0    0 -0.94001848517E+03 -0.15185828112E+03 -0.94959357316E+03  0.16531212945E+04  0.96145013922E+03 0.  0.
         23    2    4    4    0    0 -0.71934657414E+03 -0.18824852304E+03 -0.83223808323E+02  0.75385544752E+03  0.92058858035E+02 0.  0.
         23    2    4    4    0    0 -0.22067191104E+03  0.36390241912E+02 -0.86636976483E+03  0.89926584700E+03  0.89789487884E+02 0.  0.
          3    1    3    3  502    0  0.27517069658E+02  0.91629315941E+01  0.56091404264E+01  0.29539988055E+02  0.00000000000E+00 0. -1.
         -4    1    3    3    0  502  0.91250141552E+03  0.14269534953E+03 -0.24153603240E+03  0.95465200521E+03  0.00000000000E+00 0.  1.
         11    1    5    5    0    0 -0.47590890531E+03 -0.16768390869E+03 -0.45156421050E+02  0.50660268628E+03  0.00000000000E+00 0.  1.
        -11    1    5    5    0    0 -0.24343766883E+03 -0.20564614341E+02 -0.38067387273E+02  0.24725276124E+03  0.00000000000E+00 0. -1.
          2    1    6    6  503    0 -0.62315701085E+02  0.46999401626E+01 -0.41909416460E+03  0.42372780749E+03  0.00000000000E+00 0. -1.
         -2    1    6    6    0  503 -0.15835620995E+03  0.31690301749E+02 -0.44727560023E+03  0.47553803951E+03  0.00000000000E+00 0.  1.
<mgrwt>
<rscale>  0 0.23558359E+04</rscale>
<asrwt>0</asrwt>
<pdfrwt beam="1">  1        1 0.29406413E+00 0.23558359E+04</pdfrwt>
<pdfrwt beam="2">  1       -2 0.11167637E+00 0.23558359E+04</pdfrwt>
<totfact> 0.17129202E+00</totfact>
</mgrwt>
</event>
<event>
12    4  0.4398275E-008  0.1381782E+04  0.7818608E-02  0.8967113E-01
          1   -1    0    0  501    0  0.00000000000E+00  0.00000000000E+00  0.76152788399E+03  0.76152788399E+03  0.00000000000E+00 0. -1.
         -2   -1    0    0    0  501 -0.00000000000E+00 -0.00000000000E+00 -0.62680583201E+03  0.62680583201E+03  0.00000000000E+00 0.  1.
        -24    2    1    2    0    0  0.33516117791E+03  0.60964323831E+02 -0.14547761355E+03  0.37922107162E+03  0.81210966974E+02 0.  0.
        254    2    1    2    0    0 -0.33516117791E+03 -0.60964323831E+02  0.28019966553E+03  0.10091126444E+04  0.90760498706E+03 0.  0.
         23    2    4    4    0    0  0.11461939668E+03  0.51626336336E+01 -0.25807261193E+03  0.29734042572E+03  0.92981701737E+02 0.  0.
         23    2    4    4    0    0 -0.44978057458E+03 -0.66126957465E+02  0.53827227746E+03  0.71177221867E+03  0.10103121701E+03 0.  0.
          1    1    3    3  502    0  0.30457369723E+02  0.31417024351E+02 -0.12951486869E+02  0.45633560036E+02  0.00000000000E+00 0. -1.
         -2    1    3    3    0  502  0.30470380819E+03  0.29547299481E+02 -0.13252612668E+03  0.33358751158E+03  0.00000000000E+00 0.  1.
         11    1    5    5    0    0  0.40419391572E+02 -0.20032902639E+02 -0.18421616636E+03  0.18965927436E+03  0.00000000000E+00 0.  1.
        -11    1    5    5    0    0  0.74200005104E+02  0.25195536273E+02 -0.73856445575E+02  0.10768115136E+03  0.00000000000E+00 0. -1.
          1    1    6    6  503    0 -0.29661042906E+03 -0.49225485823E+02  0.27906268754E+03  0.41021564897E+03  0.00000000000E+00 0. -1.
         -1    1    6    6    0  503 -0.15317014553E+03 -0.16901471642E+02  0.25920958991E+03  0.30155656970E+03  0.00000000000E+00 0.  1.
<mgrwt>
<rscale>  0 0.13817816E+04</rscale>
<asrwt>0</asrwt>
<pdfrwt beam="1">  1        1 0.11715814E+00 0.13817816E+04</pdfrwt>
<pdfrwt beam="2">  1       -2 0.96431667E-01 0.13817816E+04</pdfrwt>
<totfact> 0.18406676E+01</totfact>
</mgrwt>
</event>
<event>
12    4  0.4398275E-008  0.1877174E+04  0.7818608E-02  0.8666303E-01
          1   -1    0    0  501    0  0.00000000000E+00  0.00000000000E+00  0.45000726796E+03  0.45000726796E+03  0.00000000000E+00 0. -1.
         -2   -1    0    0    0  501 -0.00000000000E+00 -0.00000000000E+00 -0.19576242577E+04  0.19576242577E+04  0.00000000000E+00 0.  1.
        -24    2    1    2    0    0  0.35644774418E+03 -0.66691516016E+02 -0.13814245395E+04  0.14304766867E+04  0.80168822147E+02 0.  0.
        254    2    1    2    0    0 -0.35644774418E+03  0.66691516016E+02 -0.12619245027E+03  0.97715483906E+03  0.89855678304E+03 0.  0.
         23    2    4    4    0    0 -0.38318705827E+03 -0.14958516219E+03  0.28098553012E+03  0.50630998432E+03  0.90492484296E+02 0.  0.
         23    2    4    4    0    0  0.26739314088E+02  0.21627667820E+03 -0.40717798038E+03  0.47084485474E+03  0.91708108011E+02 0.  0.
          1    1    3    3  502    0  0.63351758466E+02 -0.25202750985E+02 -0.16457546141E+03  0.17813957016E+03  0.00000000000E+00 0. -1.
         -2    1    3    3    0  502  0.29309598571E+03 -0.41488765030E+02 -0.12168490781E+04  0.12523371165E+04  0.00000000000E+00 0.  1.
         11    1    5    5    0    0 -0.13577751595E+03 -0.96922621091E+02  0.13212648670E+03  0.21280727620E+03  0.00000000000E+00 0. -1.
        -11    1    5    5    0    0 -0.24740954232E+03 -0.52662541096E+02  0.14885904342E+03  0.29350270812E+03  0.00000000000E+00 0.  1.
          2    1    6    6  503    0  0.10234069518E+01  0.19072841080E+02 -0.16427842886E+01  0.19170794685E+02  0.00000000000E+00 0. -1.
         -2    1    6    6    0  503  0.25715907136E+02  0.19720383712E+03 -0.40553519610E+03  0.45167406006E+03  0.00000000000E+00 0.  1.
<mgrwt>
<rscale>  0 0.18771736E+04</rscale>
<asrwt>0</asrwt>
<pdfrwt beam="1">  1        1 0.69231887E-01 0.18771736E+04</pdfrwt>
<pdfrwt beam="2">  1       -2 0.30117296E+00 0.18771736E+04</pdfrwt>
<totfact> 0.13148579E+00</totfact>
</mgrwt>
</event>
<event>
12    4  0.4398275E-008  0.1690224E+04  0.7818608E-02  0.8766960E-01
          1   -1    0    0  501    0  0.00000000000E+00  0.00000000000E+00  0.12599333092E+04  0.12599333092E+04  0.00000000000E+00 0. -1.
         -2   -1    0    0    0  501 -0.00000000000E+00 -0.00000000000E+00 -0.56686690969E+03  0.56686690969E+03  0.00000000000E+00 0.  1.
        -24    2    1    2    0    0 -0.32380029041E+03 -0.40520273168E+03 -0.95080195690E+02  0.53325405249E+03  0.79270164944E+02 0.  0.
        254    2    1    2    0    0  0.32380029041E+03  0.40520273168E+03  0.78814659520E+03  0.12935461664E+04  0.88490154666E+03 0.  0.
         23    2    4    4    0    0  0.39092741666E+03 -0.13833239468E+03  0.15647614922E+03  0.45233741623E+03  0.90356274416E+02 0.  0.
         23    2    4    4    0    0 -0.67127126254E+02  0.54353512636E+03  0.63167044597E+03  0.84120875018E+03  0.93210108892E+02 0.  0.
          3    1    3    3  502    0 -0.12197131962E+03 -0.20258306387E+03 -0.18503126400E+02  0.23719035870E+03  0.00000000000E+00 0. -1.
         -4    1    3    3    0  502 -0.20182897079E+03 -0.20261966781E+03 -0.76577069290E+02  0.29606369378E+03  0.00000000000E+00 0.  1.
         11    1    5    5    0    0  0.18059336527E+03 -0.11116080891E+03  0.70231163073E+02  0.22339002951E+03  0.00000000000E+00 0. -1.
        -11    1    5    5    0    0  0.21033405140E+03 -0.27171585767E+02  0.86244986152E+02  0.22894738672E+03  0.00000000000E+00 0.  1.
          1    1    6    6  503    0 -0.81350680458E+01  0.39974054058E+03  0.46694333420E+03  0.61473145069E+03  0.00000000000E+00 0. -1.
         -1    1    6    6    0  503 -0.58992058208E+02  0.14379458578E+03  0.16472711178E+03  0.22647729949E+03  0.00000000000E+00 0.  1.
<mgrwt>
<rscale>  0 0.16902242E+04</rscale>
<asrwt>0</asrwt>
<pdfrwt beam="1">  1        1 0.19383589E+00 0.16902242E+04</pdfrwt>
<pdfrwt beam="2">  1       -2 0.87210294E-01 0.16902242E+04</pdfrwt>
<totfact> 0.91752572E+00</totfact>
</mgrwt>
</event>
<event>
12    4  0.4398275E-008  0.1914690E+04  0.7818608E-02  0.8647578E-01
          3   -1    0    0  501    0  0.00000000000E+00  0.00000000000E+00  0.64322909792E+03  0.64322909792E+03  0.00000000000E+00 0. -1.
         -4   -1    0    0    0  501 -0.00000000000E+00 -0.00000000000E+00 -0.14248574344E+04  0.14248574344E+04  0.00000000000E+00 0.  1.
        -24    2    1    2    0    0 -0.41798232554E+03  0.61773198331E+03 -0.24543388945E+03  0.78916834605E+03  0.79037058714E+02 0.  0.
        254    2    1    2    0    0  0.41798232554E+03 -0.61773198331E+03 -0.53619444702E+03  0.12789181863E+04  0.88984561271E+03 0.  0.
         23    2    4    4    0    0 -0.37080396095E+02 -0.75735179093E+02 -0.55152135290E+03  0.56617186680E+03  0.96249711302E+02 0.  0.
         23    2    4    4    0    0  0.45506272164E+03 -0.54199680422E+03  0.15326905876E+02  0.71274631946E+03  0.83245332945E+02 0.  0.
          1    1    3    3  502    0 -0.17378434763E+03  0.30738265448E+03 -0.86997692087E+02  0.36366701003E+03  0.00000000000E+00 0. -1.
         -2    1    3    3    0  502 -0.24419797791E+03  0.31034932884E+03 -0.15843619736E+03  0.42550133602E+03  0.00000000000E+00 0.  1.
         11    1    5    5    0    0 -0.92820606810E+01 -0.94131661431E+02 -0.41404476562E+03  0.42471166015E+03  0.00000000000E+00 0.  1.
        -11    1    5    5    0    0 -0.27798335414E+02  0.18396482339E+02 -0.13747658728E+03  0.14146020664E+03  0.00000000000E+00 0. -1.
          1    1    6    6  503    0  0.84753143559E+02 -0.15490741375E+03 -0.52935530971E+01  0.17665623080E+03  0.00000000000E+00 0. -1.
         -1    1    6    6    0  503  0.37030957808E+03 -0.38708939048E+03  0.20620458973E+02  0.53609008866E+03  0.00000000000E+00 0.  1.
<mgrwt>
<rscale>  0 0.19146903E+04</rscale>
<asrwt>0</asrwt>
<pdfrwt beam="1">  1        3 0.98958324E-01 0.19146903E+04</pdfrwt>
<pdfrwt beam="2">  1       -4 0.21920883E+00 0.19146903E+04</pdfrwt>
<totfact> 0.18915311E-01</totfact>
</mgrwt>
</event>
<event>
12    4  0.4398275E-008  0.3479340E+04  0.7818608E-02  0.8118704E-01
         -2   -1    0    0    0  501 -0.00000000000E+00  0.00000000000E+00  0.96292758926E+03  0.96292758926E+03  0.00000000000E+00 0.  1.
          1   -1    0    0  501    0  0.00000000000E+00 -0.00000000000E+00 -0.31429695803E+04  0.31429695803E+04  0.00000000000E+00 0. -1.
        -24    2    1    2    0    0 -0.39265817331E+03  0.31044393594E+02 -0.28704710419E+04  0.28984863770E+04  0.80467877576E+02 0.  0.
        254    2    1    2    0    0  0.39265817331E+03 -0.31044393594E+02  0.69042905086E+03  0.12074107926E+04  0.90884781591E+03 0.  0.
         23    2    4    4    0    0  0.15715209206E+03  0.32466823681E+03 -0.19946860486E+02  0.37379538297E+03  0.96014931416E+02 0.  0.
         23    2    4    4    0    0  0.23550608125E+03 -0.35571263041E+03  0.71037591135E+03  0.83361540968E+03  0.91028160972E+02 0.  0.
          3    1    3    3  502    0 -0.38996361252E+03  0.21376867103E+02 -0.28283108459E+04  0.28551481276E+04  0.00000000000E+00 0. -1.
         -4    1    3    3    0  502 -0.26945607831E+01  0.96675264909E+01 -0.42160196089E+02  0.43338249394E+02  0.00000000000E+00 0.  1.
         11    1    5    5    0    0  0.12987490738E+03  0.22730785536E+03 -0.53614347759E+02  0.26722808790E+03  0.00000000000E+00 0. -1.
        -11    1    5    5    0    0  0.27277184679E+02  0.97360381449E+02  0.33667487273E+02  0.10656729507E+03  0.00000000000E+00 0.  1.
          4    1    6    6  503    0  0.15735919777E+03 -0.20214610495E+03  0.34559816786E+03  0.43018956112E+03  0.00000000000E+00 0.  1.
         -4    1    6    6    0  503  0.78146883477E+02 -0.15356652546E+03  0.36477774349E+03  0.40342584856E+03  0.00000000000E+00 0. -1.
<mgrwt>
<rscale>  0 0.34793402E+04</rscale>
<asrwt>0</asrwt>
<pdfrwt beam="1">  1        1 0.48353378E+00 0.34793402E+04</pdfrwt>
<pdfrwt beam="2">  1       -2 0.14814271E+00 0.34793402E+04</pdfrwt>
<totfact> 0.10441422E-01</totfact>
</mgrwt>
</event>
<event>
12    4  0.4398275E-008  0.1501833E+04  0.7818608E-02  0.8883235E-01
          1   -1    0    0  501    0  0.00000000000E+00  0.00000000000E+00  0.15323075446E+04  0.15323075446E+04  0.00000000000E+00 0. -1.
         -2   -1    0    0    0  501 -0.00000000000E+00 -0.00000000000E+00 -0.36799116487E+03  0.36799116487E+03  0.00000000000E+00 0.  1.
        -24    2    1    2    0    0 -0.24502501903E+03 -0.24822770309E+03 -0.45266037483E+02  0.36024237424E+03  0.77918556985E+02 0.  0.
        254    2    1    2    0    0  0.24502501903E+03  0.24822770309E+03  0.12095824172E+04  0.15400563352E+04  0.88714690955E+03 0.  0.
         23    2    4    4    0    0  0.17308541819E+03  0.73705106782E+02  0.12964850667E+04  0.13132553517E+04  0.91515495479E+02 0.  0.
         23    2    4    4    0    0  0.71939600832E+02  0.17452259631E+03 -0.86902649457E+02  0.22680098353E+03  0.90846974953E+02 0.  0.
          3    1    3    3  502    0 -0.76017670509E+02 -0.38470772951E+02 -0.30403752232E+02  0.90460349053E+02  0.00000000000E+00 0. -1.
         -4    1    3    3    0  502 -0.16900734852E+03 -0.20975693014E+03 -0.14862285251E+02  0.26978202519E+03  0.00000000000E+00 0.  1.
         11    1    5    5    0    0  0.16295566641E+03  0.31826176002E+02  0.10439665923E+04  0.10570873665E+04  0.00000000000E+00 0.  1.
        -11    1    5    5    0    0  0.10129751785E+02  0.41878930780E+02  0.25251847441E+03  0.25616798518E+03  0.00000000000E+00 0. -1.
          3    1    6    6  503    0 -0.20433706194E+02  0.50757900314E+02 -0.17133545731E+02  0.57336368758E+02  0.00000000000E+00 0. -1.
         -3    1    6    6    0  503  0.92373307025E+02  0.12376469599E+03 -0.69769103727E+02  0.16946461477E+03  0.00000000000E+00 0.  1.
<mgrwt>
<rscale>  0 0.15018331E+04</rscale>
<asrwt>0</asrwt>
<pdfrwt beam="1">  1        1 0.23573962E+00 0.15018331E+04</pdfrwt>
<pdfrwt beam="2">  1       -2 0.56614026E-01 0.15018331E+04</pdfrwt>
<totfact> 0.15433500E+01</totfact>
</mgrwt>
</event>
<event>
12    4  0.4398275E-008  0.1927839E+04  0.7818608E-02  0.8641122E-01
         -2   -1    0    0    0  501 -0.00000000000E+00  0.00000000000E+00  0.75330684447E+03  0.75330684447E+03  0.00000000000E+00 0.  1.
          1   -1    0    0  501    0  0.00000000000E+00 -0.00000000000E+00 -0.12334162435E+04  0.12334162435E+04  0.00000000000E+00 0. -1.
        -24    2    1    2    0    0  0.19109811745E+03  0.42505184053E+03  0.42004365681E+03  0.63236339256E+03  0.79115289270E+02 0.  0.
        254    2    1    2    0    0 -0.19109811745E+03 -0.42505184053E+03 -0.90015305587E+03  0.13543596955E+04  0.89823554986E+03 0.  0.
         23    2    4    4    0    0 -0.30369104354E+03  0.14209136187E+03 -0.97672719773E+02  0.36081298733E+03  0.90707478158E+02 0.  0.
         23    2    4    4    0    0  0.11259292609E+03 -0.56714320240E+03 -0.80248033610E+03  0.99354670813E+03  0.93977616306E+02 0.  0.
          1    1    3    3  502    0  0.56334173775E+02  0.64473479610E+02  0.54350045646E+02  0.10141151892E+03  0.00000000000E+00 0. -1.
         -2    1    3    3    0  502  0.13476394367E+03  0.36057836092E+03  0.36569361116E+03  0.53095187364E+03  0.00000000000E+00 0.  1.
         11    1    5    5    0    0 -0.17890285764E+03  0.13068376346E+03 -0.53213561724E+02  0.22785118313E+03  0.00000000000E+00 0. -1.
        -11    1    5    5    0    0 -0.12478818589E+03  0.11407598415E+02 -0.44459158049E+02  0.13296180420E+03  0.00000000000E+00 0.  1.
          1    1    6    6  503    0  0.11873968339E+03 -0.56178280011E+03 -0.80052549941E+03  0.98515993732E+03  0.00000000000E+00 0. -1.
         -1    1    6    6    0  503 -0.61467572956E+01 -0.53604022916E+01 -0.19548366928E+01  0.83867708013E+01  0.00000000000E+00 0.  1.
<mgrwt>
<rscale>  0 0.19278391E+04</rscale>
<asrwt>0</asrwt>
<pdfrwt beam="1">  1        1 0.18975634E+00 0.19278391E+04</pdfrwt>
<pdfrwt beam="2">  1       -2 0.11589336E+00 0.19278391E+04</pdfrwt>
<totfact> 0.47863375E+00</totfact>
</mgrwt>
</event>
<event>
12    4  0.4398275E-008  0.1560976E+04  0.7818608E-02  0.8844887E-01
         -2   -1    0    0    0  501 -0.00000000000E+00  0.00000000000E+00  0.93751753624E+03  0.93751753624E+03  0.00000000000E+00 0.  1.
          1   -1    0    0  501    0  0.00000000000E+00 -0.00000000000E+00 -0.64975975559E+03  0.64975975559E+03  0.00000000000E+00 0. -1.
        -24    2    1    2    0    0  0.41504386955E+03 -0.29515477333E+03 -0.16419614789E+02  0.51604864526E+03  0.81601756448E+02 0.  0.
        254    2    1    2    0    0 -0.41504386955E+03  0.29515477333E+03  0.30417739544E+03  0.10712286466E+04  0.89198047707E+03 0.  0.
         23    2    4    4    0    0  0.22302571630E+03  0.29080901330E+03  0.17015921111E+03  0.41435895447E+03  0.91808679743E+02 0.  0.
         23    2    4    4    0    0 -0.63806958585E+03  0.43457600331E+01  0.13401818433E+03  0.65686969210E+03  0.79782433221E+02 0.  0.
          1    1    3    3  502    0  0.29729420614E+03 -0.20215153214E+03  0.25023055038E+02  0.36038207535E+03  0.00000000000E+00 0. -1.
         -2    1    3    3    0  502  0.11774966341E+03 -0.93003241195E+02 -0.41442669827E+02  0.15566656991E+03  0.00000000000E+00 0.  1.
         11    1    5    5    0    0  0.12598047693E+03  0.20894470736E+03  0.73585108646E+02  0.25484061591E+03  0.00000000000E+00 0.  1.
        -11    1    5    5    0    0  0.97045239372E+02  0.81864305940E+02  0.96574102462E+02  0.15951833856E+03  0.00000000000E+00 0. -1.
          3    1    6    6  503    0 -0.52086916227E+03  0.34546732789E+02  0.11023681099E+03  0.53352630248E+03  0.00000000000E+00 0. -1.
         -3    1    6    6    0  503 -0.11720042359E+03 -0.30200972756E+02  0.23781373343E+02  0.12334338962E+03  0.00000000000E+00 0.  1.
<mgrwt>
<rscale>  0 0.15609755E+04</rscale>
<asrwt>0</asrwt>
<pdfrwt beam="1">  1        1 0.99963039E-01 0.15609755E+04</pdfrwt>
<pdfrwt beam="2">  1       -2 0.14423347E+00 0.15609755E+04</pdfrwt>
<totfact> 0.85271803E+00</totfact>
</mgrwt>
</event>
<event>
12    4  0.4398275E-008  0.1740267E+04  0.7818608E-02  0.8738726E-01
         -2   -1    0    0    0  501 -0.00000000000E+00  0.00000000000E+00  0.40100115620E+03  0.40100115620E+03  0.00000000000E+00 0.  1.
          1   -1    0    0  501    0  0.00000000000E+00 -0.00000000000E+00 -0.18881045160E+04  0.18881045160E+04  0.00000000000E+00 0. -1.
        -24    2    1    2    0    0  0.21816598974E+03  0.21994159767E+03 -0.12833290661E+04  0.13227769431E+04  0.82671905718E+02 0.  0.
        254    2    1    2    0    0 -0.21816598974E+03 -0.21994159767E+03 -0.20377429378E+03  0.96632872912E+03  0.89235449484E+03 0.  0.
         23    2    4    4    0    0 -0.25404770084E+03  0.20371006016E+03 -0.36953666448E+03  0.50125029391E+03  0.93040248516E+02 0.  0.
         23    2    4    4    0    0  0.35881711102E+02 -0.42365165783E+03  0.16576237070E+03  0.46507843521E+03  0.89736074043E+02 0.  0.
          3    1    3    3  502    0  0.17727696859E+03  0.19193210406E+03 -0.11742426237E+04  0.12029591828E+04  0.00000000000E+00 0. -1.
         -4    1    3    3    0  502  0.40889021149E+02  0.28009493615E+02 -0.10908644239E+03  0.11981776035E+03  0.00000000000E+00 0.  1.
         11    1    5    5    0    0 -0.14511893590E+03  0.60504067290E+02 -0.19604899327E+03  0.25130749189E+03  0.00000000000E+00 0. -1.
        -11    1    5    5    0    0 -0.10892876494E+03  0.14320599287E+03 -0.17348767121E+03  0.24994280203E+03  0.00000000000E+00 0.  1.
          1    1    6    6  503    0  0.10620409074E+02 -0.33135724233E+01 -0.28411451859E+01  0.11482375933E+02  0.00000000000E+00 0. -1.
         -1    1    6    6    0  503  0.25261302028E+02 -0.42033808540E+03  0.16860351589E+03  0.45359605928E+03  0.00000000000E+00 0.  1.
<mgrwt>
<rscale>  0 0.17402668E+04</rscale>
<asrwt>0</asrwt>
<pdfrwt beam="1">  1        1 0.29047762E+00 0.17402668E+04</pdfrwt>
<pdfrwt beam="2">  1       -2 0.61692486E-01 0.17402668E+04</pdfrwt>
<totfact> 0.72160594E+00</totfact>
</mgrwt>
</event>
<event>
12    4  0.4398275E-008  0.2594618E+04  0.7818608E-02  0.8370032E-01
          1   -1    0    0  501    0  0.00000000000E+00  0.00000000000E+00  0.10972949956E+04  0.10972949956E+04  0.00000000000E+00 0. -1.
         -2   -1    0    0    0  501 -0.00000000000E+00 -0.00000000000E+00 -0.15337815631E+04  0.15337815631E+04  0.00000000000E+00 0.  1.
        -24    2    1    2    0    0 -0.75213954029E+03 -0.11931056131E+03 -0.10523186207E+04  0.13012965493E+04  0.77777449370E+02 0.  0.
        254    2    1    2    0    0  0.75213954029E+03  0.11931056131E+03  0.61583205319E+03  0.13297800095E+04  0.89950923164E+03 0.  0.
         23    2    4    4    0    0  0.82887509459E+03  0.96933732766E+02  0.76712771776E+03  0.11371482625E+04  0.90505052254E+02 0.  0.
         23    2    4    4    0    0 -0.76735554307E+02  0.22376828542E+02 -0.15129566457E+03  0.19263174703E+03  0.88473408960E+02 0.  0.
          1    1    3    3  502    0 -0.39978074429E+02  0.44485059992E+01 -0.34955348374E+02  0.53290824919E+02  0.00000000000E+00 0. -1.
         -2    1    3    3    0  502 -0.71216146586E+03 -0.12375906731E+03 -0.10173632723E+04  0.12480057244E+04  0.00000000000E+00 0.  1.
         11    1    5    5    0    0  0.12527635395E+03  0.47858809871E+02  0.12158458235E+03  0.18101779251E+03  0.00000000000E+00 0.  1.
        -11    1    5    5    0    0  0.70359874064E+03  0.49074922895E+02  0.64554313541E+03  0.95613046995E+03  0.00000000000E+00 0. -1.
          4    1    6    6  503    0 -0.26122246530E+01  0.16981847659E+02 -0.10202938115E+03  0.10346594360E+03  0.00000000000E+00 0. -1.
         -4    1    6    6    0  503 -0.74123329654E+02  0.53949808836E+01 -0.49266283421E+02  0.89165803422E+02  0.00000000000E+00 0.  1.
<mgrwt>
<rscale>  0 0.25946181E+04</rscale>
<asrwt>0</asrwt>
<pdfrwt beam="1">  1        1 0.16881462E+00 0.25946181E+04</pdfrwt>
<pdfrwt beam="2">  1       -2 0.23596639E+00 0.25946181E+04</pdfrwt>
<totfact> 0.77271264E-01</totfact>
</mgrwt>
</event>
<event>
12    4  0.4398275E-008  0.1201272E+04  0.7818608E-02  0.9111744E-01
         -2   -1    0    0    0  501 -0.00000000000E+00  0.00000000000E+00  0.15245301130E+03  0.15245301130E+03  0.00000000000E+00 0.  1.
          1   -1    0    0  501    0  0.00000000000E+00 -0.00000000000E+00 -0.23663914941E+04  0.23663914941E+04  0.00000000000E+00 0. -1.
        -24    2    1    2    0    0 -0.20579022921E+02  0.80912557031E+02  0.98780168330E+01  0.11718193509E+03  0.81631443851E+02 0.  0.
        254    2    1    2    0    0  0.20579022921E+02 -0.80912557031E+02 -0.22238164996E+04  0.24016625703E+04  0.90313506164E+03 0.  0.
         23    2    4    4    0    0  0.12609542338E+03 -0.38367389940E+03 -0.51572467236E+03  0.66134475075E+03  0.91100081176E+02 0.  0.
         23    2    4    4    0    0 -0.10551640046E+03  0.30276134237E+03 -0.17080918273E+04  0.17403178196E+04  0.91270375824E+02 0.  0.
          1    1    3    3  502    0  0.37458796178E+00  0.51756659538E+02 -0.32902890871E+02  0.61331006435E+02  0.00000000000E+00 0. -1.
         -2    1    3    3    0  502 -0.20953610882E+02  0.29155897493E+02  0.42780907704E+02  0.55850928655E+02  0.00000000000E+00 0.  1.
         11    1    5    5    0    0 -0.65616025968E+01 -0.95393787204E+01 -0.40596460756E+02  0.42215246072E+02  0.00000000000E+00 0. -1.
        -11    1    5    5    0    0  0.13265702598E+03 -0.37413452068E+03 -0.47512821160E+03  0.61912950468E+03  0.00000000000E+00 0.  1.
          3    1    6    6  503    0 -0.35587558402E+01  0.10160018862E+03 -0.69733865526E+03  0.70471019802E+03  0.00000000000E+00 0. -1.
         -3    1    6    6    0  503 -0.10195764462E+03  0.20116115375E+03 -0.10107531720E+04  0.10356076215E+04  0.00000000000E+00 0.  1.
<mgrwt>
<rscale>  0 0.12012718E+04</rscale>
<asrwt>0</asrwt>
<pdfrwt beam="1">  1        1 0.36406021E+00 0.12012718E+04</pdfrwt>
<pdfrwt beam="2">  1       -2 0.23454311E-01 0.12012718E+04</pdfrwt>
<totfact> 0.23555267E+01</totfact>
</mgrwt>
</event>
<event>
12    4  0.4398275E-008  0.2978851E+04  0.7818608E-02  0.8249796E-01
         -2   -1    0    0    0  501 -0.00000000000E+00  0.00000000000E+00  0.85802405971E+03  0.85802405971E+03  0.00000000000E+00 0.  1.
          1   -1    0    0  501    0  0.00000000000E+00 -0.00000000000E+00 -0.25854615216E+04  0.25854615216E+04  0.00000000000E+00 0. -1.
        -24    2    1    2    0    0  0.70621606727E+03  0.11441957045E+04 -0.65964334932E+03  0.14998366907E+04  0.80348033740E+02 0.  0.
        254    2    1    2    0    0 -0.70621606727E+03 -0.11441957045E+04 -0.10677941126E+04  0.19436488906E+04  0.91085772719E+03 0.  0.
         23    2    4    4    0    0 -0.18573322870E+02  0.68146281192E+02  0.76738314631E+02  0.13779329251E+03  0.90051865972E+02 0.  0.
         23    2    4    4    0    0 -0.68764274440E+03 -0.12123419857E+04 -0.11445324272E+04  0.18058555981E+04  0.92381437414E+02 0.  0.
          3    1    3    3  502    0  0.31995186445E+03  0.45444273167E+03 -0.29564512321E+03  0.62951841181E+03  0.00000000000E+00 0. -1.
         -4    1    3    3    0  502  0.38626420281E+03  0.68975297288E+03 -0.36399822611E+03  0.87031827889E+03  0.00000000000E+00 0.  1.
         11    1    5    5    0    0 -0.12871229954E+02 -0.21245562988E+02  0.18050129748E+02  0.30705857603E+02  0.00000000000E+00 0.  1.
        -11    1    5    5    0    0 -0.57020929162E+01  0.89391844180E+02  0.58688184883E+02  0.10708743490E+03  0.00000000000E+00 0. -1.
          1    1    6    6  503    0 -0.38580671178E+03 -0.60245561183E+03 -0.55331355213E+03  0.90440890644E+03  0.00000000000E+00 0. -1.
         -1    1    6    6    0  503 -0.30183603262E+03 -0.60988637390E+03 -0.59121887511E+03  0.90144669168E+03  0.00000000000E+00 0.  1.
<mgrwt>
<rscale>  0 0.29788509E+04</rscale>
<asrwt>0</asrwt>
<pdfrwt beam="1">  1        1 0.39776331E+00 0.29788509E+04</pdfrwt>
<pdfrwt beam="2">  1       -2 0.13200370E+00 0.29788509E+04</pdfrwt>
<totfact> 0.36999963E-01</totfact>
</mgrwt>
</event>
<event>
12    4  0.4398275E-008  0.1724783E+04  0.7818608E-02  0.8747355E-01
          1   -1    0    0  501    0  0.00000000000E+00  0.00000000000E+00  0.15430381689E+04  0.15430381689E+04  0.00000000000E+00 0. -1.
         -2   -1    0    0    0  501 -0.00000000000E+00 -0.00000000000E+00 -0.48198361111E+03  0.48198361111E+03  0.00000000000E+00 0.  1.
        -24    2    1    2    0    0  0.30067523320E+03  0.58601862275E+00  0.10300897207E+04  0.10762198554E+04  0.82209520445E+02 0.  0.
        254    2    1    2    0    0 -0.30067523320E+03 -0.58601862275E+00  0.30964837056E+02  0.94880192455E+03  0.89936662803E+03 0.  0.
         23    2    4    4    0    0 -0.23670351259E+03 -0.11373417138E+03 -0.40133704062E+03  0.48827890225E+03  0.91546991245E+02 0.  0.
         23    2    4    4    0    0 -0.63971720610E+02  0.11314815275E+03  0.43230187767E+03  0.46052302230E+03  0.91113418974E+02 0.  0.
          1    1    3    3  502    0  0.28592255215E+03  0.18763999909E+02  0.97799451235E+03  0.10191060100E+04  0.00000000000E+00 0. -1.
         -4    1    3    3    0  502  0.14752681050E+02 -0.18177981286E+02  0.52095208363E+02  0.57113845398E+02  0.00000000000E+00 0.  1.
         11    1    5    5    0    0 -0.18773000989E+03 -0.11841146993E+03 -0.27967215172E+03  0.35704389824E+03  0.00000000000E+00 0.  1.
        -11    1    5    5    0    0 -0.48973502698E+02  0.46772985496E+01 -0.12166488890E+03  0.13123500402E+03  0.00000000000E+00 0. -1.
          1    1    6    6  503    0 -0.77352388537E+02  0.46326764816E+02  0.22943060287E+03  0.24651158732E+03  0.00000000000E+00 0. -1.
         -1    1    6    6    0  503  0.13380667928E+02  0.66821387937E+02  0.20287127480E+03  0.21401143497E+03  0.00000000000E+00 0.  1.
<mgrwt>
<rscale>  0 0.17247830E+04</rscale>
<asrwt>0</asrwt>
<pdfrwt beam="1">  1        1 0.23739049E+00 0.17247830E+04</pdfrwt>
<pdfrwt beam="2">  1       -2 0.74151325E-01 0.17247830E+04</pdfrwt>
<totfact> 0.83356487E+00</totfact>
</mgrwt>
</event>
<event>
12    4  0.4398275E-008  0.1161623E+04  0.7818608E-02  0.9147128E-01
         -2   -1    0    0    0  501 -0.00000000000E+00  0.00000000000E+00  0.26267895913E+03  0.26267895913E+03  0.00000000000E+00 0.  1.
          1   -1    0    0  501    0  0.00000000000E+00 -0.00000000000E+00 -0.12842359994E+04  0.12842359994E+04  0.00000000000E+00 0. -1.
        -24    2    1    2    0    0 -0.20546880207E+03  0.29913311356E+02 -0.97847839371E+02  0.24274077792E+03  0.78972468454E+02 0.  0.
        254    2    1    2    0    0  0.20546880207E+03 -0.29913311356E+02 -0.92370920092E+03  0.13041741806E+04  0.89695003803E+03 0.  0.
         23    2    4    4    0    0  0.27013192909E+03  0.38185921725E+03 -0.36406404056E+03  0.60052403592E+03  0.96430136220E+02 0.  0.
         23    2    4    4    0    0 -0.64663127021E+02 -0.41177252860E+03 -0.55964516035E+03  0.70365014470E+03  0.90459302023E+02 0.  0.
          3    1    3    3  502    0 -0.42029392721E+02  0.24416617070E+02 -0.55577337233E+02  0.73834148303E+02  0.00000000000E+00 0. -1.
         -4    1    3    3    0  502 -0.16343940935E+03  0.54966942858E+01 -0.42270502138E+02  0.16890662962E+03  0.00000000000E+00 0.  1.
         11    1    5    5    0    0  0.18991337664E+02  0.36646652333E+02 -0.72934514326E+02  0.83803886625E+02  0.00000000000E+00 0. -1.
        -11    1    5    5    0    0  0.25114059143E+03  0.34521256492E+03 -0.29112952624E+03  0.51672014929E+03  0.00000000000E+00 0.  1.
          3    1    6    6  503    0  0.17833764670E+02 -0.24366883458E+02 -0.45892792726E+02  0.54935749707E+02  0.00000000000E+00 0. -1.
         -3    1    6    6    0  503 -0.82496891691E+02 -0.38740564515E+03 -0.51375236763E+03  0.64871439500E+03  0.00000000000E+00 0.  1.
<mgrwt>
<rscale>  0 0.11616226E+04</rscale>
<asrwt>0</asrwt>
<pdfrwt beam="1">  1        1 0.19757477E+00 0.11616226E+04</pdfrwt>
<pdfrwt beam="2">  1       -2 0.40412147E-01 0.11616226E+04</pdfrwt>
<totfact> 0.46830959E+01</totfact>
</mgrwt>
</event>
<event>
12    4  0.4398275E-008  0.1378989E+04  0.7818608E-02  0.8969169E-01
         -2   -1    0    0    0  501 -0.00000000000E+00  0.00000000000E+00  0.35838385858E+03  0.35838385858E+03  0.00000000000E+00 0.  1.
          1   -1    0    0  501    0  0.00000000000E+00 -0.00000000000E+00 -0.13265184407E+04  0.13265184407E+04  0.00000000000E+00 0. -1.
        -24    2    1    2    0    0 -0.31428213703E+03  0.13023305780E+03 -0.48414421823E+02  0.35272870359E+03  0.79622051604E+02 0.  0.
        254    2    1    2    0    0  0.31428213703E+03 -0.13023305780E+03 -0.91972016025E+03  0.13321735956E+04  0.90170250346E+03 0.  0.
         23    2    4    4    0    0  0.12537598017E+01 -0.39962040146E+03 -0.78926840956E+03  0.88890979676E+03  0.86706212357E+02 0.  0.
         23    2    4    4    0    0  0.31302837723E+03  0.26938734366E+03 -0.13045175069E+03  0.44326379888E+03  0.94386600055E+02 0.  0.
          3    1    3    3  502    0 -0.29773651422E+03  0.12590568626E+03 -0.25682827231E+02  0.32428210149E+03  0.00000000000E+00 0. -1.
         -4    1    3    3    0  502 -0.16545622803E+02  0.43273715363E+01 -0.22731594592E+02  0.28446602100E+02  0.00000000000E+00 0.  1.
         11    1    5    5    0    0  0.17180647482E+01 -0.37912191244E+03 -0.77812873202E+03  0.86557535769E+03  0.00000000000E+00 0. -1.
        -11    1    5    5    0    0 -0.46430494652E+00 -0.20498489015E+02 -0.11139677546E+02  0.23334439072E+02  0.00000000000E+00 0.  1.
          2    1    6    6  503    0  0.16667928418E+03  0.89133513669E+02 -0.82216995219E+02  0.20612229704E+03  0.00000000000E+00 0. -1.
         -2    1    6    6    0  503  0.14634909305E+03  0.18025382999E+03 -0.48234755467E+02  0.23714150185E+03  0.00000000000E+00 0.  1.
<mgrwt>
<rscale>  0 0.13789892E+04</rscale>
<asrwt>0</asrwt>
<pdfrwt beam="1">  1        1 0.20407976E+00 0.13789892E+04</pdfrwt>
<pdfrwt beam="2">  1       -2 0.55135978E-01 0.13789892E+04</pdfrwt>
<totfact> 0.22946943E+01</totfact>
</mgrwt>
</event>
<event>
12    4  0.4398275E-008  0.1667744E+04  0.7818608E-02  0.8779978E-01
         -2   -1    0    0    0  501 -0.00000000000E+00  0.00000000000E+00  0.14311486793E+04  0.14311486793E+04  0.00000000000E+00 0.  1.
          1   -1    0    0  501    0  0.00000000000E+00 -0.00000000000E+00 -0.48586345971E+03  0.48586345971E+03  0.00000000000E+00 0. -1.
        -24    2    1    2    0    0 -0.88253301994E+02 -0.55929710004E+03  0.15014532525E+03  0.59109543179E+03  0.79046184998E+02 0.  0.
        254    2    1    2    0    0  0.88253301994E+02  0.55929710004E+03  0.79513989431E+03  0.13259167072E+04  0.89733258686E+03 0.  0.
         23    2    4    4    0    0 -0.30896390972E+03 -0.43088095694E+02  0.32705959623E+03  0.46108343951E+03  0.91184851821E+02 0.  0.
         23    2    4    4    0    0  0.39721721172E+03  0.60238519573E+03  0.46808029807E+03  0.86483326767E+03  0.90487447202E+02 0.  0.
          1    1    3    3  502    0 -0.74599527731E+02 -0.49533278238E+03  0.10550761520E+03  0.51190967142E+03  0.00000000000E+00 0. -1.
         -4    1    3    3    0  502 -0.13653774263E+02 -0.63964317662E+02  0.44637710052E+02  0.79185760363E+02  0.00000000000E+00 0.  1.
         11    1    5    5    0    0 -0.18769362983E+03  0.12154553582E+02  0.22481602875E+03  0.29311922256E+03  0.00000000000E+00 0.  1.
        -11    1    5    5    0    0 -0.12127027990E+03 -0.55242649276E+02  0.10224356748E+03  0.16796421695E+03  0.00000000000E+00 0. -1.
          4    1    6    6  503    0  0.39217465656E+02  0.11503642537E+03  0.95396478344E+02  0.15450526482E+03  0.00000000000E+00 0. -1.
         -4    1    6    6    0  503  0.35799974606E+03  0.48734877036E+03  0.37268381973E+03  0.71032800285E+03  0.00000000000E+00 0.  1.
<mgrwt>
<rscale>  0 0.16677444E+04</rscale>
<asrwt>0</asrwt>
<pdfrwt beam="1">  1        1 0.74748226E-01 0.16677444E+04</pdfrwt>
<pdfrwt beam="2">  1       -2 0.22017672E+00 0.16677444E+04</pdfrwt>
<totfact> 0.37917629E+00</totfact>
</mgrwt>
</event>
<event>
12    4  0.4398275E-008  0.1337109E+04  0.7818608E-02  0.9000645E-01
          3   -1    0    0  501    0  0.00000000000E+00  0.00000000000E+00  0.83113673286E+03  0.83113673286E+03  0.00000000000E+00 0. -1.
         -4   -1    0    0    0  501 -0.00000000000E+00 -0.00000000000E+00 -0.53777527909E+03  0.53777527909E+03  0.00000000000E+00 0.  1.
        -24    2    1    2    0    0  0.93721616963E+02  0.23645340713E+03  0.33720032843E+03  0.43021565704E+03  0.81777104630E+02 0.  0.
        254    2    1    2    0    0 -0.93721616963E+02 -0.23645340713E+03 -0.43838874660E+02  0.93869635491E+03  0.90251595253E+03 0.  0.
         23    2    4    4    0    0  0.29804655385E+03 -0.13753516761E+03  0.25653281271E+03  0.42636712273E+03  0.90731299809E+02 0.  0.
         23    2    4    4    0    0 -0.39176817081E+03 -0.98918239517E+02 -0.30037168737E+03  0.51232923218E+03  0.94820745635E+02 0.  0.
          1    1    3    3  502    0  0.59397066415E+02  0.21119721923E+03  0.24642933513E+03  0.32993892483E+03  0.00000000000E+00 0. -1.
         -2    1    3    3    0  502  0.34324550548E+02  0.25256187900E+02  0.90770993296E+02  0.10027673220E+03  0.00000000000E+00 0.  1.
         11    1    5    5    0    0  0.13216873161E+03 -0.85587213614E+02  0.72912114756E+02  0.17352210588E+03  0.00000000000E+00 0.  1.
        -11    1    5    5    0    0  0.16587782224E+03 -0.51947953994E+02  0.18362069795E+03  0.25284501686E+03  0.00000000000E+00 0. -1.
          2    1    6    6  503    0 -0.21126847806E+03 -0.67740583532E+02 -0.21951048413E+03  0.31210256187E+03  0.00000000000E+00 0. -1.
         -2    1    6    6    0  503 -0.18049969275E+03 -0.31177655985E+02 -0.80861203232E+02  0.20022667031E+03  0.00000000000E+00 0.  1.
<mgrwt>
<rscale>  0 0.13371085E+04</rscale>
<asrwt>0</asrwt>
<pdfrwt beam="1">  1        3 0.12786719E+00 0.13371085E+04</pdfrwt>
<pdfrwt beam="2">  1       -4 0.82734658E-01 0.13371085E+04</pdfrwt>
<totfact> 0.13941043E+00</totfact>
</mgrwt>
</event>
<event>
12    4  0.4398275E-008  0.2106554E+04  0.7818608E-02  0.8558362E-01
         -2   -1    0    0    0  501 -0.00000000000E+00  0.00000000000E+00  0.12037274144E+04  0.12037274144E+04  0.00000000000E+00 0.  1.
          1   -1    0    0  501    0  0.00000000000E+00 -0.00000000000E+00 -0.92163096504E+03  0.92163096504E+03  0.00000000000E+00 0. -1.
        -24    2    1    2    0    0 -0.72823296498E+03 -0.27382329502E+03  0.48123463168E+03  0.91831770620E+03  0.80113610638E+02 0.  0.
        254    2    1    2    0    0  0.72823296498E+03  0.27382329502E+03 -0.19913818228E+03  0.12070406733E+04  0.90110416888E+03 0.  0.
         23    2    4    4    0    0  0.67849651716E+03 -0.11601923845E+03 -0.34813168856E+03  0.77690487547E+03  0.92560928415E+02 0.  0.
         23    2    4    4    0    0  0.49736447814E+02  0.38984253346E+03  0.14899350628E+03  0.43013579782E+03  0.91470347750E+02 0.  0.
          3    1    3    3  502    0 -0.15843986992E+02 -0.83858617561E+01 -0.11390593085E+01  0.17962518123E+02  0.00000000000E+00 0. -1.
         -2    1    3    3    0  502 -0.71238897798E+03 -0.26543743326E+03  0.48237369099E+03  0.90035518807E+03  0.00000000000E+00 0.  1.
         11    1    5    5    0    0  0.63081514153E+02 -0.37642294725E+02 -0.26423717893E+02  0.78066847300E+02  0.00000000000E+00 0. -1.
        -11    1    5    5    0    0  0.61541500301E+03 -0.78376943721E+02 -0.32170797066E+03  0.69883802818E+03  0.00000000000E+00 0.  1.
          1    1    6    6  503    0  0.10017601021E+02  0.52899769807E+02  0.57432148264E+02  0.78722230850E+02  0.00000000000E+00 0. -1.
         -1    1    6    6    0  503  0.39718846793E+02  0.33694276366E+03  0.91561358015E+02  0.35141356697E+03  0.00000000000E+00 0.  1.
<mgrwt>
<rscale>  0 0.21065540E+04</rscale>
<asrwt>0</asrwt>
<pdfrwt beam="1">  1        1 0.14178938E+00 0.21065540E+04</pdfrwt>
<pdfrwt beam="2">  1       -2 0.18518883E+00 0.21065540E+04</pdfrwt>
<totfact> 0.23509081E+00</totfact>
</mgrwt>
</event>
<event>
12    4  0.4398275E-008  0.1367749E+04  0.7818608E-02  0.8977500E-01
          1   -1    0    0  501    0  0.00000000000E+00  0.00000000000E+00  0.58635680027E+03  0.58635680027E+03  0.00000000000E+00 0. -1.
         -2   -1    0    0    0  501 -0.00000000000E+00 -0.00000000000E+00 -0.79761042041E+03  0.79761042041E+03  0.00000000000E+00 0.  1.
        -24    2    1    2    0    0  0.28299532697E+02 -0.76342607514E+01 -0.45414341994E+03  0.46216422877E+03  0.80562913241E+02 0.  0.
        254    2    1    2    0    0 -0.28299532697E+02  0.76342607514E+01  0.24288979980E+03  0.92180299191E+03  0.88874414516E+03 0.  0.
         23    2    4    4    0    0  0.12084125754E+03 -0.55194830198E+02  0.54478260972E+03  0.56793728661E+03  0.90086574298E+02 0.  0.
         23    2    4    4    0    0 -0.14914079024E+03  0.62829090949E+02 -0.30189280992E+03  0.35386570529E+03  0.88832419303E+02 0.  0.
          1    1    3    3  502    0 -0.27261559122E+02  0.16760503219E+01 -0.10445152247E+03  0.10796352300E+03  0.00000000000E+00 0. -1.
         -2    1    3    3    0  502  0.55561091820E+02 -0.93103110733E+01 -0.34969189747E+03  0.35420070577E+03  0.00000000000E+00 0.  1.
         11    1    5    5    0    0  0.72965518785E+01 -0.91086921027E+01  0.24401401851E+01  0.11923180166E+02  0.00000000000E+00 0.  1.
        -11    1    5    5    0    0  0.11354470566E+03 -0.46086138095E+02  0.54234246954E+03  0.55601410645E+03  0.00000000000E+00 0. -1.
          4    1    6    6  503    0 -0.28772748497E+02  0.15123697992E+02 -0.15360428451E+03  0.15700596650E+03  0.00000000000E+00 0. -1.
         -4    1    6    6    0  503 -0.12036804174E+03  0.47705392957E+02 -0.14828852541E+03  0.19685973880E+03  0.00000000000E+00 0.  1.
<mgrwt>
<rscale>  0 0.13677489E+04</rscale>
<asrwt>0</asrwt>
<pdfrwt beam="1">  1        1 0.90208738E-01 0.13677489E+04</pdfrwt>
<pdfrwt beam="2">  1       -2 0.12270930E+00 0.13677489E+04</pdfrwt>
<totfact> 0.15204252E+01</totfact>
</mgrwt>
</event>
<event>
12    4  0.4398275E-008  0.1256630E+04  0.7818608E-02  0.9064683E-01
         -2   -1    0    0    0  501 -0.00000000000E+00  0.00000000000E+00  0.35657076822E+03  0.35657076822E+03  0.00000000000E+00 0.  1.
          1   -1    0    0  501    0  0.00000000000E+00 -0.00000000000E+00 -0.11071560371E+04  0.11071560371E+04  0.00000000000E+00 0. -1.
        -24    2    1    2    0    0 -0.25880394475E+03  0.94947800546E+02 -0.11874090580E+03  0.31115776640E+03  0.82007232832E+02 0.  0.
        254    2    1    2    0    0  0.25880394475E+03 -0.94947800546E+02 -0.63184436309E+03  0.11525690389E+04  0.92368475340E+03 0.  0.
         23    2    4    4    0    0  0.10366396478E+02  0.21051253565E+03  0.14824604806E+03  0.27396038990E+03  0.93029106354E+02 0.  0.
         23    2    4    4    0    0  0.24843754827E+03 -0.30546033619E+03 -0.78009041115E+03  0.87860864902E+03  0.91568969559E+02 0.  0.
          3    1    3    3  502    0 -0.11350840198E+03  0.12154321071E+02 -0.80290624512E+02  0.13956528661E+03  0.00000000000E+00 0. -1.
         -4    1    3    3    0  502 -0.14529554277E+03  0.82793479474E+02 -0.38450281288E+02  0.17159247980E+03  0.00000000000E+00 0.  1.
         11    1    5    5    0    0  0.36595777192E+02  0.15642241929E+03  0.14036889735E+03  0.21333225614E+03  0.00000000000E+00 0. -1.
        -11    1    5    5    0    0 -0.26229380715E+02  0.54090116361E+02  0.78771507057E+01  0.60628133765E+02  0.00000000000E+00 0.  1.
          3    1    6    6  503    0  0.18371580666E+03 -0.27871934940E+03 -0.65901607031E+03  0.73874092500E+03  0.00000000000E+00 0. -1.
         -3    1    6    6    0  503  0.64721741613E+02 -0.26740986794E+02 -0.12107434084E+03  0.13986772402E+03  0.00000000000E+00 0.  1.
<mgrwt>
<rscale>  0 0.12566296E+04</rscale>
<asrwt>0</asrwt>
<pdfrwt beam="1">  1        1 0.17033170E+00 0.12566296E+04</pdfrwt>
<pdfrwt beam="2">  1       -2 0.54857040E-01 0.12566296E+04</pdfrwt>
<totfact> 0.33830809E+01</totfact>
</mgrwt>
</event>
<event>
12    4  0.4398275E-008  0.1468613E+04  0.7818608E-02  0.8905598E-01
          1   -1    0    0  501    0  0.00000000000E+00  0.00000000000E+00  0.11840215897E+04  0.11840215897E+04  0.00000000000E+00 0. -1.
         -2   -1    0    0    0  501 -0.00000000000E+00 -0.00000000000E+00 -0.45540193303E+03  0.45540193303E+03  0.00000000000E+00 0.  1.
        -24    2    1    2    0    0  0.28272645132E+03 -0.11948018788E+03 -0.14207765719E+03  0.34788872096E+03  0.81429355427E+02 0.  0.
        254    2    1    2    0    0 -0.28272645132E+03  0.11948018788E+03  0.87069731381E+03  0.12915348017E+04  0.90318246785E+03 0.  0.
         23    2    4    4    0    0 -0.24435799863E+00 -0.20434959983E+03  0.81921289632E+03  0.84928734654E+03  0.91762785745E+02 0.  0.
         23    2    4    4    0    0 -0.28248209332E+03  0.32382978771E+03  0.51484417494E+02  0.44224745519E+03  0.90941200359E+02 0.  0.
          1    1    3    3  502    0  0.32093605502E+02 -0.76021609293E+01  0.95301792884E+01  0.34330987201E+02  0.00000000000E+00 0. -1.
         -2    1    3    3    0  502  0.25063284582E+03 -0.11187802695E+03 -0.15160783648E+03  0.31355773376E+03  0.00000000000E+00 0.  1.
         11    1    5    5    0    0 -0.40507047417E+02 -0.11676161474E+03  0.37893678350E+03  0.39858146151E+03  0.00000000000E+00 0. -1.
        -11    1    5    5    0    0  0.40262689418E+02 -0.87587985089E+02  0.44027611281E+03  0.45070588503E+03  0.00000000000E+00 0.  1.
          1    1    6    6  503    0 -0.44933174093E+02  0.87838671589E+02 -0.17937599980E+02  0.10028150305E+03  0.00000000000E+00 0. -1.
         -1    1    6    6    0  503 -0.23754891923E+03  0.23599111612E+03  0.69422017475E+02  0.34196595214E+03  0.00000000000E+00 0.  1.
<mgrwt>
<rscale>  0 0.14686126E+04</rscale>
<asrwt>0</asrwt>
<pdfrwt beam="1">  1        1 0.18215717E+00 0.14686126E+04</pdfrwt>
<pdfrwt beam="2">  1       -2 0.70061836E-01 0.14686126E+04</pdfrwt>
<totfact> 0.17323942E+01</totfact>
</mgrwt>
</event>
<event>
12    4  0.4398275E-008  0.1618577E+04  0.7818608E-02  0.8809216E-01
          1   -1    0    0  501    0  0.00000000000E+00  0.00000000000E+00  0.79697867790E+03  0.79697867790E+03  0.00000000000E+00 0. -1.
         -2   -1    0    0    0  501 -0.00000000000E+00 -0.00000000000E+00 -0.82178854696E+03  0.82178854696E+03  0.00000000000E+00 0.  1.
        -24    2    1    2    0    0 -0.22556102882E+03 -0.39561170702E+03  0.29401889990E+03  0.54797019985E+03  0.80236064070E+02 0.  0.
        254    2    1    2    0    0  0.22556102882E+03  0.39561170702E+03 -0.31882876895E+03  0.10707970250E+04  0.91518745861E+03 0.  0.
         23    2    4    4    0    0 -0.32849717351E+03  0.19607629663E+02 -0.55929239961E+02  0.34634685076E+03  0.92375370103E+02 0.  0.
         23    2    4    4    0    0  0.55405820233E+03  0.37600407735E+03 -0.26289952899E+03  0.72445017425E+03  0.85745757139E+02 0.  0.
          3    1    3    3  502    0 -0.21715532213E+03 -0.36417730426E+03  0.29304054676E+03  0.51541663236E+03  0.00000000000E+00 0. -1.
         -2    1    3    3    0  502 -0.84057066970E+01 -0.31434402751E+02  0.97835313377E+00  0.32553567489E+02  0.00000000000E+00 0.  1.
         11    1    5    5    0    0 -0.19923258539E+03  0.38535371328E+02 -0.70661348868E+02  0.21487583426E+03  0.00000000000E+00 0. -1.
        -11    1    5    5    0    0 -0.12926458812E+03 -0.18927741664E+02  0.14732108907E+02  0.13147101650E+03  0.00000000000E+00 0.  1.
          1    1    6    6  503    0  0.32384610579E+03  0.22468361476E+03 -0.10928847665E+03  0.40902689167E+03  0.00000000000E+00 0. -1.
         -1    1    6    6    0  503  0.23021209654E+03  0.15132046259E+03 -0.15361105234E+03  0.31542328258E+03  0.00000000000E+00 0.  1.
<mgrwt>
<rscale>  0 0.16185771E+04</rscale>
<asrwt>0</asrwt>
<pdfrwt beam="1">  1        1 0.12261210E+00 0.16185771E+04</pdfrwt>
<pdfrwt beam="2">  1       -2 0.12642901E+00 0.16185771E+04</pdfrwt>
<totfact> 0.86971216E+00</totfact>
</mgrwt>
</event>
<event>
12    4  0.4398275E-008  0.2366674E+04  0.7818608E-02  0.8452087E-01
          1   -1    0    0  501    0  0.00000000000E+00  0.00000000000E+00  0.19293302501E+04  0.19293302501E+04  0.00000000000E+00 0. -1.
         -2   -1    0    0    0  501 -0.00000000000E+00 -0.00000000000E+00 -0.72578900884E+03  0.72578900884E+03  0.00000000000E+00 0.  1.
        -24    2    1    2    0    0 -0.24150912847E+03 -0.80507121033E+03  0.11357415884E+04  0.14151877046E+04  0.79880978826E+02 0.  0.
        254    2    1    2    0    0  0.24150912847E+03  0.80507121033E+03  0.67799652866E+02  0.12399315544E+04  0.90904738805E+03 0.  0.
         23    2    4    4    0    0  0.55044398017E+03  0.34374095126E+03 -0.74337191655E+02  0.65972912113E+03  0.92574717556E+02 0.  0.
         23    2    4    4    0    0 -0.30893485170E+03  0.46133025907E+03  0.14213684452E+03  0.58020243323E+03  0.90363877872E+02 0.  0.
          3    1    3    3  502    0 -0.15669776963E+03 -0.44000928282E+03  0.57633205743E+03  0.74183623557E+03  0.00000000000E+00 0. -1.
         -4    1    3    3    0  502 -0.84811358840E+02 -0.36506192751E+03  0.55940953097E+03  0.67335146903E+03  0.00000000000E+00 0.  1.
         11    1    5    5    0    0  0.33472703167E+03  0.15979357849E+03 -0.61203625120E+02  0.37592826069E+03  0.00000000000E+00 0. -1.
        -11    1    5    5    0    0  0.21571694850E+03  0.18394737277E+03 -0.13133566535E+02  0.28380086044E+03  0.00000000000E+00 0.  1.
          3    1    6    6  503    0 -0.17625339370E+02  0.79378818601E+02  0.31953847791E+02  0.87365312447E+02  0.00000000000E+00 0. -1.
         -3    1    6    6    0  503 -0.29130951233E+03  0.38195144047E+03  0.11018299673E+03  0.49283712078E+03  0.00000000000E+00 0.  1.
<mgrwt>
<rscale>  0 0.23666742E+04</rscale>
<asrwt>0</asrwt>
<pdfrwt beam="1">  1        1 0.29682004E+00 0.23666742E+04</pdfrwt>
<pdfrwt beam="2">  1       -2 0.11165985E+00 0.23666742E+04</pdfrwt>
<totfact> 0.16647184E+00</totfact>
</mgrwt>
</event>
<event>
12    4  0.4398275E-008  0.1199777E+04  0.7818608E-02  0.9113051E-01
          3   -1    0    0  501    0  0.00000000000E+00  0.00000000000E+00  0.10531916372E+04  0.10531916372E+04  0.00000000000E+00 0. -1.
         -4   -1    0    0    0  501 -0.00000000000E+00 -0.00000000000E+00 -0.34169135245E+03  0.34169135245E+03  0.00000000000E+00 0.  1.
        -24    2    1    2    0    0  0.17578413356E+03 -0.10228008006E+03 -0.12666863967E+02  0.21837392889E+03  0.78520360333E+02 0.  0.
        254    2    1    2    0    0 -0.17578413356E+03  0.10228008006E+03  0.72416714869E+03  0.11765090607E+04  0.90465144358E+03 0.  0.
         23    2    4    4    0    0 -0.43871997267E+03 -0.12792322643E+03  0.66250366648E+03  0.80987603869E+03  0.90269173367E+02 0.  0.
         23    2    4    4    0    0  0.26293583911E+03  0.23020330649E+03  0.61663482216E+02  0.36663302205E+03  0.92133435903E+02 0.  0.
          1    1    3    3  502    0 -0.34328706643E+01 -0.13001758098E+02  0.10159582143E+02  0.16853706535E+02  0.00000000000E+00 0. -1.
         -2    1    3    3    0  502  0.17921700422E+03 -0.89278321967E+02 -0.22826446110E+02  0.20152022236E+03  0.00000000000E+00 0.  1.
         11    1    5    5    0    0 -0.34094742133E+03 -0.11421215372E+03  0.45369485231E+03  0.57890290998E+03  0.00000000000E+00 0. -1.
        -11    1    5    5    0    0 -0.97772551340E+02 -0.13711072707E+02  0.20880881417E+03  0.23097312870E+03  0.00000000000E+00 0.  1.
          3    1    6    6  503    0  0.25940801405E+03  0.22958233507E+03  0.44685414757E+02  0.34928119420E+03  0.00000000000E+00 0. -1.
         -3    1    6    6    0  503  0.35278250582E+01  0.62097142384E+00  0.16978067459E+02  0.17351827852E+02  0.00000000000E+00 0.  1.
<mgrwt>
<rscale>  0 0.11997774E+04</rscale>
<asrwt>0</asrwt>
<pdfrwt beam="1">  1        3 0.16202948E+00 0.11997774E+04</pdfrwt>
<pdfrwt beam="2">  1       -4 0.52567901E-01 0.11997774E+04</pdfrwt>
<totfact> 0.20739876E+00</totfact>
</mgrwt>
</event>
<event>
12    4  0.4398275E-008  0.1671762E+04  0.7818608E-02  0.8777635E-01
          1   -1    0    0  501    0  0.00000000000E+00  0.00000000000E+00  0.11256852034E+04  0.11256852034E+04  0.00000000000E+00 0. -1.
         -2   -1    0    0    0  501 -0.00000000000E+00 -0.00000000000E+00 -0.62068610367E+03  0.62068610367E+03  0.00000000000E+00 0.  1.
        -24    2    1    2    0    0 -0.55364204782E+03  0.13958718218E+03  0.33978775077E+03  0.67009022277E+03  0.86954542880E+02 0.  0.
        254    2    1    2    0    0  0.55364204782E+03 -0.13958718218E+03  0.16521134900E+03  0.10762810843E+04  0.89726366477E+03 0.  0.
         23    2    4    4    0    0  0.34993300618E+03 -0.16125869804E+03  0.52149963346E+03  0.65517326767E+03  0.93982266745E+02 0.  0.
         23    2    4    4    0    0  0.20370904164E+03  0.21671515870E+02 -0.35628828446E+03  0.42110781666E+03  0.91779209862E+02 0.  0.
          1    1    3    3  502    0 -0.44521556730E+03  0.76224882768E+02  0.25725435644E+03  0.51981433034E+03  0.00000000000E+00 0. -1.
         -2    1    3    3    0  502 -0.10842648053E+03  0.63362299407E+02  0.82533394338E+02  0.15027589243E+03  0.00000000000E+00 0.  1.
         11    1    5    5    0    0  0.20958601734E+03 -0.11495339576E+03  0.38958787274E+03  0.45707689993E+03  0.00000000000E+00 0. -1.
        -11    1    5    5    0    0  0.14034698885E+03 -0.46305302289E+02  0.13191176072E+03  0.19809636775E+03  0.00000000000E+00 0.  1.
          2    1    6    6  503    0  0.18495889748E+03  0.48486708355E+02 -0.29318807765E+03  0.35002857529E+03  0.00000000000E+00 0. -1.
         -2    1    6    6    0  503  0.18750144158E+02 -0.26815192485E+02 -0.63100206816E+02  0.71079241373E+02  0.00000000000E+00 0.  1.
<mgrwt>
<rscale>  0 0.16717621E+04</rscale>
<asrwt>0</asrwt>
<pdfrwt beam="1">  1        1 0.17318234E+00 0.16717621E+04</pdfrwt>
<pdfrwt beam="2">  1       -2 0.95490170E-01 0.16717621E+04</pdfrwt>
<totfact> 0.93420181E+00</totfact>
</mgrwt>
</event>
<event>
12    4  0.4398275E-008  0.1473789E+04  0.7818608E-02  0.8902073E-01
          1   -1    0    0  501    0  0.00000000000E+00  0.00000000000E+00  0.81439869661E+03  0.81439869661E+03  0.00000000000E+00 0. -1.
         -2   -1    0    0    0  501 -0.00000000000E+00 -0.00000000000E+00 -0.66676576268E+03  0.66676576268E+03  0.00000000000E+00 0.  1.
        -24    2    1    2    0    0 -0.36458738167E+03  0.57638721750E+01 -0.22732216830E+03  0.43506748022E+03  0.68199435827E+02 0.  0.
        254    2    1    2    0    0  0.36458738167E+03 -0.57638721750E+01  0.37495510223E+03  0.10460969791E+04  0.90596378506E+03 0.  0.
         23    2    4    4    0    0 -0.62874993916E+02  0.26003241769E+03  0.44746932520E+03  0.52932902340E+03  0.91598552975E+02 0.  0.
         23    2    4    4    0    0  0.42746237559E+03 -0.26579628987E+03 -0.72514222972E+02  0.51676795567E+03  0.91755420682E+02 0.  0.
          1    1    3    3  502    0 -0.33877307338E-01 -0.61133918544E+01 -0.25419081362E+01  0.66208764231E+01  0.00000000000E+00 0. -1.
         -2    1    3    3    0  502 -0.36455350437E+03  0.11877264029E+02 -0.22478026016E+03  0.42844660380E+03  0.00000000000E+00 0.  1.
         11    1    5    5    0    0 -0.64898805851E+01  0.68367914513E+02  0.19890276857E+03  0.21042481230E+03  0.00000000000E+00 0.  1.
        -11    1    5    5    0    0 -0.56385113331E+02  0.19166450318E+03  0.24856655663E+03  0.31890421110E+03  0.00000000000E+00 0. -1.
          2    1    6    6  503    0  0.29445959689E+03 -0.17255761001E+03 -0.62786799898E+01  0.34135319656E+03  0.00000000000E+00 0. -1.
         -2    1    6    6    0  503  0.13300277869E+03 -0.93238679858E+02 -0.66235542982E+02  0.17541475912E+03  0.00000000000E+00 0.  1.
<mgrwt>
<rscale>  0 0.14737885E+04</rscale>
<asrwt>0</asrwt>
<pdfrwt beam="1">  1        1 0.12529211E+00 0.14737885E+04</pdfrwt>
<pdfrwt beam="2">  1       -2 0.10257935E+00 0.14737885E+04</pdfrwt>
<totfact> 0.14181818E+01</totfact>
</mgrwt>
</event>
<event>
12    4  0.4398275E-008  0.2511998E+04  0.7818608E-02  0.8398724E-01
          1   -1    0    0  501    0  0.00000000000E+00  0.00000000000E+00  0.18387949038E+04  0.18387949038E+04  0.00000000000E+00 0. -1.
         -2   -1    0    0    0  501 -0.00000000000E+00 -0.00000000000E+00 -0.85791689830E+03  0.85791689830E+03  0.00000000000E+00 0.  1.
        -24    2    1    2    0    0 -0.46975064759E+03 -0.98606993152E+03  0.48675308336E+03  0.11987936393E+04  0.84723341812E+02 0.  0.
        254    2    1    2    0    0  0.46975064759E+03  0.98606993152E+03  0.49412492214E+03  0.14979181628E+04  0.89810901515E+03 0.  0.
         23    2    4    4    0    0 -0.89484829509E+02  0.85410638066E+02  0.40178251948E+03  0.42982070618E+03  0.89521699561E+02 0.  0.
         23    2    4    4    0    0  0.55923547710E+03  0.90065929345E+03  0.92342402664E+02  0.10680974567E+04  0.91507244774E+02 0.  0.
          3    1    3    3  502    0 -0.12474225510E+03 -0.27674875794E+03  0.17686146715E+03  0.35132674790E+03  0.00000000000E+00 0. -1.
         -4    1    3    3    0  502 -0.34500839249E+03 -0.70932117358E+03  0.30989161621E+03  0.84746689137E+03  0.00000000000E+00 0.  1.
         11    1    5    5    0    0  0.15578948603E+02 -0.19098084669E+01  0.32855708767E+02  0.36412204088E+02  0.00000000000E+00 0.  1.
        -11    1    5    5    0    0 -0.10506377811E+03  0.87320446533E+02  0.36892681071E+03  0.39340850209E+03  0.00000000000E+00 0. -1.
          2    1    6    6  503    0  0.37046776586E+03  0.51427878895E+03  0.66381042689E+02  0.63728759688E+03  0.00000000000E+00 0. -1.
         -2    1    6    6    0  503  0.18876771124E+03  0.38638050451E+03  0.25961359975E+02  0.43080985977E+03  0.00000000000E+00 0.  1.
<mgrwt>
<rscale>  0 0.25119978E+04</rscale>
<asrwt>0</asrwt>
<pdfrwt beam="1">  1        1 0.28289152E+00 0.25119978E+04</pdfrwt>
<pdfrwt beam="2">  1       -2 0.13198722E+00 0.25119978E+04</pdfrwt>
<totfact> 0.12493023E+00</totfact>
</mgrwt>
</event>
<event>
12    4  0.4398275E-008  0.1701531E+04  0.7818608E-02  0.8760491E-01
          1   -1    0    0  501    0  0.00000000000E+00  0.00000000000E+00  0.10795153430E+04  0.10795153430E+04  0.00000000000E+00 0. -1.
         -2   -1    0    0    0  501 -0.00000000000E+00 -0.00000000000E+00 -0.67048821091E+03  0.67048821091E+03  0.00000000000E+00 0.  1.
        -24    2    1    2    0    0  0.44807137728E+03 -0.14834773330E+03  0.54485770232E+03  0.72547592704E+03  0.81672491211E+02 0.  0.
        254    2    1    2    0    0 -0.44807137728E+03  0.14834773330E+03 -0.13583057025E+03  0.10245276269E+04  0.89912841422E+03 0.  0.
         23    2    4    4    0    0 -0.29101590816E+03 -0.26539352488E+03  0.21016154574E+03  0.45551285713E+03  0.90554435846E+02 0.  0.
         23    2    4    4    0    0 -0.15705546912E+03  0.41374125818E+03 -0.34599211599E+03  0.56901476973E+03  0.90658781891E+02 0.  0.
          3    1    3    3  502    0  0.18377801714E+03 -0.81449531318E+02  0.17866361322E+03  0.26894064851E+03  0.00000000000E+00 0. -1.
         -4    1    3    3    0  502  0.26429336015E+03 -0.66898201984E+02  0.36619408910E+03  0.45653527852E+03  0.00000000000E+00 0.  1.
         11    1    5    5    0    0 -0.18008521092E+03 -0.18802173846E+03  0.92650550716E+02  0.27634576508E+03  0.00000000000E+00 0.  1.
        -11    1    5    5    0    0 -0.11093069724E+03 -0.77371786419E+02  0.11751099503E+03  0.17916709206E+03  0.00000000000E+00 0. -1.
          1    1    6    6  503    0 -0.16683049332E+03  0.39562858016E+03 -0.31815018248E+03  0.53439117279E+03  0.00000000000E+00 0. -1.
         -1    1    6    6    0  503  0.97750242006E+01  0.18112678020E+02 -0.27841933507E+02  0.34623596933E+02  0.00000000000E+00 0.  1.
<mgrwt>
<rscale>  0 0.17015314E+04</rscale>
<asrwt>0</asrwt>
<pdfrwt beam="1">  1        1 0.16607928E+00 0.17015314E+04</pdfrwt>
<pdfrwt beam="2">  1       -2 0.10315203E+00 0.17015314E+04</pdfrwt>
<totfact> 0.84089890E+00</totfact>
</mgrwt>
</event>
<event>
12    4  0.4398275E-008  0.1163447E+04  0.7818608E-02  0.9145467E-01
         -2   -1    0    0    0  501 -0.00000000000E+00  0.00000000000E+00  0.25100201281E+03  0.25100201281E+03  0.00000000000E+00 0.  1.
          1   -1    0    0  501    0  0.00000000000E+00 -0.00000000000E+00 -0.13482058126E+04  0.13482058126E+04  0.00000000000E+00 0. -1.
        -24    2    1    2    0    0  0.20064986381E+03  0.72293738401E+02 -0.13160919771E+03  0.26312727801E+03  0.80176249916E+02 0.  0.
        254    2    1    2    0    0 -0.20064986381E+03 -0.72293738401E+02 -0.96559460207E+03  0.13360805474E+04  0.89847178093E+03 0.  0.
         23    2    4    4    0    0 -0.20120945683E+03  0.36744818351E+03 -0.68204396492E+03  0.80588396610E+03  0.93603331401E+02 0.  0.
         23    2    4    4    0    0  0.55959301473E+00 -0.43974192191E+03 -0.28355063715E+03  0.53019658130E+03  0.85639826967E+02 0.  0.
          1    1    3    3  502    0  0.45932997543E+02  0.14096392612E+01 -0.66675973607E+02  0.80978471229E+02  0.00000000000E+00 0. -1.
         -2    1    3    3    0  502  0.15471686627E+03  0.70884099140E+02 -0.64933224106E+02  0.18214880678E+03  0.00000000000E+00 0.  1.
         11    1    5    5    0    0 -0.98706870442E+02  0.24052042576E+03 -0.48293747871E+03  0.54847217780E+03  0.00000000000E+00 0. -1.
        -11    1    5    5    0    0 -0.10250258638E+03  0.12692775775E+03 -0.19910648621E+03  0.25741178830E+03  0.00000000000E+00 0.  1.
          1    1    6    6  503    0  0.21398449327E+01 -0.35976986323E+03 -0.26821553549E+03  0.44875216646E+03  0.00000000000E+00 0. -1.
         -1    1    6    6    0  503 -0.15802519180E+01 -0.79972058684E+02 -0.15335101666E+02  0.81444414844E+02  0.00000000000E+00 0.  1.
<mgrwt>
<rscale>  0 0.11634472E+04</rscale>
<asrwt>0</asrwt>
<pdfrwt beam="1">  1        1 0.20741628E+00 0.11634472E+04</pdfrwt>
<pdfrwt beam="2">  1       -2 0.38615695E-01 0.11634472E+04</pdfrwt>
<totfact> 0.46080888E+01</totfact>
</mgrwt>
</event>
<event>
12    4  0.4398275E-008  0.1470451E+04  0.7818608E-02  0.8904344E-01
          1   -1    0    0  501    0  0.00000000000E+00  0.00000000000E+00  0.72157607890E+03  0.72157607890E+03  0.00000000000E+00 0. -1.
         -2   -1    0    0    0  501 -0.00000000000E+00 -0.00000000000E+00 -0.74913350802E+03  0.74913350802E+03  0.00000000000E+00 0.  1.
        -24    2    1    2    0    0  0.41754853676E+03  0.16341354772E+03  0.43670018909E+02  0.45763376760E+03  0.80441448073E+02 0.  0.
        254    2    1    2    0    0 -0.41754853676E+03 -0.16341354772E+03 -0.71227448028E+02  0.10130758193E+04  0.90564810949E+03 0.  0.
         23    2    4    4    0    0  0.19772649608E+03  0.11814428498E+03  0.15682511663E+03  0.29326525061E+03  0.91414171140E+02 0.  0.
         23    2    4    4    0    0 -0.61527503283E+03 -0.28155783270E+03 -0.22805256465E+03  0.71981056872E+03  0.91000568193E+02 0.  0.
          1    1    3    3  502    0  0.37827159240E+03  0.12161119109E+03  0.28821099121E+02  0.39838340222E+03  0.00000000000E+00 0. -1.
         -2    1    3    3    0  502  0.39276944361E+02  0.41802356631E+02  0.14848919788E+02  0.59250365376E+02  0.00000000000E+00 0.  1.
         11    1    5    5    0    0  0.63091161033E+02  0.33717880269E+02  0.22491702694E+01  0.71571284865E+02  0.00000000000E+00 0. -1.
        -11    1    5    5    0    0  0.13463533504E+03  0.84426404713E+02  0.15457594636E+03  0.22169396574E+03  0.00000000000E+00 0.  1.
          3    1    6    6  503    0 -0.42873532846E+03 -0.23959251372E+03 -0.15320232395E+03  0.51447984077E+03  0.00000000000E+00 0. -1.
         -3    1    6    6    0  503 -0.18653970437E+03 -0.41965318983E+02 -0.74850240703E+02  0.20533072795E+03  0.00000000000E+00 0.  1.
<mgrwt>
<rscale>  0 0.14704514E+04</rscale>
<asrwt>0</asrwt>
<pdfrwt beam="1">  1        1 0.11101170E+00 0.14704514E+04</pdfrwt>
<pdfrwt beam="2">  1       -2 0.11525131E+00 0.14704514E+04</pdfrwt>
<totfact> 0.12949786E+01</totfact>
</mgrwt>
</event>
<event>
12    4  0.4398275E-008  0.2395744E+04  0.7818608E-02  0.8441099E-01
          1   -1    0    0  501    0  0.00000000000E+00  0.00000000000E+00  0.81096231912E+03  0.81096231912E+03  0.00000000000E+00 0. -1.
         -2   -1    0    0    0  501 -0.00000000000E+00 -0.00000000000E+00 -0.17693763246E+04  0.17693763246E+04  0.00000000000E+00 0.  1.
        -24    2    1    2    0    0 -0.85061997057E+03 -0.48221048879E+03 -0.74347976462E+03  0.12305845921E+04  0.74128186090E+02 0.  0.
        254    2    1    2    0    0  0.85061997057E+03  0.48221048879E+03 -0.21493424088E+03  0.13497540517E+04  0.90529441747E+03 0.  0.
         23    2    4    4    0    0  0.39144362169E+03  0.69726606941E+03 -0.22076382530E+03  0.83440728527E+03  0.89948711147E+02 0.  0.
         23    2    4    4    0    0  0.45917634888E+03 -0.21505558062E+03  0.58295844205E+01  0.51534676642E+03  0.91959140231E+02 0.  0.
          1    1    3    3  502    0 -0.10163954885E+03 -0.42764891428E+02 -0.60316596649E+02  0.12568820812E+03  0.00000000000E+00 0. -1.
         -2    1    3    3    0  502 -0.74898042173E+03 -0.43944559736E+03 -0.68316316797E+03  0.11048963839E+04  0.00000000000E+00 0.  1.
         11    1    5    5    0    0  0.28985578548E+03  0.52490593781E+03 -0.20509516628E+03  0.63372442525E+03  0.00000000000E+00 0. -1.
        -11    1    5    5    0    0  0.10158783621E+03  0.17236013160E+03 -0.15668659021E+02  0.20068286002E+03  0.00000000000E+00 0.  1.
          3    1    6    6  503    0  0.22575504395E+03 -0.56949270055E+02 -0.93066488113E+01  0.23301324628E+03  0.00000000000E+00 0. -1.
         -3    1    6    6    0  503  0.23342130493E+03 -0.15810631057E+03  0.15136233232E+02  0.28233352014E+03  0.00000000000E+00 0.  1.
<mgrwt>
<rscale>  0 0.23957442E+04</rscale>
<asrwt>0</asrwt>
<pdfrwt beam="1">  1        1 0.12476343E+00 0.23957442E+04</pdfrwt>
<pdfrwt beam="2">  1       -2 0.27221174E+00 0.23957442E+04</pdfrwt>
<totfact> 0.79862413E-01</totfact>
</mgrwt>
</event>
<event>
12    4  0.4398275E-008  0.2013479E+04  0.7818608E-02  0.8600345E-01
          1   -1    0    0  501    0  0.00000000000E+00  0.00000000000E+00  0.82148593787E+03  0.82148593787E+03  0.00000000000E+00 0. -1.
         -2   -1    0    0    0  501 -0.00000000000E+00 -0.00000000000E+00 -0.12337693569E+04  0.12337693569E+04  0.00000000000E+00 0.  1.
        -24    2    1    2    0    0 -0.15815722096E+03  0.77044158188E+03 -0.33415325671E+03  0.85816301501E+03  0.78685600524E+02 0.  0.
        254    2    1    2    0    0  0.15815722096E+03 -0.77044158188E+03 -0.78130162312E+02  0.11970922798E+04  0.89907267024E+03 0.  0.
         23    2    4    4    0    0 -0.23030547393E+03 -0.26252573920E+03  0.28121923514E+03  0.45778356186E+03  0.92310109065E+02 0.  0.
         23    2    4    4    0    0  0.38846269489E+03 -0.50791584268E+03 -0.35934939745E+03  0.73930871790E+03  0.92539841901E+02 0.  0.
          1    1    3    3  502    0  0.51439990867E+01  0.12733989218E+02 -0.13786835665E+02  0.19460011451E+02  0.00000000000E+00 0. -1.
         -2    1    3    3    0  502 -0.16330122005E+03  0.75770759266E+03 -0.32036642104E+03  0.83870300356E+03  0.00000000000E+00 0.  1.
         11    1    5    5    0    0 -0.20874819312E+03 -0.26696547180E+03  0.25920534541E+03  0.42665417185E+03  0.00000000000E+00 0.  1.
        -11    1    5    5    0    0 -0.21557280810E+02  0.44397326077E+01  0.22013889734E+02  0.31129390016E+02  0.00000000000E+00 0. -1.
          1    1    6    6  503    0  0.38828006388E+02 -0.97825251355E+02 -0.38191375519E+02  0.11196416858E+03  0.00000000000E+00 0. -1.
         -1    1    6    6    0  503  0.34963468850E+03 -0.41009059133E+03 -0.32115802194E+03  0.62734454931E+03  0.00000000000E+00 0.  1.
<mgrwt>
<rscale>  0 0.20134788E+04</rscale>
<asrwt>0</asrwt>
<pdfrwt beam="1">  1        1 0.12638245E+00 0.20134788E+04</pdfrwt>
<pdfrwt beam="2">  1       -2 0.18981067E+00 0.20134788E+04</pdfrwt>
<totfact> 0.26722071E+00</totfact>
</mgrwt>
</event>
<event>
12    4  0.4398275E-008  0.2147591E+04  0.7818608E-02  0.8540564E-01
         -2   -1    0    0    0  501 -0.00000000000E+00  0.00000000000E+00  0.45814000155E+03  0.45814000155E+03  0.00000000000E+00 0.  1.
          1   -1    0    0  501    0  0.00000000000E+00 -0.00000000000E+00 -0.25167774926E+04  0.25167774926E+04  0.00000000000E+00 0. -1.
        -24    2    1    2    0    0  0.15410979483E+03 -0.45969720888E+03 -0.18712053214E+04  0.19346569357E+04  0.80104627086E+02 0.  0.
        254    2    1    2    0    0 -0.15410979483E+03  0.45969720888E+03 -0.18743216968E+03  0.10402605585E+04  0.90107705474E+03 0.  0.
         23    2    4    4    0    0  0.18145109518E+02  0.35618506045E+03 -0.52238596674E+03  0.63915425276E+03  0.91836911362E+02 0.  0.
         23    2    4    4    0    0 -0.17225490434E+03  0.10351214843E+03  0.33495379706E+03  0.40110630572E+03  0.91135642762E+02 0.  0.
          1    1    3    3  502    0  0.10596743621E+03 -0.35515654860E+03 -0.12910732450E+04  0.13432182978E+04  0.00000000000E+00 0. -1.
         -2    1    3    3    0  502  0.48142358619E+02 -0.10454066028E+03 -0.58013207633E+03  0.59143863785E+03  0.00000000000E+00 0.  1.
         11    1    5    5    0    0  0.11664556337E+01 -0.76892472362E+00  0.32549485697E+01  0.35421115408E+01  0.00000000000E+00 0. -1.
        -11    1    5    5    0    0  0.16978653885E+02  0.35695398518E+03 -0.52564091531E+03  0.63561214122E+03  0.00000000000E+00 0.  1.
          4    1    6    6  503    0 -0.12237193696E+03  0.41061169364E+02  0.14009939550E+03  0.19049606612E+03  0.00000000000E+00 0. -1.
         -4    1    6    6    0  503 -0.49882967384E+02  0.62450979063E+02  0.19485440155E+03  0.21061023960E+03  0.00000000000E+00 0.  1.
<mgrwt>
<rscale>  0 0.21475907E+04</rscale>
<asrwt>0</asrwt>
<pdfrwt beam="1">  1        1 0.38719654E+00 0.21475907E+04</pdfrwt>
<pdfrwt beam="2">  1       -2 0.70483077E-01 0.21475907E+04</pdfrwt>
<totfact> 0.19438775E+00</totfact>
</mgrwt>
</event>
<event>
12    4  0.4398275E-008  0.1615331E+04  0.7818608E-02  0.8811185E-01
          1   -1    0    0  501    0  0.00000000000E+00  0.00000000000E+00  0.17418642928E+04  0.17418642928E+04  0.00000000000E+00 0. -1.
         -2   -1    0    0    0  501 -0.00000000000E+00 -0.00000000000E+00 -0.37449715280E+03  0.37449715280E+03  0.00000000000E+00 0.  1.
        -24    2    1    2    0    0  0.20008143147E+03  0.38049820325E+03  0.94417121744E+03  0.10405138258E+04  0.79989199286E+02 0.  0.
        254    2    1    2    0    0 -0.20008143147E+03 -0.38049820325E+03  0.42319592260E+03  0.10758476198E+04  0.89080965996E+03 0.  0.
         23    2    4    4    0    0  0.10569941627E+03  0.96460088071E+02 -0.17787290560E+03  0.24476422822E+03  0.88282737156E+02 0.  0.
         23    2    4    4    0    0 -0.30578084774E+03 -0.47695829132E+03  0.60106882820E+03  0.83108339161E+03  0.91786322872E+02 0.  0.
          3    1    3    3  502    0  0.15205261319E+03  0.33136529504E+03  0.84018362394E+03  0.91587743606E+03  0.00000000000E+00 0. -1.
         -4    1    3    3    0  502  0.48028818274E+02  0.49132908210E+02  0.10398759350E+03  0.12463638978E+03  0.00000000000E+00 0.  1.
         11    1    5    5    0    0 -0.14042495936E+02  0.46380117145E+01 -0.57602436328E+01  0.15870830207E+02  0.00000000000E+00 0. -1.
        -11    1    5    5    0    0  0.11974191220E+03  0.91822076356E+02 -0.17211266196E+03  0.22889339801E+03  0.00000000000E+00 0.  1.
          2    1    6    6  503    0 -0.28143212185E+03 -0.42047264269E+03  0.49126692597E+03  0.70522654162E+03  0.00000000000E+00 0.  1.
         -2    1    6    6    0  503 -0.24348725885E+02 -0.56485648629E+02  0.10980190223E+03  0.12585684998E+03  0.00000000000E+00 0. -1.
<mgrwt>
<rscale>  0 0.16153306E+04</rscale>
<asrwt>0</asrwt>
<pdfrwt beam="1">  1        1 0.26797912E+00 0.16153306E+04</pdfrwt>
<pdfrwt beam="2">  1       -2 0.57614948E-01 0.16153306E+04</pdfrwt>
<totfact> 0.10591158E+01</totfact>
</mgrwt>
</event>
<event>
12    4  0.4398275E-008  0.1622917E+04  0.7818608E-02  0.8806592E-01
         -2   -1    0    0    0  501 -0.00000000000E+00  0.00000000000E+00  0.14573966459E+04  0.14573966459E+04  0.00000000000E+00 0.  1.
          1   -1    0    0  501    0  0.00000000000E+00 -0.00000000000E+00 -0.45180881692E+03  0.45180881692E+03  0.00000000000E+00 0. -1.
        -24    2    1    2    0    0 -0.20200464206E+03  0.11109949894E+03 -0.25386664799E+03  0.35197144955E+03  0.79288411880E+02 0.  0.
        254    2    1    2    0    0  0.20200464206E+03 -0.11109949894E+03  0.12594544769E+04  0.15572340132E+04  0.88634260782E+03 0.  0.
         23    2    4    4    0    0  0.14267084485E+03  0.37423516529E+03  0.47216582466E+03  0.62592816233E+03  0.91861686899E+02 0.  0.
         23    2    4    4    0    0  0.59333797204E+02 -0.48533466423E+03  0.78728865226E+03  0.93130585089E+03  0.91852763322E+02 0.  0.
          1    1    3    3  502    0 -0.16987905009E+03  0.83280847153E+02 -0.24325905012E+03  0.30817131052E+03  0.00000000000E+00 0. -1.
         -2    1    3    3    0  502 -0.32125591965E+02  0.27818651788E+02 -0.10607597871E+02  0.43800139029E+02  0.00000000000E+00 0.  1.
         11    1    5    5    0    0 -0.90094430412E+01  0.25959091572E+02  0.56506321957E+02  0.62833183274E+02  0.00000000000E+00 0. -1.
        -11    1    5    5    0    0  0.15168028789E+03  0.34827607372E+03  0.41565950270E+03  0.56309497906E+03  0.00000000000E+00 0.  1.
          3    1    6    6  503    0  0.35130563180E+02 -0.47976329510E+02  0.96038565344E+02  0.11295703031E+03  0.00000000000E+00 0. -1.
         -3    1    6    6    0  503  0.24203234024E+02 -0.43735833472E+03  0.69125008692E+03  0.81834882058E+03  0.00000000000E+00 0.  1.
<mgrwt>
<rscale>  0 0.16229167E+04</rscale>
<asrwt>0</asrwt>
<pdfrwt beam="1">  1        1 0.69509050E-01 0.16229167E+04</pdfrwt>
<pdfrwt beam="2">  1       -2 0.22421487E+00 0.16229167E+04</pdfrwt>
<totfact> 0.39627501E+00</totfact>
</mgrwt>
</event>
<event>
12    4  0.4398275E-008  0.1444553E+04  0.7818608E-02  0.8922186E-01
          1   -1    0    0  501    0  0.00000000000E+00  0.00000000000E+00  0.11508565400E+04  0.11508565400E+04  0.00000000000E+00 0. -1.
         -2   -1    0    0    0  501 -0.00000000000E+00 -0.00000000000E+00 -0.45329987399E+03  0.45329987399E+03  0.00000000000E+00 0.  1.
        -24    2    1    2    0    0 -0.51853794183E+02  0.27339382862E+03 -0.15706695617E+03  0.32894796555E+03  0.78126396411E+02 0.  0.
        254    2    1    2    0    0  0.51853794183E+02 -0.27339382862E+03  0.85462362221E+03  0.12752084485E+04  0.90462260084E+03 0.  0.
         23    2    4    4    0    0  0.32300273172E+03 -0.80265657954E+02 -0.68160745614E+01  0.34626368792E+03  0.95282433626E+02 0.  0.
         23    2    4    4    0    0 -0.27114893753E+03 -0.19312817067E+03  0.86143969677E+03  0.92894476056E+03  0.10019870444E+03 0.  0.
          3    1    3    3  502    0  0.12647088109E+02  0.19919940247E+02  0.50031696239E+00  0.23600914689E+02  0.00000000000E+00 0. -1.
         -4    1    3    3    0  502 -0.64500882292E+02  0.25347388838E+03 -0.15756727313E+03  0.30534705086E+03  0.00000000000E+00 0.  1.
         11    1    5    5    0    0  0.12912786144E+03 -0.54440054804E+02  0.38841302568E+02  0.14541791826E+03  0.00000000000E+00 0.  1.
        -11    1    5    5    0    0  0.19387487028E+03 -0.25825603150E+02 -0.45657377130E+02  0.20084576966E+03  0.00000000000E+00 0. -1.
          1    1    6    6  503    0 -0.12255323905E+03 -0.13983293007E+03  0.53380847940E+03  0.56526457293E+03  0.00000000000E+00 0. -1.
         -1    1    6    6    0  503 -0.14859569849E+03 -0.53295240600E+02  0.32763121738E+03  0.36368018764E+03  0.00000000000E+00 0.  1.
<mgrwt>
<rscale>  0 0.14445527E+04</rscale>
<asrwt>0</asrwt>
<pdfrwt beam="1">  1        1 0.17705485E+00 0.14445527E+04</pdfrwt>
<pdfrwt beam="2">  1       -2 0.69738442E-01 0.14445527E+04</pdfrwt>
<totfact> 0.18550165E+01</totfact>
</mgrwt>
</event>
<event>
12    4  0.4398275E-008  0.1168008E+04  0.7818608E-02  0.9141330E-01
          1   -1    0    0  501    0  0.00000000000E+00  0.00000000000E+00  0.12691038905E+04  0.12691038905E+04  0.00000000000E+00 0. -1.
         -2   -1    0    0    0  501 -0.00000000000E+00 -0.00000000000E+00 -0.26874121637E+03  0.26874121637E+03  0.00000000000E+00 0.  1.
        -24    2    1    2    0    0  0.42443097421E+02 -0.10130697353E+03  0.50655037060E+03  0.52488743308E+03  0.82758806460E+02 0.  0.
        254    2    1    2    0    0 -0.42443097421E+02  0.10130697353E+03  0.49381230349E+03  0.10129576737E+04  0.87759223921E+03 0.  0.
         23    2    4    4    0    0 -0.16240633957E+03  0.13434799222E+03 -0.19890208640E+03  0.30357794078E+03  0.90400907132E+02 0.  0.
         23    2    4    4    0    0  0.11996324215E+03 -0.33041018690E+02  0.69271438989E+03  0.70937973296E+03  0.88789026316E+02 0.  0.
          1    1    3    3  502    0  0.11111992391E+02 -0.99588530640E+02  0.44062047029E+03  0.45187138729E+03  0.00000000000E+00 0. -1.
         -2    1    3    3    0  502  0.31331105030E+02 -0.17184428873E+01  0.65929900303E+02  0.73016045786E+02  0.00000000000E+00 0.  1.
         11    1    5    5    0    0 -0.85339737940E+02  0.71233464812E+02 -0.44301834232E+02  0.11966507384E+03  0.00000000000E+00 0.  1.
        -11    1    5    5    0    0 -0.77066601627E+02  0.63114527405E+02 -0.15460025217E+03  0.18391286694E+03  0.00000000000E+00 0. -1.
          2    1    6    6  503    0  0.78130420892E+02 -0.23886623320E+01  0.58076056224E+03  0.58599735412E+03  0.00000000000E+00 0. -1.
         -2    1    6    6    0  503  0.41832821254E+02 -0.30652356358E+02  0.11195382765E+03  0.12338237884E+03  0.00000000000E+00 0.  1.
<mgrwt>
<rscale>  0 0.11680077E+04</rscale>
<asrwt>0</asrwt>
<pdfrwt beam="1">  1        1 0.19524675E+00 0.11680077E+04</pdfrwt>
<pdfrwt beam="2">  1       -2 0.41344803E-01 0.11680077E+04</pdfrwt>
<totfact> 0.45889797E+01</totfact>
</mgrwt>
</event>
<event>
12    4  0.4398275E-008  0.1532381E+04  0.7818608E-02  0.8863201E-01
         -2   -1    0    0    0  501 -0.00000000000E+00  0.00000000000E+00  0.86512434289E+03  0.86512434289E+03  0.00000000000E+00 0.  1.
          1   -1    0    0  501    0  0.00000000000E+00 -0.00000000000E+00 -0.67857020073E+03  0.67857020073E+03  0.00000000000E+00 0. -1.
        -24    2    1    2    0    0  0.23821034380E+03 -0.32258906199E+03 -0.25610543469E+03  0.48271091355E+03  0.81313969113E+02 0.  0.
        254    2    1    2    0    0 -0.23821034380E+03  0.32258906199E+03  0.44265957685E+03  0.10609836301E+04  0.87688704602E+03 0.  0.
         23    2    4    4    0    0 -0.18781021205E+03  0.56138836806E+03  0.51505082746E+03  0.79018348767E+03  0.93182690291E+02 0.  0.
         23    2    4    4    0    0 -0.50400131746E+02 -0.23879930607E+03 -0.72391250609E+02  0.27080014240E+03  0.92341443018E+02 0.  0.
          1    1    3    3  502    0  0.16927853944E+03 -0.21231626983E+03 -0.12810813883E+03  0.30024176523E+03  0.00000000000E+00 0. -1.
         -4    1    3    3    0  502  0.68931804353E+02 -0.11027279216E+03 -0.12799729586E+03  0.18246914832E+03  0.00000000000E+00 0.  1.
         11    1    5    5    0    0  0.71165548630E+01  0.28201322551E+01  0.67712733906E+01  0.10220011858E+02  0.00000000000E+00 0. -1.
        -11    1    5    5    0    0 -0.19492676691E+03  0.55856823581E+03  0.50827955407E+03  0.77996347581E+03  0.00000000000E+00 0.  1.
          2    1    6    6  503    0 -0.76332067721E+02 -0.19377034110E+03 -0.65862397340E+02  0.21842935938E+03  0.00000000000E+00 0.  1.
         -2    1    6    6    0  503  0.25931935975E+02 -0.45028964967E+02 -0.65288532689E+01  0.52370783022E+02  0.00000000000E+00 0. -1.
<mgrwt>
<rscale>  0 0.15323806E+04</rscale>
<asrwt>0</asrwt>
<pdfrwt beam="1">  1        1 0.10439542E+00 0.15323806E+04</pdfrwt>
<pdfrwt beam="2">  1       -2 0.13309605E+00 0.15323806E+04</pdfrwt>
<totfact> 0.98645541E+00</totfact>
</mgrwt>
</event>
<event>
12    4  0.4398275E-008  0.2024157E+04  0.7818608E-02  0.8595409E-01
          1   -1    0    0  501    0  0.00000000000E+00  0.00000000000E+00  0.39072633147E+04  0.39072633147E+04  0.00000000000E+00 0. -1.
         -2   -1    0    0    0  501 -0.00000000000E+00 -0.00000000000E+00 -0.26215342314E+03  0.26215342314E+03  0.00000000000E+00 0.  1.
        -24    2    1    2    0    0 -0.19020289969E+03  0.69597537590E+03  0.70816129174E+03  0.10141058461E+04  0.79745752361E+02 0.  0.
        254    2    1    2    0    0  0.19020289969E+03 -0.69597537590E+03  0.29369485998E+04  0.31553108917E+04  0.89986714509E+03 0.  0.
         23    2    4    4    0    0  0.21473668961E+03 -0.87393859780E+03  0.26804578036E+04  0.28289242723E+04  0.89877601994E+02 0.  0.
         23    2    4    4    0    0 -0.24533789925E+02  0.17796322189E+03  0.25649079621E+03  0.32638661939E+03  0.92021093136E+02 0.  0.
          3    1    3    3  502    0 -0.11157853940E+02  0.40740718405E+02  0.71941278347E+02  0.83425723676E+02  0.00000000000E+00 0. -1.
         -4    1    3    3    0  502 -0.17904504575E+03  0.65523465750E+03  0.63622001339E+03  0.93068012240E+03  0.00000000000E+00 0.  1.
         11    1    5    5    0    0  0.20575614347E+03 -0.72662749840E+03  0.23018635604E+04  0.24225810539E+04  0.00000000000E+00 0.  1.
        -11    1    5    5    0    0  0.89805461435E+01 -0.14731109940E+03  0.37859424320E+03  0.40634321847E+03  0.00000000000E+00 0. -1.
          4    1    6    6  503    0 -0.16648026067E+02  0.18817578087E+03  0.24142960415E+03  0.30655429379E+03  0.00000000000E+00 0. -1.
         -4    1    6    6    0  503 -0.78857638576E+01 -0.10212558981E+02  0.15061192058E+02  0.19832325601E+02  0.00000000000E+00 0.  1.
<mgrwt>
<rscale>  0 0.20241566E+04</rscale>
<asrwt>0</asrwt>
<pdfrwt beam="1">  1        1 0.60111739E+00 0.20241566E+04</pdfrwt>
<pdfrwt beam="2">  1       -2 0.40331299E-01 0.20241566E+04</pdfrwt>
<totfact> 0.55083300E-01</totfact>
</mgrwt>
</event>
<event>
12    4  0.4398275E-008  0.1639897E+04  0.7818608E-02  0.8796406E-01
         -2   -1    0    0    0  501 -0.00000000000E+00  0.00000000000E+00  0.13934468454E+04  0.13934468454E+04  0.00000000000E+00 0.  1.
          1   -1    0    0  501    0  0.00000000000E+00 -0.00000000000E+00 -0.48248409328E+03  0.48248409328E+03  0.00000000000E+00 0. -1.
        -24    2    1    2    0    0 -0.38533763149E+01  0.38332457673E+03  0.79287948067E+03  0.88432305627E+03  0.80105039535E+02 0.  0.
        254    2    1    2    0    0  0.38533763149E+01 -0.38332457673E+03  0.11808327148E+03  0.99160788243E+03  0.90685718493E+03 0.  0.
         23    2    4    4    0    0  0.20774600971E+03  0.20324061514E+03  0.18634952679E+03  0.36024372041E+03  0.10287973448E+03 0.  0.
         23    2    4    4    0    0 -0.20389263340E+03 -0.58656519187E+03 -0.68266255307E+02  0.63136416202E+03  0.91266057240E+02 0.  0.
          1    1    3    3  502    0 -0.89703659320E+00  0.26652863796E+03  0.46130447239E+03  0.53276649273E+03  0.00000000000E+00 0. -1.
         -2    1    3    3    0  502 -0.29563397217E+01  0.11679593877E+03  0.33157500827E+03  0.35155656354E+03  0.00000000000E+00 0.  1.
         11    1    5    5    0    0 -0.27511338089E+01  0.67951809889E-01  0.26935230333E+02  0.27075449909E+02  0.00000000000E+00 0.  1.
        -11    1    5    5    0    0  0.21049714352E+03  0.20317266333E+03  0.15941429646E+03  0.33316827050E+03  0.00000000000E+00 0. -1.
          3    1    6    6  503    0 -0.56470314261E+02 -0.24499800964E+03  0.82341106028E+01  0.25155659740E+03  0.00000000000E+00 0. -1.
         -3    1    6    6    0  503 -0.14742231914E+03 -0.34156718223E+03 -0.76500365909E+02  0.37980756462E+03  0.00000000000E+00 0.  1.
<mgrwt>
<rscale>  0 0.16398975E+04</rscale>
<asrwt>0</asrwt>
<pdfrwt beam="1">  1        1 0.74228323E-01 0.16398975E+04</pdfrwt>
<pdfrwt beam="2">  1       -2 0.21437644E+00 0.16398975E+04</pdfrwt>
<totfact> 0.41771302E+00</totfact>
</mgrwt>
</event>
<event>
12    4  0.4398275E-008  0.2211086E+04  0.7818608E-02  0.8513828E-01
          1   -1    0    0  501    0  0.00000000000E+00  0.00000000000E+00  0.17575412136E+04  0.17575412136E+04  0.00000000000E+00 0. -1.
         -2   -1    0    0    0  501 -0.00000000000E+00 -0.00000000000E+00 -0.69541744334E+03  0.69541744334E+03  0.00000000000E+00 0.  1.
        -24    2    1    2    0    0 -0.68128841034E+03  0.52837922110E+03  0.80559848532E+03  0.11826726243E+04  0.79919443392E+02 0.  0.
        254    2    1    2    0    0  0.68128841034E+03 -0.52837922110E+03  0.25652528490E+03  0.12702860326E+04  0.89692969813E+03 0.  0.
         23    2    4    4    0    0  0.17624824378E+02 -0.43105695852E+03 -0.16800904399E+03  0.47122404706E+03  0.87774300010E+02 0.  0.
         23    2    4    4    0    0  0.66366358596E+03 -0.97322262581E+02  0.42453432889E+03  0.79906198551E+03  0.91376595199E+02 0.  0.
          1    1    3    3  502    0 -0.42206473716E+03  0.33335274831E+03  0.55416757945E+03  0.77224633588E+03  0.00000000000E+00 0. -1.
         -2    1    3    3    0  502 -0.25922367318E+03  0.19502647279E+03  0.25143090586E+03  0.41042628845E+03  0.00000000000E+00 0.  1.
         11    1    5    5    0    0  0.43643314914E+01 -0.17601916952E+03 -0.23067952950E+02  0.17757794311E+03  0.00000000000E+00 0.  1.
        -11    1    5    5    0    0  0.13260492887E+02 -0.25503778900E+03 -0.14494109104E+03  0.29364610395E+03  0.00000000000E+00 0. -1.
          4    1    6    6  503    0  0.65580451977E+03 -0.84952035236E+02  0.42120014924E+03  0.78403187573E+03  0.00000000000E+00 0. -1.
         -4    1    6    6    0  503  0.78590661896E+01 -0.12370227345E+02  0.33341796554E+01  0.15030109777E+02  0.00000000000E+00 0.  1.
<mgrwt>
<rscale>  0 0.22110855E+04</rscale>
<asrwt>0</asrwt>
<pdfrwt beam="1">  1        1 0.27039096E+00 0.22110855E+04</pdfrwt>
<pdfrwt beam="2">  1       -2 0.10698730E+00 0.22110855E+04</pdfrwt>
<totfact> 0.24473536E+00</totfact>
</mgrwt>
</event>
<event>
12    4  0.4398275E-008  0.1836171E+04  0.7818608E-02  0.8687297E-01
         -2   -1    0    0    0  501 -0.00000000000E+00  0.00000000000E+00  0.38510726673E+03  0.38510726673E+03  0.00000000000E+00 0.  1.
          1   -1    0    0  501    0  0.00000000000E+00 -0.00000000000E+00 -0.21886922069E+04  0.21886922069E+04  0.00000000000E+00 0. -1.
        -24    2    1    2    0    0  0.26869117785E+03 -0.61809155214E+03 -0.41230244935E+03  0.79405635271E+03  0.79372952869E+02 0.  0.
        254    2    1    2    0    0 -0.26869117785E+03  0.61809155214E+03 -0.13912824908E+04  0.17797431209E+04  0.88180864780E+03 0.  0.
         23    2    4    4    0    0 -0.92605962743E+01 -0.21358881174E+03 -0.24101195588E+03  0.33408516226E+03  0.88431858621E+02 0.  0.
         23    2    4    4    0    0 -0.25943058158E+03  0.83168036388E+03 -0.11502705349E+04  0.14456579586E+04  0.88363881739E+02 0.  0.
          1    1    3    3  502    0  0.14212440105E+03 -0.28358865763E+03 -0.23564587531E+03  0.39515927252E+03  0.00000000000E+00 0. -1.
         -2    1    3    3    0  502  0.12656677680E+03 -0.33450289451E+03 -0.17665657404E+03  0.39889708018E+03  0.00000000000E+00 0.  1.
         11    1    5    5    0    0 -0.71023807887E+01 -0.38595656425E+02 -0.39766037250E+01  0.39444668650E+02  0.00000000000E+00 0. -1.
        -11    1    5    5    0    0 -0.21582154856E+01 -0.17499315531E+03 -0.23703535216E+03  0.29464049361E+03  0.00000000000E+00 0.  1.
          1    1    6    6  503    0 -0.91364253680E+01  0.66891955279E+02 -0.12749506433E+03  0.14426711121E+03  0.00000000000E+00 0. -1.
         -1    1    6    6    0  503 -0.25029415621E+03  0.76478840860E+03 -0.10227754706E+04  0.13013908474E+04  0.00000000000E+00 0.  1.
<mgrwt>
<rscale>  0 0.18361713E+04</rscale>
<asrwt>0</asrwt>
<pdfrwt beam="1">  1        1 0.33672188E+00 0.18361713E+04</pdfrwt>
<pdfrwt beam="2">  1       -2 0.59247271E-01 0.18361713E+04</pdfrwt>
<totfact> 0.48745608E+00</totfact>
</mgrwt>
</event>
<event>
12    4  0.4398275E-008  0.1245373E+04  0.7818608E-02  0.9074043E-01
         -2   -1    0    0    0  501 -0.00000000000E+00  0.00000000000E+00  0.29334430207E+03  0.29334430207E+03  0.00000000000E+00 0.  1.
          1   -1    0    0  501    0  0.00000000000E+00 -0.00000000000E+00 -0.13217862805E+04  0.13217862805E+04  0.00000000000E+00 0. -1.
        -24    2    1    2    0    0  0.38104040831E+01  0.17489121968E+03 -0.55317880013E+03  0.58550801414E+03  0.78812383599E+02 0.  0.
        254    2    1    2    0    0 -0.38104040831E+01 -0.17489121968E+03 -0.47526317832E+03  0.10296225684E+04  0.89646309845E+03 0.  0.
         23    2    4    4    0    0  0.17329059013E+03  0.29959336632E+02  0.20832484810E+03  0.28886118563E+03  0.95469114105E+02 0.  0.
         23    2    4    4    0    0 -0.17710099422E+03 -0.20485055631E+03 -0.68358802642E+03  0.74076138282E+03  0.90035125586E+02 0.  0.
          3    1    3    3  502    0 -0.28144592256E+02  0.14587883138E+03 -0.41918859398E+03  0.44473793276E+03  0.00000000000E+00 0. -1.
         -4    1    3    3    0  502  0.31954996339E+02  0.29012388299E+02 -0.13399020615E+03  0.14077008138E+03  0.00000000000E+00 0.  1.
         11    1    5    5    0    0  0.10776829773E+03 -0.24362157420E+02  0.86847545837E+02  0.14053475345E+03  0.00000000000E+00 0.  1.
        -11    1    5    5    0    0  0.65522292401E+02  0.54321494052E+02  0.12147730226E+03  0.14832643217E+03  0.00000000000E+00 0. -1.
          4    1    6    6  503    0 -0.97574761612E+02 -0.52506281642E+02 -0.31912020157E+03  0.33780977897E+03  0.00000000000E+00 0. -1.
         -4    1    6    6    0  503 -0.79526232603E+02 -0.15234427467E+03 -0.36446782485E+03  0.40295160385E+03  0.00000000000E+00 0.  1.
<mgrwt>
<rscale>  0 0.12453730E+04</rscale>
<asrwt>0</asrwt>
<pdfrwt beam="1">  1        1 0.20335174E+00 0.12453730E+04</pdfrwt>
<pdfrwt beam="2">  1       -2 0.45129893E-01 0.12453730E+04</pdfrwt>
<totfact> 0.35159269E+01</totfact>
</mgrwt>
</event>
<event>
12    4  0.4398275E-008  0.1151530E+04  0.7818608E-02  0.9156373E-01
         -2   -1    0    0    0  501 -0.00000000000E+00  0.00000000000E+00  0.45899854226E+03  0.45899854226E+03  0.00000000000E+00 0.  1.
          1   -1    0    0  501    0  0.00000000000E+00 -0.00000000000E+00 -0.72223654590E+03  0.72223654590E+03  0.00000000000E+00 0. -1.
        -24    2    1    2    0    0  0.38879494704E+02 -0.18187999393E+03  0.63651120398E+02  0.21198984674E+03  0.79349119052E+02 0.  0.
        254    2    1    2    0    0 -0.38879494704E+02  0.18187999393E+03 -0.32688912405E+03  0.96924524141E+03  0.89330167988E+03 0.  0.
         23    2    4    4    0    0  0.18250871526E+03  0.48496002017E+03 -0.17833861481E+03  0.55553688201E+03  0.91219040956E+02 0.  0.
         23    2    4    4    0    0 -0.22138820996E+03 -0.30308002624E+03 -0.14855050923E+03  0.41370835940E+03  0.90648282014E+02 0.  0.
          3    1    3    3  502    0  0.47213511715E+02 -0.47700099013E+02  0.29301883101E+02  0.73232612186E+02  0.00000000000E+00 0. -1.
         -4    1    3    3    0  502 -0.83340170105E+01 -0.13417989492E+03  0.34349237297E+02  0.13875723456E+03  0.00000000000E+00 0.  1.
         11    1    5    5    0    0  0.48032189285E+02  0.92318902753E+02 -0.65201325819E+00  0.10406870872E+03  0.00000000000E+00 0.  1.
        -11    1    5    5    0    0  0.13447652597E+03  0.39264111742E+03 -0.17768660155E+03  0.45146817329E+03  0.00000000000E+00 0. -1.
          3    1    6    6  503    0 -0.20717046783E+03 -0.24631294072E+03 -0.15017568851E+03  0.35516532055E+03  0.00000000000E+00 0. -1.
         -3    1    6    6    0  503 -0.14217742130E+02 -0.56767085522E+02  0.16251792749E+01  0.58543038849E+02  0.00000000000E+00 0.  1.
<mgrwt>
<rscale>  0 0.11515303E+04</rscale>
<asrwt>0</asrwt>
<pdfrwt beam="1">  1        1 0.11111331E+00 0.11515303E+04</pdfrwt>
<pdfrwt beam="2">  1       -2 0.70615161E-01 0.11515303E+04</pdfrwt>
<totfact> 0.41204557E+01</totfact>
</mgrwt>
</event>
<event>
12    4  0.4398275E-008  0.1598822E+04  0.7818608E-02  0.8821272E-01
         -2   -1    0    0    0  501 -0.00000000000E+00  0.00000000000E+00  0.32075592963E+03  0.32075592963E+03  0.00000000000E+00 0.  1.
          1   -1    0    0  501    0  0.00000000000E+00 -0.00000000000E+00 -0.19923505309E+04  0.19923505309E+04  0.00000000000E+00 0. -1.
        -24    2    1    2    0    0  0.34984960373E+03  0.31623482872E+03 -0.18258896964E+03  0.51237559766E+03  0.82406365777E+02 0.  0.
        254    2    1    2    0    0 -0.34984960373E+03 -0.31623482872E+03 -0.14890056316E+04  0.18007308628E+04  0.89615548725E+03 0.  0.
         23    2    4    4    0    0  0.76579835552E+02 -0.76146620338E+01  0.80916108638E+02  0.14241275709E+03  0.88382817637E+02 0.  0.
         23    2    4    4    0    0 -0.42642943928E+03 -0.30862016669E+03 -0.15699217402E+04  0.16583181057E+04  0.90973597392E+02 0.  0.
          1    1    3    3  502    0  0.15220960660E+03  0.15003548985E+03 -0.40147650132E+02  0.21746320693E+03  0.00000000000E+00 0. -1.
         -2    1    3    3    0  502  0.19763999713E+03  0.16619933887E+03 -0.14244131951E+03  0.29491239074E+03  0.00000000000E+00 0.  1.
         11    1    5    5    0    0 -0.73799088234E+01  0.13006524814E+02 -0.91787775731E+01  0.17546586554E+02  0.00000000000E+00 0.  1.
        -11    1    5    5    0    0  0.83959744375E+02 -0.20621186847E+02  0.90094886211E+02  0.12486617053E+03  0.00000000000E+00 0. -1.
          1    1    6    6  503    0 -0.34239890296E+03 -0.28848406513E+03 -0.13248504751E+04  0.13984594545E+04  0.00000000000E+00 0. -1.
         -1    1    6    6    0  503 -0.84030536322E+02 -0.20136101555E+02 -0.24507126514E+03  0.25985865123E+03  0.00000000000E+00 0.  1.
<mgrwt>
<rscale>  0 0.15988224E+04</rscale>
<asrwt>0</asrwt>
<pdfrwt beam="1">  1        1 0.30651546E+00 0.15988224E+04</pdfrwt>
<pdfrwt beam="2">  1       -2 0.49347067E-01 0.15988224E+04</pdfrwt>
<totfact> 0.98805390E+00</totfact>
</mgrwt>
</event>
<event>
12    4  0.4398275E-008  0.1676261E+04  0.7818608E-02  0.8775021E-01
          1   -1    0    0  501    0  0.00000000000E+00  0.00000000000E+00  0.25788091322E+04  0.25788091322E+04  0.00000000000E+00 0. -1.
         -2   -1    0    0    0  501 -0.00000000000E+00 -0.00000000000E+00 -0.27239806720E+03  0.27239806720E+03  0.00000000000E+00 0.  1.
        -24    2    1    2    0    0  0.10751878031E+03  0.18703370006E+03  0.17710926261E+04  0.17859227277E+04  0.78797247231E+02 0.  0.
        254    2    1    2    0    0 -0.10751878031E+03 -0.18703370006E+03  0.53531843890E+03  0.10652844717E+04  0.89539001639E+03 0.  0.
         23    2    4    4    0    0 -0.28969713390E+03 -0.42723862567E+03  0.53683405965E+03  0.75038406095E+03  0.91805003565E+02 0.  0.
         23    2    4    4    0    0  0.18217835359E+03  0.24020492560E+03 -0.15156207511E+01  0.31490041070E+03  0.90953904541E+02 0.  0.
          3    1    3    3  502    0  0.21645470989E+02  0.11386827104E+03  0.97864993789E+03  0.98548983277E+03  0.00000000000E+00 0. -1.
         -4    1    3    3    0  502  0.85873309319E+02  0.73165429021E+02  0.79244268819E+03  0.80043289496E+03  0.00000000000E+00 0.  1.
         11    1    5    5    0    0 -0.87135683665E+01 -0.43399315440E+02  0.22008232537E+02  0.49434695850E+02  0.00000000000E+00 0.  1.
        -11    1    5    5    0    0 -0.28098356554E+03 -0.38383931023E+03  0.51482582711E+03  0.70094936510E+03  0.00000000000E+00 0. -1.
          4    1    6    6  503    0  0.16279949818E+03  0.23125429537E+03  0.21354410884E+02  0.28361635461E+03  0.00000000000E+00 0. -1.
         -4    1    6    6    0  503  0.19378855412E+02  0.89506302275E+01 -0.22870031635E+02  0.31284056091E+02  0.00000000000E+00 0.  1.
<mgrwt>
<rscale>  0 0.16762609E+04</rscale>
<asrwt>0</asrwt>
<pdfrwt beam="1">  1        1 0.39673985E+00 0.16762609E+04</pdfrwt>
<pdfrwt beam="2">  1       -2 0.41907397E-01 0.16762609E+04</pdfrwt>
<totfact> 0.54050536E+00</totfact>
</mgrwt>
</event>
<event>
12    4  0.4398275E-008  0.1423974E+04  0.7818608E-02  0.8936645E-01
         -2   -1    0    0    0  501 -0.00000000000E+00  0.00000000000E+00  0.41904163550E+03  0.41904163550E+03  0.00000000000E+00 0.  1.
          1   -1    0    0  501    0  0.00000000000E+00 -0.00000000000E+00 -0.12097263263E+04  0.12097263263E+04  0.00000000000E+00 0. -1.
        -24    2    1    2    0    0  0.17670359755E+02 -0.36995150606E+03 -0.10645728657E+02  0.37908021908E+03  0.80075729882E+02 0.  0.
        254    2    1    2    0    0 -0.17670359755E+02  0.36995150606E+03 -0.78003896211E+03  0.12496877427E+04  0.90337274330E+03 0.  0.
         23    2    4    4    0    0  0.14441423973E+03  0.11166718421E+03 -0.89042981933E+03  0.91293900443E+03  0.85248636302E+02 0.  0.
         23    2    4    4    0    0 -0.16208459949E+03  0.25828432185E+03  0.11039085722E+03  0.33674873825E+03  0.90726859578E+02 0.  0.
          1    1    3    3  502    0  0.14520317422E+02 -0.66758386898E+02 -0.31341556778E+02  0.75165251416E+02  0.00000000000E+00 0. -1.
         -2    1    3    3    0  502  0.31500423331E+01 -0.30319311916E+03  0.20695828121E+02  0.30391496767E+03  0.00000000000E+00 0.  1.
         11    1    5    5    0    0  0.76043902786E+02  0.64821918071E+02 -0.67061997004E+03  0.67802337749E+03  0.00000000000E+00 0. -1.
        -11    1    5    5    0    0  0.68370336944E+02  0.46845266138E+02 -0.21980984930E+03  0.23491562694E+03  0.00000000000E+00 0.  1.
          2    1    6    6  503    0 -0.58295210098E+02  0.16859716195E+03  0.41076239176E+02  0.18305898493E+03  0.00000000000E+00 0. -1.
         -2    1    6    6    0  503 -0.10378938939E+03  0.89687159897E+02  0.69314618047E+02  0.15368975332E+03  0.00000000000E+00 0.  1.
<mgrwt>
<rscale>  0 0.14239743E+04</rscale>
<asrwt>0</asrwt>
<pdfrwt beam="1">  1        1 0.18611174E+00 0.14239743E+04</pdfrwt>
<pdfrwt beam="2">  1       -2 0.64467946E-01 0.14239743E+04</pdfrwt>
<totfact> 0.19938587E+01</totfact>
</mgrwt>
</event>
<event>
12    4  0.4398275E-008  0.1687627E+04  0.7818608E-02  0.8768453E-01
         -2   -1    0    0    0  501 -0.00000000000E+00  0.00000000000E+00  0.14285277581E+04  0.14285277581E+04  0.00000000000E+00 0.  1.
          1   -1    0    0  501    0  0.00000000000E+00 -0.00000000000E+00 -0.49842982555E+03  0.49842982555E+03  0.00000000000E+00 0. -1.
        -24    2    1    2    0    0  0.51401335972E+03 -0.23981824523E+03  0.92051629353E+02  0.57845334870E+03  0.66424765229E+02 0.  0.
        254    2    1    2    0    0 -0.51401335972E+03  0.23981824523E+03  0.83804630322E+03  0.13485042350E+04  0.89130216013E+03 0.  0.
         23    2    4    4    0    0 -0.25507421857E+03  0.51557382489E+03  0.74932343152E+03  0.94923703712E+03  0.93199365428E+02 0.  0.
         23    2    4    4    0    0 -0.25893914115E+03 -0.27575557965E+03  0.88722871693E+02  0.39926719785E+03  0.91934372152E+02 0.  0.
          1    1    3    3  502    0  0.47256272908E+03 -0.23913303315E+03  0.85869350294E+02  0.53653861537E+03  0.00000000000E+00 0. -1.
         -2    1    3    3    0  502  0.41450630641E+02 -0.68521208786E+00  0.61822790586E+01  0.41914733335E+02  0.00000000000E+00 0.  1.
         11    1    5    5    0    0 -0.19306665879E+03  0.45672241756E+03  0.66105852618E+03  0.82635856411E+03  0.00000000000E+00 0.  1.
        -11    1    5    5    0    0 -0.62007559774E+02  0.58851407324E+02  0.88264905349E+02  0.12287847301E+03  0.00000000000E+00 0. -1.
          2    1    6    6  503    0 -0.35128534953E+01 -0.30924544825E+02 -0.86406707694E+01  0.32300600670E+02  0.00000000000E+00 0. -1.
         -2    1    6    6    0  503 -0.25542628766E+03 -0.24483103483E+03  0.97363542462E+02  0.36696659718E+03  0.00000000000E+00 0.  1.
<mgrwt>
<rscale>  0 0.16876265E+04</rscale>
<asrwt>0</asrwt>
<pdfrwt beam="1">  1        1 0.76681512E-01 0.16876265E+04</pdfrwt>
<pdfrwt beam="2">  1       -2 0.21977350E+00 0.16876265E+04</pdfrwt>
<totfact> 0.36763870E+00</totfact>
</mgrwt>
</event>
<event>
12    4  0.4398275E-008  0.2271904E+04  0.7818608E-02  0.8489082E-01
         -2   -1    0    0    0  501 -0.00000000000E+00  0.00000000000E+00  0.13304424202E+04  0.13304424202E+04  0.00000000000E+00 0.  1.
          1   -1    0    0  501    0  0.00000000000E+00 -0.00000000000E+00 -0.96989353012E+03  0.96989353012E+03  0.00000000000E+00 0. -1.
        -24    2    1    2    0    0 -0.30352597197E+03  0.32140162878E+03 -0.68840121339E+03  0.82184348403E+03  0.78124637622E+02 0.  0.
        254    2    1    2    0    0  0.30352597197E+03 -0.32140162878E+03  0.10489501035E+04  0.14784924663E+04  0.94351292025E+03 0.  0.
         23    2    4    4    0    0  0.33935704721E+03 -0.53863112960E+03  0.10600880803E+04  0.12398319658E+04  0.90054795614E+02 0.  0.
         23    2    4    4    0    0 -0.35831075236E+02  0.21722950082E+03 -0.11137976810E+02  0.23866050049E+03  0.91445382551E+02 0.  0.
          1    1    3    3  502    0 -0.29824976078E+03  0.31080887620E+03 -0.68558312655E+03  0.80967851691E+03  0.00000000000E+00 0. -1.
         -2    1    3    3    0  502 -0.52762111877E+01  0.10592752579E+02 -0.28180868431E+01  0.12164967125E+02  0.00000000000E+00 0.  1.
         11    1    5    5    0    0  0.19978060039E+02 -0.68805622103E+02  0.16213892310E+03  0.17726355209E+03  0.00000000000E+00 0. -1.
        -11    1    5    5    0    0  0.31937898717E+03 -0.46982550750E+03  0.89794915718E+03  0.10625684137E+04  0.00000000000E+00 0.  1.
          1    1    6    6  503    0  0.27588990063E+02  0.57978942548E+02 -0.19317242611E+02  0.67051219331E+02  0.00000000000E+00 0. -1.
         -1    1    6    6    0  503 -0.63420065299E+02  0.15925055827E+03  0.81792658011E+01  0.17160928116E+03  0.00000000000E+00 0.  1.
<mgrwt>
<rscale>  0 0.22719045E+04</rscale>
<asrwt>0</asrwt>
<pdfrwt beam="1">  1        1 0.14921439E+00 0.22719045E+04</pdfrwt>
<pdfrwt beam="2">  1       -2 0.20468345E+00 0.22719045E+04</pdfrwt>
<totfact> 0.15732754E+00</totfact>
</mgrwt>
</event>
<event>
12    4  0.4398275E-008  0.2026933E+04  0.7818608E-02  0.8594131E-01
         -2   -1    0    0    0  501 -0.00000000000E+00  0.00000000000E+00  0.87502259183E+03  0.87502259183E+03  0.00000000000E+00 0.  1.
          1   -1    0    0  501    0  0.00000000000E+00 -0.00000000000E+00 -0.11738143888E+04  0.11738143888E+04  0.00000000000E+00 0. -1.
        -24    2    1    2    0    0 -0.25867294167E+02  0.41737044097E+03  0.59553531635E+03  0.73216161400E+03  0.80815308571E+02 0.  0.
        254    2    1    2    0    0  0.25867294167E+02 -0.41737044097E+03 -0.89432711329E+03  0.13166753666E+04  0.87117497298E+03 0.  0.
         23    2    4    4    0    0 -0.50466069840E+01 -0.33879618484E+03 -0.10559333406E+04  0.11126987403E+04  0.91076582246E+02 0.  0.
         23    2    4    4    0    0  0.30913901151E+02 -0.78574256132E+02  0.16160622727E+03  0.20397662631E+03  0.91434721953E+02 0.  0.
          1    1    3    3  502    0 -0.10054221398E+02  0.16281791854E+03  0.16684783869E+03  0.23334301627E+03  0.00000000000E+00 0. -1.
         -2    1    3    3    0  502 -0.15813072768E+02  0.25455252243E+03  0.42868747765E+03  0.49881859773E+03  0.00000000000E+00 0.  1.
         11    1    5    5    0    0 -0.21552434650E+02 -0.19809240226E+02 -0.12884569002E+03  0.13212919917E+03  0.00000000000E+00 0.  1.
        -11    1    5    5    0    0  0.16505827667E+02 -0.31898694461E+03 -0.92708765054E+03  0.98056954111E+03  0.00000000000E+00 0. -1.
          3    1    6    6  503    0 -0.15495365662E+02 -0.45851370453E+02  0.13059508207E+03  0.13927501567E+03  0.00000000000E+00 0. -1.
         -3    1    6    6    0  503  0.46409266813E+02 -0.32722885679E+02  0.31011145203E+02  0.64701610645E+02  0.00000000000E+00 0.  1.
<mgrwt>
<rscale>  0 0.20269328E+04</rscale>
<asrwt>0</asrwt>
<pdfrwt beam="1">  1        1 0.18058683E+00 0.20269328E+04</pdfrwt>
<pdfrwt beam="2">  1       -2 0.13461886E+00 0.20269328E+04</pdfrwt>
<totfact> 0.36032368E+00</totfact>
</mgrwt>
</event>
<event>
12    4  0.4398275E-008  0.2238289E+04  0.7818608E-02  0.8502658E-01
          1   -1    0    0  501    0  0.00000000000E+00  0.00000000000E+00  0.60209673973E+03  0.60209673973E+03  0.00000000000E+00 0. -1.
         -2   -1    0    0    0  501 -0.00000000000E+00 -0.00000000000E+00 -0.20802040444E+04  0.20802040444E+04  0.00000000000E+00 0.  1.
        -24    2    1    2    0    0 -0.71954817714E+03 -0.38147425909E+03 -0.75831526354E+02  0.82207450788E+03  0.82364352485E+02 0.  0.
        254    2    1    2    0    0  0.71954817714E+03  0.38147425909E+03 -0.14022757783E+04  0.18602262763E+04  0.91147805833E+03 0.  0.
         23    2    4    4    0    0  0.15867574376E+03 -0.28387035445E+03 -0.28738713266E+03  0.44296141070E+03  0.88673995951E+02 0.  0.
         23    2    4    4    0    0  0.56087243338E+03  0.66534461354E+03 -0.11148886457E+04  0.14172648656E+04  0.91660600057E+02 0.  0.
          3    1    3    3  502    0 -0.41255487086E+03 -0.20961154603E+03 -0.83200774439E+02  0.47017112903E+03  0.00000000000E+00 0. -1.
         -4    1    3    3    0  502 -0.30699330627E+03 -0.17186271306E+03  0.73692480848E+01  0.35190337886E+03  0.00000000000E+00 0.  1.
         11    1    5    5    0    0  0.82175520191E+02 -0.14185084054E+03 -0.86603959645E+02  0.18540421491E+03  0.00000000000E+00 0. -1.
        -11    1    5    5    0    0  0.76500223565E+02 -0.14201951391E+03 -0.20078317301E+03  0.25755719579E+03  0.00000000000E+00 0.  1.
          2    1    6    6  503    0  0.28511336058E+03  0.39412611481E+03 -0.66588110190E+03  0.82463486746E+03  0.00000000000E+00 0. -1.
         -2    1    6    6    0  503  0.27575907280E+03  0.27121849873E+03 -0.44900754376E+03  0.59262999810E+03  0.00000000000E+00 0.  1.
<mgrwt>
<rscale>  0 0.22382887E+04</rscale>
<asrwt>0</asrwt>
<pdfrwt beam="1">  1        1 0.92630269E-01 0.22382887E+04</pdfrwt>
<pdfrwt beam="2">  1       -2 0.32003139E+00 0.22382887E+04</pdfrwt>
<totfact> 0.64976835E-01</totfact>
</mgrwt>
</event>
<event>
12    4  0.4398275E-008  0.1527020E+04  0.7818608E-02  0.8866681E-01
         -2   -1    0    0    0  501 -0.00000000000E+00  0.00000000000E+00  0.30486763659E+03  0.30486763659E+03  0.00000000000E+00 0.  1.
          1   -1    0    0  501    0  0.00000000000E+00 -0.00000000000E+00 -0.19121336856E+04  0.19121336856E+04  0.00000000000E+00 0. -1.
        -24    2    1    2    0    0 -0.48317266357E+03  0.22490056637E+02 -0.66591253890E+03  0.82707937577E+03  0.81603669504E+02 0.  0.
        254    2    1    2    0    0  0.48317266357E+03 -0.22490056637E+02 -0.94135351013E+03  0.13899219464E+04  0.90098554966E+03 0.  0.
         23    2    4    4    0    0  0.52260189291E+03  0.20484313295E+03 -0.19051013193E+03  0.59923429070E+03  0.87830388813E+02 0.  0.
         23    2    4    4    0    0 -0.39429229331E+02 -0.22733318959E+03 -0.75084337820E+03  0.79068765574E+03  0.90477329447E+02 0.  0.
          3    1    3    3  502    0 -0.48056377150E+02  0.15477552964E+02 -0.11050813964E+03  0.12149493387E+03  0.00000000000E+00 0. -1.
         -4    1    3    3    0  502 -0.43511628642E+03  0.70125036734E+01 -0.55540439927E+03  0.70558444189E+03  0.00000000000E+00 0.  1.
         11    1    5    5    0    0  0.52051287021E+03  0.20560475283E+03 -0.19626429754E+03  0.59306545754E+03  0.00000000000E+00 0. -1.
        -11    1    5    5    0    0  0.20890226970E+01 -0.76161988108E+00  0.57541656114E+01  0.61688331599E+01  0.00000000000E+00 0.  1.
          1    1    6    6  503    0  0.49000084464E+01 -0.11115588036E+03 -0.47902803676E+03  0.49177993028E+03  0.00000000000E+00 0. -1.
         -1    1    6    6    0  503 -0.44329237777E+02 -0.11617730922E+03 -0.27181534144E+03  0.29890772546E+03  0.00000000000E+00 0.  1.
<mgrwt>
<rscale>  0 0.15270202E+04</rscale>
<asrwt>0</asrwt>
<pdfrwt beam="1">  1        1 0.29417441E+00 0.15270202E+04</pdfrwt>
<pdfrwt beam="2">  1       -2 0.46902714E-01 0.15270202E+04</pdfrwt>
<totfact> 0.12486695E+01</totfact>
</mgrwt>
</event>
<event>
12    4  0.4398275E-008  0.2598203E+04  0.7818608E-02  0.8368812E-01
         -2   -1    0    0    0  501 -0.00000000000E+00  0.00000000000E+00  0.70037757820E+03  0.70037757820E+03  0.00000000000E+00 0.  1.
          1   -1    0    0  501    0  0.00000000000E+00 -0.00000000000E+00 -0.24096497426E+04  0.24096497426E+04  0.00000000000E+00 0. -1.
        -24    2    1    2    0    0 -0.31367850316E+03  0.57960024037E+01  0.56259271716E+03  0.64905026528E+03  0.79548001021E+02 0.  0.
        254    2    1    2    0    0  0.31367850316E+03 -0.57960024037E+01 -0.22718648815E+04  0.24609770555E+04  0.89253024080E+03 0.  0.
         23    2    4    4    0    0 -0.77762527842E+02  0.33222943333E+03 -0.49814183825E+03  0.61105407440E+03  0.93906249672E+02 0.  0.
         23    2    4    4    0    0  0.39144103100E+03 -0.33802543573E+03 -0.17737230433E+04  0.18499229811E+04  0.92921072602E+02 0.  0.
          3    1    3    3  502    0 -0.12059583309E+03 -0.19086792361E+02  0.28443368054E+03  0.30953219417E+03  0.00000000000E+00 0. -1.
         -2    1    3    3    0  502 -0.19308267007E+03  0.24882794765E+02  0.27815903662E+03  0.33951807111E+03  0.00000000000E+00 0.  1.
         11    1    5    5    0    0 -0.80528883057E+02  0.31995645258E+03 -0.49925385641E+03  0.59842413529E+03  0.00000000000E+00 0. -1.
        -11    1    5    5    0    0  0.27663552156E+01  0.12272980750E+02  0.11120181650E+01  0.12629939116E+02  0.00000000000E+00 0.  1.
          4    1    6    6  503    0  0.35180822140E+03 -0.31062793004E+03 -0.14908332457E+04  0.15629595331E+04  0.00000000000E+00 0. -1.
         -4    1    6    6    0  503  0.39632809598E+02 -0.27397505692E+02 -0.28288979761E+03  0.28696344803E+03  0.00000000000E+00 0.  1.
<mgrwt>
<rscale>  0 0.25982030E+04</rscale>
<asrwt>0</asrwt>
<pdfrwt beam="1">  1        1 0.37071535E+00 0.25982030E+04</pdfrwt>
<pdfrwt beam="2">  1       -2 0.10775039E+00 0.25982030E+04</pdfrwt>
<totfact> 0.83671519E-01</totfact>
</mgrwt>
</event>
<event>
12    4  0.4398275E-008  0.2631159E+04  0.7818608E-02  0.8357694E-01
          1   -1    0    0  501    0  0.00000000000E+00  0.00000000000E+00  0.25404386648E+04  0.25404386648E+04  0.00000000000E+00 0. -1.
         -2   -1    0    0    0  501 -0.00000000000E+00 -0.00000000000E+00 -0.68127953056E+03  0.68127953056E+03  0.00000000000E+00 0.  1.
        -24    2    1    2    0    0 -0.10992026070E+04  0.37581417465E+02  0.12755145667E+04  0.16857826038E+04  0.72573020017E+02 0.  0.
        254    2    1    2    0    0  0.10992026070E+04 -0.37581417465E+02  0.58364456758E+03  0.15359355916E+04  0.89933221122E+03 0.  0.
         23    2    4    4    0    0  0.46681570408E+03 -0.44814391769E+03  0.18956417465E+03  0.68039120515E+03  0.90817086444E+02 0.  0.
         23    2    4    4    0    0  0.63238690291E+03  0.41056250023E+03  0.39408039293E+03  0.85554438646E+03  0.90454848078E+02 0.  0.
          3    1    3    3  502    0 -0.67199609117E+03 -0.11097823683E+02  0.79259685499E+03  0.10391879920E+04  0.00000000000E+00 0. -1.
         -2    1    3    3    0  502 -0.42720651583E+03  0.48679241148E+02  0.48291771169E+03  0.64659461176E+03  0.00000000000E+00 0.  1.
         11    1    5    5    0    0  0.41241863581E+03 -0.42996529285E+03  0.17879707099E+03  0.62203510899E+03  0.00000000000E+00 0. -1.
        -11    1    5    5    0    0  0.54397068275E+02 -0.18178624842E+02  0.10767103659E+02  0.58356096161E+02  0.00000000000E+00 0.  1.
          2    1    6    6  503    0  0.47252379842E+03  0.35133817575E+03  0.31047414419E+03  0.66566616861E+03  0.00000000000E+00 0.  1.
         -2    1    6    6    0  503  0.15986310448E+03  0.59224324476E+02  0.83606248749E+02  0.18987821785E+03  0.00000000000E+00 0. -1.
<mgrwt>
<rscale>  0 0.26311586E+04</rscale>
<asrwt>0</asrwt>
<pdfrwt beam="1">  1        1 0.39083671E+00 0.26311586E+04</pdfrwt>
<pdfrwt beam="2">  1       -2 0.10481224E+00 0.26311586E+04</pdfrwt>
<totfact> 0.72383033E-01</totfact>
</mgrwt>
</event>
<event>
12    4  0.4398275E-008  0.1679266E+04  0.7818608E-02  0.8773279E-01
         -2   -1    0    0    0  501 -0.00000000000E+00  0.00000000000E+00  0.89514656006E+03  0.89514656006E+03  0.00000000000E+00 0.  1.
          1   -1    0    0  501    0  0.00000000000E+00 -0.00000000000E+00 -0.78756231676E+03  0.78756231676E+03  0.00000000000E+00 0. -1.
        -24    2    1    2    0    0 -0.18987172236E+03 -0.36290923960E+03 -0.39204767486E+03  0.57265168962E+03  0.80462358434E+02 0.  0.
        254    2    1    2    0    0  0.18987172236E+03  0.36290923960E+03  0.49963191816E+03  0.11100571872E+04  0.90268517107E+03 0.  0.
         23    2    4    4    0    0  0.19102073440E+03  0.60493140488E+03  0.55167815483E+03  0.84540287769E+03  0.89029846198E+02 0.  0.
         23    2    4    4    0    0 -0.11490120394E+01 -0.24202216528E+03 -0.52046236666E+02  0.26465430950E+03  0.93579079241E+02 0.  0.
          3    1    3    3  502    0 -0.17545263029E+03 -0.36271132636E+03 -0.37654810383E+03  0.55148128368E+03  0.00000000000E+00 0. -1.
         -4    1    3    3    0  502 -0.14419092065E+02 -0.19791323411E+00 -0.15499571030E+02  0.21170405942E+02  0.00000000000E+00 0.  1.
         11    1    5    5    0    0  0.22244129724E+02  0.10727593330E+03  0.14046026725E+03  0.17813481931E+03  0.00000000000E+00 0. -1.
        -11    1    5    5    0    0  0.16877660467E+03  0.49765547158E+03  0.41121788758E+03  0.66726805838E+03  0.00000000000E+00 0.  1.
          3    1    6    6  503    0  0.41778173799E+02 -0.10396219874E+03 -0.42246904748E+02  0.11974287258E+03  0.00000000000E+00 0. -1.
         -3    1    6    6    0  503 -0.42927185838E+02 -0.13805996654E+03 -0.97993319178E+01  0.14491143692E+03  0.00000000000E+00 0.  1.
<mgrwt>
<rscale>  0 0.16792661E+04</rscale>
<asrwt>0</asrwt>
<pdfrwt beam="1">  1        1 0.12116343E+00 0.16792661E+04</pdfrwt>
<pdfrwt beam="2">  1       -2 0.13771486E+00 0.16792661E+04</pdfrwt>
<totfact> 0.70938000E+00</totfact>
</mgrwt>
</event>
<event>
12    4  0.4398275E-008  0.1389963E+04  0.7818608E-02  0.8961116E-01
         -2   -1    0    0    0  501 -0.00000000000E+00  0.00000000000E+00  0.14896809053E+04  0.14896809053E+04  0.00000000000E+00 0.  1.
          1   -1    0    0  501    0  0.00000000000E+00 -0.00000000000E+00 -0.32422994800E+03  0.32422994800E+03  0.00000000000E+00 0. -1.
        -24    2    1    2    0    0 -0.21131285004E+03 -0.20558884095E+03 -0.49145774660E+01  0.30583791468E+03  0.81195965858E+02 0.  0.
        254    2    1    2    0    0  0.21131285004E+03  0.20558884095E+03  0.11703655348E+04  0.15080729387E+04  0.90421712610E+03 0.  0.
         23    2    4    4    0    0 -0.28462280847E+03  0.14617387274E+03  0.83614798554E+03  0.90025462658E+03  0.94540968823E+02 0.  0.
         23    2    4    4    0    0  0.49593565851E+03  0.59414968211E+02  0.33421754927E+03  0.60781831208E+03  0.90881320565E+02 0.  0.
          3    1    3    3  502    0 -0.21097703745E+03 -0.18073326950E+03 -0.16742713620E+02  0.27830943839E+03  0.00000000000E+00 0. -1.
         -4    1    3    3    0  502 -0.33581258445E+00 -0.24855571452E+02  0.11828136154E+02  0.27528476296E+02  0.00000000000E+00 0.  1.
         11    1    5    5    0    0 -0.27899601042E+03  0.15193006596E+03  0.76058285349E+03  0.82426197037E+03  0.00000000000E+00 0.  1.
        -11    1    5    5    0    0 -0.56267980534E+01 -0.57561932194E+01  0.75565132055E+02  0.75992656219E+02  0.00000000000E+00 0. -1.
          2    1    6    6  503    0  0.66060176588E+02 -0.20340129362E+02  0.31013169485E+02  0.75759385390E+02  0.00000000000E+00 0. -1.
         -2    1    6    6    0  503  0.42987548192E+03  0.79755097573E+02  0.30320437979E+03  0.53205892669E+03  0.00000000000E+00 0.  1.
<mgrwt>
<rscale>  0 0.13899628E+04</rscale>
<asrwt>0</asrwt>
<pdfrwt beam="1">  1        1 0.49881531E-01 0.13899628E+04</pdfrwt>
<pdfrwt beam="2">  1       -2 0.22918167E+00 0.13899628E+04</pdfrwt>
<totfact> 0.58391362E+00</totfact>
</mgrwt>
</event>
<event>
12    4  0.4398275E-008  0.1501238E+04  0.7818608E-02  0.8883630E-01
         -2   -1    0    0    0  501 -0.00000000000E+00  0.00000000000E+00  0.59275978345E+03  0.59275978345E+03  0.00000000000E+00 0.  1.
          1   -1    0    0  501    0  0.00000000000E+00 -0.00000000000E+00 -0.95051838976E+03  0.95051838976E+03  0.00000000000E+00 0. -1.
        -24    2    1    2    0    0 -0.27521133280E+03 -0.34805831698E+02 -0.50728751234E+03  0.58494154098E+03  0.88675039129E+02 0.  0.
        254    2    1    2    0    0  0.27521133280E+03  0.34805831698E+02  0.14952890602E+03  0.95833663223E+03  0.90504004515E+03 0.  0.
         23    2    4    4    0    0  0.38614480932E+03  0.37163474247E+03  0.21489150996E+03  0.58565670890E+03  0.97955214531E+02 0.  0.
         23    2    4    4    0    0 -0.11093347652E+03 -0.33682891077E+03 -0.65362603939E+02  0.37267992333E+03  0.94117500586E+02 0.  0.
          1    1    3    3  502    0 -0.13673976930E+03 -0.42140123836E+02 -0.18336043199E+03  0.23258246401E+03  0.00000000000E+00 0. -1.
         -2    1    3    3    0  502 -0.13847156350E+03  0.73342921383E+01 -0.32392708034E+03  0.35235907697E+03  0.00000000000E+00 0.  1.
         11    1    5    5    0    0  0.26106337357E+03  0.28010158388E+03  0.10958288327E+03  0.39827049930E+03  0.00000000000E+00 0. -1.
        -11    1    5    5    0    0  0.12508143575E+03  0.91533158589E+02  0.10530862670E+03  0.18738620960E+03  0.00000000000E+00 0.  1.
          1    1    6    6  503    0 -0.72312238336E+02 -0.14496790713E+03  0.11518205062E+02  0.16241127719E+03  0.00000000000E+00 0. -1.
         -1    1    6    6    0  503 -0.38621238181E+02 -0.19186100364E+03 -0.76880809002E+02  0.21026864614E+03  0.00000000000E+00 0.  1.
<mgrwt>
<rscale>  0 0.15012383E+04</rscale>
<asrwt>0</asrwt>
<pdfrwt beam="1">  1        1 0.14623360E+00 0.15012383E+04</pdfrwt>
<pdfrwt beam="2">  1       -2 0.91193814E-01 0.15012383E+04</pdfrwt>
<totfact> 0.14391935E+01</totfact>
</mgrwt>
</event>
<event>
12    4  0.4398275E-008  0.1279364E+04  0.7818608E-02  0.9046092E-01
          1   -1    0    0  501    0  0.00000000000E+00  0.00000000000E+00  0.10258810967E+04  0.10258810967E+04  0.00000000000E+00 0. -1.
         -2   -1    0    0    0  501 -0.00000000000E+00 -0.00000000000E+00 -0.39886977711E+03  0.39886977711E+03  0.00000000000E+00 0.  1.
        -24    2    1    2    0    0 -0.31130344946E+03 -0.33817395165E+02  0.16952595373E+03  0.36516606278E+03  0.80955237989E+02 0.  0.
        254    2    1    2    0    0  0.31130344946E+03  0.33817395165E+02  0.45748536586E+03  0.10595848110E+04  0.90298043054E+03 0.  0.
         23    2    4    4    0    0 -0.28291246493E+03  0.14548090914E+03  0.24055242430E+03  0.41068789467E+03  0.97953663809E+02 0.  0.
         23    2    4    4    0    0  0.59421591439E+03 -0.11166351397E+03  0.21693294156E+03  0.64889691636E+03  0.91902196215E+02 0.  0.
          1    1    3    3  502    0 -0.13282561570E+02  0.13297905443E+02  0.23129431784E+02  0.29803210325E+02  0.00000000000E+00 0. -1.
         -2    1    3    3    0  502 -0.29802088789E+03 -0.47115300608E+02  0.14639652195E+03  0.33536285245E+03  0.00000000000E+00 0.  1.
         11    1    5    5    0    0 -0.17858354674E+03  0.46822949265E+02  0.10093138571E+03  0.21040821364E+03  0.00000000000E+00 0.  1.
        -11    1    5    5    0    0 -0.10432891819E+03  0.98657959873E+02  0.13962103859E+03  0.20027968103E+03  0.00000000000E+00 0. -1.
          3    1    6    6  503    0  0.38627873380E+03 -0.10046852064E+03  0.10606031699E+03  0.41298180912E+03  0.00000000000E+00 0. -1.
         -3    1    6    6    0  503  0.20793718059E+03 -0.11194993334E+02  0.11087262457E+03  0.23591510725E+03  0.00000000000E+00 0.  1.
<mgrwt>
<rscale>  0 0.12793638E+04</rscale>
<asrwt>0</asrwt>
<pdfrwt beam="1">  1        1 0.15782786E+00 0.12793638E+04</pdfrwt>
<pdfrwt beam="2">  1       -2 0.61364581E-01 0.12793638E+04</pdfrwt>
<totfact> 0.30772885E+01</totfact>
</mgrwt>
</event>
<event>
12    4  0.4398275E-008  0.1415956E+04  0.7818608E-02  0.8942349E-01
         -2   -1    0    0    0  501 -0.00000000000E+00  0.00000000000E+00  0.78327321701E+03  0.78327321701E+03  0.00000000000E+00 0.  1.
          1   -1    0    0  501    0  0.00000000000E+00 -0.00000000000E+00 -0.63992060644E+03  0.63992060644E+03  0.00000000000E+00 0. -1.
        -24    2    1    2    0    0 -0.22334259552E+03  0.14489647370E+02 -0.30882222642E+03  0.38988691023E+03  0.80924473358E+02 0.  0.
        254    2    1    2    0    0  0.22334259552E+03 -0.14489647370E+02  0.45217483699E+03  0.10333069132E+04  0.90175896383E+03 0.  0.
         23    2    4    4    0    0 -0.39381254815E+02  0.22319161448E+03 -0.18162567769E+03  0.30168440177E+03  0.81610118677E+02 0.  0.
         23    2    4    4    0    0  0.26272385033E+03 -0.23768126185E+03  0.63380051468E+03  0.73162251144E+03  0.89734068672E+02 0.  0.
          1    1    3    3  502    0 -0.15011512018E+03  0.43452650111E+02 -0.23310381480E+03  0.28064224661E+03  0.00000000000E+00 0. -1.
         -2    1    3    3    0  502 -0.73227475338E+02 -0.28963002740E+02 -0.75718411614E+02  0.10924466362E+03  0.00000000000E+00 0.  1.
         11    1    5    5    0    0 -0.79144729717E+01  0.85539355623E+02 -0.12009720223E+03  0.14765824808E+03  0.00000000000E+00 0.  1.
        -11    1    5    5    0    0 -0.31466781843E+02  0.13765225886E+03 -0.61528475460E+02  0.15402615369E+03  0.00000000000E+00 0. -1.
          1    1    6    6  503    0  0.12148719260E+02 -0.50052670361E+02  0.72514466969E+02  0.88944977990E+02  0.00000000000E+00 0. -1.
         -1    1    6    6    0  503  0.25057513107E+03 -0.18762859149E+03  0.56128604771E+03  0.64267753345E+03  0.00000000000E+00 0.  1.
<mgrwt>
<rscale>  0 0.14159558E+04</rscale>
<asrwt>0</asrwt>
<pdfrwt beam="1">  1        1 0.98449324E-01 0.14159558E+04</pdfrwt>
<pdfrwt beam="2">  1       -2 0.12050357E+00 0.14159558E+04</pdfrwt>
<totfact> 0.13958595E+01</totfact>
</mgrwt>
</event>
<event>
12    4  0.4398275E-008  0.1722022E+04  0.7818608E-02  0.8748903E-01
          1   -1    0    0  501    0  0.00000000000E+00  0.00000000000E+00  0.10666410735E+04  0.10666410735E+04  0.00000000000E+00 0. -1.
         -2   -1    0    0    0  501 -0.00000000000E+00 -0.00000000000E+00 -0.69502325639E+03  0.69502325639E+03  0.00000000000E+00 0.  1.
        -24    2    1    2    0    0 -0.50788387848E+03 -0.27197061421E+02 -0.22899183152E+03  0.56336417627E+03  0.79096283306E+02 0.  0.
        254    2    1    2    0    0  0.50788387848E+03  0.27197061421E+02  0.60060964866E+03  0.11983001536E+04  0.90360699089E+03 0.  0.
         23    2    4    4    0    0 -0.61730942458E+02 -0.26088489431E+03 -0.43204493657E+02  0.28694100953E+03  0.92719347180E+02 0.  0.
         23    2    4    4    0    0  0.56961482094E+03  0.28808195573E+03  0.64381414232E+03  0.91135914412E+03  0.92879396325E+02 0.  0.
          3    1    3    3  502    0 -0.57950707998E+02 -0.15764837817E+02 -0.40194478788E+01  0.60191117535E+02  0.00000000000E+00 0. -1.
         -4    1    3    3    0  502 -0.44993317048E+03 -0.11432223604E+02 -0.22497238364E+03  0.50317305874E+03  0.00000000000E+00 0.  1.
         11    1    5    5    0    0 -0.20262487055E+02 -0.25903542111E+02  0.22015572906E+02  0.39575842707E+02  0.00000000000E+00 0. -1.
        -11    1    5    5    0    0 -0.41468455403E+02 -0.23498135220E+03 -0.65220066562E+02  0.24736516682E+03  0.00000000000E+00 0.  1.
          1    1    6    6  503    0  0.41661146655E+02  0.27738036631E+02  0.90818696931E+02  0.10369708544E+03  0.00000000000E+00 0. -1.
         -1    1    6    6    0  503  0.52795367428E+03  0.26034391910E+03  0.55299544539E+03  0.80766205867E+03  0.00000000000E+00 0.  1.
<mgrwt>
<rscale>  0 0.17220225E+04</rscale>
<asrwt>0</asrwt>
<pdfrwt beam="1">  1        1 0.16409863E+00 0.17220225E+04</pdfrwt>
<pdfrwt beam="2">  1       -2 0.10692665E+00 0.17220225E+04</pdfrwt>
<totfact> 0.78754820E+00</totfact>
</mgrwt>
</event>
<event>
12    4  0.4398275E-008  0.1257218E+04  0.7818608E-02  0.9064197E-01
          1   -1    0    0  501    0  0.00000000000E+00  0.00000000000E+00  0.19087407516E+04  0.19087407516E+04  0.00000000000E+00 0. -1.
         -2   -1    0    0    0  501 -0.00000000000E+00 -0.00000000000E+00 -0.20702079884E+03  0.20702079884E+03  0.00000000000E+00 0.  1.
        -24    2    1    2    0    0  0.19406853350E+03  0.77572865089E+02  0.59759408458E+02  0.23111166333E+03  0.78493750933E+02 0.  0.
        254    2    1    2    0    0 -0.19406853350E+03 -0.77572865089E+02  0.16419605443E+04  0.18846498871E+04  0.90121619096E+03 0.  0.
         23    2    4    4    0    0 -0.28405366687E+03  0.18152197413E+02  0.72566902665E+02  0.30738672944E+03  0.90579568010E+02 0.  0.
         23    2    4    4    0    0  0.89985133373E+02 -0.95725062502E+02  0.15693936416E+04  0.15772631576E+04  0.86614400175E+02 0.  0.
          1    1    3    3  502    0  0.13244003576E+03  0.16849684176E+02  0.55213529954E+02  0.14447424967E+03  0.00000000000E+00 0. -1.
         -2    1    3    3    0  502  0.61628497741E+02  0.60723180913E+02  0.45458785034E+01  0.86637413658E+02  0.00000000000E+00 0.  1.
         11    1    5    5    0    0 -0.20495427148E+03 -0.27348503056E+02  0.40762053098E+02  0.21075041872E+03  0.00000000000E+00 0. -1.
        -11    1    5    5    0    0 -0.79099395394E+02  0.45500700469E+02  0.31804849567E+02  0.96636310726E+02  0.00000000000E+00 0.  1.
          1    1    6    6  503    0  0.96873496414E+02 -0.46822201358E+02  0.11251819462E+04  0.11303146487E+04  0.00000000000E+00 0. -1.
         -1    1    6    6    0  503 -0.68883630407E+01 -0.48902861144E+02  0.44421169538E+03  0.44694850899E+03  0.00000000000E+00 0.  1.
<mgrwt>
<rscale>  0 0.12572176E+04</rscale>
<asrwt>0</asrwt>
<pdfrwt beam="1">  1        1 0.29365241E+00 0.12572176E+04</pdfrwt>
<pdfrwt beam="2">  1       -2 0.31849355E-01 0.12572176E+04</pdfrwt>
<totfact> 0.27281916E+01</totfact>
</mgrwt>
</event>
<event>
12    4  0.4398275E-008  0.1092748E+04  0.7818608E-02  0.9212290E-01
          1   -1    0    0  501    0  0.00000000000E+00  0.00000000000E+00  0.69894449909E+03  0.69894449909E+03  0.00000000000E+00 0. -1.
         -2   -1    0    0    0  501 -0.00000000000E+00 -0.00000000000E+00 -0.42710726695E+03  0.42710726695E+03  0.00000000000E+00 0.  1.
        -24    2    1    2    0    0  0.84346069070E+02  0.13604126324E+03  0.31541218521E+02  0.18122791742E+03  0.78912767755E+02 0.  0.
        254    2    1    2    0    0 -0.84346069070E+02 -0.13604126324E+03  0.24029601362E+03  0.94482384863E+03  0.89962683714E+03 0.  0.
         23    2    4    4    0    0 -0.19242352702E+03  0.22076526545E+03 -0.19578619849E+03  0.36383230115E+03  0.90981270934E+02 0.  0.
         23    2    4    4    0    0  0.10807745795E+03 -0.35680652869E+03  0.43608221211E+03  0.58099154748E+03  0.91607023154E+02 0.  0.
          1    1    3    3  502    0  0.78410198236E+01 -0.15119439427E+01  0.22155922294E+02  0.23551060678E+02  0.00000000000E+00 0. -1.
         -2    1    3    3    0  502  0.76505049246E+02  0.13755320719E+03  0.93852962270E+01  0.15767685674E+03  0.00000000000E+00 0.  1.
         11    1    5    5    0    0  0.56686518373E+01  0.17347177352E+01  0.41144255005E+01  0.72160485359E+01  0.00000000000E+00 0.  1.
        -11    1    5    5    0    0 -0.19809217885E+03  0.21903054772E+03 -0.19990062399E+03  0.35661625261E+03  0.00000000000E+00 0. -1.
          1    1    6    6  503    0  0.39812457108E+02 -0.17739686984E+03  0.14613452438E+03  0.23325947009E+03  0.00000000000E+00 0. -1.
         -1    1    6    6    0  503  0.68265000837E+02 -0.17940965886E+03  0.28994768772E+03  0.34773207739E+03  0.00000000000E+00 0.  1.
<mgrwt>
<rscale>  0 0.10927475E+04</rscale>
<asrwt>0</asrwt>
<pdfrwt beam="1">  1        1 0.10752992E+00 0.10927475E+04</pdfrwt>
<pdfrwt beam="2">  1       -2 0.65708810E-01 0.10927475E+04</pdfrwt>
<totfact> 0.50865076E+01</totfact>
</mgrwt>
</event>
<event>
12    4  0.4398275E-008  0.1881880E+04  0.7818608E-02  0.8663929E-01
         -2   -1    0    0    0  501 -0.00000000000E+00  0.00000000000E+00  0.81696394526E+03  0.81696394526E+03  0.00000000000E+00 0.  1.
          1   -1    0    0  501    0  0.00000000000E+00 -0.00000000000E+00 -0.10837292130E+04  0.10837292130E+04  0.00000000000E+00 0. -1.
        -24    2    1    2    0    0 -0.18514840871E+03  0.54873329552E+03  0.33049255256E+03  0.67150643659E+03  0.79419167892E+02 0.  0.
        254    2    1    2    0    0  0.18514840871E+03 -0.54873329552E+03 -0.59725782029E+03  0.12291867217E+04  0.90487288055E+03 0.  0.
         23    2    4    4    0    0 -0.26896015150E+03 -0.52717351088E+03 -0.42546426518E+03  0.73431321279E+03  0.89132372678E+02 0.  0.
         23    2    4    4    0    0  0.45410856022E+03 -0.21559784633E+02 -0.17179355511E+03  0.49487350887E+03  0.93313211450E+02 0.  0.
          3    1    3    3  502    0 -0.37129762537E+02  0.15224073807E+03  0.52990565449E+02  0.16542025759E+03  0.00000000000E+00 0. -1.
         -4    1    3    3    0  502 -0.14801864618E+03  0.39649255744E+03  0.27750198711E+03  0.50608617900E+03  0.00000000000E+00 0.  1.
         11    1    5    5    0    0 -0.25913562133E+02 -0.34433619168E+02 -0.62157968929E+02  0.75635969835E+02  0.00000000000E+00 0. -1.
        -11    1    5    5    0    0 -0.24304658937E+03 -0.49273989171E+03 -0.36330629625E+03  0.65867724296E+03  0.00000000000E+00 0.  1.
          1    1    6    6  503    0  0.16539903783E+03  0.13028948118E+02 -0.10557815003E+03  0.19665538632E+03  0.00000000000E+00 0. -1.
         -1    1    6    6    0  503  0.28870952239E+03 -0.34588732751E+02 -0.66215405077E+02  0.29821812255E+03  0.00000000000E+00 0.  1.
<mgrwt>
<rscale>  0 0.18818796E+04</rscale>
<asrwt>0</asrwt>
<pdfrwt beam="1">  1        1 0.16672757E+00 0.18818796E+04</pdfrwt>
<pdfrwt beam="2">  1       -2 0.12568676E+00 0.18818796E+04</pdfrwt>
<totfact> 0.50683797E+00</totfact>
</mgrwt>
</event>
<event>
12    4  0.4398275E-008  0.1109963E+04  0.7818608E-02  0.9195535E-01
         -2   -1    0    0    0  501 -0.00000000000E+00  0.00000000000E+00  0.13988558316E+03  0.13988558316E+03  0.00000000000E+00 0.  1.
          1   -1    0    0  501    0  0.00000000000E+00 -0.00000000000E+00 -0.22018329666E+04  0.22018329666E+04  0.00000000000E+00 0. -1.
        -24    2    1    2    0    0  0.34617637969E+02  0.25217193705E+02 -0.47389850777E+01  0.90014635356E+02  0.79030936233E+02 0.  0.
        254    2    1    2    0    0 -0.34617637969E+02 -0.25217193705E+02 -0.20572083984E+04  0.22517039144E+04  0.91445603293E+03 0.  0.
         23    2    4    4    0    0  0.64351141889E-01 -0.29931119417E+03 -0.19906965193E+03  0.37097619553E+03  0.91691963826E+02 0.  0.
         23    2    4    4    0    0 -0.34681989111E+02  0.27409400046E+03 -0.18581387465E+04  0.18807277189E+04  0.90148711204E+02 0.  0.
          1    1    3    3  502    0  0.14464584061E+02 -0.25552493958E+02  0.13648452176E+02  0.32379536537E+02  0.00000000000E+00 0. -1.
         -2    1    3    3    0  502  0.20153053908E+02  0.50769687663E+02 -0.18387437254E+02  0.57635098820E+02  0.00000000000E+00 0.  1.
         11    1    5    5    0    0  0.15598133889E+02 -0.89151663576E+01  0.99420345685E+00  0.17993621440E+02  0.00000000000E+00 0. -1.
        -11    1    5    5    0    0 -0.15533782747E+02 -0.29039602781E+03 -0.20006385539E+03  0.35298257409E+03  0.00000000000E+00 0.  1.
          2    1    6    6  503    0  0.14386124960E+02  0.11239016330E+03 -0.97547625819E+03  0.98203484648E+03  0.00000000000E+00 0. -1.
         -2    1    6    6    0  503 -0.49068114071E+02  0.16170383716E+03 -0.88266248827E+03  0.89869287244E+03  0.00000000000E+00 0.  1.
<mgrwt>
<rscale>  0 0.11099634E+04</rscale>
<asrwt>0</asrwt>
<pdfrwt beam="1">  1        1 0.33874353E+00 0.11099634E+04</pdfrwt>
<pdfrwt beam="2">  1       -2 0.21520859E-01 0.11099634E+04</pdfrwt>
<totfact> 0.35831115E+01</totfact>
</mgrwt>
</event>
<event>
12    4  0.4398275E-008  0.1897810E+04  0.7818608E-02  0.8655947E-01
          1   -1    0    0  501    0  0.00000000000E+00  0.00000000000E+00  0.13515200599E+04  0.13515200599E+04  0.00000000000E+00 0. -1.
         -2   -1    0    0    0  501 -0.00000000000E+00 -0.00000000000E+00 -0.66622792290E+03  0.66622792290E+03  0.00000000000E+00 0.  1.
        -24    2    1    2    0    0 -0.41228349748E+03  0.22074392680E+03  0.86536259891E+03  0.98843300690E+03  0.97169017856E+02 0.  0.
        254    2    1    2    0    0  0.41228349748E+03 -0.22074392680E+03 -0.18007046190E+03  0.10293149759E+04  0.89908752904E+03 0.  0.
         23    2    4    4    0    0 -0.18215297271E+03  0.11909962276E+03 -0.23912692866E+03  0.33593218008E+03  0.91128019828E+02 0.  0.
         23    2    4    4    0    0  0.59443647019E+03 -0.33984354955E+03  0.59056466758E+02  0.69338279583E+03  0.91889498991E+02 0.  0.
          3    1    3    3  502    0 -0.38593893792E+03  0.19502841682E+03  0.73296893219E+03  0.85101610016E+03  0.00000000000E+00 0. -1.
         -4    1    3    3    0  502 -0.26344559554E+02  0.25715509977E+02  0.13239366672E+03  0.13741690674E+03  0.00000000000E+00 0.  1.
         11    1    5    5    0    0 -0.24634322263E+02  0.40879912763E+02 -0.13005728149E+02  0.49468839339E+02  0.00000000000E+00 0.  1.
        -11    1    5    5    0    0 -0.15751865045E+03  0.78219709995E+02 -0.22612120051E+03  0.28646334074E+03  0.00000000000E+00 0. -1.
          4    1    6    6  503    0  0.51293292890E+03 -0.25956438499E+03  0.31618060859E+02  0.57573740653E+03  0.00000000000E+00 0. -1.
         -4    1    6    6    0  503  0.81503541290E+02 -0.80279164563E+02  0.27438405899E+02  0.11764538930E+03  0.00000000000E+00 0.  1.
<mgrwt>
<rscale>  0 0.18978097E+04</rscale>
<asrwt>0</asrwt>
<pdfrwt beam="1">  1        1 0.20792616E+00 0.18978097E+04</pdfrwt>
<pdfrwt beam="2">  1       -2 0.10249660E+00 0.18978097E+04</pdfrwt>
<totfact> 0.53162853E+00</totfact>
</mgrwt>
</event>
<event>
12    4  0.4398275E-008  0.1937208E+04  0.7818608E-02  0.8636554E-01
         -2   -1    0    0    0  501 -0.00000000000E+00  0.00000000000E+00  0.57502171847E+03  0.57502171847E+03  0.00000000000E+00 0.  1.
          1   -1    0    0  501    0  0.00000000000E+00 -0.00000000000E+00 -0.16315789515E+04  0.16315789515E+04  0.00000000000E+00 0. -1.
        -24    2    1    2    0    0  0.41565430527E+03 -0.35406321192E+03  0.18741268506E+03  0.58301485800E+03  0.81569299365E+02 0.  0.
        254    2    1    2    0    0 -0.41565430527E+03  0.35406321192E+03 -0.12439699181E+04  0.16235858120E+04  0.88906719217E+03 0.  0.
         23    2    4    4    0    0 -0.38625677845E+03 -0.22530324458E+03 -0.50475004850E+03  0.67949094568E+03  0.83543299503E+02 0.  0.
         23    2    4    4    0    0 -0.29397526821E+02  0.57936645650E+03 -0.73921986957E+03  0.94409486627E+03  0.91320290426E+02 0.  0.
          3    1    3    3  502    0  0.21360560678E+03 -0.14812302531E+03  0.55567166355E+02  0.26581101530E+03  0.00000000000E+00 0. -1.
         -4    1    3    3    0  502  0.20204869848E+03 -0.20594018661E+03  0.13184551870E+03  0.31720384270E+03  0.00000000000E+00 0.  1.
         11    1    5    5    0    0 -0.27051561379E+03 -0.19967619223E+03 -0.36600314690E+03  0.49699857403E+03  0.00000000000E+00 0. -1.
        -11    1    5    5    0    0 -0.11574116465E+03 -0.25627052349E+02 -0.13874690160E+03  0.18249237165E+03  0.00000000000E+00 0.  1.
          2    1    6    6  503    0  0.28706226361E+01  0.51716217063E+03 -0.64923998985E+03  0.83004669485E+03  0.00000000000E+00 0. -1.
         -2    1    6    6    0  503 -0.32268149457E+02  0.62204285876E+02 -0.89979879721E+02  0.11404817142E+03  0.00000000000E+00 0.  1.
<mgrwt>
<rscale>  0 0.19372076E+04</rscale>
<asrwt>0</asrwt>
<pdfrwt beam="1">  1        1 0.25101215E+00 0.19372076E+04</pdfrwt>
<pdfrwt beam="2">  1       -2 0.88464880E-01 0.19372076E+04</pdfrwt>
<totfact> 0.47786764E+00</totfact>
</mgrwt>
</event>
<event>
12    4  0.4398275E-008  0.1985980E+04  0.7818608E-02  0.8613203E-01
         -2   -1    0    0    0  501 -0.00000000000E+00  0.00000000000E+00  0.56790256118E+03  0.56790256118E+03  0.00000000000E+00 0.  1.
          1   -1    0    0  501    0  0.00000000000E+00 -0.00000000000E+00 -0.17362654033E+04  0.17362654033E+04  0.00000000000E+00 0. -1.
        -24    2    1    2    0    0 -0.65294480245E+03 -0.12352256857E+03 -0.95962446270E+03  0.11699315937E+04  0.79158603932E+02 0.  0.
        254    2    1    2    0    0  0.65294480245E+03  0.12352256857E+03 -0.20873837943E+03  0.11342363708E+04  0.89516796957E+03 0.  0.
         23    2    4    4    0    0  0.41474127840E+03  0.44198198296E+03  0.10196886761E+03  0.62140902991E+03  0.91614033991E+02 0.  0.
         23    2    4    4    0    0  0.23820352405E+03 -0.31845941439E+03 -0.31070724703E+03  0.51282734086E+03  0.91080023572E+02 0.  0.
          1    1    3    3  502    0 -0.55049496657E+03 -0.75988550762E+02 -0.81508431523E+03  0.98649957375E+03  0.00000000000E+00 0. -1.
         -2    1    3    3    0  502 -0.10244983588E+03 -0.47534017810E+02 -0.14454014747E+03  0.18343201997E+03  0.00000000000E+00 0.  1.
         11    1    5    5    0    0  0.41955201981E+03  0.43925931629E+03  0.10049489267E+03  0.61568812537E+03  0.00000000000E+00 0.  1.
        -11    1    5    5    0    0 -0.48107414042E+01  0.27226666732E+01  0.14739749424E+01  0.57209045440E+01  0.00000000000E+00 0. -1.
          4    1    6    6  503    0  0.47074720223E+02 -0.13528339954E+03 -0.10710748140E+03  0.17885647891E+03  0.00000000000E+00 0.  1.
         -4    1    6    6    0  503  0.19112880383E+03 -0.18317601484E+03 -0.20359976564E+03  0.33397086195E+03  0.00000000000E+00 0. -1.
<mgrwt>
<rscale>  0 0.19859804E+04</rscale>
<asrwt>0</asrwt>
<pdfrwt beam="1">  1        1 0.26711776E+00 0.19859804E+04</pdfrwt>
<pdfrwt beam="2">  1       -2 0.87369624E-01 0.19859804E+04</pdfrwt>
<totfact> 0.41537511E+00</totfact>
</mgrwt>
</event>
<event>
12    4  0.4398275E-008  0.3121892E+04  0.7818608E-02  0.8209755E-01
          1   -1    0    0  501    0  0.00000000000E+00  0.00000000000E+00  0.35995068781E+04  0.35995068781E+04  0.00000000000E+00 0. -1.
         -2   -1    0    0    0  501 -0.00000000000E+00 -0.00000000000E+00 -0.67691277974E+03  0.67691277974E+03  0.00000000000E+00 0.  1.
        -24    2    1    2    0    0 -0.89469219978E+02 -0.10996848476E+03  0.32875554988E+04  0.32913977895E+04  0.71975286116E+02 0.  0.
        254    2    1    2    0    0  0.89469219978E+02  0.10996848476E+03 -0.36496140047E+03  0.98502186836E+03  0.90386583537E+03 0.  0.
         23    2    4    4    0    0 -0.30904132222E+03 -0.20961840165E+03 -0.79260002387E+02  0.39246179879E+03  0.91091725117E+02 0.  0.
         23    2    4    4    0    0  0.39851054220E+03  0.31958688641E+03 -0.28570139808E+03  0.59256006956E+03  0.92497118709E+02 0.  0.
          3    1    3    3  502    0 -0.78858794601E+02 -0.11655047680E+03  0.31813574748E+04  0.31844682610E+04  0.00000000000E+00 0. -1.
         -4    1    3    3    0  502 -0.10610425376E+02  0.65819920431E+01  0.10619802399E+03  0.10692952841E+03  0.00000000000E+00 0.  1.
         11    1    5    5    0    0 -0.14628227313E+03 -0.86100136721E+02 -0.81128451618E+02  0.18813176934E+03  0.00000000000E+00 0. -1.
        -11    1    5    5    0    0 -0.16275904910E+03 -0.12351826493E+03  0.18684492310E+01  0.20433002945E+03  0.00000000000E+00 0.  1.
          3    1    6    6  503    0  0.36145391376E+03  0.31518463411E+03 -0.24960325853E+03  0.54064042766E+03  0.00000000000E+00 0. -1.
         -3    1    6    6    0  503  0.37056628438E+02  0.44022522997E+01 -0.36098139552E+02  0.51919641906E+02  0.00000000000E+00 0.  1.
<mgrwt>
<rscale>  0 0.31218919E+04</rscale>
<asrwt>0</asrwt>
<pdfrwt beam="1">  1        1 0.55377027E+00 0.31218919E+04</pdfrwt>
<pdfrwt beam="2">  1       -2 0.10414043E+00 0.31218919E+04</pdfrwt>
<totfact> 0.11562499E-01</totfact>
</mgrwt>
</event>
<event>
12    4  0.4398275E-008  0.9996465E+03  0.7818608E-02  0.9308933E-01
         -2   -1    0    0    0  501 -0.00000000000E+00  0.00000000000E+00  0.10417789867E+04  0.10417789867E+04  0.00000000000E+00 0.  1.
          1   -1    0    0  501    0  0.00000000000E+00 -0.00000000000E+00 -0.23980447761E+03  0.23980447761E+03  0.00000000000E+00 0. -1.
        -24    2    1    2    0    0  0.13443898077E+02 -0.21927559045E+02  0.47046505481E+02  0.96998587033E+02  0.80831899441E+02 0.  0.
        254    2    1    2    0    0 -0.13443898077E+02  0.21927559045E+02  0.75492800365E+03  0.11845848773E+04  0.91250396418E+03 0.  0.
         23    2    4    4    0    0 -0.89532265177E+02  0.41102263880E+03  0.62264632370E+03  0.75668155049E+03  0.89010607910E+02 0.  0.
         23    2    4    4    0    0  0.76088367100E+02 -0.38909507976E+03  0.13228167995E+03  0.42790332684E+03  0.91751804170E+02 0.  0.
          1    1    3    3  502    0 -0.26051502439E+02 -0.34511392675E+02  0.26738242847E+02  0.50839459421E+02  0.00000000000E+00 0. -1.
         -2    1    3    3    0  502  0.39495400515E+02  0.12583833630E+02  0.20308262634E+02  0.46159127612E+02  0.00000000000E+00 0.  1.
         11    1    5    5    0    0  0.83901807315E+01  0.12451824114E+01  0.94932440051E+01  0.12730565333E+02  0.00000000000E+00 0.  1.
        -11    1    5    5    0    0 -0.97922445909E+02  0.40977745639E+03  0.61315307969E+03  0.74395098516E+03  0.00000000000E+00 0. -1.
          3    1    6    6  503    0  0.60431743389E+02 -0.36980986831E+03  0.10124856786E+03  0.38815281373E+03  0.00000000000E+00 0. -1.
         -3    1    6    6    0  503  0.15656623711E+02 -0.19285211443E+02  0.31033112089E+02  0.39750513108E+02  0.00000000000E+00 0.  1.
<mgrwt>
<rscale>  0 0.99964647E+03</rscale>
<asrwt>0</asrwt>
<pdfrwt beam="1">  1        1 0.36892997E-01 0.99964647E+03</pdfrwt>
<pdfrwt beam="2">  1       -2 0.16027369E+00 0.99964647E+03</pdfrwt>
<totfact> 0.25706968E+01</totfact>
</mgrwt>
</event>
<event>
12    4  0.4398275E-008  0.1382241E+04  0.7818608E-02  0.8966775E-01
          3   -1    0    0  501    0  0.00000000000E+00  0.00000000000E+00  0.22896731793E+03  0.22896731793E+03  0.00000000000E+00 0. -1.
         -4   -1    0    0    0  501 -0.00000000000E+00 -0.00000000000E+00 -0.20860947541E+04  0.20860947541E+04  0.00000000000E+00 0.  1.
        -24    2    1    2    0    0  0.12052088505E+03 -0.30428220059E+03 -0.89148041982E+03  0.95312477769E+03  0.81219219305E+02 0.  0.
        254    2    1    2    0    0 -0.12052088505E+03  0.30428220059E+03 -0.96564701630E+03  0.13619372943E+04  0.90293194215E+03 0.  0.
         23    2    4    4    0    0 -0.35487494439E+03 -0.80813291401E+02 -0.11149236678E+03  0.39173575472E+03  0.92516698238E+02 0.  0.
         23    2    4    4    0    0  0.23435405934E+03  0.38509549199E+03 -0.85415464953E+03  0.97020153957E+03  0.92143903754E+02 0.  0.
          3    1    3    3  502    0  0.10885075017E+02 -0.69880616410E+02 -0.28695900016E+03  0.29554568713E+03  0.00000000000E+00 0. -1.
         -4    1    3    3    0  502  0.10963581003E+03 -0.23440158418E+03 -0.60452141966E+03  0.65757909056E+03  0.00000000000E+00 0.  1.
         11    1    5    5    0    0 -0.24605473802E+03 -0.42017069285E+02 -0.11783709509E+03  0.27603251474E+03  0.00000000000E+00 0. -1.
        -11    1    5    5    0    0 -0.10882020637E+03 -0.38796222116E+02  0.63447283119E+01  0.11570323998E+03  0.00000000000E+00 0.  1.
          4    1    6    6  503    0  0.20897921214E+03  0.26667979778E+03 -0.61616864492E+03  0.70317439134E+03  0.00000000000E+00 0. -1.
         -4    1    6    6    0  503  0.25374847205E+02  0.11841569421E+03 -0.23798600461E+03  0.26702714824E+03  0.00000000000E+00 0.  1.
<mgrwt>
<rscale>  0 0.13822410E+04</rscale>
<asrwt>0</asrwt>
<pdfrwt beam="1">  1        3 0.35225741E-01 0.13822410E+04</pdfrwt>
<pdfrwt beam="2">  1       -4 0.32093766E+00 0.13822410E+04</pdfrwt>
<totfact> 0.40924047E-01</totfact>
</mgrwt>
</event>
<event>
12    4  0.4398275E-008  0.1512793E+04  0.7818608E-02  0.8875990E-01
         -2   -1    0    0    0  501 -0.00000000000E+00  0.00000000000E+00  0.29113184238E+03  0.29113184238E+03  0.00000000000E+00 0.  1.
          1   -1    0    0  501    0  0.00000000000E+00 -0.00000000000E+00 -0.19652104158E+04  0.19652104158E+04  0.00000000000E+00 0. -1.
        -24    2    1    2    0    0 -0.24697478854E+03  0.11061723404E+02  0.81388243791E+02  0.27234627582E+03  0.80184411375E+02 0.  0.
        254    2    1    2    0    0  0.24697478854E+03 -0.11061723404E+02 -0.17554668173E+04  0.19839959824E+04  0.89076225997E+03 0.  0.
         23    2    4    4    0    0 -0.34075399285E+02 -0.40897250757E+03 -0.66615660832E+03  0.78750991007E+03  0.89373300655E+02 0.  0.
         23    2    4    4    0    0  0.28105018782E+03  0.39791078417E+03 -0.10893102089E+04  0.11964860723E+04  0.87521367365E+02 0.  0.
          3    1    3    3  502    0 -0.69229397199E+02  0.37793663180E+02  0.37431578982E+02  0.87305174636E+02  0.00000000000E+00 0. -1.
         -2    1    3    3    0  502 -0.17774539134E+03 -0.26731939776E+02  0.43956664809E+02  0.18504110118E+03  0.00000000000E+00 0.  1.
         11    1    5    5    0    0 -0.62170448228E+02 -0.27876900330E+03 -0.42599462504E+03  0.51288277646E+03  0.00000000000E+00 0.  1.
        -11    1    5    5    0    0  0.28095048944E+02 -0.13020350427E+03 -0.24016198328E+03  0.27462713361E+03  0.00000000000E+00 0. -1.
          1    1    6    6  503    0  0.55118547854E+02  0.14220583006E+03 -0.29864471509E+03  0.33533448715E+03  0.00000000000E+00 0. -1.
         -1    1    6    6    0  503  0.22593163997E+03  0.25570495411E+03 -0.79066549385E+03  0.86115158518E+03  0.00000000000E+00 0.  1.
<mgrwt>
<rscale>  0 0.15127926E+04</rscale>
<asrwt>0</asrwt>
<pdfrwt beam="1">  1        1 0.30234006E+00 0.15127926E+04</pdfrwt>
<pdfrwt beam="2">  1       -2 0.44789515E-01 0.15127926E+04</pdfrwt>
<totfact> 0.12625246E+01</totfact>
</mgrwt>
</event>
<event>
12    4  0.4398275E-008  0.1493318E+04  0.7818608E-02  0.8888909E-01
         -2   -1    0    0    0  501 -0.00000000000E+00  0.00000000000E+00  0.72709584520E+03  0.72709584520E+03  0.00000000000E+00 0.  1.
          1   -1    0    0  501    0  0.00000000000E+00 -0.00000000000E+00 -0.76674853318E+03  0.76674853318E+03  0.00000000000E+00 0. -1.
        -24    2    1    2    0    0 -0.43811642459E+03  0.14974480120E+03 -0.14882904242E+02  0.47026185503E+03  0.80964217271E+02 0.  0.
        254    2    1    2    0    0  0.43811642459E+03 -0.14974480120E+03 -0.24769783732E+02  0.10235825234E+04  0.91254486627E+03 0.  0.
         23    2    4    4    0    0  0.10912205570E+02  0.34244326189E+03 -0.76380974253E+02  0.36310870754E+03  0.92883886768E+02 0.  0.
         23    2    4    4    0    0  0.42720421902E+03 -0.49218806309E+03  0.51611190520E+02  0.66047381581E+03  0.93858468984E+02 0.  0.
          3    1    3    3  502    0 -0.29642273105E+03  0.89295209099E+02  0.26610434446E+02  0.31072203828E+03  0.00000000000E+00 0. -1.
         -4    1    3    3    0  502 -0.14169369353E+03  0.60449592100E+02 -0.41493338687E+02  0.15953981675E+03  0.00000000000E+00 0.  1.
         11    1    5    5    0    0  0.41962331022E+02  0.25154419103E+03 -0.31082446666E+02  0.25690744590E+03  0.00000000000E+00 0. -1.
        -11    1    5    5    0    0 -0.31050125452E+02  0.90899070856E+02 -0.45298527587E+02  0.10620126164E+03  0.00000000000E+00 0.  1.
          1    1    6    6  503    0  0.12011075835E+03 -0.20684619735E+03  0.14229320845E+02  0.23961305724E+03  0.00000000000E+00 0. -1.
         -1    1    6    6    0  503  0.30709346067E+03 -0.28534186574E+03  0.37381869675E+02  0.42086075858E+03  0.00000000000E+00 0.  1.
<mgrwt>
<rscale>  0 0.14933180E+04</rscale>
<asrwt>0</asrwt>
<pdfrwt beam="1">  1        1 0.11796131E+00 0.14933180E+04</pdfrwt>
<pdfrwt beam="2">  1       -2 0.11186090E+00 0.14933180E+04</pdfrwt>
<totfact> 0.12650051E+01</totfact>
</mgrwt>
</event>
<event>
12    4  0.4398275E-008  0.2616204E+04  0.7818608E-02  0.8362718E-01
          1   -1    0    0  501    0  0.00000000000E+00  0.00000000000E+00  0.16441363169E+04  0.16441363169E+04  0.00000000000E+00 0. -1.
         -2   -1    0    0    0  501 -0.00000000000E+00 -0.00000000000E+00 -0.10407478470E+04  0.10407478470E+04  0.00000000000E+00 0.  1.
        -24    2    1    2    0    0  0.31018383238E+02  0.11437596264E+04  0.14644490004E+03  0.11562747173E+04  0.79855431544E+02 0.  0.
        254    2    1    2    0    0 -0.31018383238E+02 -0.11437596264E+04  0.45694356987E+03  0.15286094466E+04  0.90482108240E+03 0.  0.
         23    2    4    4    0    0  0.25610527462E+03  0.37728206425E+00  0.12384109644E+03  0.29927287661E+03  0.92938600576E+02 0.  0.
         23    2    4    4    0    0 -0.28712365786E+03 -0.11441369085E+04  0.33310247343E+03  0.12293365700E+04  0.93924886646E+02 0.  0.
          1    1    3    3  502    0  0.23399534967E+01  0.51928105146E+02  0.23904560610E+02  0.57213910061E+02  0.00000000000E+00 0. -1.
         -2    1    3    3    0  502  0.28678429742E+02  0.10918315213E+04  0.12254033943E+03  0.10990608072E+04  0.00000000000E+00 0.  1.
         11    1    5    5    0    0  0.81477502944E+02 -0.19931594956E+02  0.84615153280E+02  0.11914518928E+03  0.00000000000E+00 0.  1.
        -11    1    5    5    0    0  0.17462777168E+03  0.20308877021E+02  0.39225943155E+02  0.18012768733E+03  0.00000000000E+00 0. -1.
          3    1    6    6  503    0 -0.71455293290E+02 -0.29384663089E+03  0.12848712401E+03  0.32857364846E+03  0.00000000000E+00 0. -1.
         -3    1    6    6    0  503 -0.21566836457E+03 -0.85029027759E+03  0.20461534942E+03  0.90076292156E+03  0.00000000000E+00 0.  1.
<mgrwt>
<rscale>  0 0.26162044E+04</rscale>
<asrwt>0</asrwt>
<pdfrwt beam="1">  1        1 0.25294405E+00 0.26162044E+04</pdfrwt>
<pdfrwt beam="2">  1       -2 0.16011505E+00 0.26162044E+04</pdfrwt>
<totfact> 0.10108111E+00</totfact>
</mgrwt>
</event>
<event>
12    4  0.4398275E-008  0.1792777E+04  0.7818608E-02  0.8710150E-01
         -2   -1    0    0    0  501 -0.00000000000E+00  0.00000000000E+00  0.18900965470E+04  0.18900965470E+04  0.00000000000E+00 0.  1.
          1   -1    0    0  501    0  0.00000000000E+00 -0.00000000000E+00 -0.42511719919E+03  0.42511719919E+03  0.00000000000E+00 0. -1.
        -24    2    1    2    0    0  0.15491843704E+03  0.24662780802E+01 -0.28962432772E+03  0.33902963682E+03  0.83982371813E+02 0.  0.
        254    2    1    2    0    0 -0.15491843704E+03 -0.24662780802E+01  0.17546036755E+04  0.19761841094E+04  0.89591504694E+03 0.  0.
         23    2    4    4    0    0  0.36549537746E+03 -0.27559258142E+02  0.65839876708E+03  0.75901023976E+03  0.90891275206E+02 0.  0.
         23    2    4    4    0    0 -0.52041381450E+03  0.25092980061E+02  0.10962049085E+04  0.12171738696E+04  0.91579646292E+02 0.  0.
          1    1    3    3  502    0  0.40355190881E+02  0.35563786903E+02 -0.12184364919E+03  0.13318858516E+03  0.00000000000E+00 0. -1.
         -2    1    3    3    0  502  0.11456324616E+03 -0.33097508823E+02 -0.16778067853E+03  0.20584105166E+03  0.00000000000E+00 0.  1.
         11    1    5    5    0    0  0.53117583811E+01 -0.97329806099E+01  0.54611287161E+02  0.55725563021E+02  0.00000000000E+00 0.  1.
        -11    1    5    5    0    0  0.36018361908E+03 -0.17826277532E+02  0.60378747992E+03  0.70328467674E+03  0.00000000000E+00 0. -1.
          1    1    6    6  503    0 -0.46984083578E+03 -0.15677311634E+01  0.10070770782E+04  0.11112862413E+04  0.00000000000E+00 0. -1.
         -1    1    6    6    0  503 -0.50572978725E+02  0.26660711225E+02  0.89127830275E+02  0.10588762831E+03  0.00000000000E+00 0.  1.
<mgrwt>
<rscale>  0 0.17927772E+04</rscale>
<asrwt>0</asrwt>
<pdfrwt beam="1">  1        1 0.65402647E-01 0.17927772E+04</pdfrwt>
<pdfrwt beam="2">  1       -2 0.29078408E+00 0.17927772E+04</pdfrwt>
<totfact> 0.16549070E+00</totfact>
</mgrwt>
</event>
<event>
12    4  0.4398275E-008  0.2675868E+04  0.7818608E-02  0.8342878E-01
         -2   -1    0    0    0  501 -0.00000000000E+00  0.00000000000E+00  0.13078826155E+04  0.13078826155E+04  0.00000000000E+00 0.  1.
          1   -1    0    0  501    0  0.00000000000E+00 -0.00000000000E+00 -0.13686760084E+04  0.13686760084E+04  0.00000000000E+00 0. -1.
        -24    2    1    2    0    0  0.83556291243E+03 -0.12517167580E+02 -0.85776590049E+03  0.12001139096E+04  0.78670170826E+02 0.  0.
        254    2    1    2    0    0 -0.83556291243E+03  0.12517167580E+02  0.79697250757E+03  0.14764447143E+04  0.92000095455E+03 0.  0.
         23    2    4    4    0    0 -0.59794625907E+03  0.25849105063E+03  0.89380322386E+03  0.11099984638E+04  0.94101193298E+02 0.  0.
         23    2    4    4    0    0 -0.23761665336E+03 -0.24597388306E+03 -0.96830716291E+02  0.36644625051E+03  0.89117011829E+02 0.  0.
          3    1    3    3  502    0  0.76559888838E+03 -0.15474341679E+02 -0.81379352552E+03  0.11174260671E+04  0.00000000000E+00 0. -1.
         -4    1    3    3    0  502  0.69964024050E+02  0.29571740992E+01 -0.43972374972E+02  0.82687842520E+02  0.00000000000E+00 0.  1.
         11    1    5    5    0    0 -0.50892083668E+03  0.20132238563E+03  0.79546115626E+03  0.96555143420E+03  0.00000000000E+00 0.  1.
        -11    1    5    5    0    0 -0.89025422393E+02  0.57168665008E+02  0.98342067598E+02  0.14444702957E+03  0.00000000000E+00 0. -1.
          3    1    6    6  503    0 -0.27285595473E+02 -0.53288803449E+02  0.12149339112E+02  0.61088515567E+02  0.00000000000E+00 0. -1.
         -3    1    6    6    0  503 -0.21033105789E+03 -0.19268507961E+03 -0.10898005540E+03  0.30535773495E+03  0.00000000000E+00 0.  1.
<mgrwt>
<rscale>  0 0.26758681E+04</rscale>
<asrwt>0</asrwt>
<pdfrwt beam="1">  1        1 0.21056554E+00 0.26758681E+04</pdfrwt>
<pdfrwt beam="2">  1       -2 0.20121271E+00 0.26758681E+04</pdfrwt>
<totfact> 0.81085596E-01</totfact>
</mgrwt>
</event>
<event>
12    4  0.4398275E-008  0.1444086E+04  0.7818608E-02  0.8922511E-01
          1   -1    0    0  501    0  0.00000000000E+00  0.00000000000E+00  0.90357208120E+03  0.90357208120E+03  0.00000000000E+00 0. -1.
         -2   -1    0    0    0  501 -0.00000000000E+00 -0.00000000000E+00 -0.57698377604E+03  0.57698377604E+03  0.00000000000E+00 0.  1.
        -24    2    1    2    0    0 -0.57274083697E+02 -0.87406456498E+02 -0.33540810196E+03  0.36039166070E+03  0.80394931063E+02 0.  0.
        254    2    1    2    0    0  0.57274083697E+02  0.87406456498E+02  0.66199640712E+03  0.11201641965E+04  0.89755689226E+03 0.  0.
         23    2    4    4    0    0  0.68833989049E+02  0.46772564958E+03  0.50688751756E+03  0.69914529433E+03  0.91453735822E+02 0.  0.
         23    2    4    4    0    0 -0.11559905352E+02 -0.38031919308E+03  0.15510888956E+03  0.42101890220E+03  0.91770520064E+02 0.  0.
          3    1    3    3  502    0 -0.33209904464E+02 -0.70170187135E+02 -0.11975468485E+03  0.14271628310E+03  0.00000000000E+00 0. -1.
         -4    1    3    3    0  502 -0.24064179233E+02 -0.17236269363E+02 -0.21565341711E+03  0.21767537761E+03  0.00000000000E+00 0.  1.
         11    1    5    5    0    0  0.39987082526E+02  0.41684247645E+03  0.47223526627E+03  0.63115985586E+03  0.00000000000E+00 0.  1.
        -11    1    5    5    0    0  0.28846906523E+02  0.50883173133E+02  0.34652251293E+02  0.67985438468E+02  0.00000000000E+00 0. -1.
          1    1    6    6  503    0 -0.39746885830E+02 -0.78977304250E+02  0.27874714062E+02  0.92705065685E+02  0.00000000000E+00 0. -1.
         -1    1    6    6    0  503  0.28186980478E+02 -0.30134188883E+03  0.12723417550E+03  0.32831383652E+03  0.00000000000E+00 0.  1.
<mgrwt>
<rscale>  0 0.14440865E+04</rscale>
<asrwt>0</asrwt>
<pdfrwt beam="1">  1        1 0.13901109E+00 0.14440865E+04</pdfrwt>
<pdfrwt beam="2">  1       -2 0.88766734E-01 0.14440865E+04</pdfrwt>
<totfact> 0.16793213E+01</totfact>
</mgrwt>
</event>
<event>
12    4  0.4398275E-008  0.1824373E+04  0.7818608E-02  0.8693444E-01
         -2   -1    0    0    0  501 -0.00000000000E+00  0.00000000000E+00  0.15179197880E+04  0.15179197880E+04  0.00000000000E+00 0.  1.
          1   -1    0    0  501    0  0.00000000000E+00 -0.00000000000E+00 -0.54817408076E+03  0.54817408076E+03  0.00000000000E+00 0. -1.
        -24    2    1    2    0    0  0.19497153599E+03 -0.23492677726E+03  0.10581218300E+04  0.11040369220E+04  0.77918081807E+02 0.  0.
        254    2    1    2    0    0 -0.19497153599E+03  0.23492677726E+03 -0.88376122750E+02  0.96205694677E+03  0.90804115504E+03 0.  0.
         23    2    4    4    0    0 -0.40160625222E+03  0.43343685707E+03  0.99207854305E+02  0.60626053291E+03  0.92490780710E+02 0.  0.
         23    2    4    4    0    0  0.20663471623E+03 -0.19851007981E+03 -0.18758397706E+03  0.35579641387E+03  0.96432266063E+02 0.  0.
          1    1    3    3  502    0  0.35232142498E+02 -0.78696464114E+02  0.21085522752E+03  0.22780334568E+03  0.00000000000E+00 0. -1.
         -2    1    3    3    0  502  0.15973939349E+03 -0.15623031315E+03  0.84726660250E+03  0.87623357633E+03  0.00000000000E+00 0.  1.
         11    1    5    5    0    0 -0.27428080297E+02  0.95210056086E+01  0.20120058854E+02  0.35323730054E+02  0.00000000000E+00 0.  1.
        -11    1    5    5    0    0 -0.37417817192E+03  0.42391585146E+03  0.79087795451E+02  0.57093680285E+03  0.00000000000E+00 0. -1.
          3    1    6    6  503    0  0.16716074087E+03 -0.13748485994E+03 -0.90678339466E+02  0.23466435871E+03  0.00000000000E+00 0. -1.
         -3    1    6    6    0  503  0.39473975361E+02 -0.61025219870E+02 -0.96905637589E+02  0.12113205516E+03  0.00000000000E+00 0.  1.
<mgrwt>
<rscale>  0 0.18243731E+04</rscale>
<asrwt>0</asrwt>
<pdfrwt beam="1">  1        1 0.84334475E-01 0.18243731E+04</pdfrwt>
<pdfrwt beam="2">  1       -2 0.23352612E+00 0.18243731E+04</pdfrwt>
<totfact> 0.26093611E+00</totfact>
</mgrwt>
</event>
<event>
12    4  0.4398275E-008  0.1651496E+04  0.7818608E-02  0.8789522E-01
          1   -1    0    0  501    0  0.00000000000E+00  0.00000000000E+00  0.20805365770E+04  0.20805365770E+04  0.00000000000E+00 0. -1.
         -2   -1    0    0    0  501 -0.00000000000E+00 -0.00000000000E+00 -0.32773258023E+03  0.32773258023E+03  0.00000000000E+00 0.  1.
        -24    2    1    2    0    0 -0.13110249748E+03 -0.42381394842E+03  0.84393522353E+02  0.45916799199E+03  0.83107463767E+02 0.  0.
        254    2    1    2    0    0  0.13110249748E+03  0.42381394842E+03  0.16684104744E+04  0.19491011652E+04  0.90476279403E+03 0.  0.
         23    2    4    4    0    0  0.77069238602E+02 -0.20020917892E+03  0.10049089872E+04  0.10320431686E+04  0.96164683481E+02 0.  0.
         23    2    4    4    0    0  0.54033258880E+02  0.62402312734E+03  0.66350148714E+03  0.91705799661E+03  0.91851451784E+02 0.  0.
          3    1    3    3  502    0 -0.97790088295E+02 -0.20407752748E+03  0.68110311940E+02  0.23632510062E+03  0.00000000000E+00 0. -1.
         -4    1    3    3    0  502 -0.33312409187E+02 -0.21973642094E+03  0.16283210413E+02  0.22284289137E+03  0.00000000000E+00 0.  1.
         11    1    5    5    0    0  0.69134158575E+02 -0.66199413850E+02  0.31609532449E+03  0.33026981158E+03  0.00000000000E+00 0. -1.
        -11    1    5    5    0    0  0.79350800271E+01 -0.13400976507E+03  0.68881366275E+03  0.70177335701E+03  0.00000000000E+00 0.  1.
          3    1    6    6  503    0 -0.16322518513E+02  0.16567661719E+03  0.13822802412E+03  0.21638427102E+03  0.00000000000E+00 0. -1.
         -3    1    6    6    0  503  0.70355777393E+02  0.45834651015E+03  0.52527346302E+03  0.70067372559E+03  0.00000000000E+00 0.  1.
<mgrwt>
<rscale>  0 0.16514958E+04</rscale>
<asrwt>0</asrwt>
<pdfrwt beam="1">  1        1 0.32008254E+00 0.16514958E+04</pdfrwt>
<pdfrwt beam="2">  1       -2 0.50420398E-01 0.16514958E+04</pdfrwt>
<totfact> 0.82032046E+00</totfact>
</mgrwt>
</event>
<event>
12    4  0.4398275E-008  0.1027702E+04  0.7818608E-02  0.9278673E-01
         -2   -1    0    0    0  501 -0.00000000000E+00  0.00000000000E+00  0.10599686519E+04  0.10599686519E+04  0.00000000000E+00 0.  1.
          1   -1    0    0  501    0  0.00000000000E+00 -0.00000000000E+00 -0.24910458105E+03  0.24910458105E+03  0.00000000000E+00 0. -1.
        -24    2    1    2    0    0  0.53324508207E+02 -0.81498257109E+02  0.88420638438E+02  0.15300387628E+03  0.78144147368E+02 0.  0.
        254    2    1    2    0    0 -0.53324508207E+02  0.81498257109E+02  0.72244343244E+03  0.11560693567E+04  0.89726605604E+03 0.  0.
         23    2    4    4    0    0 -0.29453349108E+03 -0.19094717527E+03  0.26520817595E+02  0.36517795684E+03  0.97163703520E+02 0.  0.
         23    2    4    4    0    0  0.24120898287E+03  0.27244543238E+03  0.69592261485E+03  0.79089139986E+03  0.93769043215E+02 0.  0.
          1    1    3    3  502    0  0.20642808107E+02  0.11892071857E+02  0.68981677299E+01  0.24801847061E+02  0.00000000000E+00 0. -1.
         -2    1    3    3    0  502  0.32681700099E+02 -0.93390328965E+02  0.81522470708E+02  0.12820202922E+03  0.00000000000E+00 0.  1.
         11    1    5    5    0    0 -0.12558131699E+03 -0.26308595688E+02  0.87406968822E+01  0.12860485670E+03  0.00000000000E+00 0. -1.
        -11    1    5    5    0    0 -0.16895217409E+03 -0.16463857959E+03  0.17780120712E+02  0.23657310014E+03  0.00000000000E+00 0.  1.
          2    1    6    6  503    0  0.36189859515E+02  0.34987111390E+02  0.18153894250E+03  0.18838840607E+03  0.00000000000E+00 0. -1.
         -2    1    6    6    0  503  0.20501912336E+03  0.23745832099E+03  0.51438367235E+03  0.60250299379E+03  0.00000000000E+00 0.  1.
<mgrwt>
<rscale>  0 0.10277024E+04</rscale>
<asrwt>0</asrwt>
<pdfrwt beam="1">  1        1 0.38323782E-01 0.10277024E+04</pdfrwt>
<pdfrwt beam="2">  1       -2 0.16307210E+00 0.10277024E+04</pdfrwt>
<totfact> 0.23296063E+01</totfact>
</mgrwt>
</event>
<event>
12    4  0.4398275E-008  0.1417914E+04  0.7818608E-02  0.8940953E-01
         -2   -1    0    0    0  501 -0.00000000000E+00  0.00000000000E+00  0.20992805285E+03  0.20992805285E+03  0.00000000000E+00 0.  1.
          1   -1    0    0  501    0  0.00000000000E+00 -0.00000000000E+00 -0.23942482040E+04  0.23942482040E+04  0.00000000000E+00 0. -1.
        -24    2    1    2    0    0 -0.32068426870E+03 -0.10577203701E+03 -0.11249729381E+04  0.11773649418E+04  0.81227894657E+02 0.  0.
        254    2    1    2    0    0  0.32068426870E+03  0.10577203701E+03 -0.10593472130E+04  0.14268113150E+04  0.89417441630E+03 0.  0.
         23    2    4    4    0    0  0.53345228785E+03  0.28668757124E+03 -0.90510386684E+03  0.10928909025E+04  0.91849921821E+02 0.  0.
         23    2    4    4    0    0 -0.21276801915E+03 -0.18091553423E+03 -0.15424334620E+03  0.33392041245E+03  0.98545276440E+02 0.  0.
          1    1    3    3  502    0 -0.25323649611E+03 -0.69998682396E+02 -0.96468700221E+03  0.99982476001E+03  0.00000000000E+00 0. -1.
         -2    1    3    3    0  502 -0.67447772592E+02 -0.35773354614E+02 -0.16028593586E+03  0.17754018182E+03  0.00000000000E+00 0.  1.
         11    1    5    5    0    0  0.38171482881E+03  0.18194144750E+03 -0.56117891379E+03  0.70265971432E+03  0.00000000000E+00 0.  1.
        -11    1    5    5    0    0  0.15173745904E+03  0.10474612374E+03 -0.34392495305E+03  0.39023118820E+03  0.00000000000E+00 0. -1.
          4    1    6    6  503    0 -0.12094701064E+02 -0.52400060446E+02 -0.81166482156E+01  0.54386837625E+02  0.00000000000E+00 0. -1.
         -4    1    6    6    0  503 -0.20067331809E+03 -0.12851547378E+03 -0.14612669798E+03  0.27953357483E+03  0.00000000000E+00 0.  1.
<mgrwt>
<rscale>  0 0.14179138E+04</rscale>
<asrwt>0</asrwt>
<pdfrwt beam="1">  1        1 0.36834589E+00 0.14179138E+04</pdfrwt>
<pdfrwt beam="2">  1       -2 0.32296623E-01 0.14179138E+04</pdfrwt>
<totfact> 0.12268914E+01</totfact>
</mgrwt>
</event>
<event>
12    4  0.4398275E-008  0.1578321E+04  0.7818608E-02  0.8833978E-01
          1   -1    0    0  501    0  0.00000000000E+00  0.00000000000E+00  0.72833804588E+03  0.72833804588E+03  0.00000000000E+00 0. -1.
         -2   -1    0    0    0  501 -0.00000000000E+00 -0.00000000000E+00 -0.85506234409E+03  0.85506234409E+03  0.00000000000E+00 0.  1.
        -24    2    1    2    0    0  0.11141066816E+03  0.45379619994E+03  0.21262465129E+03  0.51953262867E+03  0.79759525188E+02 0.  0.
        254    2    1    2    0    0 -0.11141066816E+03 -0.45379619994E+03 -0.33934894950E+03  0.10638677613E+04  0.89348395394E+03 0.  0.
         23    2    4    4    0    0  0.11059200192E+03 -0.62385814867E+03 -0.41091166458E+03  0.76066383389E+03  0.91277004521E+02 0.  0.
         23    2    4    4    0    0 -0.22200267009E+03  0.17006194874E+03  0.71562715078E+02  0.30320392740E+03  0.92763934093E+02 0.  0.
          3    1    3    3  502    0  0.82621339558E+02  0.26413028216E+03  0.86526748945E+02  0.28996201474E+03  0.00000000000E+00 0. -1.
         -4    1    3    3    0  502  0.28789328606E+02  0.18966591777E+03  0.12609790235E+03  0.22957061393E+03  0.00000000000E+00 0.  1.
         11    1    5    5    0    0  0.44016805056E+02 -0.97053352705E+02 -0.95226455315E+02  0.14291574508E+03  0.00000000000E+00 0.  1.
        -11    1    5    5    0    0  0.66575196869E+02 -0.52680479597E+03 -0.31568520926E+03  0.61774808882E+03  0.00000000000E+00 0. -1.
          1    1    6    6  503    0 -0.14785618803E+03  0.16289739471E+03  0.49198427316E+02  0.22542736922E+03  0.00000000000E+00 0. -1.
         -1    1    6    6    0  503 -0.74146482054E+02  0.71645540252E+01  0.22364287762E+02  0.77776558181E+02  0.00000000000E+00 0.  1.
<mgrwt>
<rscale>  0 0.15783212E+04</rscale>
<asrwt>0</asrwt>
<pdfrwt beam="1">  1        1 0.11205201E+00 0.15783212E+04</pdfrwt>
<pdfrwt beam="2">  1       -2 0.13154805E+00 0.15783212E+04</pdfrwt>
<totfact> 0.90911617E+00</totfact>
</mgrwt>
</event>
<event>
12    4  0.4398275E-008  0.1971228E+04  0.7818608E-02  0.8620192E-01
         -2   -1    0    0    0  501 -0.00000000000E+00  0.00000000000E+00  0.11333881397E+04  0.11333881397E+04  0.00000000000E+00 0.  1.
          1   -1    0    0  501    0  0.00000000000E+00 -0.00000000000E+00 -0.85710696733E+03  0.85710696733E+03  0.00000000000E+00 0. -1.
        -24    2    1    2    0    0  0.26211157449E+03  0.73659589863E+03  0.14171979677E+03  0.79802181172E+03  0.74015645825E+02 0.  0.
        254    2    1    2    0    0 -0.26211157449E+03 -0.73659589863E+03  0.13456137557E+03  0.11924732953E+04  0.89028635887E+03 0.  0.
         23    2    4    4    0    0 -0.35975210678E+03 -0.13589194169E+03 -0.24984134472E+03  0.46691122890E+03  0.87733687868E+02 0.  0.
         23    2    4    4    0    0  0.97640532296E+02 -0.60070395693E+03  0.38440272029E+03  0.72556206638E+03  0.91082069429E+02 0.  0.
          3    1    3    3  502    0  0.16317971791E+03  0.40373638291E+03  0.46430727549E+02  0.43793435545E+03  0.00000000000E+00 0. -1.
         -4    1    3    3    0  502  0.98931856579E+02  0.33285951572E+03  0.95289069217E+02  0.36008745627E+03  0.00000000000E+00 0.  1.
         11    1    5    5    0    0 -0.10167170029E+03 -0.64720276391E+02 -0.11730741427E+03  0.16818703357E+03  0.00000000000E+00 0.  1.
        -11    1    5    5    0    0 -0.25808040649E+03 -0.71171665302E+02 -0.13253393045E+03  0.29872419533E+03  0.00000000000E+00 0. -1.
          3    1    6    6  503    0  0.20783575778E+01 -0.61198148820E+01 -0.52112735851E+01  0.83023536897E+01  0.00000000000E+00 0. -1.
         -3    1    6    6    0  503  0.95562174718E+02 -0.59458414205E+03  0.38961399388E+03  0.71725971269E+03  0.00000000000E+00 0.  1.
<mgrwt>
<rscale>  0 0.19712279E+04</rscale>
<asrwt>0</asrwt>
<pdfrwt beam="1">  1        1 0.13186261E+00 0.19712279E+04</pdfrwt>
<pdfrwt beam="2">  1       -2 0.17436741E+00 0.19712279E+04</pdfrwt>
<totfact> 0.31941143E+00</totfact>
</mgrwt>
</event>
<event>
12    4  0.4398275E-008  0.1860131E+04  0.7818608E-02  0.8674960E-01
         -2   -1    0    0    0  501 -0.00000000000E+00  0.00000000000E+00  0.72877853456E+03  0.72877853456E+03  0.00000000000E+00 0.  1.
          1   -1    0    0  501    0  0.00000000000E+00 -0.00000000000E+00 -0.11869469872E+04  0.11869469872E+04  0.00000000000E+00 0. -1.
        -24    2    1    2    0    0 -0.40595354422E+03  0.11462454797E+03 -0.76161615383E+03  0.87431803072E+03  0.80223350770E+02 0.  0.
        254    2    1    2    0    0  0.40595354422E+03 -0.11462454797E+03  0.30344770123E+03  0.10414074910E+04  0.90250317887E+03 0.  0.
         23    2    4    4    0    0  0.49257172511E+03 -0.32450984541E+03 -0.62234104739E+02  0.60170637084E+03  0.10121229558E+03 0.  0.
         23    2    4    4    0    0 -0.86618180890E+02  0.20988529744E+03  0.36568180597E+03  0.43970112016E+03  0.89773852025E+02 0.  0.
          1    1    3    3  502    0 -0.39756986844E+03  0.99571731196E+02 -0.74546168164E+03  0.85069938800E+03  0.00000000000E+00 0. -1.
         -2    1    3    3    0  502 -0.83836757741E+01  0.15052816774E+02 -0.16154472190E+02  0.23618642722E+02  0.00000000000E+00 0.  1.
         11    1    5    5    0    0  0.13577818792E+03 -0.14597499445E+03 -0.27095519240E+02  0.20119289869E+03  0.00000000000E+00 0.  1.
        -11    1    5    5    0    0  0.35679353719E+03 -0.17853485096E+03 -0.35138585499E+02  0.40051347216E+03  0.00000000000E+00 0. -1.
          3    1    6    6  503    0 -0.13890450049E+02 -0.47334331700E+01  0.42717847627E+02  0.45168180150E+02  0.00000000000E+00 0. -1.
         -3    1    6    6    0  503 -0.72727730840E+02  0.21461873061E+03  0.32296395834E+03  0.39453294001E+03  0.00000000000E+00 0.  1.
<mgrwt>
<rscale>  0 0.18601306E+04</rscale>
<asrwt>0</asrwt>
<pdfrwt beam="1">  1        1 0.18260723E+00 0.18601306E+04</pdfrwt>
<pdfrwt beam="2">  1       -2 0.11211977E+00 0.18601306E+04</pdfrwt>
<totfact> 0.56424038E+00</totfact>
</mgrwt>
</event>
<event>
12    4  0.4398275E-008  0.2222604E+04  0.7818608E-02  0.8509078E-01
          1   -1    0    0  501    0  0.00000000000E+00  0.00000000000E+00  0.65129335608E+03  0.65129335608E+03  0.00000000000E+00 0. -1.
         -4   -1    0    0    0  501 -0.00000000000E+00 -0.00000000000E+00 -0.18962142083E+04  0.18962142083E+04  0.00000000000E+00 0.  1.
        -24    2    1    2    0    0 -0.44924207786E+03 -0.35543806380E+03 -0.13478628957E+04  0.14666207400E+04  0.78021455810E+02 0.  0.
        254    2    1    2    0    0  0.44924207786E+03  0.35543806380E+03  0.10294204349E+03  0.10808868244E+04  0.91080437042E+03 0.  0.
         23    2    4    4    0    0  0.65328231294E+03  0.43501094386E+03 -0.58857472410E+02  0.79232706147E+03  0.91135440909E+02 0.  0.
         23    2    4    4    0    0 -0.20404023508E+03 -0.79572880061E+02  0.16179951590E+03  0.28855976295E+03  0.95516452390E+02 0.  0.
          1    1    3    3  502    0 -0.36464317395E+02 -0.60414348435E+02 -0.17758316604E+03  0.19108982391E+03  0.00000000000E+00 0. -1.
         -2    1    3    3    0  502 -0.41277776047E+03 -0.29502371536E+03 -0.11702797297E+04  0.12755309161E+04  0.00000000000E+00 0.  1.
         11    1    5    5    0    0  0.21016167077E+03  0.90815540687E+02 -0.22776792337E+02  0.23007427618E+03  0.00000000000E+00 0.  1.
        -11    1    5    5    0    0  0.44312064217E+03  0.34419540317E+03 -0.36080680073E+02  0.56225278528E+03  0.00000000000E+00 0. -1.
          2    1    6    6  503    0 -0.11190729009E+03 -0.91227589052E+02  0.11490958039E+03  0.18452622103E+03  0.00000000000E+00 0. -1.
         -2    1    6    6    0  503 -0.92132944991E+02  0.11654708992E+02  0.46889935505E+02  0.10403354193E+03  0.00000000000E+00 0.  1.
<mgrwt>
<rscale>  0 0.22226036E+04</rscale>
<asrwt>0</asrwt>
<pdfrwt beam="1">  1        1 0.10019898E+00 0.22226036E+04</pdfrwt>
<pdfrwt beam="2">  1       -4 0.29172526E+00 0.22226036E+04</pdfrwt>
<totfact> 0.45972712E-01</totfact>
</mgrwt>
</event>
<event>
12    4  0.4398275E-008  0.2112055E+04  0.7818608E-02  0.8555952E-01
          1   -1    0    0  501    0  0.00000000000E+00  0.00000000000E+00  0.23095181966E+04  0.23095181966E+04  0.00000000000E+00 0. -1.
         -2   -1    0    0    0  501 -0.00000000000E+00 -0.00000000000E+00 -0.48286860813E+03  0.48286860813E+03  0.00000000000E+00 0.  1.
        -24    2    1    2    0    0  0.64380922553E+03 -0.17129172284E+03  0.14985864978E+04  0.16419681803E+04  0.80416667056E+02 0.  0.
        254    2    1    2    0    0 -0.64380922553E+03  0.17129172284E+03  0.32806309063E+03  0.11504186244E+04  0.87863897412E+03 0.  0.
         23    2    4    4    0    0 -0.23518140607E+03  0.49937599219E+03  0.25072018720E+03  0.61231970799E+03  0.85954273838E+02 0.  0.
         23    2    4    4    0    0 -0.40862781945E+03 -0.32808426934E+03  0.77342903427E+02  0.53809891645E+03  0.94617844765E+02 0.  0.
          3    1    3    3  502    0  0.50180345179E+03 -0.12098197321E+03  0.10779147368E+04  0.11951332653E+04  0.00000000000E+00 0. -1.
         -4    1    3    3    0  502  0.14200577373E+03 -0.50309749633E+02  0.42067176107E+03  0.44683491498E+03  0.00000000000E+00 0.  1.
         11    1    5    5    0    0 -0.66152591712E+02  0.19524329788E+03  0.13148884977E+03  0.24451058948E+03  0.00000000000E+00 0. -1.
        -11    1    5    5    0    0 -0.16902881436E+03  0.30413269431E+03  0.11923133743E+03  0.36780911851E+03  0.00000000000E+00 0.  1.
          2    1    6    6  503    0 -0.40844394712E+03 -0.30734898858E+03  0.69228954687E+02  0.51583185912E+03  0.00000000000E+00 0. -1.
         -2    1    6    6    0  503 -0.18387232838E+00 -0.20735280769E+02  0.81139487401E+01  0.22267057322E+02  0.00000000000E+00 0.  1.
<mgrwt>
<rscale>  0 0.21120548E+04</rscale>
<asrwt>0</asrwt>
<pdfrwt beam="1">  1        1 0.35531049E+00 0.21120548E+04</pdfrwt>
<pdfrwt beam="2">  1       -2 0.74287479E-01 0.21120548E+04</pdfrwt>
<totfact> 0.24135841E+00</totfact>
</mgrwt>
</event>
<event>
12    4  0.4398275E-008  0.1994735E+04  0.7818608E-02  0.8609086E-01
         -2   -1    0    0    0  501 -0.00000000000E+00  0.00000000000E+00  0.28769369144E+04  0.28769369144E+04  0.00000000000E+00 0.  1.
          1   -1    0    0  501    0  0.00000000000E+00 -0.00000000000E+00 -0.34576432376E+03  0.34576432376E+03  0.00000000000E+00 0. -1.
        -24    2    1    2    0    0  0.48445864670E+03  0.58645185148E+03  0.13712486551E+04  0.15701145065E+04  0.79440133710E+02 0.  0.
        254    2    1    2    0    0 -0.48445864670E+03 -0.58645185148E+03  0.11599239356E+04  0.16525867317E+04  0.89832812218E+03 0.  0.
         23    2    4    4    0    0  0.48294095460E+02 -0.62416376524E+03  0.57532025388E+03  0.85483108940E+03  0.88487690609E+02 0.  0.
         23    2    4    4    0    0 -0.53275274216E+03  0.37711913760E+02  0.58460368167E+03  0.79775564231E+03  0.96979005461E+02 0.  0.
          1    1    3    3  502    0  0.24950261226E+02  0.27204627591E+02  0.37502193495E+02  0.52621495747E+02  0.00000000000E+00 0. -1.
         -2    1    3    3    0  502  0.45950838547E+03  0.55924722388E+03  0.13337464616E+04  0.15174930107E+04  0.00000000000E+00 0.  1.
         11    1    5    5    0    0 -0.16833226108E+02 -0.32452817788E+02  0.40812593509E+02  0.54792432621E+02  0.00000000000E+00 0. -1.
        -11    1    5    5    0    0  0.65127321568E+02 -0.59171094745E+03  0.53450766037E+03  0.80003865678E+03  0.00000000000E+00 0.  1.
          2    1    6    6  503    0 -0.47983355084E+03  0.56105216563E+02  0.49204786204E+03  0.68956444976E+03  0.00000000000E+00 0. -1.
         -2    1    6    6    0  503 -0.52919191318E+02 -0.18393302803E+02  0.92555819631E+02  0.10819119255E+03  0.00000000000E+00 0.  1.
<mgrwt>
<rscale>  0 0.19947352E+04</rscale>
<asrwt>0</asrwt>
<pdfrwt beam="1">  1        1 0.53194513E-01 0.19947352E+04</pdfrwt>
<pdfrwt beam="2">  1       -2 0.44260566E+00 0.19947352E+04</pdfrwt>
<totfact> 0.22996664E-01</totfact>
</mgrwt>
</event>
<event>
12    4  0.4398275E-008  0.1053502E+04  0.7818608E-02  0.9251736E-01
         -2   -1    0    0    0  501 -0.00000000000E+00  0.00000000000E+00  0.22554036753E+03  0.22554036753E+03  0.00000000000E+00 0.  1.
          1   -1    0    0  501    0  0.00000000000E+00 -0.00000000000E+00 -0.12302304053E+04  0.12302304053E+04  0.00000000000E+00 0. -1.
        -24    2    1    2    0    0  0.25217809090E+01  0.29778041128E+02  0.39204363750E+02  0.93349063178E+02  0.79271522925E+02 0.  0.
        254    2    1    2    0    0 -0.25217809090E+01 -0.29778041128E+02 -0.10438944015E+04  0.13624217096E+04  0.87497674384E+03 0.  0.
         23    2    4    4    0    0  0.63545721940E+02  0.18850438108E+03 -0.10896744962E+04  0.11117588399E+04  0.95106519272E+02 0.  0.
         23    2    4    4    0    0 -0.66067502849E+02 -0.21828242221E+03  0.45780094717E+02  0.25066286969E+03  0.93401961381E+02 0.  0.
          1    1    3    3  502    0 -0.29570364296E+01 -0.26547551629E+02  0.48565001859E+01  0.27149625338E+02  0.00000000000E+00 0. -1.
         -2    1    3    3    0  502  0.54788173386E+01  0.56325592757E+02  0.34347863564E+02  0.66199437840E+02  0.00000000000E+00 0.  1.
         11    1    5    5    0    0  0.35305347061E+02  0.81687124681E+01 -0.13429394052E+03  0.13909729636E+03  0.00000000000E+00 0.  1.
        -11    1    5    5    0    0  0.28240374878E+02  0.18033566862E+03 -0.95538055569E+03  0.97266154356E+03  0.00000000000E+00 0. -1.
          2    1    6    6  503    0  0.87007881332E+01 -0.12517286140E+03  0.93830183124E+01  0.12582523586E+03  0.00000000000E+00 0. -1.
         -2    1    6    6    0  503 -0.74768290982E+02 -0.93109560811E+02  0.36397076404E+02  0.12483763384E+03  0.00000000000E+00 0.  1.
<mgrwt>
<rscale>  0 0.10535020E+04</rscale>
<asrwt>0</asrwt>
<pdfrwt beam="1">  1        1 0.18926622E+00 0.10535020E+04</pdfrwt>
<pdfrwt beam="2">  1       -2 0.34698518E-01 0.10535020E+04</pdfrwt>
<totfact> 0.69306236E+01</totfact>
</mgrwt>
</event>
<event>
12    4  0.4398275E-008  0.1497360E+04  0.7818608E-02  0.8886210E-01
          1   -1    0    0  501    0  0.00000000000E+00  0.00000000000E+00  0.87807371623E+03  0.87807371623E+03  0.00000000000E+00 0. -1.
         -4   -1    0    0    0  501 -0.00000000000E+00 -0.00000000000E+00 -0.63835378641E+03  0.63835378641E+03  0.00000000000E+00 0.  1.
        -24    2    1    2    0    0  0.12969632568E+03 -0.32372028260E+03 -0.24338840266E+03  0.43253614885E+03  0.78953449903E+02 0.  0.
        254    2    1    2    0    0 -0.12969632568E+03  0.32372028260E+03  0.48310833248E+03  0.10838913538E+04  0.90543406588E+03 0.  0.
         23    2    4    4    0    0  0.16171891041E+03  0.36074235305E+03  0.62523177446E+03  0.74528244093E+03  0.90791484755E+02 0.  0.
         23    2    4    4    0    0 -0.29141523609E+03 -0.37022070453E+02 -0.14212344198E+03  0.33860891285E+03  0.90351810043E+02 0.  0.
          1    1    3    3  502    0  0.10436470012E+02 -0.60292497743E+02 -0.78945125751E+02  0.99882120874E+02  0.00000000000E+00 0. -1.
         -2    1    3    3    0  502  0.11925985567E+03 -0.26342778486E+03 -0.16444327691E+03  0.33265402797E+03  0.00000000000E+00 0.  1.
         11    1    5    5    0    0  0.13139525560E+03  0.18329573599E+03  0.35500266676E+03  0.42058166084E+03  0.00000000000E+00 0. -1.
        -11    1    5    5    0    0  0.30323654807E+02  0.17744661706E+03  0.27022910770E+03  0.32470078010E+03  0.00000000000E+00 0.  1.
          3    1    6    6  503    0 -0.18708458341E+03 -0.34614670111E+02 -0.43818943970E+02  0.19524066325E+03  0.00000000000E+00 0. -1.
         -3    1    6    6    0  503 -0.10433065268E+03 -0.24074003427E+01 -0.98304498010E+02  0.14336824960E+03  0.00000000000E+00 0.  1.
<mgrwt>
<rscale>  0 0.14973599E+04</rscale>
<asrwt>0</asrwt>
<pdfrwt beam="1">  1        1 0.13508827E+00 0.14973599E+04</pdfrwt>
<pdfrwt beam="2">  1       -4 0.98208274E-01 0.14973599E+04</pdfrwt>
<totfact> 0.76756963E+00</totfact>
</mgrwt>
</event>
<event>
12    4  0.4398275E-008  0.1773559E+04  0.7818608E-02  0.8720488E-01
         -2   -1    0    0    0  501 -0.00000000000E+00  0.00000000000E+00  0.82190517049E+03  0.82190517049E+03  0.00000000000E+00 0.  1.
          1   -1    0    0  501    0  0.00000000000E+00 -0.00000000000E+00 -0.95677414324E+03  0.95677414324E+03  0.00000000000E+00 0. -1.
        -24    2    1    2    0    0  0.62767499710E+03  0.10821612684E+03  0.21866840365E+03  0.67834704600E+03  0.81561093530E+02 0.  0.
        254    2    1    2    0    0 -0.62767499710E+03 -0.10821612684E+03 -0.35353737640E+03  0.11003322677E+04  0.82465495258E+03 0.  0.
         23    2    4    4    0    0 -0.62723033442E+03 -0.25284703274E+03  0.27691020026E+02  0.68330300376E+03  0.93737335030E+02 0.  0.
         23    2    4    4    0    0 -0.44466267840E+00  0.14463090589E+03 -0.38122839642E+03  0.41702926397E+03  0.87521540801E+02 0.  0.
          1    1    3    3  502    0  0.14592829467E+03  0.35029983040E+02  0.17164975825E+02  0.15105231972E+03  0.00000000000E+00 0. -1.
         -2    1    3    3    0  502  0.48174670242E+03  0.73186143803E+02  0.20150342782E+03  0.52729472628E+03  0.00000000000E+00 0.  1.
         11    1    5    5    0    0 -0.59266444963E+03 -0.26040788255E+03  0.26963827468E+02  0.64791238848E+03  0.00000000000E+00 0.  1.
        -11    1    5    5    0    0 -0.34565884784E+02  0.75608498141E+01  0.72719255827E+00  0.35390615279E+02  0.00000000000E+00 0. -1.
          4    1    6    6  503    0  0.75881524516E+01  0.70673121003E+02 -0.81199040659E+02  0.10791456942E+03  0.00000000000E+00 0. -1.
         -4    1    6    6    0  503 -0.80328151300E+01  0.73957784890E+02 -0.30002935577E+03  0.30911469455E+03  0.00000000000E+00 0.  1.
<mgrwt>
<rscale>  0 0.17735587E+04</rscale>
<asrwt>0</asrwt>
<pdfrwt beam="1">  1        1 0.14719602E+00 0.17735587E+04</pdfrwt>
<pdfrwt beam="2">  1       -2 0.12644695E+00 0.17735587E+04</pdfrwt>
<totfact> 0.63200298E+00</totfact>
</mgrwt>
</event>
<event>
12    4  0.4398275E-008  0.2676751E+04  0.7818608E-02  0.8342588E-01
         -2   -1    0    0    0  501 -0.00000000000E+00  0.00000000000E+00  0.49528292523E+03  0.49528292523E+03  0.00000000000E+00 0.  1.
          1   -1    0    0  501    0  0.00000000000E+00 -0.00000000000E+00 -0.36166180262E+04  0.36166180262E+04  0.00000000000E+00 0. -1.
        -24    2    1    2    0    0 -0.86850263836E+03 -0.53007965567E+03 -0.23197931192E+04  0.25344240010E+04  0.81139550955E+02 0.  0.
        254    2    1    2    0    0  0.86850263836E+03  0.53007965567E+03 -0.80154198175E+03  0.15774769504E+04  0.90037920145E+03 0.  0.
         23    2    4    4    0    0  0.68686267200E+03  0.61375570746E+03 -0.21405501794E+03  0.95020480279E+03  0.92699611180E+02 0.  0.
         23    2    4    4    0    0  0.18163996636E+03 -0.83676051792E+02 -0.58748696381E+03  0.62727214763E+03  0.91294334522E+02 0.  0.
          3    1    3    3  502    0 -0.77393733113E+03 -0.46870272387E+03 -0.19940952106E+04  0.21897664133E+04  0.00000000000E+00 0. -1.
         -4    1    3    3    0  502 -0.94565307228E+02 -0.61376931797E+02 -0.32569790856E+03  0.34465758765E+03  0.00000000000E+00 0.  1.
         11    1    5    5    0    0  0.52522650495E+03  0.42842568298E+03 -0.12877224687E+03  0.68992299491E+03  0.00000000000E+00 0. -1.
        -11    1    5    5    0    0  0.16163616705E+03  0.18533002448E+03 -0.85282771074E+02  0.26028180788E+03  0.00000000000E+00 0.  1.
          4    1    6    6  503    0 -0.71532874464E+01 -0.71850069924E+01 -0.76676070700E+02  0.77343478489E+02  0.00000000000E+00 0. -1.
         -4    1    6    6    0  503  0.18879325381E+03 -0.76491044800E+02 -0.51081089311E+03  0.54992866914E+03  0.00000000000E+00 0.  1.
<mgrwt>
<rscale>  0 0.26767511E+04</rscale>
<asrwt>0</asrwt>
<pdfrwt beam="1">  1        1 0.55640277E+00 0.26767511E+04</pdfrwt>
<pdfrwt beam="2">  1       -2 0.76197374E-01 0.26767511E+04</pdfrwt>
<totfact> 0.23936750E-01</totfact>
</mgrwt>
</event>
<event>
12    4  0.4398275E-008  0.1086648E+04  0.7818608E-02  0.9218304E-01
          1   -1    0    0  501    0  0.00000000000E+00  0.00000000000E+00  0.73845233073E+03  0.73845233073E+03  0.00000000000E+00 0. -1.
         -2   -1    0    0    0  501 -0.00000000000E+00 -0.00000000000E+00 -0.39975624475E+03  0.39975624475E+03  0.00000000000E+00 0.  1.
        -24    2    1    2    0    0 -0.11924276047E+03  0.81215882476E+02 -0.26993659520E+01  0.16467820251E+03  0.79352179012E+02 0.  0.
        254    2    1    2    0    0  0.11924276047E+03 -0.81215882476E+02  0.34139545192E+03  0.97353037297E+03  0.90021979373E+03 0.  0.
         23    2    4    4    0    0 -0.10622246735E+03  0.34030299881E+03  0.31655455677E+03  0.48544257764E+03  0.91424095332E+02 0.  0.
         23    2    4    4    0    0  0.22546522782E+03 -0.42151888129E+03  0.24840895157E+02  0.48808779533E+03  0.95393341700E+02 0.  0.
          3    1    3    3  502    0 -0.74063346297E+02  0.51068704347E+02  0.37131003421E+02  0.97324730893E+02  0.00000000000E+00 0. -1.
         -4    1    3    3    0  502 -0.45179414169E+02  0.30147178129E+02 -0.39830369373E+02  0.67353471612E+02  0.00000000000E+00 0.  1.
         11    1    5    5    0    0 -0.81112893627E+02  0.12549516129E+03  0.15655726633E+03  0.21642207526E+03  0.00000000000E+00 0.  1.
        -11    1    5    5    0    0 -0.25109573724E+02  0.21480783753E+03  0.15999729043E+03  0.26902050238E+03  0.00000000000E+00 0. -1.
          4    1    6    6  503    0  0.76669583081E+01 -0.86741709734E+02 -0.74332531241E+01  0.87396565775E+02  0.00000000000E+00 0. -1.
         -4    1    6    6    0  503  0.21779826951E+03 -0.33477717156E+03  0.32274148282E+02  0.40069122956E+03  0.00000000000E+00 0.  1.
<mgrwt>
<rscale>  0 0.10866479E+04</rscale>
<asrwt>0</asrwt>
<pdfrwt beam="1">  1        1 0.11360805E+00 0.10866479E+04</pdfrwt>
<pdfrwt beam="2">  1       -2 0.61500961E-01 0.10866479E+04</pdfrwt>
<totfact> 0.53888155E+01</totfact>
</mgrwt>
</event>
<event>
12    4  0.4398275E-008  0.1550295E+04  0.7818608E-02  0.8851679E-01
         -2   -1    0    0    0  501 -0.00000000000E+00  0.00000000000E+00  0.38083237775E+03  0.38083237775E+03  0.00000000000E+00 0.  1.
          1   -1    0    0  501    0  0.00000000000E+00 -0.00000000000E+00 -0.15777387199E+04  0.15777387199E+04  0.00000000000E+00 0. -1.
        -24    2    1    2    0    0  0.20513507721E+03  0.33920746334E+02 -0.98049480811E+03  0.10055310732E+04  0.80570798204E+02 0.  0.
        254    2    1    2    0    0 -0.20513507721E+03 -0.33920746334E+02 -0.21641153408E+03  0.95304002447E+03  0.90455531574E+03 0.  0.
         23    2    4    4    0    0  0.13496485057E+03 -0.28123034412E+03 -0.37281958317E+03  0.49480688478E+03  0.92376373017E+02 0.  0.
         23    2    4    4    0    0 -0.34009992778E+03  0.24730959779E+03  0.15640804909E+03  0.45823313969E+03  0.93188703476E+02 0.  0.
          3    1    3    3  502    0  0.20322078555E+03  0.45305776640E+02 -0.87616717237E+03  0.90056660776E+03  0.00000000000E+00 0. -1.
         -4    1    3    3    0  502  0.19142916653E+01 -0.11385030306E+02 -0.10432763575E+03  0.10496446545E+03  0.00000000000E+00 0.  1.
         11    1    5    5    0    0  0.28841457052E+02 -0.13026393080E+03 -0.20951941008E+03  0.24839264182E+03  0.00000000000E+00 0.  1.
        -11    1    5    5    0    0  0.10612339352E+03 -0.15096641332E+03 -0.16330017309E+03  0.24641424296E+03  0.00000000000E+00 0. -1.
          4    1    6    6  503    0 -0.33522822423E+03  0.22726851700E+03  0.16300791256E+03  0.43657819540E+03  0.00000000000E+00 0. -1.
         -4    1    6    6    0  503 -0.48717035520E+01  0.20041080784E+02 -0.65998634679E+01  0.21654944292E+02  0.00000000000E+00 0.  1.
<mgrwt>
<rscale>  0 0.15502954E+04</rscale>
<asrwt>0</asrwt>
<pdfrwt beam="1">  1        1 0.24272903E+00 0.15502954E+04</pdfrwt>
<pdfrwt beam="2">  1       -2 0.58589596E-01 0.15502954E+04</pdfrwt>
<totfact> 0.13309518E+01</totfact>
</mgrwt>
</event>
<event>
12    4  0.4398275E-008  0.1729345E+04  0.7818608E-02  0.8744803E-01
         -4   -1    0    0    0  501 -0.00000000000E+00  0.00000000000E+00  0.12100749432E+04  0.12100749432E+04  0.00000000000E+00 0.  1.
          3   -1    0    0  501    0  0.00000000000E+00 -0.00000000000E+00 -0.61786100404E+03  0.61786100404E+03  0.00000000000E+00 0. -1.
        -24    2    1    2    0    0  0.28404195296E+03  0.29750065241E+02  0.82689286893E+03  0.87846694735E+03  0.79921608264E+02 0.  0.
        254    2    1    2    0    0 -0.28404195296E+03 -0.29750065241E+02 -0.23467892980E+03  0.94946899987E+03  0.87455833664E+03 0.  0.
         23    2    4    4    0    0 -0.72801653347E+02  0.30978275814E+03  0.17111940525E+03  0.37253561639E+03  0.90749637220E+02 0.  0.
         23    2    4    4    0    0 -0.21124029962E+03 -0.33953282338E+03 -0.40579833505E+03  0.57693338348E+03  0.90966136024E+02 0.  0.
          1    1    3    3  502    0  0.65751444949E+02 -0.10202082773E+02  0.11584898792E+03  0.13359761603E+03  0.00000000000E+00 0. -1.
         -2    1    3    3    0  502  0.21829050802E+03  0.39952148013E+02  0.71104388101E+03  0.74486933132E+03  0.00000000000E+00 0.  1.
         11    1    5    5    0    0 -0.33370406276E+02  0.20932408368E+03  0.66310557669E+02  0.22209737972E+03  0.00000000000E+00 0. -1.
        -11    1    5    5    0    0 -0.39431247071E+02  0.10045867447E+03  0.10480884758E+03  0.15043823667E+03  0.00000000000E+00 0.  1.
          1    1    6    6  503    0 -0.15919633590E+03 -0.30993833246E+03 -0.32588712889E+03  0.47708244997E+03  0.00000000000E+00 0. -1.
         -1    1    6    6    0  503 -0.52043963713E+02 -0.29594490921E+02 -0.79911206157E+02  0.99850933502E+02  0.00000000000E+00 0.  1.
<mgrwt>
<rscale>  0 0.17293445E+04</rscale>
<asrwt>0</asrwt>
<pdfrwt beam="1">  1        3 0.95055539E-01 0.17293445E+04</pdfrwt>
<pdfrwt beam="2">  1       -4 0.18616538E+00 0.17293445E+04</pdfrwt>
<totfact> 0.34828822E-01</totfact>
</mgrwt>
</event>
<event>
12    4  0.4398275E-008  0.1943079E+04  0.7818608E-02  0.8633705E-01
         -2   -1    0    0    0  501 -0.00000000000E+00  0.00000000000E+00  0.10255107442E+04  0.10255107442E+04  0.00000000000E+00 0.  1.
          1   -1    0    0  501    0  0.00000000000E+00 -0.00000000000E+00 -0.92040916227E+03  0.92040916227E+03  0.00000000000E+00 0. -1.
        -24    2    1    2    0    0 -0.73676992724E+02 -0.74599128857E+03  0.16849565238E+03  0.77232291334E+03  0.78489462467E+02 0.  0.
        254    2    1    2    0    0  0.73676992724E+02  0.74599128857E+03 -0.63394070503E+02  0.11735969931E+04  0.90076622502E+03 0.  0.
         23    2    4    4    0    0 -0.20885798211E+03  0.65047042306E+03 -0.32913239106E+03  0.76385011656E+03  0.91681196312E+02 0.  0.
         23    2    4    4    0    0  0.28253497483E+03  0.95520865503E+02  0.26573832055E+03  0.40974687653E+03  0.91243630288E+02 0.  0.
          1    1    3    3  502    0  0.11758868094E+02 -0.11379137980E+03  0.90640950158E+01  0.11475585786E+03  0.00000000000E+00 0. -1.
         -2    1    3    3    0  502 -0.85435860818E+02 -0.63219990877E+03  0.15943155737E+03  0.65756705547E+03  0.00000000000E+00 0.  1.
         11    1    5    5    0    0 -0.10318869382E+03  0.27572644930E+03 -0.18995650489E+03  0.35036617292E+03  0.00000000000E+00 0. -1.
        -11    1    5    5    0    0 -0.10566928828E+03  0.37474397376E+03 -0.13917588617E+03  0.41348394364E+03  0.00000000000E+00 0.  1.
          2    1    6    6  503    0  0.23551401958E+03  0.11351428607E+03  0.21892257285E+03  0.34099771181E+03  0.00000000000E+00 0. -1.
         -2    1    6    6    0  503  0.47020955250E+02 -0.17993420563E+02  0.46815747704E+02  0.68749164716E+02  0.00000000000E+00 0.  1.
<mgrwt>
<rscale>  0 0.19430795E+04</rscale>
<asrwt>0</asrwt>
<pdfrwt beam="1">  1        1 0.14160141E+00 0.19430795E+04</pdfrwt>
<pdfrwt beam="2">  1       -2 0.15777088E+00 0.19430795E+04</pdfrwt>
<totfact> 0.37430125E+00</totfact>
</mgrwt>
</event>
<event>
12    4  0.4398275E-008  0.1667144E+04  0.7818608E-02  0.8780328E-01
          1   -1    0    0  501    0  0.00000000000E+00  0.00000000000E+00  0.21934023834E+04  0.21934023834E+04  0.00000000000E+00 0. -1.
         -2   -1    0    0    0  501 -0.00000000000E+00 -0.00000000000E+00 -0.31678738501E+03  0.31678738501E+03  0.00000000000E+00 0.  1.
        -24    2    1    2    0    0  0.13751314634E+03 -0.35074124377E+03 -0.63313888315E+01  0.38512452119E+03  0.79696454382E+02 0.  0.
        254    2    1    2    0    0 -0.13751314634E+03  0.35074124377E+03  0.18829463872E+04  0.21250652472E+04  0.91021202052E+03 0.  0.
         23    2    4    4    0    0 -0.28302071771E+03  0.30870177676E+03  0.27868040373E+03  0.51124635448E+03  0.91173208312E+02 0.  0.
         23    2    4    4    0    0  0.14550757136E+03  0.42039467006E+02  0.16042659835E+04  0.16138188928E+04  0.88330644108E+02 0.  0.
          1    1    3    3  502    0  0.75698972763E+02 -0.19093310944E+03  0.36250294558E+02  0.20856622597E+03  0.00000000000E+00 0. -1.
         -2    1    3    3    0  502  0.61814173578E+02 -0.15980813433E+03 -0.42581683389E+02  0.17655829522E+03  0.00000000000E+00 0.  1.
         11    1    5    5    0    0 -0.17146428926E+03  0.23898307114E+03  0.16421086710E+03  0.33686513571E+03  0.00000000000E+00 0.  1.
        -11    1    5    5    0    0 -0.11155642845E+03  0.69718705621E+02  0.11446953664E+03  0.17438121877E+03  0.00000000000E+00 0. -1.
          1    1    6    6  503    0  0.56268672964E+00  0.21811346107E+02  0.41643560826E+03  0.41700679523E+03  0.00000000000E+00 0. -1.
         -1    1    6    6    0  503  0.14494488463E+03  0.20228120899E+02  0.11878303752E+04  0.11968120975E+04  0.00000000000E+00 0.  1.
<mgrwt>
<rscale>  0 0.16671439E+04</rscale>
<asrwt>0</asrwt>
<pdfrwt beam="1">  1        1 0.33744651E+00 0.16671439E+04</pdfrwt>
<pdfrwt beam="2">  1       -2 0.48736522E-01 0.16671439E+04</pdfrwt>
<totfact> 0.73585283E+00</totfact>
</mgrwt>
</event>
<event>
12    4  0.4398275E-008  0.1720429E+04  0.7818608E-02  0.8749798E-01
          1   -1    0    0  501    0  0.00000000000E+00  0.00000000000E+00  0.11680082993E+04  0.11680082993E+04  0.00000000000E+00 0. -1.
         -2   -1    0    0    0  501 -0.00000000000E+00 -0.00000000000E+00 -0.63353076107E+03  0.63353076107E+03  0.00000000000E+00 0.  1.
        -24    2    1    2    0    0  0.19376247630E+03 -0.18512356744E+03  0.77867015291E+03  0.82751646756E+03  0.81496408501E+02 0.  0.
        254    2    1    2    0    0 -0.19376247630E+03  0.18512356744E+03 -0.24419261471E+03  0.97402259279E+03  0.90403282337E+03 0.  0.
         23    2    4    4    0    0 -0.50672073522E+03  0.20163394032E+03  0.17562686182E+02  0.55296496521E+03  0.89664125552E+02 0.  0.
         23    2    4    4    0    0  0.31295825892E+03 -0.16510372875E+02 -0.26175530089E+03  0.42105762758E+03  0.10275321873E+03 0.  0.
          3    1    3    3  502    0  0.13340080590E+03 -0.82091878562E+02  0.50983938562E+03  0.53335827608E+03  0.00000000000E+00 0. -1.
         -4    1    3    3    0  502  0.60361670405E+02 -0.10303168888E+03  0.26883076730E+03  0.29415819148E+03  0.00000000000E+00 0.  1.
         11    1    5    5    0    0 -0.26622528812E+03  0.12167797161E+03 -0.32882109419E+02  0.29455503039E+03  0.00000000000E+00 0.  1.
        -11    1    5    5    0    0 -0.24049544710E+03  0.79955968707E+02  0.50444795601E+02  0.25840993481E+03  0.00000000000E+00 0. -1.
          2    1    6    6  503    0  0.59216888742E+02  0.35906780535E+01 -0.10928460332E+03  0.12434893407E+03  0.00000000000E+00 0. -1.
         -2    1    6    6    0  503  0.25374137018E+03 -0.20101050929E+02 -0.15247069758E+03  0.29670869351E+03  0.00000000000E+00 0.  1.
<mgrwt>
<rscale>  0 0.17204292E+04</rscale>
<asrwt>0</asrwt>
<pdfrwt beam="1">  1        1 0.17969358E+00 0.17204292E+04</pdfrwt>
<pdfrwt beam="2">  1       -2 0.97466271E-01 0.17204292E+04</pdfrwt>
<totfact> 0.82485661E+00</totfact>
</mgrwt>
</event>
<event>
12    4  0.4398275E-008  0.2834184E+04  0.7818608E-02  0.8292734E-01
          1   -1    0    0  501    0  0.00000000000E+00  0.00000000000E+00  0.27886079217E+04  0.27886079217E+04  0.00000000000E+00 0. -1.
         -2   -1    0    0    0  501 -0.00000000000E+00 -0.00000000000E+00 -0.72012617394E+03  0.72012617394E+03  0.00000000000E+00 0.  1.
        -24    2    1    2    0    0  0.67201182133E+03  0.96555456630E+03  0.15311095523E+04  0.19325443162E+04  0.80842836659E+02 0.  0.
        254    2    1    2    0    0 -0.67201182133E+03 -0.96555456630E+03  0.53737219549E+03  0.15761897795E+04  0.90094940813E+03 0.  0.
         23    2    4    4    0    0 -0.47792796919E+03 -0.85793885867E+03  0.76291035065E+03  0.12468872294E+04  0.90671554839E+02 0.  0.
         23    2    4    4    0    0 -0.19408385215E+03 -0.10761570763E+03 -0.22553815516E+03  0.32930255007E+03  0.91230630016E+02 0.  0.
          1    1    3    3  502    0  0.48607600624E+03  0.70463291414E+03  0.10537658556E+04  0.13576449852E+04  0.00000000000E+00 0. -1.
         -2    1    3    3    0  502  0.18593581509E+03  0.26092165216E+03  0.47734369670E+03  0.57489933091E+03  0.00000000000E+00 0.  1.
         11    1    5    5    0    0 -0.40851361277E+03 -0.73416554564E+03  0.60990382744E+03  0.10382028217E+04  0.00000000000E+00 0.  1.
        -11    1    5    5    0    0 -0.69414356416E+02 -0.12377331303E+03  0.15300652321E+03  0.20868440775E+03  0.00000000000E+00 0. -1.
          1    1    6    6  503    0 -0.51494263999E+01 -0.35045848668E+02 -0.50708648734E+02  0.61855437574E+02  0.00000000000E+00 0. -1.
         -1    1    6    6    0  503 -0.18893442575E+03 -0.72569858961E+02 -0.17482950643E+03  0.26744711249E+03  0.00000000000E+00 0.  1.
<mgrwt>
<rscale>  0 0.28341839E+04</rscale>
<asrwt>0</asrwt>
<pdfrwt beam="1">  1        1 0.42901660E+00 0.28341839E+04</pdfrwt>
<pdfrwt beam="2">  1       -2 0.11078864E+00 0.28341839E+04</pdfrwt>
<totfact> 0.41618305E-01</totfact>
</mgrwt>
</event>
<event>
12    4  0.4398275E-008  0.1863581E+04  0.7818608E-02  0.8673200E-01
          1   -1    0    0  501    0  0.00000000000E+00  0.00000000000E+00  0.10167110018E+04  0.10167110018E+04  0.00000000000E+00 0. -1.
         -2   -1    0    0    0  501 -0.00000000000E+00 -0.00000000000E+00 -0.85396273723E+03  0.85396273723E+03  0.00000000000E+00 0.  1.
        -24    2    1    2    0    0 -0.23584491250E+03  0.25659901673E+03 -0.56075952158E+03  0.66483816166E+03  0.78055505945E+02 0.  0.
        254    2    1    2    0    0  0.23584491250E+03 -0.25659901673E+03  0.72350778618E+03  0.12058355774E+04  0.89950544464E+03 0.  0.
         23    2    4    4    0    0 -0.10056168900E+02  0.99310145035E+02  0.75140406378E+03  0.76349582121E+03  0.91401151561E+02 0.  0.
         23    2    4    4    0    0  0.24590108140E+03 -0.35590916177E+03 -0.27896277598E+02  0.44233975620E+03  0.88020363236E+02 0.  0.
          1    1    3    3  502    0 -0.10094261709E+03  0.60222200822E+02 -0.21328414840E+03  0.24352875267E+03  0.00000000000E+00 0. -1.
         -2    1    3    3    0  502 -0.13490229541E+03  0.19637681591E+03 -0.34747537318E+03  0.42130940899E+03  0.00000000000E+00 0.  1.
         11    1    5    5    0    0 -0.27155541121E+02  0.90717904183E+02  0.72343638671E+03  0.72960768031E+03  0.00000000000E+00 0. -1.
        -11    1    5    5    0    0  0.17099372221E+02  0.85922408518E+01  0.27967677073E+02  0.33888140906E+02  0.00000000000E+00 0.  1.
          4    1    6    6  503    0  0.23557601834E+03 -0.28706536844E+03 -0.15842618739E+02  0.37169015960E+03  0.00000000000E+00 0. -1.
         -4    1    6    6    0  503  0.10325063055E+02 -0.68843793332E+02 -0.12053658859E+02  0.70649596597E+02  0.00000000000E+00 0.  1.
<mgrwt>
<rscale>  0 0.18635808E+04</rscale>
<asrwt>0</asrwt>
<pdfrwt beam="1">  1        1 0.15641708E+00 0.18635808E+04</pdfrwt>
<pdfrwt beam="2">  1       -2 0.13137888E+00 0.18635808E+04</pdfrwt>
<totfact> 0.51080546E+00</totfact>
</mgrwt>
</event>
<event>
12    4  0.4398275E-008  0.2517905E+04  0.7818608E-02  0.8396635E-01
         -2   -1    0    0    0  501 -0.00000000000E+00  0.00000000000E+00  0.24013591108E+04  0.24013591108E+04  0.00000000000E+00 0.  1.
          1   -1    0    0  501    0  0.00000000000E+00 -0.00000000000E+00 -0.66002660392E+03  0.66002660392E+03  0.00000000000E+00 0. -1.
        -24    2    1    2    0    0  0.69121900642E+03  0.39203549490E+03 -0.15738937623E+03  0.81394280238E+03  0.79094410009E+02 0.  0.
        254    2    1    2    0    0 -0.69121900642E+03 -0.39203549490E+03  0.18987218831E+04  0.22474429124E+04  0.90242967078E+03 0.  0.
         23    2    4    4    0    0 -0.63322008202E+03 -0.61290100986E+01  0.56092823962E+03  0.85102133357E+03  0.92690793224E+02 0.  0.
         23    2    4    4    0    0 -0.57998924399E+02 -0.38590648480E+03  0.13377936435E+04  0.13964215788E+04  0.89519287458E+02 0.  0.
          3    1    3    3  502    0  0.38126619991E+03  0.18595764079E+03 -0.53854310824E+02  0.42760314095E+03  0.00000000000E+00 0. -1.
         -4    1    3    3    0  502  0.30995280651E+03  0.20607785411E+03 -0.10353506541E+03  0.38633966142E+03  0.00000000000E+00 0.  1.
         11    1    5    5    0    0 -0.25063382797E+02  0.10585954961E+02  0.66606984910E+01  0.28010721235E+02  0.00000000000E+00 0. -1.
        -11    1    5    5    0    0 -0.60815669922E+03 -0.16714965060E+02  0.55426754113E+03  0.82301061233E+03  0.00000000000E+00 0.  1.
          1    1    6    6  503    0 -0.41951118361E+02 -0.57258805171E+02  0.21567114751E+03  0.22705178037E+03  0.00000000000E+00 0. -1.
         -1    1    6    6    0  503 -0.16047806038E+02 -0.32864767963E+03  0.11221224960E+04  0.11693697984E+04  0.00000000000E+00 0.  1.
<mgrwt>
<rscale>  0 0.25179046E+04</rscale>
<asrwt>0</asrwt>
<pdfrwt beam="1">  1        1 0.10154256E+00 0.25179046E+04</pdfrwt>
<pdfrwt beam="2">  1       -2 0.36943986E+00 0.25179046E+04</pdfrwt>
<totfact> 0.27108533E-01</totfact>
</mgrwt>
</event>
<event>
12    4  0.4398275E-008  0.2519541E+04  0.7818608E-02  0.8396057E-01
          1   -1    0    0  501    0  0.00000000000E+00  0.00000000000E+00  0.15402514046E+04  0.15402514046E+04  0.00000000000E+00 0. -1.
         -2   -1    0    0    0  501 -0.00000000000E+00 -0.00000000000E+00 -0.10303651522E+04  0.10303651522E+04  0.00000000000E+00 0.  1.
        -24    2    1    2    0    0 -0.38980990718E+03 -0.37867676690E+03  0.11987438954E+04  0.13185226300E+04  0.78531151148E+02 0.  0.
        254    2    1    2    0    0  0.38980990718E+03  0.37867676690E+03 -0.68885764298E+03  0.12520939268E+04  0.89323372731E+03 0.  0.
         23    2    4    4    0    0  0.17828689599E+02  0.37962134495E+03 -0.76734755646E+03  0.86120882941E+03  0.91804943950E+02 0.  0.
         23    2    4    4    0    0  0.37198121759E+03 -0.94457804841E+00  0.78489913479E+02  0.39088509735E+03  0.90882200388E+02 0.  0.
          3    1    3    3  502    0 -0.35569799411E+03 -0.31571906991E+03  0.10017797316E+04  0.11089464481E+04  0.00000000000E+00 0. -1.
         -4    1    3    3    0  502 -0.34111913078E+02 -0.62957696991E+02  0.19696416375E+03  0.20957618191E+03  0.00000000000E+00 0.  1.
         11    1    5    5    0    0  0.24240143896E+02  0.36622069773E+02 -0.53584179648E+02  0.69282211852E+02  0.00000000000E+00 0. -1.
        -11    1    5    5    0    0 -0.64114542974E+01  0.34299927518E+03 -0.71376337681E+03  0.79192661756E+03  0.00000000000E+00 0.  1.
          2    1    6    6  503    0  0.10814345913E+03 -0.84561214815E+01  0.65297966154E+02  0.12661097159E+03  0.00000000000E+00 0. -1.
         -2    1    6    6    0  503  0.26383775845E+03  0.75115434331E+01  0.13191947325E+02  0.26427412576E+03  0.00000000000E+00 0.  1.
<mgrwt>
<rscale>  0 0.25195407E+04</rscale>
<asrwt>0</asrwt>
<pdfrwt beam="1">  1        1 0.23696176E+00 0.25195407E+04</pdfrwt>
<pdfrwt beam="2">  1       -2 0.15851771E+00 0.25195407E+04</pdfrwt>
<totfact> 0.12345210E+00</totfact>
</mgrwt>
</event>
<event>
12    4  0.4398275E-008  0.1612736E+04  0.7818608E-02  0.8812762E-01
          1   -1    0    0  501    0  0.00000000000E+00  0.00000000000E+00  0.63869936635E+03  0.63869936635E+03  0.00000000000E+00 0. -1.
         -2   -1    0    0    0  501 -0.00000000000E+00 -0.00000000000E+00 -0.10180528188E+04  0.10180528188E+04  0.00000000000E+00 0.  1.
        -24    2    1    2    0    0  0.20425164301E+02 -0.55613409621E+03 -0.18506994498E+03  0.59186953914E+03  0.79726698939E+02 0.  0.
        254    2    1    2    0    0 -0.20425164301E+02  0.55613409621E+03 -0.19428350748E+03  0.10648826460E+04  0.88686337631E+03 0.  0.
         23    2    4    4    0    0  0.41553872430E+03  0.26898434530E+03 -0.92133530808E+01  0.50373962736E+03  0.92971591835E+02 0.  0.
         23    2    4    4    0    0 -0.43596388860E+03  0.28714975091E+03 -0.18507015440E+03  0.56114301867E+03  0.90061277719E+02 0.  0.
          3    1    3    3  502    0  0.21227830599E+02 -0.17990951217E+03 -0.24480684204E+02  0.18280415001E+03  0.00000000000E+00 0. -1.
         -4    1    3    3    0  502 -0.80266629777E+00 -0.37622458404E+03 -0.16058926078E+03  0.40906538913E+03  0.00000000000E+00 0.  1.
         11    1    5    5    0    0  0.11957091073E+03  0.79117997083E+02  0.39573465139E+02  0.14873775344E+03  0.00000000000E+00 0. -1.
        -11    1    5    5    0    0  0.29596781356E+03  0.18986634822E+03 -0.48786818220E+02  0.35500187392E+03  0.00000000000E+00 0.  1.
          2    1    6    6  503    0 -0.19477127118E+03  0.11201525791E+03 -0.12487718566E+03  0.25705559239E+03  0.00000000000E+00 0. -1.
         -2    1    6    6    0  503 -0.24119261742E+03  0.17513449300E+03 -0.60192968741E+02  0.30408742628E+03  0.00000000000E+00 0.  1.
<mgrwt>
<rscale>  0 0.16127364E+04</rscale>
<asrwt>0</asrwt>
<pdfrwt beam="1">  1        1 0.98261443E-01 0.16127364E+04</pdfrwt>
<pdfrwt beam="2">  1       -2 0.15662351E+00 0.16127364E+04</pdfrwt>
<totfact> 0.69953779E+00</totfact>
</mgrwt>
</event>
<event>
12    4  0.4398275E-008  0.2425861E+04  0.7818608E-02  0.8429885E-01
          1   -1    0    0  501    0  0.00000000000E+00  0.00000000000E+00  0.22518348405E+04  0.22518348405E+04  0.00000000000E+00 0. -1.
         -2   -1    0    0    0  501 -0.00000000000E+00 -0.00000000000E+00 -0.65333386108E+03  0.65333386108E+03  0.00000000000E+00 0.  1.
        -24    2    1    2    0    0  0.33528611634E+03  0.98535072104E+03  0.55716665263E+03  0.11832277520E+04  0.79122759726E+02 0.  0.
        254    2    1    2    0    0 -0.33528611634E+03 -0.98535072104E+03  0.10413343268E+04  0.17219409496E+04  0.89295611895E+03 0.  0.
         23    2    4    4    0    0 -0.58959540790E+03 -0.62250803840E+03  0.43604045927E+03  0.96646936801E+03  0.93769687496E+02 0.  0.
         23    2    4    4    0    0  0.25430929156E+03 -0.36284268264E+03  0.60529386755E+03  0.75547158157E+03  0.89602546541E+02 0.  0.
          1    1    3    3  502    0  0.14372382143E+03  0.45213481123E+03  0.21072780449E+03  0.51912294494E+03  0.00000000000E+00 0. -1.
         -2    1    3    3    0  502  0.19156229491E+03  0.53321590980E+03  0.34643884814E+03  0.66410480709E+03  0.00000000000E+00 0.  1.
         11    1    5    5    0    0 -0.26157742590E+03 -0.29982559834E+03  0.15324144111E+03  0.42638137674E+03  0.00000000000E+00 0. -1.
        -11    1    5    5    0    0 -0.32801798201E+03 -0.32268244006E+03  0.28279901816E+03  0.54008799127E+03  0.00000000000E+00 0.  1.
          1    1    6    6  503    0  0.51652390010E+02 -0.11426528411E+03  0.22865218094E+03  0.26078026074E+03  0.00000000000E+00 0. -1.
         -1    1    6    6    0  503  0.20265690155E+03 -0.24857739852E+03  0.37664168662E+03  0.49469132083E+03  0.00000000000E+00 0.  1.
<mgrwt>
<rscale>  0 0.24258606E+04</rscale>
<asrwt>0</asrwt>
<pdfrwt beam="1">  1        1 0.34643613E+00 0.24258606E+04</pdfrwt>
<pdfrwt beam="2">  1       -2 0.10051290E+00 0.24258606E+04</pdfrwt>
<totfact> 0.12874536E+00</totfact>
</mgrwt>
</event>
<event>
12    4  0.4398275E-008  0.1531192E+04  0.7818608E-02  0.8863971E-01
          1   -1    0    0  501    0  0.00000000000E+00  0.00000000000E+00  0.85653816092E+03  0.85653816092E+03  0.00000000000E+00 0. -1.
         -2   -1    0    0    0  501 -0.00000000000E+00 -0.00000000000E+00 -0.68430972322E+03  0.68430972322E+03  0.00000000000E+00 0.  1.
        -24    2    1    2    0    0 -0.80851860319E+02  0.35788599659E+03  0.23377054038E+03  0.44304937442E+03  0.83813320868E+02 0.  0.
        254    2    1    2    0    0  0.80851860319E+02 -0.35788599659E+03 -0.61542102682E+02  0.10977985097E+04  0.10328381905E+04 0.  0.
         23    2    4    4    0    0 -0.37617700404E+03 -0.31776089882E+03  0.22497860927E+03  0.54924213348E+03  0.92576559490E+02 0.  0.
         23    2    4    4    0    0  0.45702886436E+03 -0.40125097768E+02 -0.28652071195E+03  0.54855637624E+03  0.91293883746E+02 0.  0.
          1    1    3    3  502    0 -0.98027211761E+02  0.31601664617E+03  0.20049533402E+03  0.38687754376E+03  0.00000000000E+00 0. -1.
         -2    1    3    3    0  502  0.17175351442E+02  0.41869350421E+02  0.33275206358E+02  0.56171830662E+02  0.00000000000E+00 0.  1.
         11    1    5    5    0    0 -0.36161721953E+03 -0.27719367046E+03  0.18971475772E+03  0.49355347603E+03  0.00000000000E+00 0. -1.
        -11    1    5    5    0    0 -0.14559784507E+02 -0.40567228359E+02  0.35263851551E+02  0.55688657443E+02  0.00000000000E+00 0.  1.
          4    1    6    6  503    0  0.27395554422E+03  0.92138860075E+01 -0.20440737348E+03  0.34193407294E+03  0.00000000000E+00 0. -1.
         -4    1    6    6    0  503  0.18307332014E+03 -0.49338983776E+02 -0.82113338475E+02  0.20662230330E+03  0.00000000000E+00 0.  1.
<mgrwt>
<rscale>  0 0.15311922E+04</rscale>
<asrwt>0</asrwt>
<pdfrwt beam="1">  1        1 0.13177510E+00 0.15311922E+04</pdfrwt>
<pdfrwt beam="2">  1       -2 0.10527842E+00 0.15311922E+04</pdfrwt>
<totfact> 0.12212131E+01</totfact>
</mgrwt>
</event>
<event>
12    4  0.4398275E-008  0.1946365E+04  0.7818608E-02  0.8632116E-01
          1   -1    0    0  501    0  0.00000000000E+00  0.00000000000E+00  0.11949707615E+04  0.11949707615E+04  0.00000000000E+00 0. -1.
         -2   -1    0    0    0  501 -0.00000000000E+00 -0.00000000000E+00 -0.79255846827E+03  0.79255846827E+03  0.00000000000E+00 0.  1.
        -24    2    1    2    0    0  0.18478371517E+03 -0.45354250330E+02  0.91337066236E+03  0.93623617491E+03  0.78039598496E+02 0.  0.
        254    2    1    2    0    0 -0.18478371517E+03  0.45354250330E+02 -0.51095836907E+03  0.10512930549E+04  0.89885293734E+03 0.  0.
         23    2    4    4    0    0  0.33846480625E+03 -0.69531084697E+02 -0.10595494548E+03  0.37273369883E+03  0.91164483013E+02 0.  0.
         23    2    4    4    0    0 -0.52324852141E+03  0.11488533503E+03 -0.40500342360E+03  0.67855935608E+03  0.97094650897E+02 0.  0.
          1    1    3    3  502    0  0.18879823723E+03 -0.41262842742E+02  0.90814453680E+03  0.92847934619E+03  0.00000000000E+00 0. -1.
         -2    1    3    3    0  502 -0.40145220631E+01 -0.40914075886E+01  0.52261255545E+01  0.77568287182E+01  0.00000000000E+00 0.  1.
         11    1    5    5    0    0  0.31240679120E+03 -0.45233005129E+02 -0.11502507140E+03  0.33596844345E+03  0.00000000000E+00 0.  1.
        -11    1    5    5    0    0  0.26058015049E+02 -0.24298079568E+02  0.90701259255E+01  0.36765255382E+02  0.00000000000E+00 0. -1.
          4    1    6    6  503    0 -0.34684800488E+03  0.28599574301E+02 -0.26294848024E+03  0.43619190433E+03  0.00000000000E+00 0.  1.
         -4    1    6    6    0  503 -0.17640051653E+03  0.86285760726E+02 -0.14205494336E+03  0.24236745175E+03  0.00000000000E+00 0. -1.
<mgrwt>
<rscale>  0 0.19463650E+04</rscale>
<asrwt>0</asrwt>
<pdfrwt beam="1">  1        1 0.18384166E+00 0.19463650E+04</pdfrwt>
<pdfrwt beam="2">  1       -2 0.12193207E+00 0.19463650E+04</pdfrwt>
<totfact> 0.44952935E+00</totfact>
</mgrwt>
</event>
<event>
12    4  0.4398275E-008  0.1263477E+04  0.7818608E-02  0.9059040E-01
          1   -1    0    0  501    0  0.00000000000E+00  0.00000000000E+00  0.50361651287E+03  0.50361651287E+03  0.00000000000E+00 0. -1.
         -2   -1    0    0    0  501 -0.00000000000E+00 -0.00000000000E+00 -0.79245550209E+03  0.79245550209E+03  0.00000000000E+00 0.  1.
        -24    2    1    2    0    0  0.18147435668E+02  0.25409185804E+03 -0.23897258475E+03  0.36052283953E+03  0.89313043954E+02 0.  0.
        254    2    1    2    0    0 -0.18147435668E+02 -0.25409185804E+03 -0.49866404471E+02  0.93554917543E+03  0.89881789013E+03 0.  0.
         23    2    4    4    0    0 -0.32570998231E+02 -0.22017126608E+03 -0.45664472153E+03  0.51616848501E+03  0.91483588061E+02 0.  0.
         23    2    4    4    0    0  0.14423562563E+02 -0.33920591961E+02  0.40677831706E+03  0.41938069042E+03  0.95146826275E+02 0.  0.
          1    1    3    3  502    0 -0.19041946698E+02  0.15860666568E+03 -0.10227203060E+03  0.18967930402E+03  0.00000000000E+00 0. -1.
         -2    1    3    3    0  502  0.37189382366E+02  0.95485192361E+02 -0.13670055415E+03  0.17084353551E+03  0.00000000000E+00 0.  1.
         11    1    5    5    0    0 -0.26226262885E+02 -0.18815302472E+03 -0.29227145315E+03  0.34858568516E+03  0.00000000000E+00 0. -1.
        -11    1    5    5    0    0 -0.63447353460E+01 -0.32018241364E+02 -0.16437326838E+03  0.16758279985E+03  0.00000000000E+00 0.  1.
          2    1    6    6  503    0 -0.54448935861E+01  0.19280972281E+02  0.27696330307E+03  0.27768700727E+03  0.00000000000E+00 0. -1.
         -2    1    6    6    0  503  0.19868456149E+02 -0.53201564242E+02  0.12981501399E+03  0.14169368315E+03  0.00000000000E+00 0.  1.
<mgrwt>
<rscale>  0 0.12634772E+04</rscale>
<asrwt>0</asrwt>
<pdfrwt beam="1">  1        1 0.77479464E-01 0.12634772E+04</pdfrwt>
<pdfrwt beam="2">  1       -2 0.12191623E+00 0.12634772E+04</pdfrwt>
<totfact> 0.19291002E+01</totfact>
</mgrwt>
</event>
<event>
12    4  0.4398275E-008  0.1706089E+04  0.7818608E-02  0.8757899E-01
         -2   -1    0    0    0  501 -0.00000000000E+00  0.00000000000E+00  0.36409721032E+03  0.36409721032E+03  0.00000000000E+00 0.  1.
          1   -1    0    0  501    0  0.00000000000E+00 -0.00000000000E+00 -0.19986008643E+04  0.19986008643E+04  0.00000000000E+00 0. -1.
        -24    2    1    2    0    0 -0.32748909837E+03  0.34697756646E+02  0.12387670604E+03  0.36069049814E+03  0.79367205301E+02 0.  0.
        254    2    1    2    0    0  0.32748909837E+03 -0.34697756646E+02 -0.17583803600E+04  0.20020075765E+04  0.89871007669E+03 0.  0.
         23    2    4    4    0    0  0.26103655898E+03 -0.37550817667E+03 -0.14667805130E+04  0.15390898237E+04  0.90586622530E+02 0.  0.
         23    2    4    4    0    0  0.66452539391E+02  0.34081042003E+03 -0.29159984701E+03  0.46291775279E+03  0.93245336000E+02 0.  0.
          1    1    3    3  502    0 -0.12804008596E+03  0.54232505385E+01  0.85337796146E+01  0.12843870388E+03  0.00000000000E+00 0. -1.
         -2    1    3    3    0  502 -0.19944901241E+03  0.29274506107E+02  0.11534292643E+03  0.23225179426E+03  0.00000000000E+00 0.  1.
         11    1    5    5    0    0  0.16119652729E+03 -0.24764030968E+03 -0.10793564987E+04  0.11190712643E+04  0.00000000000E+00 0. -1.
        -11    1    5    5    0    0  0.99840031697E+02 -0.12786786699E+03 -0.38742401433E+03  0.42001855938E+03  0.00000000000E+00 0.  1.
          4    1    6    6  503    0  0.15779466065E+02  0.26210906360E+03 -0.18589171189E+03  0.32172329931E+03  0.00000000000E+00 0. -1.
         -4    1    6    6    0  503  0.50673073326E+02  0.78701356423E+02 -0.10570813512E+03  0.14119445348E+03  0.00000000000E+00 0.  1.
<mgrwt>
<rscale>  0 0.17060891E+04</rscale>
<asrwt>0</asrwt>
<pdfrwt beam="1">  1        1 0.30747706E+00 0.17060891E+04</pdfrwt>
<pdfrwt beam="2">  1       -2 0.56014954E-01 0.17060891E+04</pdfrwt>
<totfact> 0.74655952E+00</totfact>
</mgrwt>
</event>
<event>
12    4  0.4398275E-008  0.2186324E+04  0.7818608E-02  0.8524142E-01
          1   -1    0    0  501    0  0.00000000000E+00  0.00000000000E+00  0.33019354957E+04  0.33019354957E+04  0.00000000000E+00 0. -1.
         -2   -1    0    0    0  501 -0.00000000000E+00 -0.00000000000E+00 -0.36191003346E+03  0.36191003346E+03  0.00000000000E+00 0.  1.
        -24    2    1    2    0    0 -0.89658872271E+03 -0.86656483671E+02  0.13451744088E+04  0.16210548869E+04  0.83331100970E+02 0.  0.
        254    2    1    2    0    0  0.89658872271E+03  0.86656483671E+02  0.15948510535E+04  0.20427906423E+04  0.90446837514E+03 0.  0.
         23    2    4    4    0    0 -0.50975568818E+02  0.14788812090E+03  0.74482356211E+03  0.76551451340E+03  0.82346382078E+02 0.  0.
         23    2    4    4    0    0  0.94756429153E+03 -0.61231637230E+02  0.85002749141E+03  0.12772761289E+04  0.85206651111E+02 0.  0.
          1    1    3    3  502    0 -0.50053447698E+03 -0.38198456007E+02  0.67692703092E+03  0.84274793970E+03  0.00000000000E+00 0. -1.
         -2    1    3    3    0  502 -0.39605424573E+03 -0.48458027665E+02  0.66824737784E+03  0.77830694716E+03  0.00000000000E+00 0.  1.
         11    1    5    5    0    0 -0.38471007534E+02  0.56947961437E+02  0.16931618978E+03  0.18273221078E+03  0.00000000000E+00 0. -1.
        -11    1    5    5    0    0 -0.12504561285E+02  0.90940159464E+02  0.57550737232E+03  0.58278230263E+03  0.00000000000E+00 0.  1.
          2    1    6    6  503    0  0.49431526420E+02 -0.22579197665E+02  0.45534247419E+02  0.70898967972E+02  0.00000000000E+00 0. -1.
         -2    1    6    6    0  503  0.89813276511E+03 -0.38652439565E+02  0.80449324400E+03  0.12063771610E+04  0.00000000000E+00 0.  1.
<mgrwt>
<rscale>  0 0.21863244E+04</rscale>
<asrwt>0</asrwt>
<pdfrwt beam="1">  1        1 0.50799006E+00 0.21863244E+04</pdfrwt>
<pdfrwt beam="2">  1       -2 0.55678469E-01 0.21863244E+04</pdfrwt>
<totfact> 0.86697462E-01</totfact>
</mgrwt>
</event>
<event>
12    4  0.4398275E-008  0.1383880E+04  0.7818608E-02  0.8965570E-01
         -2   -1    0    0    0  501 -0.00000000000E+00  0.00000000000E+00  0.50156344399E+03  0.50156344399E+03  0.00000000000E+00 0.  1.
          1   -1    0    0  501    0  0.00000000000E+00 -0.00000000000E+00 -0.95457743822E+03  0.95457743822E+03  0.00000000000E+00 0. -1.
        -24    2    1    2    0    0 -0.67786698497E+02 -0.15276941350E+03  0.24774251566E+03  0.30906290645E+03  0.78803527111E+02 0.  0.
        254    2    1    2    0    0  0.67786698497E+02  0.15276941350E+03 -0.70075650989E+03  0.11470779758E+04  0.89263355647E+03 0.  0.
         23    2    4    4    0    0  0.95796011364E+02  0.35498098372E+03  0.32895874938E+02  0.38032609940E+03  0.91528294527E+02 0.  0.
         23    2    4    4    0    0 -0.28009312867E+02 -0.20221157022E+03 -0.73365238483E+03  0.76675187637E+03  0.89378842086E+02 0.  0.
          1    1    3    3  502    0  0.10529967388E+02 -0.24409894001E+02  0.11362218177E+02  0.28910606016E+02  0.00000000000E+00 0. -1.
         -2    1    3    3    0  502 -0.78316665885E+02 -0.12835951950E+03  0.23638029748E+03  0.28015230043E+03  0.00000000000E+00 0.  1.
         11    1    5    5    0    0  0.47539570975E+02  0.48409815950E+02 -0.29725556326E+01  0.67914337041E+02  0.00000000000E+00 0. -1.
        -11    1    5    5    0    0  0.48256440389E+02  0.30657116777E+03  0.35868430571E+02  0.31241176236E+03  0.00000000000E+00 0.  1.
          2    1    6    6  503    0 -0.38963722550E+01  0.81442956642E+01 -0.14528972330E+02  0.17105622046E+02  0.00000000000E+00 0. -1.
         -2    1    6    6    0  503 -0.24112940612E+02 -0.21035586588E+03 -0.71912341250E+03  0.74964625432E+03  0.00000000000E+00 0.  1.
<mgrwt>
<rscale>  0 0.13838803E+04</rscale>
<asrwt>0</asrwt>
<pdfrwt beam="1">  1        1 0.14685807E+00 0.13838803E+04</pdfrwt>
<pdfrwt beam="2">  1       -2 0.77163607E-01 0.13838803E+04</pdfrwt>
<totfact> 0.21083019E+01</totfact>
</mgrwt>
</event>
<event>
12    4  0.4398275E-008  0.1256022E+04  0.7818608E-02  0.9065186E-01
         -4   -1    0    0    0  501 -0.00000000000E+00  0.00000000000E+00  0.40970392881E+03  0.40970392881E+03  0.00000000000E+00 0.  1.
          3   -1    0    0  501    0  0.00000000000E+00 -0.00000000000E+00 -0.96264060354E+03  0.96264060354E+03  0.00000000000E+00 0. -1.
        -24    2    1    2    0    0 -0.20965077877E+03 -0.18279716128E+03 -0.22179865936E+03  0.36424590239E+03  0.78180438142E+02 0.  0.
        254    2    1    2    0    0  0.20965077877E+03  0.18279716128E+03 -0.33113801537E+03  0.10080986300E+04  0.91062737236E+03 0.  0.
         23    2    4    4    0    0  0.40654300141E+03  0.17179107294E+03  0.15320662765E+03  0.47723288940E+03  0.97414450829E+02 0.  0.
         23    2    4    4    0    0 -0.19689222264E+03  0.11006088342E+02 -0.48434464302E+03  0.53086574056E+03  0.91329184611E+02 0.  0.
          3    1    3    3  502    0 -0.10556627920E+03 -0.75275967338E+02 -0.14998882979E+03  0.19826083735E+03  0.00000000000E+00 0. -1.
         -4    1    3    3    0  502 -0.10408449957E+03 -0.10752119394E+03 -0.71809829568E+02  0.16598506505E+03  0.00000000000E+00 0.  1.
         11    1    5    5    0    0  0.24061719217E+03  0.14085157979E+03  0.12719525141E+03  0.30645461765E+03  0.00000000000E+00 0. -1.
        -11    1    5    5    0    0  0.16592580924E+03  0.30939493149E+02  0.26011376244E+02  0.17077827175E+03  0.00000000000E+00 0.  1.
          2    1    6    6  503    0 -0.93232957934E+02 -0.31657822040E+02 -0.29303313420E+03  0.30913268977E+03  0.00000000000E+00 0. -1.
         -2    1    6    6    0  503 -0.10365926471E+03  0.42663910382E+02 -0.19131150882E+03  0.22173305080E+03  0.00000000000E+00 0.  1.
<mgrwt>
<rscale>  0 0.12560217E+04</rscale>
<asrwt>0</asrwt>
<pdfrwt beam="1">  1        3 0.14809855E+00 0.12560217E+04</pdfrwt>
<pdfrwt beam="2">  1       -4 0.63031374E-01 0.12560217E+04</pdfrwt>
<totfact> 0.17737824E+00</totfact>
</mgrwt>
</event>
<event>
12    4  0.4398275E-008  0.2371649E+04  0.7818608E-02  0.8450195E-01
         -2   -1    0    0    0  501 -0.00000000000E+00  0.00000000000E+00  0.20271939054E+04  0.20271939054E+04  0.00000000000E+00 0.  1.
          1   -1    0    0  501    0  0.00000000000E+00 -0.00000000000E+00 -0.69365810305E+03  0.69365810305E+03  0.00000000000E+00 0. -1.
        -24    2    1    2    0    0 -0.15541226077E+03  0.94136710086E+03  0.17217184887E+03  0.97279058814E+03  0.79708176862E+02 0.  0.
        254    2    1    2    0    0  0.15541226077E+03 -0.94136710086E+03  0.11613639535E+04  0.17480614203E+04  0.89253991918E+03 0.  0.
         23    2    4    4    0    0  0.48996037459E+03 -0.74431168975E+03  0.69343177952E+03  0.11329997088E+04  0.93699770781E+02 0.  0.
         23    2    4    4    0    0 -0.33454811383E+03 -0.19705541110E+03  0.46793217395E+03  0.61506171153E+03  0.92666682569E+02 0.  0.
          1    1    3    3  502    0 -0.31823597792E+02  0.64885728362E+02  0.11723508729E+02  0.73214341343E+02  0.00000000000E+00 0. -1.
         -2    1    3    3    0  502 -0.12358866297E+03  0.87648137249E+03  0.16044834014E+03  0.89957624680E+03  0.00000000000E+00 0.  1.
         11    1    5    5    0    0  0.28716223433E+03 -0.48569274281E+03  0.39191133333E+03  0.68698914288E+03  0.00000000000E+00 0. -1.
        -11    1    5    5    0    0  0.20279814027E+03 -0.25861894695E+03  0.30152044619E+03  0.44601056589E+03  0.00000000000E+00 0.  1.
          1    1    6    6  503    0 -0.31207072016E+03 -0.18289045113E+03  0.46380140615E+03  0.58817412034E+03  0.00000000000E+00 0. -1.
         -1    1    6    6    0  503 -0.22477393670E+02 -0.14164959968E+02  0.41307678031E+01  0.26887591185E+02  0.00000000000E+00 0.  1.
<mgrwt>
<rscale>  0 0.23716488E+04</rscale>
<asrwt>0</asrwt>
<pdfrwt beam="1">  1        1 0.10671663E+00 0.23716488E+04</pdfrwt>
<pdfrwt beam="2">  1       -2 0.31187598E+00 0.23716488E+04</pdfrwt>
<totfact> 0.58467739E-01</totfact>
</mgrwt>
</event>
<event>
12    4  0.4398275E-008  0.1061474E+04  0.7818608E-02  0.9243577E-01
          1   -1    0    0  501    0  0.00000000000E+00  0.00000000000E+00  0.13805193044E+04  0.13805193044E+04  0.00000000000E+00 0. -1.
         -2   -1    0    0    0  501 -0.00000000000E+00 -0.00000000000E+00 -0.20404044898E+03  0.20404044898E+03  0.00000000000E+00 0.  1.
        -24    2    1    2    0    0  0.60694610855E+02  0.10434419779E+03  0.22874649975E+03  0.27066269171E+03  0.79760793219E+02 0.  0.
        254    2    1    2    0    0 -0.60694610855E+02 -0.10434419779E+03  0.94773235570E+03  0.13138970617E+04  0.90197412562E+03 0.  0.
         23    2    4    4    0    0  0.73998517860E+02 -0.19910103701E+02 -0.15590111486E+03  0.19458137164E+03  0.87661620453E+02 0.  0.
         23    2    4    4    0    0 -0.13469312871E+03 -0.84434094090E+02  0.11036334706E+04  0.11193156901E+04  0.97925591573E+02 0.  0.
          3    1    3    3  502    0  0.48347461010E+01  0.40175295900E+02  0.14776835494E+03  0.15320873308E+03  0.00000000000E+00 0. -1.
         -4    1    3    3    0  502  0.55859864754E+02  0.64168901891E+02  0.80978144810E+02  0.11745395863E+03  0.00000000000E+00 0.  1.
         11    1    5    5    0    0  0.52598496091E+02  0.25444195428E+02 -0.48080826271E+02  0.75668849119E+02  0.00000000000E+00 0.  1.
        -11    1    5    5    0    0  0.21400021768E+02 -0.45354299129E+02 -0.10782028859E+03  0.11891252252E+03  0.00000000000E+00 0. -1.
          1    1    6    6  503    0 -0.69956862305E+02 -0.60752787101E+02  0.89061919774E+03  0.89542583116E+03  0.00000000000E+00 0. -1.
         -1    1    6    6    0  503 -0.64736266410E+02 -0.23681306989E+02  0.21301427283E+03  0.22388985890E+03  0.00000000000E+00 0.  1.
<mgrwt>
<rscale>  0 0.10614740E+04</rscale>
<asrwt>0</asrwt>
<pdfrwt beam="1">  1        1 0.21238758E+00 0.10614740E+04</pdfrwt>
<pdfrwt beam="2">  1       -2 0.31390839E-01 0.10614740E+04</pdfrwt>
<totfact> 0.65431596E+01</totfact>
</mgrwt>
</event>
<event>
12    4  0.4398275E-008  0.2206036E+04  0.7818608E-02  0.8515920E-01
          1   -1    0    0  501    0  0.00000000000E+00  0.00000000000E+00  0.23079040260E+04  0.23079040260E+04  0.00000000000E+00 0. -1.
         -2   -1    0    0    0  501 -0.00000000000E+00 -0.00000000000E+00 -0.52716587894E+03  0.52716587894E+03  0.00000000000E+00 0.  1.
        -24    2    1    2    0    0  0.92236439720E+02  0.81833291197E+03  0.14137682902E+04  0.16380304985E+04  0.78910203475E+02 0.  0.
        254    2    1    2    0    0 -0.92236439720E+02 -0.81833291197E+03  0.36696985693E+03  0.11970394065E+04  0.78743898118E+03 0.  0.
         23    2    4    4    0    0  0.23553961470E+03 -0.47086428628E+03 -0.74961150895E+02  0.53977676459E+03  0.92453746649E+02 0.  0.
         23    2    4    4    0    0 -0.32777605442E+03 -0.34746862569E+03  0.44193100783E+03  0.65726264186E+03  0.92301554782E+02 0.  0.
          1    1    3    3  502    0  0.59604165040E+02  0.38483929620E+03  0.73950015154E+03  0.83577174785E+03  0.00000000000E+00 0. -1.
         -2    1    3    3    0  502  0.32632274680E+02  0.43349361577E+03  0.67426813861E+03  0.80225875066E+03  0.00000000000E+00 0.  1.
         11    1    5    5    0    0  0.52643125268E+02 -0.52621696056E+02  0.11082196039E+02  0.75253947424E+02  0.00000000000E+00 0. -1.
        -11    1    5    5    0    0  0.18289648943E+03 -0.41824259022E+03 -0.86043346934E+02  0.46452281717E+03  0.00000000000E+00 0.  1.
          2    1    6    6  503    0 -0.25383348538E+03 -0.20775946392E+03  0.31090361172E+03  0.45194744045E+03  0.00000000000E+00 0. -1.
         -2    1    6    6    0  503 -0.73942569031E+02 -0.13970916177E+03  0.13102739611E+03  0.20531520141E+03  0.00000000000E+00 0.  1.
<mgrwt>
<rscale>  0 0.22060356E+04</rscale>
<asrwt>0</asrwt>
<pdfrwt beam="1">  1        1 0.35506215E+00 0.22060356E+04</pdfrwt>
<pdfrwt beam="2">  1       -2 0.81102444E-01 0.22060356E+04</pdfrwt>
<totfact> 0.19723793E+00</totfact>
</mgrwt>
</event>
<event>
12    4  0.4398275E-008  0.2035128E+04  0.7818608E-02  0.8590371E-01
         -2   -1    0    0    0  501 -0.00000000000E+00  0.00000000000E+00  0.28960366305E+03  0.28960366305E+03  0.00000000000E+00 0.  1.
          1   -1    0    0  501    0  0.00000000000E+00 -0.00000000000E+00 -0.35753584370E+04  0.35753584370E+04  0.00000000000E+00 0. -1.
        -24    2    1    2    0    0 -0.90998557348E+01  0.64824410382E+03 -0.18197766693E+04  0.19335409007E+04  0.81792806388E+02 0.  0.
        254    2    1    2    0    0  0.90998557348E+01 -0.64824410382E+03 -0.14659781047E+04  0.19314211993E+04  0.10774937681E+04 0.  0.
         23    2    4    4    0    0 -0.16964211549E+03 -0.28219500201E+03  0.61917552929E+02  0.34750868317E+03  0.92282365675E+02 0.  0.
         23    2    4    4    0    0  0.17874197122E+03 -0.36604910181E+03 -0.15278956576E+04  0.15839125161E+04  0.91504541446E+02 0.  0.
          1    1    3    3  502    0  0.89933261184E+01  0.22530336728E+03 -0.52678443652E+03  0.57301337662E+03  0.00000000000E+00 0. -1.
         -2    1    3    3    0  502 -0.18093181853E+02  0.42294073653E+03 -0.12929922328E+04  0.13605275241E+04  0.00000000000E+00 0.  1.
         11    1    5    5    0    0 -0.46313762909E+02 -0.11904362997E+03 -0.15824176363E+02  0.12871190710E+03  0.00000000000E+00 0. -1.
        -11    1    5    5    0    0 -0.12332835258E+03 -0.16315137204E+03  0.77741729292E+02  0.21879677607E+03  0.00000000000E+00 0.  1.
          3    1    6    6  503    0  0.85852646788E+02 -0.12843728252E+03 -0.43450981742E+03  0.46115679973E+03  0.00000000000E+00 0. -1.
         -3    1    6    6    0  503  0.92889324432E+02 -0.23761181928E+03 -0.10933858402E+04  0.11227557164E+04  0.00000000000E+00 0.  1.
<mgrwt>
<rscale>  0 0.20351284E+04</rscale>
<asrwt>0</asrwt>
<pdfrwt beam="1">  1        1 0.55005517E+00 0.20351284E+04</pdfrwt>
<pdfrwt beam="2">  1       -2 0.44554408E-01 0.20351284E+04</pdfrwt>
<totfact> 0.84903654E-01</totfact>
</mgrwt>
</event>
<event>
12    4  0.4398275E-008  0.2189783E+04  0.7818608E-02  0.8522693E-01
         -2   -1    0    0    0  501 -0.00000000000E+00  0.00000000000E+00  0.93246650711E+03  0.93246650711E+03  0.00000000000E+00 0.  1.
          1   -1    0    0  501    0  0.00000000000E+00 -0.00000000000E+00 -0.12856092099E+04  0.12856092099E+04  0.00000000000E+00 0. -1.
        -24    2    1    2    0    0  0.32641477616E+03  0.60483715179E+03 -0.76935388748E+03  0.10346872925E+04  0.79358696831E+02 0.  0.
        254    2    1    2    0    0 -0.32641477616E+03 -0.60483715179E+03  0.41621118474E+03  0.11833884245E+04  0.86879331639E+03 0.  0.
         23    2    4    4    0    0 -0.14435965044E+03 -0.28799571577E+03 -0.25146247930E+03  0.41674481212E+03  0.81618741439E+02 0.  0.
         23    2    4    4    0    0 -0.18205512572E+03 -0.31684143602E+03  0.66767366403E+03  0.76664361236E+03  0.91770051475E+02 0.  0.
          1    1    3    3  502    0  0.29768475147E+03  0.56355263124E+03 -0.73927712632E+03  0.97608321824E+03  0.00000000000E+00 0. -1.
         -2    1    3    3    0  502  0.28730024687E+02  0.41284520552E+02 -0.30076761163E+02  0.58604074242E+02  0.00000000000E+00 0.  1.
         11    1    5    5    0    0 -0.39373197887E+02 -0.11507507449E+03 -0.50798580136E+02  0.13180674196E+03  0.00000000000E+00 0. -1.
        -11    1    5    5    0    0 -0.10498645255E+03 -0.17292064128E+03 -0.20066389916E+03  0.28493807016E+03  0.00000000000E+00 0.  1.
          4    1    6    6  503    0 -0.77838492499E+02 -0.14661539036E+03  0.21264569419E+03  0.26976488812E+03  0.00000000000E+00 0. -1.
         -4    1    6    6    0  503 -0.10421663322E+03 -0.17022604566E+03  0.45502796984E+03  0.49687872424E+03  0.00000000000E+00 0.  1.
<mgrwt>
<rscale>  0 0.21897831E+04</rscale>
<asrwt>0</asrwt>
<pdfrwt beam="1">  1        1 0.19778603E+00 0.21897831E+04</pdfrwt>
<pdfrwt beam="2">  1       -2 0.14345639E+00 0.21897831E+04</pdfrwt>
<totfact> 0.24997182E+00</totfact>
</mgrwt>
</event>
<event>
12    4  0.4398275E-008  0.1498022E+04  0.7818608E-02  0.8885769E-01
         -2   -1    0    0    0  501 -0.00000000000E+00  0.00000000000E+00  0.47559116532E+03  0.47559116532E+03  0.00000000000E+00 0.  1.
          1   -1    0    0  501    0  0.00000000000E+00 -0.00000000000E+00 -0.11796217454E+04  0.11796217454E+04  0.00000000000E+00 0. -1.
        -24    2    1    2    0    0  0.43721983642E+02 -0.25660366238E+03  0.21072695178E+03  0.34408916705E+03  0.78958566803E+02 0.  0.
        254    2    1    2    0    0 -0.43721983642E+02  0.25660366238E+03 -0.91475753188E+03  0.13111237437E+04  0.90250045859E+03 0.  0.
         23    2    4    4    0    0 -0.10200814970E+03  0.45647166598E+03 -0.12901975489E+03  0.49352204382E+03  0.90254452175E+02 0.  0.
         23    2    4    4    0    0  0.58286166062E+02 -0.19986800360E+03 -0.78573777699E+03  0.81760169988E+03  0.88001076319E+02 0.  0.
          1    1    3    3  502    0 -0.16050004934E+01 -0.55987166637E+02  0.10378252457E+02  0.56963558340E+02  0.00000000000E+00 0. -1.
         -2    1    3    3    0  502  0.45326984135E+02 -0.20061649574E+03  0.20034869932E+03  0.28712560871E+03  0.00000000000E+00 0.  1.
         11    1    5    5    0    0 -0.75059222320E+02  0.17086152914E+03 -0.77403835080E+02  0.20203688446E+03  0.00000000000E+00 0. -1.
        -11    1    5    5    0    0 -0.26948927383E+02  0.28561013684E+03 -0.51615919805E+02  0.29148515936E+03  0.00000000000E+00 0.  1.
          3    1    6    6  503    0  0.65772079538E+02 -0.98732727493E+02 -0.32885760535E+03  0.34960183427E+03  0.00000000000E+00 0. -1.
         -3    1    6    6    0  503 -0.74859134760E+01 -0.10113527611E+03 -0.45688017164E+03  0.46799986561E+03  0.00000000000E+00 0.  1.
<mgrwt>
<rscale>  0 0.14980223E+04</rscale>
<asrwt>0</asrwt>
<pdfrwt beam="1">  1        1 0.18148027E+00 0.14980223E+04</pdfrwt>
<pdfrwt beam="2">  1       -2 0.73167872E-01 0.14980223E+04</pdfrwt>
<totfact> 0.15829389E+01</totfact>
</mgrwt>
</event>
<event>
12    4  0.4398275E-008  0.2631035E+04  0.7818608E-02  0.8357735E-01
          1   -1    0    0  501    0  0.00000000000E+00  0.00000000000E+00  0.16222670763E+04  0.16222670763E+04  0.00000000000E+00 0. -1.
         -2   -1    0    0    0  501 -0.00000000000E+00 -0.00000000000E+00 -0.10667699753E+04  0.10667699753E+04  0.00000000000E+00 0.  1.
        -24    2    1    2    0    0 -0.80372177222E+03  0.32827395623E+02  0.10982304969E+04  0.13639817653E+04  0.85379780267E+02 0.  0.
        254    2    1    2    0    0  0.80372177222E+03 -0.32827395623E+02 -0.54273339584E+03  0.13250552863E+04  0.90231128097E+03 0.  0.
         23    2    4    4    0    0 -0.45937571091E+02  0.79529102965E+02 -0.43836197934E+03  0.45697450446E+03  0.90715677451E+02 0.  0.
         23    2    4    4    0    0  0.84965934331E+03 -0.11235649859E+03 -0.10437141650E+03  0.86808078185E+03  0.90143600942E+02 0.  0.
          1    1    3    3  502    0 -0.54289945250E+03  0.30390936193E+02  0.67414157087E+03  0.86610061892E+03  0.00000000000E+00 0. -1.
         -2    1    3    3    0  502 -0.26082231972E+03  0.24364594295E+01  0.42408892600E+03  0.49788114641E+03  0.00000000000E+00 0.  1.
         11    1    5    5    0    0 -0.41343393048E+02 -0.70936842557E+01 -0.12652363782E+03  0.13329601431E+03  0.00000000000E+00 0.  1.
        -11    1    5    5    0    0 -0.45941780433E+01  0.86622787221E+02 -0.31183834152E+03  0.32367849014E+03  0.00000000000E+00 0. -1.
          4    1    6    6  503    0  0.78902886368E+03 -0.10058851750E+03 -0.72860488911E+02  0.79874479555E+03  0.00000000000E+00 0. -1.
         -4    1    6    6    0  503  0.60630479629E+02 -0.11767981091E+02 -0.31510927590E+02  0.69335986302E+02  0.00000000000E+00 0.  1.
<mgrwt>
<rscale>  0 0.26310346E+04</rscale>
<asrwt>0</asrwt>
<pdfrwt beam="1">  1        1 0.24957955E+00 0.26310346E+04</pdfrwt>
<pdfrwt beam="2">  1       -2 0.16411846E+00 0.26310346E+04</pdfrwt>
<totfact> 0.97660671E-01</totfact>
</mgrwt>
</event>
<event>
12    4  0.4398275E-008  0.1443383E+04  0.7818608E-02  0.8923001E-01
         -2   -1    0    0    0  501 -0.00000000000E+00  0.00000000000E+00  0.21937509924E+03  0.21937509924E+03  0.00000000000E+00 0.  1.
          1   -1    0    0  501    0  0.00000000000E+00 -0.00000000000E+00 -0.23741910822E+04  0.23741910822E+04  0.00000000000E+00 0. -1.
        -24    2    1    2    0    0 -0.56521187147E+02  0.87380867554E+02 -0.14118149990E+04  0.14179758812E+04  0.81264677931E+02 0.  0.
        254    2    1    2    0    0  0.56521187147E+02 -0.87380867554E+02 -0.74300098403E+03  0.11755903002E+04  0.90505913127E+03 0.  0.
         23    2    4    4    0    0  0.23596237227E+03 -0.51613429915E+02 -0.88772972761E+03  0.92520217382E+03  0.97942870511E+02 0.  0.
         23    2    4    4    0    0 -0.17944118512E+03 -0.35767437639E+02  0.14472874357E+03  0.25038812641E+03  0.90936000125E+02 0.  0.
          1    1    3    3  502    0 -0.24405517538E+02  0.55822683476E+02 -0.11941245199E+04  0.11956777034E+04  0.00000000000E+00 0. -1.
         -2    1    3    3    0  502 -0.32115669609E+02  0.31558184079E+02 -0.21769047902E+03  0.22229817784E+03  0.00000000000E+00 0.  1.
         11    1    5    5    0    0  0.13144121689E+03 -0.75617331520E+02 -0.46606186560E+03  0.49011063740E+03  0.00000000000E+00 0. -1.
        -11    1    5    5    0    0  0.10452115537E+03  0.24003901605E+02 -0.42166786201E+03  0.43509153642E+03  0.00000000000E+00 0.  1.
          3    1    6    6  503    0 -0.62298685276E+02  0.27166443249E+02  0.28217963798E+02  0.73589369523E+02  0.00000000000E+00 0. -1.
         -3    1    6    6    0  503 -0.11714249985E+03 -0.62933880888E+02  0.11651077977E+03  0.17679875689E+03  0.00000000000E+00 0.  1.
<mgrwt>
<rscale>  0 0.14433827E+04</rscale>
<asrwt>0</asrwt>
<pdfrwt beam="1">  1        1 0.36526016E+00 0.14433827E+04</pdfrwt>
<pdfrwt beam="2">  1       -2 0.33750016E-01 0.14433827E+04</pdfrwt>
<totfact> 0.11623842E+01</totfact>
</mgrwt>
</event>
<event>
12    4  0.4398275E-008  0.1114418E+04  0.7818608E-02  0.9191251E-01
          3   -1    0    0  501    0  0.00000000000E+00  0.00000000000E+00  0.63015583391E+03  0.63015583391E+03  0.00000000000E+00 0. -1.
         -4   -1    0    0    0  501 -0.00000000000E+00 -0.00000000000E+00 -0.49270692344E+03  0.49270692344E+03  0.00000000000E+00 0.  1.
        -24    2    1    2    0    0 -0.65344213826E+02 -0.18237368734E+03  0.47097977731E+02  0.21481437418E+03  0.79981046101E+02 0.  0.
        254    2    1    2    0    0  0.65344213826E+02  0.18237368734E+03  0.90350932730E+02  0.90804838317E+03  0.88252962954E+03 0.  0.
         23    2    4    4    0    0 -0.30283244028E+03 -0.91840976675E+02  0.25118813236E+03  0.41330435552E+03  0.87079047801E+02 0.  0.
         23    2    4    4    0    0  0.36817665411E+03  0.27421466401E+03 -0.16083719963E+03  0.49474402765E+03  0.90306796617E+02 0.  0.
          1    1    3    3  502    0  0.11120578984E+02 -0.15988328997E+01 -0.41098838658E+01  0.11963055168E+02  0.00000000000E+00 0. -1.
         -2    1    3    3    0  502 -0.76464792809E+02 -0.18077485444E+03  0.51207861597E+02  0.20285131902E+03  0.00000000000E+00 0.  1.
         11    1    5    5    0    0 -0.85122018011E+02 -0.37637251542E+02  0.28850450637E+02  0.97440592957E+02  0.00000000000E+00 0.  1.
        -11    1    5    5    0    0 -0.21771042227E+03 -0.54203725133E+02  0.22233768172E+03  0.31586376256E+03  0.00000000000E+00 0. -1.
          4    1    6    6  503    0  0.31353703392E+03  0.26708199009E+03 -0.15152229477E+03  0.43885905127E+03  0.00000000000E+00 0. -1.
         -4    1    6    6    0  503  0.54639620191E+02  0.71326739214E+01 -0.93149048597E+01  0.55884976375E+02  0.00000000000E+00 0.  1.
<mgrwt>
<rscale>  0 0.11144185E+04</rscale>
<asrwt>0</asrwt>
<pdfrwt beam="1">  1        3 0.96947051E-01 0.11144185E+04</pdfrwt>
<pdfrwt beam="2">  1       -4 0.75801065E-01 0.11144185E+04</pdfrwt>
<totfact> 0.33429631E+00</totfact>
</mgrwt>
</event>
<event>
12    4  0.4398275E-008  0.1346447E+04  0.7818608E-02  0.8993522E-01
         -2   -1    0    0    0  501 -0.00000000000E+00  0.00000000000E+00  0.49892474211E+03  0.49892474211E+03  0.00000000000E+00 0.  1.
          1   -1    0    0  501    0  0.00000000000E+00 -0.00000000000E+00 -0.90841372617E+03  0.90841372617E+03  0.00000000000E+00 0. -1.
        -24    2    1    2    0    0  0.35755075689E+03 -0.50652547848E+02 -0.19377394444E+03  0.41767029237E+03  0.80572372636E+02 0.  0.
        254    2    1    2    0    0 -0.35755075689E+03  0.50652547848E+02 -0.21571503962E+03  0.98966817591E+03  0.89582470146E+03 0.  0.
         23    2    4    4    0    0 -0.30565989559E+03 -0.37293849810E+02 -0.54475584616E+03  0.63293979232E+03  0.95052857732E+02 0.  0.
         23    2    4    4    0    0 -0.51890861293E+02  0.87946397658E+02  0.32904080654E+03  0.35672838359E+03  0.92520575781E+02 0.  0.
          3    1    3    3  502    0  0.23804321449E+02 -0.24544854727E+02 -0.92675915854E+01  0.35425751467E+02  0.00000000000E+00 0. -1.
         -4    1    3    3    0  502  0.33374643544E+03 -0.26107693120E+02 -0.18450635286E+03  0.38224454090E+03  0.00000000000E+00 0.  1.
         11    1    5    5    0    0 -0.36826309024E+02 -0.23062458471E+02 -0.14196899876E+03  0.14846969602E+03  0.00000000000E+00 0. -1.
        -11    1    5    5    0    0 -0.26883358657E+03 -0.14231391340E+02 -0.40278684740E+03  0.48447009630E+03  0.00000000000E+00 0.  1.
          1    1    6    6  503    0 -0.17925235346E+02  0.71034993718E+01  0.35153928618E+01  0.19599279388E+02  0.00000000000E+00 0. -1.
         -1    1    6    6    0  503 -0.33965625947E+02  0.80842898286E+02  0.32552541368E+03  0.33712910420E+03  0.00000000000E+00 0.  1.
<mgrwt>
<rscale>  0 0.13464473E+04</rscale>
<asrwt>0</asrwt>
<pdfrwt beam="1">  1        1 0.13975596E+00 0.13464473E+04</pdfrwt>
<pdfrwt beam="2">  1       -2 0.76757653E-01 0.13464473E+04</pdfrwt>
<totfact> 0.23310772E+01</totfact>
</mgrwt>
</event>
<event>
12    4  0.4398275E-008  0.2145675E+04  0.7818608E-02  0.8541386E-01
         -2   -1    0    0    0  501 -0.00000000000E+00  0.00000000000E+00  0.56245239562E+03  0.56245239562E+03  0.00000000000E+00 0.  1.
          1   -1    0    0  501    0  0.00000000000E+00 -0.00000000000E+00 -0.20463598960E+04  0.20463598960E+04  0.00000000000E+00 0. -1.
        -24    2    1    2    0    0 -0.64135954243E+03  0.59237302327E+03 -0.46184599288E+03  0.99333024155E+03  0.10561906209E+03 0.  0.
        254    2    1    2    0    0  0.64135954243E+03 -0.59237302327E+03 -0.10220615075E+04  0.16154820501E+04  0.89606063837E+03 0.  0.
         23    2    4    4    0    0  0.36437996009E+02 -0.30736491534E+03 -0.86196195317E+03  0.92039594736E+03  0.91374900640E+02 0.  0.
         23    2    4    4    0    0  0.60492154642E+03 -0.28500810793E+03 -0.16009955430E+03  0.69508610269E+03  0.10175030203E+03 0.  0.
          1    1    3    3  502    0 -0.63586253937E+03  0.59703720406E+03 -0.45814647255E+03  0.98522727445E+03  0.00000000000E+00 0. -1.
         -2    1    3    3    0  502 -0.54970030562E+01 -0.46641807970E+01 -0.36995203329E+01  0.81029670985E+01  0.00000000000E+00 0.  1.
         11    1    5    5    0    0  0.45317031464E+02 -0.30323458522E+03 -0.78397674137E+03  0.84179830008E+03  0.00000000000E+00 0.  1.
        -11    1    5    5    0    0 -0.88790354545E+01 -0.41303301157E+01 -0.77985211804E+02  0.78597647278E+02  0.00000000000E+00 0. -1.
          4    1    6    6  503    0  0.25797034500E+03 -0.15703892248E+03 -0.11228971881E+03  0.32220940865E+03  0.00000000000E+00 0.  1.
         -4    1    6    6    0  503  0.34695120142E+03 -0.12796918544E+03 -0.47809835496E+02  0.37287669404E+03  0.00000000000E+00 0. -1.
<mgrwt>
<rscale>  0 0.21456747E+04</rscale>
<asrwt>0</asrwt>
<pdfrwt beam="1">  1        1 0.31482460E+00 0.21456747E+04</pdfrwt>
<pdfrwt beam="2">  1       -2 0.86531138E-01 0.21456747E+04</pdfrwt>
<totfact> 0.25796811E+00</totfact>
</mgrwt>
</event>
<event>
12    4  0.4398275E-008  0.2093092E+04  0.7818608E-02  0.8564292E-01
         -2   -1    0    0    0  501 -0.00000000000E+00  0.00000000000E+00  0.93338620312E+03  0.93338620312E+03  0.00000000000E+00 0.  1.
          1   -1    0    0  501    0  0.00000000000E+00 -0.00000000000E+00 -0.11734253591E+04  0.11734253591E+04  0.00000000000E+00 0. -1.
        -24    2    1    2    0    0 -0.92269991396E+02 -0.75493915104E+03  0.28038578546E+03  0.81427405297E+03  0.77325103059E+02 0.  0.
        254    2    1    2    0    0  0.92269991396E+02  0.75493915104E+03 -0.52042494149E+03  0.12925375093E+04  0.90629146534E+03 0.  0.
         23    2    4    4    0    0 -0.19883864695E+03  0.83805747168E+03 -0.40171644615E+03  0.95537289531E+03  0.97386511541E+02 0.  0.
         23    2    4    4    0    0  0.29110863835E+03 -0.83118320637E+02 -0.11870849534E+03  0.33716461399E+03  0.89080724732E+02 0.  0.
          1    1    3    3  502    0 -0.15809306395E+02 -0.27215126646E+03  0.65784858162E+02  0.28043518604E+03  0.00000000000E+00 0. -1.
         -2    1    3    3    0  502 -0.76460685002E+02 -0.48278788457E+03  0.21460092729E+03  0.53383886692E+03  0.00000000000E+00 0.  1.
         11    1    5    5    0    0 -0.24940017125E+01  0.17888294113E+03 -0.89262551965E+02  0.19993281336E+03  0.00000000000E+00 0.  1.
        -11    1    5    5    0    0 -0.19634464524E+03  0.65917453054E+03 -0.31245389418E+03  0.75544008195E+03  0.00000000000E+00 0. -1.
          3    1    6    6  503    0  0.18462696962E+03 -0.25771793162E+02 -0.10873634570E+03  0.21581217785E+03  0.00000000000E+00 0. -1.
         -3    1    6    6    0  503  0.10648166873E+03 -0.57346527475E+02 -0.99721496326E+01  0.12135243614E+03  0.00000000000E+00 0.  1.
<mgrwt>
<rscale>  0 0.20930925E+04</rscale>
<asrwt>0</asrwt>
<pdfrwt beam="1">  1        1 0.18052698E+00 0.20930925E+04</pdfrwt>
<pdfrwt beam="2">  1       -2 0.14359788E+00 0.20930925E+04</pdfrwt>
<totfact> 0.30326752E+00</totfact>
</mgrwt>
</event>
<event>
12    4  0.4398275E-008  0.1553244E+04  0.7818608E-02  0.8849798E-01
         -2   -1    0    0    0  501 -0.00000000000E+00  0.00000000000E+00  0.21217288231E+03  0.21217288231E+03  0.00000000000E+00 0.  1.
          1   -1    0    0  501    0  0.00000000000E+00 -0.00000000000E+00 -0.28426912976E+04  0.28426912976E+04  0.00000000000E+00 0. -1.
        -24    2    1    2    0    0  0.43292931914E+03  0.18968550074E+03 -0.12405214845E+04  0.13298699166E+04  0.79069949149E+02 0.  0.
        254    2    1    2    0    0 -0.43292931914E+03 -0.18968550074E+03 -0.13899969308E+04  0.17249942634E+04  0.90559668533E+03 0.  0.
         23    2    4    4    0    0 -0.24192762884E+03 -0.54571110876E+03 -0.76701573022E+03  0.97695294186E+03  0.98966299244E+02 0.  0.
         23    2    4    4    0    0 -0.19100169030E+03  0.35602560802E+03 -0.62298120055E+03  0.74804132149E+03  0.90688274616E+02 0.  0.
          3    1    3    3  502    0  0.41953923417E+03  0.19627581458E+03 -0.12151670572E+04  0.13004492844E+04  0.00000000000E+00 0. -1.
         -4    1    3    3    0  502  0.13390084973E+02 -0.65903138405E+01 -0.25354427338E+02  0.29420632178E+02  0.00000000000E+00 0.  1.
         11    1    5    5    0    0 -0.22595537367E+03 -0.40751962888E+03 -0.59030316675E+03  0.75205445779E+03  0.00000000000E+00 0. -1.
        -11    1    5    5    0    0 -0.15972255162E+02 -0.13819147989E+03 -0.17671256348E+03  0.22489848407E+03  0.00000000000E+00 0.  1.
          1    1    6    6  503    0 -0.10524320367E+03  0.26349562699E+03 -0.37979827853E+03  0.47408101601E+03  0.00000000000E+00 0. -1.
         -1    1    6    6    0  503 -0.85758486632E+02  0.92529981028E+02 -0.24318292202E+03  0.27396030549E+03  0.00000000000E+00 0.  1.
<mgrwt>
<rscale>  0 0.15532444E+04</rscale>
<asrwt>0</asrwt>
<pdfrwt beam="1">  1        1 0.43733712E+00 0.15532444E+04</pdfrwt>
<pdfrwt beam="2">  1       -2 0.32641982E-01 0.15532444E+04</pdfrwt>
<totfact> 0.57737189E+00</totfact>
</mgrwt>
</event>
<event>
12    4  0.4398275E-008  0.1323255E+04  0.7818608E-02  0.9011324E-01
         -2   -1    0    0    0  501 -0.00000000000E+00  0.00000000000E+00  0.70363296470E+03  0.70363296470E+03  0.00000000000E+00 0.  1.
          1   -1    0    0  501    0  0.00000000000E+00 -0.00000000000E+00 -0.62213005547E+03  0.62213005547E+03  0.00000000000E+00 0. -1.
        -24    2    1    2    0    0  0.28972866111E+03  0.15009711844E+03  0.13672383146E+03  0.36285534463E+03  0.80614843578E+02 0.  0.
        254    2    1    2    0    0 -0.28972866111E+03 -0.15009711844E+03 -0.55220922233E+02  0.96290767554E+03  0.90425107096E+03 0.  0.
         23    2    4    4    0    0 -0.20531961531E+03  0.33211847294E+03  0.14488688840E+03  0.42625594931E+03  0.90791516069E+02 0.  0.
         23    2    4    4    0    0 -0.84409045801E+02 -0.48221559138E+03 -0.20010781064E+03  0.53665172623E+03  0.91077855755E+02 0.  0.
          1    1    3    3  502    0  0.14618933029E+03  0.42313689281E+02  0.33652356656E+02  0.15586612749E+03  0.00000000000E+00 0. -1.
         -2    1    3    3    0  502  0.14353933083E+03  0.10778342916E+03  0.10307147480E+03  0.20698921714E+03  0.00000000000E+00 0.  1.
         11    1    5    5    0    0 -0.12637474541E+03  0.18021427128E+03  0.35115847689E+02  0.22289208736E+03  0.00000000000E+00 0.  1.
        -11    1    5    5    0    0 -0.78944869901E+02  0.15190420167E+03  0.10977104071E+03  0.20336386195E+03  0.00000000000E+00 0. -1.
          4    1    6    6  503    0 -0.41808287817E+02 -0.63167680330E+02 -0.18599601091E+02  0.78000217495E+02  0.00000000000E+00 0. -1.
         -4    1    6    6    0  503 -0.42600757983E+02 -0.41904791105E+03 -0.18150820954E+03  0.45865150874E+03  0.00000000000E+00 0.  1.
<mgrwt>
<rscale>  0 0.13232554E+04</rscale>
<asrwt>0</asrwt>
<pdfrwt beam="1">  1        1 0.95712316E-01 0.13232554E+04</pdfrwt>
<pdfrwt beam="2">  1       -2 0.10825123E+00 0.13232554E+04</pdfrwt>
<totfact> 0.19048281E+01</totfact>
</mgrwt>
</event>
<event>
12    4  0.4398275E-008  0.1355637E+04  0.7818608E-02  0.8986572E-01
          1   -1    0    0  501    0  0.00000000000E+00  0.00000000000E+00  0.28534028632E+04  0.28534028632E+04  0.00000000000E+00 0. -1.
         -2   -1    0    0    0  501 -0.00000000000E+00 -0.00000000000E+00 -0.16101409242E+03  0.16101409242E+03  0.00000000000E+00 0.  1.
        -24    2    1    2    0    0 -0.81189051809E+02  0.47677687042E+02 -0.41325063468E+02  0.13053782924E+03  0.80421017263E+02 0.  0.
        254    2    1    2    0    0  0.81189051809E+02 -0.47677687042E+02  0.27337138342E+04  0.28838791264E+04  0.91362063461E+03 0.  0.
         23    2    4    4    0    0 -0.32022224234E+03 -0.27381310528E+03  0.10296109785E+04  0.11162313031E+04  0.91420205506E+02 0.  0.
         23    2    4    4    0    0  0.40141129415E+03  0.22613541824E+03  0.17041028558E+04  0.17676478232E+04  0.91345659543E+02 0.  0.
          1    1    3    3  502    0 -0.61882599034E+02  0.50172219298E+02  0.54713086569E+01  0.79853884507E+02  0.00000000000E+00 0. -1.
         -2    1    3    3    0  502 -0.19306452775E+02 -0.24945322565E+01 -0.46796372125E+02  0.50683944736E+02  0.00000000000E+00 0.  1.
         11    1    5    5    0    0 -0.32588829736E+03 -0.26506425471E+03  0.10126684911E+04  0.10963392332E+04  0.00000000000E+00 0. -1.
        -11    1    5    5    0    0  0.56660550238E+01 -0.87488505749E+01  0.16942487391E+02  0.19892069900E+02  0.00000000000E+00 0.  1.
          3    1    6    6  503    0  0.64574375243E+02  0.75668908023E+02  0.41846453890E+03  0.43012580008E+03  0.00000000000E+00 0. -1.
         -3    1    6    6    0  503  0.33683691890E+03  0.15046651022E+03  0.12856383169E+04  0.13375220231E+04  0.00000000000E+00 0.  1.
<mgrwt>
<rscale>  0 0.13556372E+04</rscale>
<asrwt>0</asrwt>
<pdfrwt beam="1">  1        1 0.43898502E+00 0.13556372E+04</pdfrwt>
<pdfrwt beam="2">  1       -2 0.24771401E-01 0.13556372E+04</pdfrwt>
<totfact> 0.96332162E+00</totfact>
</mgrwt>
</event>
<event>
12    4  0.4398275E-008  0.1714942E+04  0.7818608E-02  0.8752888E-01
          1   -1    0    0  501    0  0.00000000000E+00  0.00000000000E+00  0.14966291566E+04  0.14966291566E+04  0.00000000000E+00 0. -1.
         -2   -1    0    0    0  501 -0.00000000000E+00 -0.00000000000E+00 -0.49127518500E+03  0.49127518500E+03  0.00000000000E+00 0.  1.
        -24    2    1    2    0    0 -0.48544150026E+03  0.33913674244E+03  0.17286670298E+03  0.62209324398E+03  0.80311437350E+02 0.  0.
        254    2    1    2    0    0  0.48544150026E+03 -0.33913674244E+03  0.83248726860E+03  0.13658110976E+04  0.90649750232E+03 0.  0.
         23    2    4    4    0    0  0.32174047142E+03 -0.59504053327E+02 -0.11559822023E+03  0.35974651806E+03  0.94852229422E+02 0.  0.
         23    2    4    4    0    0  0.16370102883E+03 -0.27963268911E+03  0.94808548883E+03  0.10060645795E+04  0.91144810208E+02 0.  0.
          3    1    3    3  502    0 -0.26326982131E+03  0.20485153608E+03  0.59616231270E+02  0.33886464212E+03  0.00000000000E+00 0. -1.
         -4    1    3    3    0  502 -0.22217167895E+03  0.13428520635E+03  0.11325047171E+03  0.28322860187E+03  0.00000000000E+00 0.  1.
         11    1    5    5    0    0  0.16551966847E+03 -0.55303923645E+02 -0.10373916828E+03  0.20301994891E+03  0.00000000000E+00 0.  1.
        -11    1    5    5    0    0  0.15622080295E+03 -0.42001296821E+01 -0.11859051941E+02  0.15672656915E+03  0.00000000000E+00 0. -1.
          2    1    6    6  503    0  0.26389867032E+02 -0.13331665911E+03  0.39058253057E+03  0.41355104868E+03  0.00000000000E+00 0. -1.
         -2    1    6    6    0  503  0.13731116180E+03 -0.14631603000E+03  0.55750295825E+03  0.59251353086E+03  0.00000000000E+00 0.  1.
<mgrwt>
<rscale>  0 0.17149423E+04</rscale>
<asrwt>0</asrwt>
<pdfrwt beam="1">  1        1 0.23025064E+00 0.17149423E+04</pdfrwt>
<pdfrwt beam="2">  1       -2 0.75580799E-01 0.17149423E+04</pdfrwt>
<totfact> 0.86101188E+00</totfact>
</mgrwt>
</event>
<event>
12    4  0.4398275E-008  0.1802705E+04  0.7818608E-02  0.8704862E-01
         -2   -1    0    0    0  501 -0.00000000000E+00  0.00000000000E+00  0.71534047703E+03  0.71534047703E+03  0.00000000000E+00 0.  1.
          1   -1    0    0  501    0  0.00000000000E+00 -0.00000000000E+00 -0.11357335186E+04  0.11357335186E+04  0.00000000000E+00 0. -1.
        -24    2    1    2    0    0 -0.47866757997E+03  0.46363253311E+03 -0.15348136769E+03  0.68797342454E+03  0.75320148484E+02 0.  0.
        254    2    1    2    0    0  0.47866757997E+03 -0.46363253311E+03 -0.26691167388E+03  0.11631005711E+04  0.91514114701E+03 0.  0.
         23    2    4    4    0    0  0.29113435077E+03 -0.81667148529E+02  0.30852565382E+03  0.44070581813E+03  0.87205537222E+02 0.  0.
         23    2    4    4    0    0  0.18753322920E+03 -0.38196538458E+03 -0.57543732770E+03  0.72239475296E+03  0.98284250630E+02 0.  0.
          3    1    3    3  502    0 -0.42782826726E+03  0.41668469565E+03 -0.11302330581E+03  0.60781364702E+03  0.00000000000E+00 0. -1.
         -4    1    3    3    0  502 -0.50839312715E+02  0.46947837461E+02 -0.40458061888E+02  0.80159777515E+02  0.00000000000E+00 0.  1.
         11    1    5    5    0    0  0.62567152995E+02  0.10300234535E+02  0.34423832373E+02  0.72150839916E+02  0.00000000000E+00 0.  1.
        -11    1    5    5    0    0  0.22856719778E+03 -0.91967383064E+02  0.27410182144E+03  0.36855497822E+03  0.00000000000E+00 0. -1.
          1    1    6    6  503    0  0.12194187326E+03 -0.22762090076E+03 -0.42394977441E+03  0.49640155735E+03  0.00000000000E+00 0. -1.
         -1    1    6    6    0  503  0.65591355941E+02 -0.15434448382E+03 -0.15148755329E+03  0.22599319561E+03  0.00000000000E+00 0.  1.
<mgrwt>
<rscale>  0 0.18027048E+04</rscale>
<asrwt>0</asrwt>
<pdfrwt beam="1">  1        1 0.17472823E+00 0.18027048E+04</pdfrwt>
<pdfrwt beam="2">  1       -2 0.11005238E+00 0.18027048E+04</pdfrwt>
<totfact> 0.64722310E+00</totfact>
</mgrwt>
</event>
<event>
12    4  0.4398275E-008  0.1361633E+04  0.7818608E-02  0.8982069E-01
         -2   -1    0    0    0  501 -0.00000000000E+00  0.00000000000E+00  0.23847467380E+03  0.23847467380E+03  0.00000000000E+00 0.  1.
          1   -1    0    0  501    0  0.00000000000E+00 -0.00000000000E+00 -0.19436478468E+04  0.19436478468E+04  0.00000000000E+00 0. -1.
        -24    2    1    2    0    0  0.32591304281E+03  0.17649974750E+03 -0.45367992970E+03  0.59128636293E+03  0.80141200592E+02 0.  0.
        254    2    1    2    0    0 -0.32591304281E+03 -0.17649974750E+03 -0.12514932433E+04  0.15908361577E+04  0.90947945011E+03 0.  0.
         23    2    4    4    0    0 -0.73638757282E+02 -0.52156372548E+03 -0.79904526963E+03  0.96145006401E+03  0.91986392249E+02 0.  0.
         23    2    4    4    0    0 -0.25227428553E+03  0.34506397798E+03 -0.45244797368E+03  0.62938609367E+03  0.93307137853E+02 0.  0.
          3    1    3    3  502    0  0.82733919272E+01 -0.45836292646E+00 -0.38561865560E+02  0.39442066199E+02  0.00000000000E+00 0. -1.
         -4    1    3    3    0  502  0.31763965088E+03  0.17695811043E+03 -0.41511806414E+03  0.55184429673E+03  0.00000000000E+00 0.  1.
         11    1    5    5    0    0 -0.16488621596E+02 -0.40026014329E+03 -0.60191713974E+03  0.72303824246E+03  0.00000000000E+00 0.  1.
        -11    1    5    5    0    0 -0.57150135686E+02 -0.12130358219E+03 -0.19712812989E+03  0.23841182155E+03  0.00000000000E+00 0. -1.
          3    1    6    6  503    0  0.55647771687E+00  0.11293312586E+02 -0.40297435646E+02  0.41853696327E+02  0.00000000000E+00 0. -1.
         -3    1    6    6    0  503 -0.25283076324E+03  0.33377066539E+03 -0.41215053804E+03  0.58753239734E+03  0.00000000000E+00 0.  1.
<mgrwt>
<rscale>  0 0.13616325E+04</rscale>
<asrwt>0</asrwt>
<pdfrwt beam="1">  1        1 0.29902275E+00 0.13616325E+04</pdfrwt>
<pdfrwt beam="2">  1       -2 0.36688411E-01 0.13616325E+04</pdfrwt>
<totfact> 0.19565205E+01</totfact>
</mgrwt>
</event>
<event>
12    4  0.4398275E-008  0.1291373E+04  0.7818608E-02  0.9036435E-01
          3   -1    0    0  501    0  0.00000000000E+00  0.00000000000E+00  0.16358455158E+04  0.16358455158E+04  0.00000000000E+00 0. -1.
         -4   -1    0    0    0  501 -0.00000000000E+00 -0.00000000000E+00 -0.25485953745E+03  0.25485953745E+03  0.00000000000E+00 0.  1.
        -24    2    1    2    0    0 -0.11008006825E+02 -0.18335920196E+03 -0.31611872276E+02  0.20307736500E+03  0.80618438036E+02 0.  0.
        254    2    1    2    0    0  0.11008006825E+02  0.18335920196E+03  0.14125978506E+04  0.16876276883E+04  0.90493798320E+03 0.  0.
         23    2    4    4    0    0 -0.31809615974E+03  0.28983493539E+03  0.11842844678E+04  0.12631549837E+04  0.88551428997E+02 0.  0.
         23    2    4    4    0    0  0.32910416657E+03 -0.10647573344E+03  0.22831338286E+03  0.42447270458E+03  0.91670288970E+02 0.  0.
          1    1    3    3  502    0  0.13587924798E+02  0.10789981571E+00 -0.96594222494E+01  0.16671765980E+02  0.00000000000E+00 0. -1.
         -2    1    3    3    0  502 -0.24595931623E+02 -0.18346710177E+03 -0.21952450026E+02  0.18640559902E+03  0.00000000000E+00 0.  1.
         11    1    5    5    0    0 -0.25588293662E+03  0.17913180011E+03  0.83755515138E+03  0.89390318864E+03  0.00000000000E+00 0.  1.
        -11    1    5    5    0    0 -0.62213223116E+02  0.11070313528E+03  0.34672931641E+03  0.36925179505E+03  0.00000000000E+00 0. -1.
          2    1    6    6  503    0  0.26674329485E+03 -0.12202626409E+03  0.19315829884E+03  0.35121577824E+03  0.00000000000E+00 0. -1.
         -2    1    6    6    0  503  0.62360871715E+02  0.15550530647E+02  0.35155084014E+02  0.73256926338E+02  0.00000000000E+00 0.  1.
<mgrwt>
<rscale>  0 0.12913727E+04</rscale>
<asrwt>0</asrwt>
<pdfrwt beam="1">  1        3 0.25166853E+00 0.12913727E+04</pdfrwt>
<pdfrwt beam="2">  1       -4 0.39209161E-01 0.12913727E+04</pdfrwt>
<totfact> 0.10353000E+00</totfact>
</mgrwt>
</event>
<event>
12    4  0.4398275E-008  0.1813943E+04  0.7818608E-02  0.8698920E-01
          1   -1    0    0  501    0  0.00000000000E+00  0.00000000000E+00  0.96110605522E+03  0.96110605522E+03  0.00000000000E+00 0. -1.
         -2   -1    0    0    0  501 -0.00000000000E+00 -0.00000000000E+00 -0.85588641163E+03  0.85588641163E+03  0.00000000000E+00 0.  1.
        -24    2    1    2    0    0  0.45355162202E+03  0.33872254728E+03 -0.34395038869E+03  0.66707298195E+03  0.79009211448E+02 0.  0.
        254    2    1    2    0    0 -0.45355162202E+03 -0.33872254728E+03  0.44917003229E+03  0.11499194849E+04  0.89449374843E+03 0.  0.
         23    2    4    4    0    0  0.75629515996E+02 -0.24217737058E+03  0.53365663121E+03  0.59788699399E+03  0.91157857803E+02 0.  0.
         23    2    4    4    0    0 -0.52918113801E+03 -0.96545176693E+02 -0.84486598918E+02  0.55203249091E+03  0.90819808694E+02 0.  0.
          1    1    3    3  502    0  0.88925321458E+02  0.56840659310E+02 -0.31048825291E+02  0.11001183072E+03  0.00000000000E+00 0. -1.
         -2    1    3    3    0  502  0.36462630056E+03  0.28188188796E+03 -0.31290156340E+03  0.55706115122E+03  0.00000000000E+00 0.  1.
         11    1    5    5    0    0  0.51430847907E+00 -0.11172795491E+03  0.29799321111E+03  0.31825045842E+03  0.00000000000E+00 0. -1.
        -11    1    5    5    0    0  0.75115207517E+02 -0.13044941568E+03  0.23566342010E+03  0.27963653557E+03  0.00000000000E+00 0.  1.
          3    1    6    6  503    0 -0.12437662688E+03 -0.73756081712E+01  0.15719973637E+02  0.12558289088E+03  0.00000000000E+00 0. -1.
         -3    1    6    6    0  503 -0.40480451113E+03 -0.89169568521E+02 -0.10020657256E+03  0.42644960003E+03  0.00000000000E+00 0.  1.
<mgrwt>
<rscale>  0 0.18139433E+04</rscale>
<asrwt>0</asrwt>
<pdfrwt beam="1">  1        1 0.14786247E+00 0.18139433E+04</pdfrwt>
<pdfrwt beam="2">  1       -2 0.13167483E+00 0.18139433E+04</pdfrwt>
<totfact> 0.56396997E+00</totfact>
</mgrwt>
</event>
<event>
12    4  0.4398275E-008  0.1653784E+04  0.7818608E-02  0.8788171E-01
         -2   -1    0    0    0  501 -0.00000000000E+00  0.00000000000E+00  0.63274053979E+03  0.63274053979E+03  0.00000000000E+00 0.  1.
          1   -1    0    0  501    0  0.00000000000E+00 -0.00000000000E+00 -0.10806172692E+04  0.10806172692E+04  0.00000000000E+00 0. -1.
        -24    2    1    2    0    0 -0.48703177471E+03  0.26357113190E+02  0.16618396566E+03  0.52069444519E+03  0.74906260208E+02 0.  0.
        254    2    1    2    0    0  0.48703177471E+03 -0.26357113190E+02 -0.61406069509E+03  0.11926633638E+04  0.89859930732E+03 0.  0.
         23    2    4    4    0    0  0.15989945959E+03 -0.99585048115E+01  0.22311070369E+03  0.28910894439E+03  0.90214115444E+02 0.  0.
         23    2    4    4    0    0  0.32713231512E+03 -0.16398608378E+02 -0.83717139879E+03  0.90355441942E+03  0.90940485808E+02 0.  0.
          3    1    3    3  502    0 -0.21032355967E+03  0.10546022977E+02  0.32863330307E+02  0.21313661542E+03  0.00000000000E+00 0. -1.
         -4    1    3    3    0  502 -0.27670821504E+03  0.15811090213E+02  0.13332063535E+03  0.30755782977E+03  0.00000000000E+00 0.  1.
         11    1    5    5    0    0  0.84233269779E+02 -0.48916874816E+02  0.10152076883E+03  0.14069317994E+03  0.00000000000E+00 0. -1.
        -11    1    5    5    0    0  0.75666189813E+02  0.38958370004E+02  0.12158993487E+03  0.14841576444E+03  0.00000000000E+00 0.  1.
          4    1    6    6  503    0  0.37920738955E+02  0.12859502113E+02 -0.47767840358E+02  0.62330697172E+02  0.00000000000E+00 0. -1.
         -4    1    6    6    0  503  0.28921157617E+03 -0.29258110491E+02 -0.78940355843E+03  0.84122372225E+03  0.00000000000E+00 0.  1.
<mgrwt>
<rscale>  0 0.16537840E+04</rscale>
<asrwt>0</asrwt>
<pdfrwt beam="1">  1        1 0.16624881E+00 0.16537840E+04</pdfrwt>
<pdfrwt beam="2">  1       -2 0.97344698E-01 0.16537840E+04</pdfrwt>
<totfact> 0.96690657E+00</totfact>
</mgrwt>
</event>
<event>
12    4  0.4398275E-008  0.1443230E+04  0.7818608E-02  0.8923108E-01
         -2   -1    0    0    0  501 -0.00000000000E+00  0.00000000000E+00  0.42437557344E+03  0.42437557344E+03  0.00000000000E+00 0.  1.
          1   -1    0    0  501    0  0.00000000000E+00 -0.00000000000E+00 -0.12270449474E+04  0.12270449474E+04  0.00000000000E+00 0. -1.
        -24    2    1    2    0    0  0.55761974417E+02 -0.14790389148E+03 -0.70779817007E+03  0.72932494537E+03  0.77147050984E+02 0.  0.
        254    2    1    2    0    0 -0.55761974417E+02  0.14790389148E+03 -0.94871203897E+02  0.92209557547E+03  0.90347924496E+03 0.  0.
         23    2    4    4    0    0  0.28772181832E+03  0.30209357050E+03  0.16466867314E+03  0.45676993883E+03  0.86479101714E+02 0.  0.
         23    2    4    4    0    0 -0.34348379274E+03 -0.15418967901E+03 -0.25953987704E+03  0.46532563664E+03  0.86089647221E+02 0.  0.
          3    1    3    3  502    0  0.53891278373E+02 -0.15189246066E+03 -0.59503236240E+03  0.61647311522E+03  0.00000000000E+00 0. -1.
         -2    1    3    3    0  502  0.18706960437E+01  0.39885691748E+01 -0.11276580767E+03  0.11285183014E+03  0.00000000000E+00 0.  1.
         11    1    5    5    0    0  0.10336604915E+03  0.17048836519E+03  0.83504955676E+02  0.21615711972E+03  0.00000000000E+00 0. -1.
        -11    1    5    5    0    0  0.18435576916E+03  0.13160520531E+03  0.81163717463E+02  0.24061281911E+03  0.00000000000E+00 0.  1.
          2    1    6    6  503    0 -0.32018583340E+03 -0.11545830459E+03 -0.23751936250E+03  0.41504823282E+03  0.00000000000E+00 0.  1.
         -2    1    6    6    0  503 -0.23297959334E+02 -0.38731374429E+02 -0.22020514538E+02  0.50277403819E+02  0.00000000000E+00 0. -1.
<mgrwt>
<rscale>  0 0.14432296E+04</rscale>
<asrwt>0</asrwt>
<pdfrwt beam="1">  1        1 0.18877614E+00 0.14432296E+04</pdfrwt>
<pdfrwt beam="2">  1       -2 0.65288551E-01 0.14432296E+04</pdfrwt>
<totfact> 0.18819364E+01</totfact>
</mgrwt>
</event>
<event>
12    4  0.4398275E-008  0.1503653E+04  0.7818608E-02  0.8882027E-01
         -2   -1    0    0    0  501 -0.00000000000E+00  0.00000000000E+00  0.11057690027E+04  0.11057690027E+04  0.00000000000E+00 0.  1.
          1   -1    0    0  501    0  0.00000000000E+00 -0.00000000000E+00 -0.51117673690E+03  0.51117673690E+03  0.00000000000E+00 0. -1.
        -24    2    1    2    0    0  0.26253260236E+03 -0.34146640518E+03 -0.38466277186E+02  0.43974863981E+03  0.79853231425E+02 0.  0.
        254    2    1    2    0    0 -0.26253260236E+03  0.34146640518E+03  0.63305854296E+03  0.11771970998E+04  0.89415167601E+03 0.  0.
         23    2    4    4    0    0  0.24081234963E+03  0.40150315335E+03  0.30070171678E+03  0.56440617018E+03  0.94537995445E+02 0.  0.
         23    2    4    4    0    0 -0.50334495199E+03 -0.60036748168E+02  0.33235682618E+03  0.61279092958E+03  0.89950606688E+02 0.  0.
          1    1    3    3  502    0  0.10020189989E+03 -0.11490176661E+03 -0.50973625635E+02  0.16075181872E+03  0.00000000000E+00 0. -1.
         -2    1    3    3    0  502  0.16233070247E+03 -0.22656463857E+03  0.12507348450E+02  0.27899682109E+03  0.00000000000E+00 0.  1.
         11    1    5    5    0    0  0.42598410475E+02  0.13684839229E+03  0.12388821030E+03  0.18944760674E+03  0.00000000000E+00 0. -1.
        -11    1    5    5    0    0  0.19821393916E+03  0.26465476106E+03  0.17681350648E+03  0.37495856344E+03  0.00000000000E+00 0.  1.
          3    1    6    6  503    0 -0.63794605628E+01 -0.11253902878E+02 -0.15105363447E-01  0.12936308408E+02  0.00000000000E+00 0. -1.
         -3    1    6    6    0  503 -0.49696549143E+03 -0.48782845290E+02  0.33237193155E+03  0.59985462117E+03  0.00000000000E+00 0.  1.
<mgrwt>
<rscale>  0 0.15036534E+04</rscale>
<asrwt>0</asrwt>
<pdfrwt beam="1">  1        1 0.78642575E-01 0.15036534E+04</pdfrwt>
<pdfrwt beam="2">  1       -2 0.17011831E+00 0.15036534E+04</pdfrwt>
<totfact> 0.77266431E+00</totfact>
</mgrwt>
</event>
<event>
12    4  0.4398275E-008  0.1250306E+04  0.7818608E-02  0.9069929E-01
          1   -1    0    0  501    0  0.00000000000E+00  0.00000000000E+00  0.15856697879E+04  0.15856697879E+04  0.00000000000E+00 0. -1.
         -2   -1    0    0    0  501 -0.00000000000E+00 -0.00000000000E+00 -0.24646762871E+03  0.24646762871E+03  0.00000000000E+00 0.  1.
        -24    2    1    2    0    0  0.35258484792E+01 -0.23063683751E+02 -0.10178689617E+03  0.13112106820E+03  0.79295631525E+02 0.  0.
        254    2    1    2    0    0 -0.35258484792E+01  0.23063683751E+02  0.14409890554E+04  0.17010163485E+04  0.90358330818E+03 0.  0.
         23    2    4    4    0    0  0.37139867057E+03  0.15555702067E+03  0.10775072032E+04  0.11540099661E+04  0.92640540761E+02 0.  0.
         23    2    4    4    0    0 -0.37492451905E+03 -0.13249333692E+03  0.36348185224E+03  0.54700638236E+03  0.94731442114E+02 0.  0.
          1    1    3    3  502    0 -0.18611054837E+02 -0.22512837371E+02 -0.24120925421E+01  0.29308998603E+02  0.00000000000E+00 0. -1.
         -2    1    3    3    0  502  0.22136903317E+02 -0.55084637961E+00 -0.99374803625E+02  0.10181206960E+03  0.00000000000E+00 0.  1.
         11    1    5    5    0    0  0.31178573755E+03  0.14470608681E+03  0.81348413926E+03  0.88312323179E+03  0.00000000000E+00 0.  1.
        -11    1    5    5    0    0  0.59612933023E+02  0.10850933860E+02  0.26402306389E+03  0.27088673429E+03  0.00000000000E+00 0. -1.
          4    1    6    6  503    0 -0.22653815812E+03 -0.98273876224E+02  0.16563959440E+03  0.29734452587E+03  0.00000000000E+00 0. -1.
         -4    1    6    6    0  503 -0.14838636093E+03 -0.34219460699E+02  0.19784225784E+03  0.24966185649E+03  0.00000000000E+00 0.  1.
<mgrwt>
<rscale>  0 0.12503060E+04</rscale>
<asrwt>0</asrwt>
<pdfrwt beam="1">  1        1 0.24394919E+00 0.12503060E+04</pdfrwt>
<pdfrwt beam="2">  1       -2 0.37918098E-01 0.12503060E+04</pdfrwt>
<totfact> 0.32427864E+01</totfact>
</mgrwt>
</event>
<event>
12    4  0.4398275E-008  0.1757187E+04  0.7818608E-02  0.8729404E-01
          1   -1    0    0  501    0  0.00000000000E+00  0.00000000000E+00  0.76973126051E+03  0.76973126051E+03  0.00000000000E+00 0. -1.
         -2   -1    0    0    0  501 -0.00000000000E+00 -0.00000000000E+00 -0.10028525091E+04  0.10028525091E+04  0.00000000000E+00 0.  1.
        -24    2    1    2    0    0 -0.32008643032E+03  0.13718285064E+03 -0.65577699342E+03  0.74715499883E+03  0.83202582800E+02 0.  0.
        254    2    1    2    0    0  0.32008643032E+03 -0.13718285064E+03  0.42265574483E+03  0.10254287708E+04  0.86694395893E+03 0.  0.
         23    2    4    4    0    0 -0.62423576911E+02 -0.41059652941E+03  0.70443312869E+02  0.43111991588E+03  0.91738261541E+02 0.  0.
         23    2    4    4    0    0  0.38251000723E+03  0.27341367876E+03  0.35221243196E+03  0.59430885490E+03  0.89891447974E+02 0.  0.
          3    1    3    3  502    0 -0.53237915013E+02 -0.38044633550E+01 -0.13619259218E+03  0.14627772114E+03  0.00000000000E+00 0. -1.
         -4    1    3    3    0  502 -0.26684851531E+03  0.14098731400E+03 -0.51958440125E+03  0.60087727769E+03  0.00000000000E+00 0.  1.
         11    1    5    5    0    0 -0.77134039470E+02 -0.22142708278E+03  0.54379886621E+02  0.24070061301E+03  0.00000000000E+00 0. -1.
        -11    1    5    5    0    0  0.14710462559E+02 -0.18916944663E+03  0.16063426248E+02  0.19041930288E+03  0.00000000000E+00 0.  1.
          3    1    6    6  503    0  0.43406095880E+02  0.39990671951E+01  0.49205688680E+02  0.65736454852E+02  0.00000000000E+00 0. -1.
         -3    1    6    6    0  503  0.33910391135E+03  0.26941461157E+03  0.30300674328E+03  0.52857240005E+03  0.00000000000E+00 0.  1.
<mgrwt>
<rscale>  0 0.17571874E+04</rscale>
<asrwt>0</asrwt>
<pdfrwt beam="1">  1        1 0.11842020E+00 0.17571874E+04</pdfrwt>
<pdfrwt beam="2">  1       -2 0.15428500E+00 0.17571874E+04</pdfrwt>
<totfact> 0.54187968E+00</totfact>
</mgrwt>
</event>
<event>
12    4  0.4398275E-008  0.1651778E+04  0.7818608E-02  0.8789355E-01
         -2   -1    0    0    0  501 -0.00000000000E+00  0.00000000000E+00  0.61503628075E+03  0.61503628075E+03  0.00000000000E+00 0.  1.
          1   -1    0    0  501    0  0.00000000000E+00 -0.00000000000E+00 -0.11090284471E+04  0.11090284471E+04  0.00000000000E+00 0. -1.
        -24    2    1    2    0    0  0.32044520263E+03  0.25200225373E+03  0.24643904336E+03  0.48258856388E+03  0.77260961190E+02 0.  0.
        254    2    1    2    0    0 -0.32044520263E+03 -0.25200225373E+03 -0.74043120970E+03  0.12414761640E+04  0.90930436358E+03 0.  0.
         23    2    4    4    0    0 -0.50982301826E+02  0.71364682073E+02 -0.79653353047E+03  0.80656863521E+03  0.91625243137E+02 0.  0.
         23    2    4    4    0    0 -0.26946290080E+03 -0.32336693580E+03  0.56102320771E+02  0.43490752876E+03  0.93918358697E+02 0.  0.
          3    1    3    3  502    0  0.17394711992E+03  0.16441984597E+03  0.10697446982E+03  0.26217365137E+03  0.00000000000E+00 0. -1.
         -4    1    3    3    0  502  0.14649808271E+03  0.87582407758E+02  0.13946457354E+03  0.22041491251E+03  0.00000000000E+00 0.  1.
         11    1    5    5    0    0 -0.29899867200E+02  0.12094124352E+02 -0.58476416134E+03  0.58565296404E+03  0.00000000000E+00 0. -1.
        -11    1    5    5    0    0 -0.21082434626E+02  0.59270557721E+02 -0.21176936913E+03  0.22091567116E+03  0.00000000000E+00 0.  1.
          1    1    6    6  503    0 -0.95120502532E+02 -0.51137744031E+02  0.15177719900E+02  0.10905660020E+03  0.00000000000E+00 0. -1.
         -1    1    6    6    0  503 -0.17434239827E+03 -0.27222919177E+03  0.40924600871E+02  0.32585092856E+03  0.00000000000E+00 0.  1.
<mgrwt>
<rscale>  0 0.16517781E+04</rscale>
<asrwt>0</asrwt>
<pdfrwt beam="1">  1        1 0.17061976E+00 0.16517781E+04</pdfrwt>
<pdfrwt beam="2">  1       -2 0.94620967E-01 0.16517781E+04</pdfrwt>
<totfact> 0.98384153E+00</totfact>
</mgrwt>
</event>
<event>
12    4  0.4398275E-008  0.2556695E+04  0.7818608E-02  0.8383061E-01
         -2   -1    0    0    0  501 -0.00000000000E+00  0.00000000000E+00  0.18552279277E+04  0.18552279277E+04  0.00000000000E+00 0.  1.
          1   -1    0    0  501    0  0.00000000000E+00 -0.00000000000E+00 -0.88084746372E+03  0.88084746372E+03  0.00000000000E+00 0. -1.
        -24    2    1    2    0    0  0.70230605373E+03 -0.37451064454E+03  0.12640107208E+04  0.14962225956E+04  0.86411441541E+02 0.  0.
        254    2    1    2    0    0 -0.70230605373E+03  0.37451064454E+03 -0.28963025681E+03  0.12398527959E+04  0.90545969197E+03 0.  0.
         23    2    4    4    0    0 -0.63468562478E+03  0.55609462442E+03 -0.46110088032E+03  0.96590064038E+03  0.91010722642E+02 0.  0.
         23    2    4    4    0    0 -0.67620428943E+02 -0.18158397989E+03  0.17147062351E+03  0.27395215549E+03  0.90013024647E+02 0.  0.
          1    1    3    3  502    0  0.66307077566E+02 -0.65424546310E+02  0.13391252634E+03  0.16312438354E+03  0.00000000000E+00 0. -1.
         -2    1    3    3    0  502  0.63599897616E+03 -0.30908609823E+03  0.11300981945E+04  0.13330982121E+04  0.00000000000E+00 0.  1.
         11    1    5    5    0    0 -0.60666814348E+03  0.50211747179E+03 -0.43562124633E+03  0.89996336705E+03  0.00000000000E+00 0. -1.
        -11    1    5    5    0    0 -0.28017481307E+02  0.53977152637E+02 -0.25479633988E+02  0.65937273327E+02  0.00000000000E+00 0.  1.
          3    1    6    6  503    0 -0.38008179044E+02 -0.17189227040E+03  0.11756982280E+03  0.21169373522E+03  0.00000000000E+00 0. -1.
         -3    1    6    6    0  503 -0.29612249900E+02 -0.96917094865E+01  0.53900800710E+02  0.62258420266E+02  0.00000000000E+00 0.  1.
<mgrwt>
<rscale>  0 0.25566954E+04</rscale>
<asrwt>0</asrwt>
<pdfrwt beam="1">  1        1 0.13551499E+00 0.25566954E+04</pdfrwt>
<pdfrwt beam="2">  1       -2 0.28541968E+00 0.25566954E+04</pdfrwt>
<totfact> 0.57097368E-01</totfact>
</mgrwt>
</event>
<event>
12    4  0.4398275E-008  0.1220177E+04  0.7818608E-02  0.9095377E-01
          1   -1    0    0  501    0  0.00000000000E+00  0.00000000000E+00  0.88140426565E+03  0.88140426565E+03  0.00000000000E+00 0. -1.
         -2   -1    0    0    0  501 -0.00000000000E+00 -0.00000000000E+00 -0.42228969998E+03  0.42228969998E+03  0.00000000000E+00 0.  1.
        -24    2    1    2    0    0  0.26055351947E+03  0.65303735697E+02  0.69463338374E+02  0.28844476537E+03  0.78882906159E+02 0.  0.
        254    2    1    2    0    0 -0.26055351947E+03 -0.65303735697E+02  0.38965122729E+03  0.10152492003E+04  0.89819271055E+03 0.  0.
         23    2    4    4    0    0 -0.56269503868E+03  0.37775269278E+02  0.11141370187E+03  0.58234814799E+03  0.93078864284E+02 0.  0.
         23    2    4    4    0    0  0.30214151921E+03 -0.10307900497E+03  0.27823752543E+03  0.43290105227E+03  0.89846656073E+02 0.  0.
          1    1    3    3  502    0  0.19643630043E+03  0.58948686621E+02  0.85257397960E+02  0.22210581192E+03  0.00000000000E+00 0. -1.
         -2    1    3    3    0  502  0.64117219046E+02  0.63550490757E+01 -0.15794059585E+02  0.66338953452E+02  0.00000000000E+00 0.  1.
         11    1    5    5    0    0 -0.19811348505E+03  0.23339842831E+02  0.84014731021E+02  0.21645363533E+03  0.00000000000E+00 0. -1.
        -11    1    5    5    0    0 -0.36458155364E+03  0.14435426448E+02  0.27398970846E+02  0.36589451266E+03  0.00000000000E+00 0.  1.
          4    1    6    6  503    0  0.16218920510E+03 -0.61263091308E+02  0.92173572696E+02  0.19635292743E+03  0.00000000000E+00 0. -1.
         -4    1    6    6    0  503  0.13995231411E+03 -0.41815913667E+02  0.18606395273E+03  0.23654812484E+03  0.00000000000E+00 0.  1.
<mgrwt>
<rscale>  0 0.12201769E+04</rscale>
<asrwt>0</asrwt>
<pdfrwt beam="1">  1        1 0.13560066E+00 0.12201769E+04</pdfrwt>
<pdfrwt beam="2">  1       -2 0.64967647E-01 0.12201769E+04</pdfrwt>
<totfact> 0.35689007E+01</totfact>
</mgrwt>
</event>
<event>
12    4  0.4398275E-008  0.2258412E+04  0.7818608E-02  0.8494502E-01
         -2   -1    0    0    0  501 -0.00000000000E+00  0.00000000000E+00  0.11572929736E+04  0.11572929736E+04  0.00000000000E+00 0.  1.
          1   -1    0    0  501    0  0.00000000000E+00 -0.00000000000E+00 -0.11018002931E+04  0.11018002931E+04  0.00000000000E+00 0. -1.
        -24    2    1    2    0    0  0.13574921470E+03 -0.35146035553E+03 -0.84607669882E+03  0.92960149575E+03  0.79755437516E+02 0.  0.
        254    2    1    2    0    0 -0.13574921470E+03  0.35146035553E+03  0.90156937936E+03  0.13294917709E+04  0.90153690572E+03 0.  0.
         23    2    4    4    0    0  0.29977604375E+03 -0.65600643339E+02  0.12914335623E+03  0.34534688042E+03  0.91746065556E+02 0.  0.
         23    2    4    4    0    0 -0.43552525845E+03  0.41706099887E+03  0.77242602313E+03  0.98414489052E+03  0.90978441383E+02 0.  0.
          3    1    3    3  502    0  0.10554069121E+03 -0.30409933264E+03 -0.77364640183E+03  0.83794033002E+03  0.00000000000E+00 0. -1.
         -4    1    3    3    0  502  0.30208523486E+02 -0.47361022888E+02 -0.72430296987E+02  0.91661165724E+02  0.00000000000E+00 0.  1.
         11    1    5    5    0    0  0.58341494151E+02 -0.47268655909E+02  0.51584024172E+02  0.91098668052E+02  0.00000000000E+00 0. -1.
        -11    1    5    5    0    0  0.24143454960E+03 -0.18331987431E+02  0.77559332060E+02  0.25424821237E+03  0.00000000000E+00 0.  1.
          3    1    6    6  503    0 -0.40898087089E+03  0.39489547549E+03  0.75586731461E+03  0.94580293223E+03  0.00000000000E+00 0. -1.
         -3    1    6    6    0  503 -0.26544387558E+02  0.22165523375E+02  0.16558708519E+02  0.38341958285E+02  0.00000000000E+00 0.  1.
<mgrwt>
<rscale>  0 0.22584116E+04</rscale>
<asrwt>0</asrwt>
<pdfrwt beam="1">  1        1 0.16950774E+00 0.22584116E+04</pdfrwt>
<pdfrwt beam="2">  1       -2 0.17804507E+00 0.22584116E+04</pdfrwt>
<totfact> 0.18811398E+00</totfact>
</mgrwt>
</event>
<event>
12    4  0.4398275E-008  0.2276037E+04  0.7818608E-02  0.8487430E-01
          1   -1    0    0  501    0  0.00000000000E+00  0.00000000000E+00  0.15184417520E+04  0.15184417520E+04  0.00000000000E+00 0. -1.
         -2   -1    0    0    0  501 -0.00000000000E+00 -0.00000000000E+00 -0.85290502350E+03  0.85290502350E+03  0.00000000000E+00 0.  1.
        -24    2    1    2    0    0  0.57741684000E+03 -0.64615389179E+03 -0.13957798857E+03  0.88132444119E+03  0.79534248993E+02 0.  0.
        254    2    1    2    0    0 -0.57741684000E+03  0.64615389179E+03  0.80511471711E+03  0.14900223344E+04  0.90610804552E+03 0.  0.
         23    2    4    4    0    0 -0.36809111347E+03 -0.16245335937E+03  0.24118080107E+03  0.47773093525E+03  0.90424033843E+02 0.  0.
         23    2    4    4    0    0 -0.20932572652E+03  0.80860725116E+03  0.56393391604E+03  0.10122913991E+04  0.95128695023E+02 0.  0.
          1    1    3    3  502    0  0.27288167950E+03 -0.33964445042E+03 -0.37108662456E+02  0.43726401240E+03  0.00000000000E+00 0. -1.
         -2    1    3    3    0  502  0.30453516050E+03 -0.30650944136E+03 -0.10246932611E+03  0.44406042879E+03  0.00000000000E+00 0.  1.
         11    1    5    5    0    0 -0.28693499105E+03 -0.14683196865E+03  0.22611031123E+03  0.39372222308E+03  0.00000000000E+00 0.  1.
        -11    1    5    5    0    0 -0.81156122428E+02 -0.15621390729E+02  0.15070489841E+02  0.84008712167E+02  0.00000000000E+00 0. -1.
          4    1    6    6  503    0 -0.60939673844E+02  0.10905302910E+03  0.70331215887E+02  0.14336208332E+03  0.00000000000E+00 0. -1.
         -4    1    6    6    0  503 -0.14838605268E+03  0.69955422206E+03  0.49360270015E+03  0.86892931579E+03  0.00000000000E+00 0.  1.
<mgrwt>
<rscale>  0 0.22760374E+04</rscale>
<asrwt>0</asrwt>
<pdfrwt beam="1">  1        1 0.23360642E+00 0.22760374E+04</pdfrwt>
<pdfrwt beam="2">  1       -2 0.13121616E+00 0.22760374E+04</pdfrwt>
<totfact> 0.21425925E+00</totfact>
</mgrwt>
</event>
<event>
12    4  0.4398275E-008  0.4799266E+04  0.7818608E-02  0.7860241E-01
         -2   -1    0    0    0  501 -0.00000000000E+00  0.00000000000E+00  0.22197729935E+04  0.22197729935E+04  0.00000000000E+00 0.  1.
          1   -1    0    0  501    0  0.00000000000E+00 -0.00000000000E+00 -0.25940664158E+04  0.25940664158E+04  0.00000000000E+00 0. -1.
        -24    2    1    2    0    0  0.38963846385E+03 -0.13222379689E+04 -0.20471143449E+04  0.24692674522E+04  0.80456387872E+02 0.  0.
        254    2    1    2    0    0 -0.38963846385E+03  0.13222379689E+04  0.16728209226E+04  0.23445719571E+04  0.89361985426E+03 0.  0.
         23    2    4    4    0    0 -0.66017833429E+03  0.77384525312E+03  0.97343631199E+03  0.14111113824E+04  0.94790142911E+02 0.  0.
         23    2    4    4    0    0  0.27053987044E+03  0.54839271573E+03  0.69938461066E+03  0.93346057469E+03  0.91013288657E+02 0.  0.
          1    1    3    3  502    0  0.28460244081E+03 -0.86506016598E+03 -0.13959489005E+04  0.16667336238E+04  0.00000000000E+00 0. -1.
         -2    1    3    3    0  502  0.10503602303E+03 -0.45717780287E+03 -0.65116544447E+03  0.80253382834E+03  0.00000000000E+00 0.  1.
         11    1    5    5    0    0 -0.40524570685E+03  0.44459745937E+03  0.63294280739E+03  0.87321680081E+03  0.00000000000E+00 0. -1.
        -11    1    5    5    0    0 -0.25493262744E+03  0.32924779375E+03  0.34049350460E+03  0.53789458159E+03  0.00000000000E+00 0.  1.
          3    1    6    6  503    0  0.14927515736E+03  0.35124912456E+03  0.37577233671E+03  0.53559674117E+03  0.00000000000E+00 0. -1.
         -3    1    6    6    0  503  0.12126471308E+03  0.19714359117E+03  0.32361227395E+03  0.39786383352E+03  0.00000000000E+00 0.  1.
<mgrwt>
<rscale>  0 0.47992660E+04</rscale>
<asrwt>0</asrwt>
<pdfrwt beam="1">  1        1 0.39908714E+00 0.47992660E+04</pdfrwt>
<pdfrwt beam="2">  1       -2 0.34150354E+00 0.47992660E+04</pdfrwt>
<totfact> 0.13221696E-02</totfact>
</mgrwt>
</event>
<event>
12    4  0.4398275E-008  0.2058408E+04  0.7818608E-02  0.8579789E-01
         -2   -1    0    0    0  501 -0.00000000000E+00  0.00000000000E+00  0.86910470243E+03  0.86910470243E+03  0.00000000000E+00 0.  1.
          1   -1    0    0  501    0  0.00000000000E+00 -0.00000000000E+00 -0.12187960244E+04  0.12187960244E+04  0.00000000000E+00 0. -1.
        -24    2    1    2    0    0  0.50625484195E+03  0.60161362543E+03  0.16252946622E+03  0.80670779316E+03  0.78286121695E+02 0.  0.
        254    2    1    2    0    0 -0.50625484195E+03 -0.60161362543E+03 -0.51222078818E+03  0.12811929337E+04  0.87226846678E+03 0.  0.
         23    2    4    4    0    0 -0.27620805286E+03 -0.66567830730E+03 -0.20205547973E+02  0.72692425626E+03  0.92693650837E+02 0.  0.
         23    2    4    4    0    0 -0.23004678909E+03  0.64064681871E+02 -0.49201524021E+03  0.55426867741E+03  0.90049772451E+02 0.  0.
          3    1    3    3  502    0  0.42643332007E+03  0.49466851790E+03  0.16349286785E+03  0.67325495684E+03  0.00000000000E+00 0. -1.
         -4    1    3    3    0  502  0.79821521885E+02  0.10694510752E+03 -0.96340162357E+00  0.13345283632E+03  0.00000000000E+00 0.  1.
         11    1    5    5    0    0 -0.75055936680E+02 -0.92956039760E+02  0.21296358443E+01  0.11949374171E+03  0.00000000000E+00 0. -1.
        -11    1    5    5    0    0 -0.20115211618E+03 -0.57272226754E+03 -0.22335183817E+02  0.60743051455E+03  0.00000000000E+00 0.  1.
          3    1    6    6  503    0 -0.33742974398E+02 -0.16354418160E+02 -0.12337626511E+03  0.12894866462E+03  0.00000000000E+00 0. -1.
         -3    1    6    6    0  503 -0.19630381470E+03  0.80419100030E+02 -0.36863897510E+03  0.42532001279E+03  0.00000000000E+00 0.  1.
<mgrwt>
<rscale>  0 0.20584085E+04</rscale>
<asrwt>0</asrwt>
<pdfrwt beam="1">  1        1 0.18750708E+00 0.20584085E+04</pdfrwt>
<pdfrwt beam="2">  1       -2 0.13370842E+00 0.20584085E+04</pdfrwt>
<totfact> 0.33894574E+00</totfact>
</mgrwt>
</event>
<event>
12    4  0.4398275E-008  0.1348719E+04  0.7818608E-02  0.8991799E-01
          1   -1    0    0  501    0  0.00000000000E+00  0.00000000000E+00  0.23481030332E+04  0.23481030332E+04  0.00000000000E+00 0. -1.
         -4   -1    0    0    0  501 -0.00000000000E+00 -0.00000000000E+00 -0.19367140878E+03  0.19367140878E+03  0.00000000000E+00 0.  1.
        -24    2    1    2    0    0  0.11790515091E+03  0.15601412287E+03  0.18168479066E+02  0.21509166543E+03  0.87705756726E+02 0.  0.
        254    2    1    2    0    0 -0.11790515091E+03 -0.15601412287E+03  0.21362631454E+04  0.23266827766E+04  0.90088316963E+03 0.  0.
         23    2    4    4    0    0  0.37563227052E+03  0.18847327835E+02  0.80934030620E+03  0.89681590275E+03  0.88273482770E+02 0.  0.
         23    2    4    4    0    0 -0.49353742143E+03 -0.17486145070E+03  0.13269228392E+04  0.14298668738E+04  0.98180152889E+02 0.  0.
          3    1    3    3  502    0 -0.11571673776E+02  0.20324324566E+02  0.14471136414E+02  0.27502647003E+02  0.00000000000E+00 0. -1.
         -4    1    3    3    0  502  0.12947682468E+03  0.13568979830E+03  0.36973426524E+01  0.18758901843E+03  0.00000000000E+00 0.  1.
         11    1    5    5    0    0  0.36919056783E+03  0.62030150690E+01  0.75221465630E+03  0.83795408104E+03  0.00000000000E+00 0.  1.
        -11    1    5    5    0    0  0.64417026876E+01  0.12644312766E+02  0.57125649898E+02  0.58861821711E+02  0.00000000000E+00 0. -1.
          3    1    6    6  503    0 -0.14494635542E+02 -0.21041257801E+01  0.10587866987E+03  0.10688692407E+03  0.00000000000E+00 0. -1.
         -3    1    6    6    0  503 -0.47904278588E+03 -0.17275732492E+03  0.12210441693E+04  0.13229799497E+04  0.00000000000E+00 0.  1.
<mgrwt>
<rscale>  0 0.13487185E+04</rscale>
<asrwt>0</asrwt>
<pdfrwt beam="1">  1        1 0.36124660E+00 0.13487185E+04</pdfrwt>
<pdfrwt beam="2">  1       -4 0.29795603E-01 0.13487185E+04</pdfrwt>
<totfact> 0.91923161E+00</totfact>
</mgrwt>
</event>
<event>
12    4  0.4398275E-008  0.1262171E+04  0.7818608E-02  0.9060114E-01
         -2   -1    0    0    0  501 -0.00000000000E+00  0.00000000000E+00  0.30034119414E+03  0.30034119414E+03  0.00000000000E+00 0.  1.
          1   -1    0    0  501    0  0.00000000000E+00 -0.00000000000E+00 -0.13260548881E+04  0.13260548881E+04  0.00000000000E+00 0. -1.
        -24    2    1    2    0    0  0.85073333550E+02 -0.27219537292E+03 -0.27029151215E+03  0.40019579304E+03  0.75969586727E+02 0.  0.
        254    2    1    2    0    0 -0.85073333550E+02  0.27219537292E+03 -0.75542218178E+03  0.12262002892E+04  0.92280912617E+03 0.  0.
         23    2    4    4    0    0 -0.40489589632E+03  0.16510487520E+03 -0.63941243093E+02  0.45139059956E+03  0.92003718043E+02 0.  0.
         23    2    4    4    0    0  0.31982256277E+03  0.10709049771E+03 -0.69148093868E+03  0.77480968961E+03  0.91811329360E+02 0.  0.
          3    1    3    3  502    0 -0.10019275766E+02 -0.48495020492E+01 -0.13498433974E+02  0.17496036029E+02  0.00000000000E+00 0. -1.
         -4    1    3    3    0  502  0.95092609316E+02 -0.26734587087E+03 -0.25679307818E+03  0.38269975701E+03  0.00000000000E+00 0.  1.
         11    1    5    5    0    0 -0.39520248449E+03  0.14359608651E+03 -0.48674289062E+02  0.42328953002E+03  0.00000000000E+00 0.  1.
        -11    1    5    5    0    0 -0.96934118252E+01  0.21508788696E+02 -0.15266954031E+02  0.28101069541E+02  0.00000000000E+00 0. -1.
          1    1    6    6  503    0  0.26369767158E+02  0.15578536543E+02 -0.14129852096E+03  0.14457983070E+03  0.00000000000E+00 0. -1.
         -1    1    6    6    0  503  0.29345279561E+03  0.91511961172E+02 -0.55018241773E+03  0.63022985891E+03  0.00000000000E+00 0.  1.
<mgrwt>
<rscale>  0 0.12621710E+04</rscale>
<asrwt>0</asrwt>
<pdfrwt beam="1">  1        1 0.20400844E+00 0.12621710E+04</pdfrwt>
<pdfrwt beam="2">  1       -2 0.46206338E-01 0.12621710E+04</pdfrwt>
<totfact> 0.33259364E+01</totfact>
</mgrwt>
</event>
<event>
12    4  0.4398275E-008  0.2020541E+04  0.7818608E-02  0.8597077E-01
          1   -1    0    0  501    0  0.00000000000E+00  0.00000000000E+00  0.26090333135E+04  0.26090333135E+04  0.00000000000E+00 0. -1.
         -2   -1    0    0    0  501 -0.00000000000E+00 -0.00000000000E+00 -0.39119713172E+03  0.39119713172E+03  0.00000000000E+00 0.  1.
        -24    2    1    2    0    0 -0.54437542337E+03  0.50594423366E+03  0.12925688378E+04  0.14930985389E+04  0.79277217514E+02 0.  0.
        254    2    1    2    0    0  0.54437542337E+03 -0.50594423366E+03  0.92526734401E+03  0.15071319064E+04  0.92897941642E+03 0.  0.
         23    2    4    4    0    0  0.14143365469E+02  0.17149838055E+03  0.51518337003E+03  0.54953685441E+03  0.83457296170E+02 0.  0.
         23    2    4    4    0    0  0.53023205790E+03 -0.67744261421E+03  0.41008397398E+03  0.95759505195E+03  0.93514100704E+02 0.  0.
          1    1    3    3  502    0 -0.72824636018E+02  0.36464392523E+02  0.12386895775E+03  0.14824506139E+03  0.00000000000E+00 0. -1.
         -2    1    3    3    0  502 -0.47155078735E+03  0.46947984114E+03  0.11686998800E+04  0.13448534775E+04  0.00000000000E+00 0.  1.
         11    1    5    5    0    0  0.49243872103E+02  0.10484261974E+03  0.32018605323E+03  0.34049382159E+03  0.00000000000E+00 0.  1.
        -11    1    5    5    0    0 -0.35100506634E+02  0.66655760806E+02  0.19499731679E+03  0.20904303282E+03  0.00000000000E+00 0. -1.
          2    1    6    6  503    0  0.27292520915E+03 -0.33562233556E+03  0.25712630389E+03  0.50323399932E+03  0.00000000000E+00 0. -1.
         -2    1    6    6    0  503  0.25730684875E+03 -0.34182027865E+03  0.15295767009E+03  0.45436105263E+03  0.00000000000E+00 0.  1.
<mgrwt>
<rscale>  0 0.20205409E+04</rscale>
<asrwt>0</asrwt>
<pdfrwt beam="1">  1        1 0.40138973E+00 0.20205409E+04</pdfrwt>
<pdfrwt beam="2">  1       -2 0.60184176E-01 0.20205409E+04</pdfrwt>
<totfact> 0.23820434E+00</totfact>
</mgrwt>
</event>
<event>
12    4  0.4398275E-008  0.1949200E+04  0.7818608E-02  0.8630746E-01
          1   -1    0    0  501    0  0.00000000000E+00  0.00000000000E+00  0.14379829001E+04  0.14379829001E+04  0.00000000000E+00 0. -1.
         -2   -1    0    0    0  501 -0.00000000000E+00 -0.00000000000E+00 -0.66054017640E+03  0.66054017640E+03  0.00000000000E+00 0.  1.
        -24    2    1    2    0    0  0.51204128118E+03  0.19876804991E+03  0.87408655282E+03  0.10355390730E+04  0.81356367946E+02 0.  0.
        254    2    1    2    0    0 -0.51204128118E+03 -0.19876804991E+03 -0.96643829123E+02  0.10629840035E+04  0.90493090933E+03 0.  0.
         23    2    4    4    0    0  0.21866949700E+03 -0.85534860293E+01  0.12790437861E+03  0.26897569702E+03  0.89993802433E+02 0.  0.
         23    2    4    4    0    0 -0.73071077818E+03 -0.19021456388E+03 -0.22454820774E+03  0.79400830647E+03  0.99536282248E+02 0.  0.
          1    1    3    3  502    0  0.42772969279E+02  0.18973436858E+02  0.12529843647E+03  0.13375057528E+03  0.00000000000E+00 0. -1.
         -2    1    3    3    0  502  0.46926831190E+03  0.17979461305E+03  0.74878811635E+03  0.90178849772E+03  0.00000000000E+00 0.  1.
         11    1    5    5    0    0  0.43896630477E+02 -0.12831081919E+02  0.72245689861E+02  0.85504330498E+02  0.00000000000E+00 0.  1.
        -11    1    5    5    0    0  0.17477286652E+03  0.42775958899E+01  0.55658688754E+02  0.18347136652E+03  0.00000000000E+00 0. -1.
          2    1    6    6  503    0 -0.61065680537E+03 -0.19331995478E+03 -0.20355599334E+03  0.67209328317E+03  0.00000000000E+00 0. -1.
         -2    1    6    6    0  503 -0.12005397281E+03  0.31053909019E+01 -0.20992214399E+02  0.12191502330E+03  0.00000000000E+00 0.  1.
<mgrwt>
<rscale>  0 0.19492003E+04</rscale>
<asrwt>0</asrwt>
<pdfrwt beam="1">  1        1 0.22122814E+00 0.19492003E+04</pdfrwt>
<pdfrwt beam="2">  1       -2 0.10162157E+00 0.19492003E+04</pdfrwt>
<totfact> 0.46969529E+00</totfact>
</mgrwt>
</event>
<event>
12    4  0.4398275E-008  0.1555451E+04  0.7818608E-02  0.8848393E-01
          3   -1    0    0  501    0  0.00000000000E+00  0.00000000000E+00  0.20630054039E+04  0.20630054039E+04  0.00000000000E+00 0. -1.
         -4   -1    0    0    0  501 -0.00000000000E+00 -0.00000000000E+00 -0.29319229158E+03  0.29319229158E+03  0.00000000000E+00 0.  1.
        -24    2    1    2    0    0  0.14352350542E+03  0.36756107045E+03  0.10937220167E+04  0.11654641856E+04  0.79867270773E+02 0.  0.
        254    2    1    2    0    0 -0.14352350542E+03 -0.36756107045E+03  0.67609109565E+03  0.11907335099E+04  0.89724410553E+03 0.  0.
         23    2    4    4    0    0 -0.26445646167E+03 -0.17162663258E+03 -0.12589502410E+03  0.35133523744E+03  0.90520554808E+02 0.  0.
         23    2    4    4    0    0  0.12093295625E+03 -0.19593443787E+03  0.80198611975E+03  0.83939827249E+03  0.91611351504E+02 0.  0.
          3    1    3    3  502    0  0.12071018871E+03  0.29445461974E+03  0.95990620235E+03  0.10112835359E+04  0.00000000000E+00 0. -1.
         -2    1    3    3    0  502  0.22813316713E+02  0.73106450711E+02  0.13381581434E+03  0.15418064963E+03  0.00000000000E+00 0.  1.
         11    1    5    5    0    0 -0.10197497926E+03 -0.62133938476E+02 -0.95830780936E+02  0.15311127091E+03  0.00000000000E+00 0. -1.
        -11    1    5    5    0    0 -0.16248148241E+03 -0.10949269410E+03 -0.30064243167E+02  0.19822396653E+03  0.00000000000E+00 0.  1.
          3    1    6    6  503    0  0.50568404639E+02 -0.10683903585E+03  0.25939589857E+03  0.28505784557E+03  0.00000000000E+00 0. -1.
         -3    1    6    6    0  503  0.70364551608E+02 -0.89095402028E+02  0.54259022118E+03  0.55434042691E+03  0.00000000000E+00 0.  1.
<mgrwt>
<rscale>  0 0.15554514E+04</rscale>
<asrwt>0</asrwt>
<pdfrwt beam="1">  1        3 0.31738544E+00 0.15554514E+04</pdfrwt>
<pdfrwt beam="2">  1       -4 0.45106508E-01 0.15554514E+04</pdfrwt>
<totfact> 0.32886165E-01</totfact>
</mgrwt>
</event>
<event>
12    4  0.4398275E-008  0.1311335E+04  0.7818608E-02  0.9020624E-01
         -2   -1    0    0    0  501 -0.00000000000E+00  0.00000000000E+00  0.15202290140E+04  0.15202290140E+04  0.00000000000E+00 0.  1.
          1   -1    0    0  501    0  0.00000000000E+00 -0.00000000000E+00 -0.28278633060E+03  0.28278633060E+03  0.00000000000E+00 0. -1.
        -24    2    1    2    0    0 -0.83914329174E+02 -0.26185841050E+03  0.60152036164E+03  0.66613892943E+03  0.79390717647E+02 0.  0.
        254    2    1    2    0    0  0.83914329174E+02  0.26185841050E+03  0.63592232178E+03  0.11368764152E+04  0.90137635996E+03 0.  0.
         23    2    4    4    0    0  0.44805690133E+03  0.32515653280E+03  0.38941835137E+03  0.68320890214E+03  0.92983836913E+02 0.  0.
         23    2    4    4    0    0 -0.36414257216E+03 -0.63298122298E+02  0.24650397040E+03  0.45366751305E+03  0.91888736130E+02 0.  0.
          1    1    3    3  502    0 -0.15877783515E+02 -0.13316618951E+03  0.21832122307E+03  0.25622157302E+03  0.00000000000E+00 0. -1.
         -2    1    3    3    0  502 -0.68036545659E+02 -0.12869222099E+03  0.38319913857E+03  0.40991735642E+03  0.00000000000E+00 0.  1.
         11    1    5    5    0    0  0.31030260569E+03  0.17136162301E+03  0.25873956172E+03  0.43886065413E+03  0.00000000000E+00 0. -1.
        -11    1    5    5    0    0  0.13775429564E+03  0.15379490979E+03  0.13067878965E+03  0.24434824801E+03  0.00000000000E+00 0.  1.
          3    1    6    6  503    0 -0.92357528683E+01  0.11227225166E+02  0.24425000996E+02  0.28424116339E+02  0.00000000000E+00 0. -1.
         -3    1    6    6    0  503 -0.35490681929E+03 -0.74525347464E+02  0.22207896941E+03  0.42524339671E+03  0.00000000000E+00 0.  1.
<mgrwt>
<rscale>  0 0.13113352E+04</rscale>
<asrwt>0</asrwt>
<pdfrwt beam="1">  1        1 0.43505590E-01 0.13113352E+04</pdfrwt>
<pdfrwt beam="2">  1       -2 0.23388138E+00 0.13113352E+04</pdfrwt>
<totfact> 0.65650364E+00</totfact>
</mgrwt>
</event>
<event>
12    4  0.4398275E-008  0.2429286E+04  0.7818608E-02  0.8428620E-01
          1   -1    0    0  501    0  0.00000000000E+00  0.00000000000E+00  0.13694652777E+04  0.13694652777E+04  0.00000000000E+00 0. -1.
         -2   -1    0    0    0  501 -0.00000000000E+00 -0.00000000000E+00 -0.10773239058E+04  0.10773239058E+04  0.00000000000E+00 0.  1.
        -24    2    1    2    0    0  0.79145780459E+02 -0.62772029726E+03  0.96574610244E+03  0.11572765099E+04  0.79539674672E+02 0.  0.
        254    2    1    2    0    0 -0.79145780459E+02  0.62772029726E+03 -0.67360473058E+03  0.12895126736E+04  0.89933462972E+03 0.  0.
         23    2    4    4    0    0  0.10476380034E+03  0.34976093413E+03 -0.82913310525E+03  0.91043145266E+03  0.90086396670E+02 0.  0.
         23    2    4    4    0    0 -0.18390958080E+03  0.27795936313E+03  0.15552837467E+03  0.37908122097E+03  0.91811520525E+02 0.  0.
          3    1    3    3  502    0  0.92716482865E+02 -0.51254064617E+03  0.76620109348E+03  0.92647632232E+03  0.00000000000E+00 0. -1.
         -4    1    3    3    0  502 -0.13570702406E+02 -0.11517965110E+03  0.19954500895E+03  0.23080018758E+03  0.00000000000E+00 0.  1.
         11    1    5    5    0    0  0.66734784713E+02  0.83426755454E+02 -0.22267000174E+03  0.24697263956E+03  0.00000000000E+00 0. -1.
        -11    1    5    5    0    0  0.38029015626E+02  0.26633417868E+03 -0.60646310350E+03  0.66345881309E+03  0.00000000000E+00 0.  1.
          4    1    6    6  503    0 -0.10778067043E+03  0.18986907218E+03  0.54732674106E+02  0.22508354694E+03  0.00000000000E+00 0. -1.
         -4    1    6    6    0  503 -0.76128910369E+02  0.88090290955E+02  0.10079570056E+03  0.15399767403E+03  0.00000000000E+00 0.  1.
<mgrwt>
<rscale>  0 0.24292861E+04</rscale>
<asrwt>0</asrwt>
<pdfrwt beam="1">  1        1 0.21068697E+00 0.24292861E+04</pdfrwt>
<pdfrwt beam="2">  1       -2 0.16574214E+00 0.24292861E+04</pdfrwt>
<totfact> 0.14485056E+00</totfact>
</mgrwt>
</event>
<event>
12    4  0.4398275E-008  0.1256766E+04  0.7818608E-02  0.9064570E-01
         -2   -1    0    0    0  501 -0.00000000000E+00  0.00000000000E+00  0.79627826277E+03  0.79627826277E+03  0.00000000000E+00 0.  1.
          1   -1    0    0  501    0  0.00000000000E+00 -0.00000000000E+00 -0.49588883812E+03  0.49588883812E+03  0.00000000000E+00 0. -1.
        -24    2    1    2    0    0 -0.45696473206E+02  0.29595060856E+03  0.56505724991E+02  0.31649619946E+03  0.85451839898E+02 0.  0.
        254    2    1    2    0    0  0.45696473206E+02 -0.29595060856E+03  0.24388369966E+03  0.97567090142E+03  0.89597964182E+03 0.  0.
         23    2    4    4    0    0 -0.31780759925E+03  0.84072899043E+01 -0.13675335179E+03  0.36059888132E+03  0.10128040935E+03 0.  0.
         23    2    4    4    0    0  0.36350407246E+03 -0.30435789847E+03  0.38063705145E+03  0.61507202010E+03  0.93059571926E+02 0.  0.
          3    1    3    3  502    0 -0.39834302494E+02  0.13058446667E+03 -0.12746952018E+02  0.13711877835E+03  0.00000000000E+00 0. -1.
         -4    1    3    3    0  502 -0.58621707124E+01  0.16536614190E+03  0.69252677009E+02  0.17937742111E+03  0.00000000000E+00 0.  1.
         11    1    5    5    0    0 -0.63390343525E+02  0.43393858000E+02 -0.33519748076E+02  0.83814891728E+02  0.00000000000E+00 0.  1.
        -11    1    5    5    0    0 -0.25441725573E+03 -0.34986568096E+02 -0.10323360371E+03  0.27678398959E+03  0.00000000000E+00 0. -1.
          1    1    6    6  503    0  0.10355063178E+03 -0.14490000262E+03  0.13481734420E+03  0.22337067936E+03  0.00000000000E+00 0. -1.
         -1    1    6    6    0  503  0.25995344068E+03 -0.15945789585E+03  0.24581970725E+03  0.39170134075E+03  0.00000000000E+00 0.  1.
<mgrwt>
<rscale>  0 0.12567665E+04</rscale>
<asrwt>0</asrwt>
<pdfrwt beam="1">  1        1 0.76290591E-01 0.12567665E+04</pdfrwt>
<pdfrwt beam="2">  1       -2 0.12250435E+00 0.12567665E+04</pdfrwt>
<totfact> 0.19480630E+01</totfact>
</mgrwt>
</event>
<event>
12    4  0.4398275E-008  0.1377507E+04  0.7818608E-02  0.8970263E-01
          1   -1    0    0  501    0  0.00000000000E+00  0.00000000000E+00  0.90358776274E+03  0.90358776274E+03  0.00000000000E+00 0. -1.
         -2   -1    0    0    0  501 -0.00000000000E+00 -0.00000000000E+00 -0.52499724012E+03  0.52499724012E+03  0.00000000000E+00 0.  1.
        -24    2    1    2    0    0 -0.23352193813E+03  0.19801675114E+03 -0.11849997796E+03  0.33768576512E+03  0.79033548974E+02 0.  0.
        254    2    1    2    0    0  0.23352193813E+03 -0.19801675114E+03  0.49709050058E+03  0.10908992377E+04  0.92153081979E+03 0.  0.
         23    2    4    4    0    0  0.27849339226E+03 -0.50922594413E+03  0.13711367463E+03  0.60377336540E+03  0.94193870771E+02 0.  0.
         23    2    4    4    0    0 -0.44971454128E+02  0.31120919299E+03  0.35997682596E+03  0.48712587234E+03  0.93993120963E+02 0.  0.
          3    1    3    3  502    0 -0.10450923543E+03  0.72289087185E+02 -0.10175052807E+02  0.12748107356E+03  0.00000000000E+00 0. -1.
         -4    1    3    3    0  502 -0.12901270270E+03  0.12572766396E+03 -0.10832492516E+03  0.21020469156E+03  0.00000000000E+00 0.  1.
         11    1    5    5    0    0  0.49369156930E+02 -0.82910911916E+02 -0.12233546688E+02  0.97268662144E+02  0.00000000000E+00 0. -1.
        -11    1    5    5    0    0  0.22912423533E+03 -0.42631503222E+03  0.14934722132E+03  0.50650470326E+03  0.00000000000E+00 0.  1.
          3    1    6    6  503    0  0.16872829916E+02  0.57099895260E+02  0.11139297299E+03  0.12630710534E+03  0.00000000000E+00 0. -1.
         -3    1    6    6    0  503 -0.61844284044E+02  0.25410929773E+03  0.24858385296E+03  0.36081876700E+03  0.00000000000E+00 0.  1.
<mgrwt>
<rscale>  0 0.13775066E+04</rscale>
<asrwt>0</asrwt>
<pdfrwt beam="1">  1        1 0.13901350E+00 0.13775066E+04</pdfrwt>
<pdfrwt beam="2">  1       -2 0.80768807E-01 0.13775066E+04</pdfrwt>
<totfact> 0.20933009E+01</totfact>
</mgrwt>
</event>
<event>
12    4  0.4398275E-008  0.1307512E+04  0.7818608E-02  0.9023629E-01
          1   -1    0    0  501    0  0.00000000000E+00  0.00000000000E+00  0.14430360838E+04  0.14430360838E+04  0.00000000000E+00 0. -1.
         -2   -1    0    0    0  501 -0.00000000000E+00 -0.00000000000E+00 -0.29617910910E+03  0.29617910910E+03  0.00000000000E+00 0.  1.
        -24    2    1    2    0    0 -0.37420999628E+01  0.24461483545E+03 -0.47678513261E+01  0.25681236989E+03  0.77970763048E+02 0.  0.
        254    2    1    2    0    0  0.37420999628E+01 -0.24461483545E+03  0.11516248261E+04  0.14824028231E+04  0.90079296664E+03 0.  0.
         23    2    4    4    0    0  0.29215995762E+02 -0.14221387736E+03  0.12806744539E+04  0.12924237394E+04  0.95674990146E+02 0.  0.
         23    2    4    4    0    0 -0.25473895800E+02 -0.10240095809E+03 -0.12904962788E+03  0.18997908370E+03  0.91122830308E+02 0.  0.
          1    1    3    3  502    0 -0.32687689001E+02  0.14612061345E+03  0.20393147762E+02  0.15111452333E+03  0.00000000000E+00 0. -1.
         -2    1    3    3    0  502  0.28945589038E+02  0.98494222000E+02 -0.25160999088E+02  0.10569784656E+03  0.00000000000E+00 0.  1.
         11    1    5    5    0    0 -0.19528025187E+02 -0.79776168328E+02  0.89115813193E+03  0.89493485624E+03  0.00000000000E+00 0.  1.
        -11    1    5    5    0    0  0.48744020949E+02 -0.62437709031E+02  0.38951632201E+03  0.39748888311E+03  0.00000000000E+00 0. -1.
          1    1    6    6  503    0 -0.24215011688E+02 -0.10459547359E+03 -0.64226177329E+02  0.12510628178E+03  0.00000000000E+00 0. -1.
         -1    1    6    6    0  503 -0.12588841119E+01  0.21945155058E+01 -0.64823450547E+02  0.64872801915E+02  0.00000000000E+00 0.  1.
<mgrwt>
<rscale>  0 0.13075124E+04</rscale>
<asrwt>0</asrwt>
<pdfrwt beam="1">  1        1 0.22200555E+00 0.13075124E+04</pdfrwt>
<pdfrwt beam="2">  1       -2 0.45566018E-01 0.13075124E+04</pdfrwt>
<totfact> 0.28200770E+01</totfact>
</mgrwt>
</event>
<event>
12    4  0.4398275E-008  0.1363907E+04  0.7818608E-02  0.8980367E-01
          1   -1    0    0  501    0  0.00000000000E+00  0.00000000000E+00  0.17299785704E+04  0.17299785704E+04  0.00000000000E+00 0. -1.
         -2   -1    0    0    0  501 -0.00000000000E+00 -0.00000000000E+00 -0.26882456624E+03  0.26882456624E+03  0.00000000000E+00 0.  1.
        -24    2    1    2    0    0  0.20945220727E+02 -0.29070008038E+03  0.56505205630E+02  0.30986350605E+03  0.88754239988E+02 0.  0.
        254    2    1    2    0    0 -0.20945220727E+02  0.29070008038E+03  0.14046487985E+04  0.16889396306E+04  0.89136613663E+03 0.  0.
         23    2    4    4    0    0  0.39476163662E+03 -0.16370160246E+02  0.51085204356E+03  0.65214976194E+03  0.90690515995E+02 0.  0.
         23    2    4    4    0    0 -0.41570685735E+03  0.30707024062E+03  0.89379675495E+03  0.10367898686E+04  0.94637564396E+02 0.  0.
          1    1    3    3  502    0  0.18820266416E+02 -0.80747156209E+01 -0.38996380687E+01  0.20847317271E+02  0.00000000000E+00 0. -1.
         -2    1    3    3    0  502  0.21249543115E+01 -0.28262536476E+03  0.60404843698E+02  0.28901618878E+03  0.00000000000E+00 0.  1.
         11    1    5    5    0    0  0.24782045491E+03  0.31104000027E+02  0.29104881980E+03  0.38352555612E+03  0.00000000000E+00 0.  1.
        -11    1    5    5    0    0  0.14694118171E+03 -0.47474160273E+02  0.21980322376E+03  0.26862420582E+03  0.00000000000E+00 0. -1.
          1    1    6    6  503    0 -0.38522854954E+01  0.26979587497E+02  0.50770682035E+02  0.57622915575E+02  0.00000000000E+00 0. -1.
         -1    1    6    6    0  503 -0.41185457186E+03  0.28009065313E+03  0.84302607292E+03  0.97916695305E+03  0.00000000000E+00 0.  1.
<mgrwt>
<rscale>  0 0.13639072E+04</rscale>
<asrwt>0</asrwt>
<pdfrwt beam="1">  1        1 0.26615054E+00 0.13639072E+04</pdfrwt>
<pdfrwt beam="2">  1       -2 0.41357627E-01 0.13639072E+04</pdfrwt>
<totfact> 0.21616531E+01</totfact>
</mgrwt>
</event>
<event>
12    4  0.4398275E-008  0.1448691E+04  0.7818608E-02  0.8919309E-01
          1   -1    0    0  501    0  0.00000000000E+00  0.00000000000E+00  0.13764179555E+04  0.13764179555E+04  0.00000000000E+00 0. -1.
         -2   -1    0    0    0  501 -0.00000000000E+00 -0.00000000000E+00 -0.38118964402E+03  0.38118964402E+03  0.00000000000E+00 0.  1.
        -24    2    1    2    0    0 -0.27884314522E+03 -0.23446609096E+03  0.58850584743E+03  0.69678980139E+03  0.80305961266E+02 0.  0.
        254    2    1    2    0    0  0.27884314522E+03  0.23446609096E+03  0.40672246409E+03  0.10608177982E+04  0.90949622905E+03 0.  0.
         23    2    4    4    0    0  0.55743184086E+03 -0.44110858836E+01  0.10061181030E+03  0.57332251814E+03  0.88466143509E+02 0.  0.
         23    2    4    4    0    0 -0.27858869564E+03  0.23887717685E+03  0.30611065379E+03  0.48749528003E+03  0.96301343322E+02 0.  0.
          1    1    3    3  502    0 -0.25336227899E+03 -0.23750092681E+03  0.54318651474E+03  0.64470979863E+03  0.00000000000E+00 0. -1.
         -2    1    3    3    0  502 -0.25480866225E+02  0.30348358458E+01  0.45319332689E+02  0.52080002760E+02  0.00000000000E+00 0.  1.
         11    1    5    5    0    0  0.22377346264E+03  0.41405127642E+02  0.36331316569E+02  0.23045370846E+03  0.00000000000E+00 0. -1.
        -11    1    5    5    0    0  0.33365837822E+03 -0.45816213526E+02  0.64280493731E+02  0.34286880968E+03  0.00000000000E+00 0.  1.
          4    1    6    6  503    0 -0.28334243076E+03  0.22745037848E+03  0.30613971220E+03  0.47511907047E+03  0.00000000000E+00 0.  1.
         -4    1    6    6    0  503  0.47537351178E+01  0.11426798372E+02 -0.29058409976E-01  0.12376209557E+02  0.00000000000E+00 0. -1.
<mgrwt>
<rscale>  0 0.14486908E+04</rscale>
<asrwt>0</asrwt>
<pdfrwt beam="1">  1        1 0.21175660E+00 0.14486908E+04</pdfrwt>
<pdfrwt beam="2">  1       -2 0.58644562E-01 0.14486908E+04</pdfrwt>
<totfact> 0.18488105E+01</totfact>
</mgrwt>
</event>
<event>
12    4  0.4398275E-008  0.1538215E+04  0.7818608E-02  0.8859431E-01
         -2   -1    0    0    0  501 -0.00000000000E+00  0.00000000000E+00  0.27987680758E+03  0.27987680758E+03  0.00000000000E+00 0.  1.
          1   -1    0    0  501    0  0.00000000000E+00 -0.00000000000E+00 -0.21135241318E+04  0.21135241318E+04  0.00000000000E+00 0. -1.
        -24    2    1    2    0    0  0.98768318656E+00  0.43575159716E+03 -0.99059175706E+03  0.10851912791E+04  0.80545968476E+02 0.  0.
        254    2    1    2    0    0 -0.98768318656E+00 -0.43575159716E+03 -0.84305556717E+03  0.13082096603E+04  0.90043844659E+03 0.  0.
         23    2    4    4    0    0  0.35883335982E+03 -0.48853084161E+03 -0.42015374109E+03  0.74316301632E+03  0.91314507850E+02 0.  0.
         23    2    4    4    0    0 -0.35982104300E+03  0.52779244458E+02 -0.42290182608E+03  0.56504664401E+03  0.90415285054E+02 0.  0.
          1    1    3    3  502    0 -0.51654634721E+01  0.15273015773E+03 -0.25877393412E+03  0.30052808866E+03  0.00000000000E+00 0. -1.
         -2    1    3    3    0  502  0.61531466586E+01  0.28302143943E+03 -0.73181782294E+03  0.78466319040E+03  0.00000000000E+00 0.  1.
         11    1    5    5    0    0  0.12606290724E+03 -0.12822242736E+03 -0.16506896536E+03  0.24409139843E+03  0.00000000000E+00 0.  1.
        -11    1    5    5    0    0  0.23277045257E+03 -0.36030841425E+03 -0.25508477572E+03  0.49907161789E+03  0.00000000000E+00 0. -1.
          1    1    6    6  503    0 -0.23929101585E+03 -0.66736640294E+01 -0.28996734387E+03  0.37601301649E+03  0.00000000000E+00 0. -1.
         -1    1    6    6    0  503 -0.12053002715E+03  0.59452908488E+02 -0.13293448221E+03  0.18903362752E+03  0.00000000000E+00 0.  1.
<mgrwt>
<rscale>  0 0.15382151E+04</rscale>
<asrwt>0</asrwt>
<pdfrwt beam="1">  1        1 0.32515755E+00 0.15382151E+04</pdfrwt>
<pdfrwt beam="2">  1       -2 0.43057971E-01 0.15382151E+04</pdfrwt>
<totfact> 0.10812319E+01</totfact>
</mgrwt>
</event>
<event>
12    4  0.4398275E-008  0.1373363E+04  0.7818608E-02  0.8973329E-01
          1   -1    0    0  501    0  0.00000000000E+00  0.00000000000E+00  0.68748824297E+03  0.68748824297E+03  0.00000000000E+00 0. -1.
         -2   -1    0    0    0  501 -0.00000000000E+00 -0.00000000000E+00 -0.68587522270E+03  0.68587522270E+03  0.00000000000E+00 0.  1.
        -24    2    1    2    0    0  0.53147537821E+02 -0.80379007420E+02 -0.37721877465E+03  0.39660515719E+03  0.75605562985E+02 0.  0.
        254    2    1    2    0    0 -0.53147537821E+02  0.80379007420E+02  0.37883179492E+03  0.97675830848E+03  0.89513005688E+03 0.  0.
         23    2    4    4    0    0  0.14479772723E+03  0.56296126768E+01  0.62013148600E+03  0.64341406253E+03  0.91763400007E+02 0.  0.
         23    2    4    4    0    0 -0.19794526505E+03  0.74749394743E+02 -0.24129969108E+03  0.33334424595E+03  0.90127939204E+02 0.  0.
          3    1    3    3  502    0 -0.40575970913E+01  0.97057108527E+01 -0.11279332601E+02  0.15423626721E+02  0.00000000000E+00 0. -1.
         -4    1    3    3    0  502  0.57205134912E+02 -0.90084718272E+02 -0.36593944205E+03  0.38118153047E+03  0.00000000000E+00 0.  1.
         11    1    5    5    0    0  0.14935524131E+03 -0.67488456645E+01  0.48201699059E+03  0.50467109511E+03  0.00000000000E+00 0.  1.
        -11    1    5    5    0    0 -0.45575140746E+01  0.12378458341E+02  0.13811449541E+03  0.13874296741E+03  0.00000000000E+00 0. -1.
          4    1    6    6  503    0  0.91697510977E+01  0.12530365361E+01 -0.45475736999E+01  0.10311879669E+02  0.00000000000E+00 0. -1.
         -4    1    6    6    0  503 -0.20711501615E+03  0.73496358207E+02 -0.23675211738E+03  0.32303236629E+03  0.00000000000E+00 0.  1.
<mgrwt>
<rscale>  0 0.13733625E+04</rscale>
<asrwt>0</asrwt>
<pdfrwt beam="1">  1        1 0.10576742E+00 0.13733625E+04</pdfrwt>
<pdfrwt beam="2">  1       -2 0.10551926E+00 0.13733625E+04</pdfrwt>
<totfact> 0.17400810E+01</totfact>
</mgrwt>
</event>
<event>
12    4  0.4398275E-008  0.1611236E+04  0.7818608E-02  0.8813675E-01
          1   -1    0    0  501    0  0.00000000000E+00  0.00000000000E+00  0.29081708067E+04  0.29081708067E+04  0.00000000000E+00 0. -1.
         -2   -1    0    0    0  501 -0.00000000000E+00 -0.00000000000E+00 -0.22317140892E+03  0.22317140892E+03  0.00000000000E+00 0.  1.
        -24    2    1    2    0    0 -0.85488962613E+02 -0.10525468245E+03 -0.10937298443E+03  0.19135718373E+03  0.79172035067E+02 0.  0.
        254    2    1    2    0    0  0.85488962613E+02  0.10525468245E+03  0.27943723822E+04  0.29399850319E+04  0.90366369098E+03 0.  0.
         23    2    4    4    0    0  0.38168145794E+03  0.17598915385E+03  0.70443205871E+03  0.82612896160E+03  0.98038860860E+02 0.  0.
         23    2    4    4    0    0 -0.29619249533E+03 -0.70734471403E+02  0.20899403235E+04  0.21138560703E+04  0.88337819766E+02 0.  0.
          1    1    3    3  502    0 -0.25068969253E+02 -0.87869022179E+01 -0.63137467114E+02  0.68498194309E+02  0.00000000000E+00 0. -1.
         -2    1    3    3    0  502 -0.60419993360E+02 -0.96467780234E+02 -0.46235517313E+02  0.12285898942E+03  0.00000000000E+00 0.  1.
         11    1    5    5    0    0  0.15346108999E+03  0.95709691741E+02  0.38552234748E+03  0.42583815193E+03  0.00000000000E+00 0.  1.
        -11    1    5    5    0    0  0.22822036795E+03  0.80279462113E+02  0.31890971123E+03  0.40029080966E+03  0.00000000000E+00 0. -1.
          2    1    6    6  503    0 -0.77192078410E+02  0.19533103243E+01  0.77361118717E+03  0.77745527286E+03  0.00000000000E+00 0. -1.
         -2    1    6    6    0  503 -0.21900041692E+03 -0.72687781727E+02  0.13163291363E+04  0.13364007974E+04  0.00000000000E+00 0.  1.
<mgrwt>
<rscale>  0 0.16112363E+04</rscale>
<asrwt>0</asrwt>
<pdfrwt beam="1">  1        1 0.44741087E+00 0.16112363E+04</pdfrwt>
<pdfrwt beam="2">  1       -2 0.34334065E-01 0.16112363E+04</pdfrwt>
<totfact> 0.46830409E+00</totfact>
</mgrwt>
</event>
<event>
12    4  0.4398275E-008  0.1940891E+04  0.7818608E-02  0.8634766E-01
          1   -1    0    0  501    0  0.00000000000E+00  0.00000000000E+00  0.21492883606E+04  0.21492883606E+04  0.00000000000E+00 0. -1.
         -2   -1    0    0    0  501 -0.00000000000E+00 -0.00000000000E+00 -0.43817523707E+03  0.43817523707E+03  0.00000000000E+00 0.  1.
        -24    2    1    2    0    0 -0.26882072152E+03  0.52201939604E+03  0.31340866491E+02  0.59300681249E+03  0.76850501581E+02 0.  0.
        254    2    1    2    0    0  0.26882072152E+03 -0.52201939604E+03  0.16797722570E+04  0.19944567852E+04  0.90080752786E+03 0.  0.
         23    2    4    4    0    0  0.45634378870E+03 -0.46979620564E+02  0.11986907032E+04  0.12867832971E+04  0.92168939776E+02 0.  0.
         23    2    4    4    0    0 -0.18752306718E+03 -0.47503977548E+03  0.48108155382E+03  0.70767348808E+03  0.92382981649E+02 0.  0.
          1    1    3    3  502    0 -0.14770421256E+03  0.23340356438E+03  0.44282858243E+02  0.27974046866E+03  0.00000000000E+00 0. -1.
         -2    1    3    3    0  502 -0.12111650895E+03  0.28861583166E+03 -0.12941991752E+02  0.31326634383E+03  0.00000000000E+00 0.  1.
         11    1    5    5    0    0  0.17401677470E+03 -0.61313512204E+02  0.43865736651E+03  0.47587968001E+03  0.00000000000E+00 0. -1.
        -11    1    5    5    0    0  0.28232701399E+03  0.14333891640E+02  0.76003333671E+03  0.81090361708E+03  0.00000000000E+00 0.  1.
          4    1    6    6  503    0 -0.10014310057E+03 -0.14444042753E+03  0.14009776578E+03  0.22476445821E+03  0.00000000000E+00 0. -1.
         -4    1    6    6    0  503 -0.87379966610E+02 -0.33059934795E+03  0.34098378804E+03  0.48290902987E+03  0.00000000000E+00 0.  1.
<mgrwt>
<rscale>  0 0.19408915E+04</rscale>
<asrwt>0</asrwt>
<pdfrwt beam="1">  1        1 0.33065974E+00 0.19408915E+04</pdfrwt>
<pdfrwt beam="2">  1       -2 0.67411576E-01 0.19408915E+04</pdfrwt>
<totfact> 0.38984445E+00</totfact>
</mgrwt>
</event>
<event>
12    4  0.4398275E-008  0.1847149E+04  0.7818608E-02  0.8681620E-01
         -2   -1    0    0    0  501 -0.00000000000E+00  0.00000000000E+00  0.11129296874E+04  0.11129296874E+04  0.00000000000E+00 0.  1.
          1   -1    0    0  501    0  0.00000000000E+00 -0.00000000000E+00 -0.76643658831E+03  0.76643658831E+03  0.00000000000E+00 0. -1.
        -24    2    1    2    0    0 -0.46013700855E+03 -0.37014035874E+03 -0.25837073726E+03  0.64958556753E+03  0.80473721535E+02 0.  0.
        254    2    1    2    0    0  0.46013700855E+03  0.37014035874E+03  0.60486383640E+03  0.12297807082E+04  0.89317992472E+03 0.  0.
         23    2    4    4    0    0  0.61690895367E+03  0.53471262750E+03  0.51648854469E+03  0.97032410574E+03  0.90962642193E+02 0.  0.
         23    2    4    4    0    0 -0.15677194512E+03 -0.16457226875E+03  0.88375291710E+02  0.25945660248E+03  0.88577999332E+02 0.  0.
          3    1    3    3  502    0 -0.46201352993E+03 -0.36055512820E+03 -0.25605720364E+03  0.63954811691E+03  0.00000000000E+00 0. -1.
         -4    1    3    3    0  502  0.18765213767E+01 -0.95852305459E+01 -0.23135336213E+01  0.10037450618E+02  0.00000000000E+00 0.  1.
         11    1    5    5    0    0  0.43002895088E+03  0.31784402921E+03  0.35110932667E+03  0.63970890629E+03  0.00000000000E+00 0.  1.
        -11    1    5    5    0    0  0.18688000279E+03  0.21686859828E+03  0.16537921801E+03  0.33061519946E+03  0.00000000000E+00 0. -1.
          2    1    6    6  503    0 -0.45504973270E+02 -0.17706549508E+01  0.26962607694E+02  0.52922774161E+02  0.00000000000E+00 0. -1.
         -2    1    6    6    0  503 -0.11126697185E+03 -0.16280161380E+03  0.61412684016E+02  0.20653382832E+03  0.00000000000E+00 0.  1.
<mgrwt>
<rscale>  0 0.18471492E+04</rscale>
<asrwt>0</asrwt>
<pdfrwt beam="1">  1        1 0.11791332E+00 0.18471492E+04</pdfrwt>
<pdfrwt beam="2">  1       -2 0.17121995E+00 0.18471492E+04</pdfrwt>
<totfact> 0.40694534E+00</totfact>
</mgrwt>
</event>
<event>
12    4  0.4398275E-008  0.2543209E+04  0.7818608E-02  0.8387752E-01
          1   -1    0    0  501    0  0.00000000000E+00  0.00000000000E+00  0.13676859630E+04  0.13676859630E+04  0.00000000000E+00 0. -1.
         -2   -1    0    0    0  501 -0.00000000000E+00 -0.00000000000E+00 -0.11822727147E+04  0.11822727147E+04  0.00000000000E+00 0.  1.
        -24    2    1    2    0    0 -0.57389821511E+03  0.72720433371E+03  0.69537209797E+03  0.11608976619E+04  0.77173327721E+02 0.  0.
        254    2    1    2    0    0  0.57389821511E+03 -0.72720433371E+03 -0.50995884969E+03  0.13890610158E+04  0.90069260742E+03 0.  0.
         23    2    4    4    0    0  0.57304401120E+03 -0.18077923998E+03  0.38884493937E+02  0.60931298113E+03  0.93218735957E+02 0.  0.
         23    2    4    4    0    0  0.85420391270E+00 -0.54642509373E+03 -0.54884334363E+03  0.77974803470E+03  0.90536561945E+02 0.  0.
          1    1    3    3  502    0 -0.47364236893E+03  0.61571369242E+03  0.54795894407E+03  0.95063107937E+03  0.00000000000E+00 0. -1.
         -2    1    3    3    0  502 -0.10025584618E+03  0.11149064129E+03  0.14741315390E+03  0.21026658253E+03  0.00000000000E+00 0.  1.
         11    1    5    5    0    0  0.54369281119E+03 -0.18946820837E+03  0.46909446559E+02  0.57766821888E+03  0.00000000000E+00 0.  1.
        -11    1    5    5    0    0  0.29351200006E+02  0.86889683977E+01 -0.80249526217E+01  0.31644762255E+02  0.00000000000E+00 0. -1.
          2    1    6    6  503    0 -0.22020271734E+02 -0.30563516477E+03 -0.36087973206E+03  0.47342573581E+03  0.00000000000E+00 0. -1.
         -2    1    6    6    0  503  0.22874475647E+02 -0.24078992896E+03 -0.18796361156E+03  0.30632229889E+03  0.00000000000E+00 0.  1.
<mgrwt>
<rscale>  0 0.25432088E+04</rscale>
<asrwt>0</asrwt>
<pdfrwt beam="1">  1        1 0.21041322E+00 0.25432088E+04</pdfrwt>
<pdfrwt beam="2">  1       -2 0.18188811E+00 0.25432088E+04</pdfrwt>
<totfact> 0.11070258E+00</totfact>
</mgrwt>
</event>
<event>
12    4  0.4398275E-008  0.1951494E+04  0.7818608E-02  0.8629641E-01
          1   -1    0    0  501    0  0.00000000000E+00  0.00000000000E+00  0.37787225684E+04  0.37787225684E+04  0.00000000000E+00 0. -1.
         -2   -1    0    0    0  501 -0.00000000000E+00 -0.00000000000E+00 -0.25195884694E+03  0.25195884694E+03  0.00000000000E+00 0.  1.
        -24    2    1    2    0    0  0.18636398394E+03 -0.62698472071E+03  0.21984972664E+04  0.22952558881E+04  0.83474467882E+02 0.  0.
        254    2    1    2    0    0 -0.18636398394E+03  0.62698472071E+03  0.13282664550E+04  0.17354255273E+04  0.90530028750E+03 0.  0.
         23    2    4    4    0    0  0.22764067858E+03  0.20784545883E+02  0.38159204271E+02  0.24759276153E+03  0.87142267603E+02 0.  0.
         23    2    4    4    0    0 -0.41400466252E+03  0.60620017483E+03  0.12901072508E+04  0.14878327657E+04  0.10193678291E+03 0.  0.
          1    1    3    3  502    0  0.73336339490E+02 -0.36225955179E+03  0.13226109664E+04  0.13732843733E+04  0.00000000000E+00 0. -1.
         -2    1    3    3    0  502  0.11302764445E+03 -0.26472516893E+03  0.87588630003E+03  0.92197151477E+03  0.00000000000E+00 0.  1.
         11    1    5    5    0    0  0.21651733997E+03  0.18295152397E+02  0.10346678952E+02  0.21753511182E+03  0.00000000000E+00 0.  1.
        -11    1    5    5    0    0  0.11123338606E+02  0.24893934866E+01  0.27812525320E+02  0.30057649714E+02  0.00000000000E+00 0. -1.
          2    1    6    6  503    0 -0.22965286335E+03  0.35343820862E+03  0.63942242406E+03  0.76584596450E+03  0.00000000000E+00 0. -1.
         -2    1    6    6    0  503 -0.18435179917E+03  0.25276196622E+03  0.65068482671E+03  0.72198680122E+03  0.00000000000E+00 0.  1.
<mgrwt>
<rscale>  0 0.19514944E+04</rscale>
<asrwt>0</asrwt>
<pdfrwt beam="1">  1        1 0.58134189E+00 0.19514944E+04</pdfrwt>
<pdfrwt beam="2">  1       -2 0.38762902E-01 0.19514944E+04</pdfrwt>
<totfact> 0.76960124E-01</totfact>
</mgrwt>
</event>
<event>
12    4  0.4398275E-008  0.2245879E+04  0.7818608E-02  0.8499571E-01
         -2   -1    0    0    0  501 -0.00000000000E+00  0.00000000000E+00  0.13850639787E+04  0.13850639787E+04  0.00000000000E+00 0.  1.
          1   -1    0    0  501    0  0.00000000000E+00 -0.00000000000E+00 -0.91042252315E+03  0.91042252315E+03  0.00000000000E+00 0. -1.
        -24    2    1    2    0    0  0.33779750014E+03  0.67985781032E+03  0.77802976798E+03  0.10899605990E+04  0.79812243200E+02 0.  0.
        254    2    1    2    0    0 -0.33779750014E+03 -0.67985781032E+03 -0.30338831245E+03  0.12055259028E+04  0.88596525944E+03 0.  0.
         23    2    4    4    0    0  0.48975229967E+02 -0.72821001831E+03 -0.32724871852E+03  0.80514364604E+03  0.92066079899E+02 0.  0.
         23    2    4    4    0    0 -0.38677273010E+03  0.48352207988E+02  0.23860406070E+02  0.40038225680E+03  0.88349034043E+02 0.  0.
          3    1    3    3  502    0  0.29761563145E+02  0.10611732577E+03  0.86731965228E+02  0.14024646613E+03  0.00000000000E+00 0. -1.
         -4    1    3    3    0  502  0.30803593699E+03  0.57374048454E+03  0.69129780275E+03  0.94971413287E+03  0.00000000000E+00 0.  1.
         11    1    5    5    0    0  0.66206307288E+02 -0.63851232997E+03 -0.30709027998E+03  0.71160783491E+03  0.00000000000E+00 0.  1.
        -11    1    5    5    0    0 -0.17231077321E+02 -0.89697688333E+02 -0.20158438539E+02  0.93535811122E+02  0.00000000000E+00 0. -1.
          3    1    6    6  503    0 -0.31046785505E+02 -0.20675368840E+02  0.29722429418E+01  0.37419353214E+02  0.00000000000E+00 0. -1.
         -3    1    6    6    0  503 -0.35572594460E+03  0.69027576828E+02  0.20888163129E+02  0.36296290359E+03  0.00000000000E+00 0.  1.
<mgrwt>
<rscale>  0 0.22458793E+04</rscale>
<asrwt>0</asrwt>
<pdfrwt beam="1">  1        1 0.14006500E+00 0.22458793E+04</pdfrwt>
<pdfrwt beam="2">  1       -2 0.21308677E+00 0.22458793E+04</pdfrwt>
<totfact> 0.15534807E+00</totfact>
</mgrwt>
</event>
<event>
12    4  0.4398275E-008  0.1542722E+04  0.7818608E-02  0.8856530E-01
          1   -1    0    0  501    0  0.00000000000E+00  0.00000000000E+00  0.15205042470E+04  0.15205042470E+04  0.00000000000E+00 0. -1.
         -4   -1    0    0    0  501 -0.00000000000E+00 -0.00000000000E+00 -0.39131625188E+03  0.39131625188E+03  0.00000000000E+00 0.  1.
        -24    2    1    2    0    0 -0.39796084314E+03 -0.25686406429E+03  0.54640903154E+03  0.72774974576E+03  0.81883346935E+02 0.  0.
        254    2    1    2    0    0  0.39796084314E+03  0.25686406429E+03  0.58277896361E+03  0.11840707532E+04  0.91544538223E+03 0.  0.
         23    2    4    4    0    0  0.22835169242E+03  0.38443265797E+03  0.76416041737E+03  0.89050515056E+03  0.95526518656E+02 0.  0.
         23    2    4    4    0    0  0.16960915072E+03 -0.12756859368E+03 -0.18138145375E+03  0.29356560259E+03  0.90777316313E+02 0.  0.
          1    1    3    3  502    0 -0.11038467872E+03 -0.97871761995E+02  0.12495623496E+03  0.19333318325E+03  0.00000000000E+00 0. -1.
         -2    1    3    3    0  502 -0.28757616442E+03 -0.15899230230E+03  0.42145279659E+03  0.53441656251E+03  0.00000000000E+00 0.  1.
         11    1    5    5    0    0  0.20276975652E+03  0.34364351980E+03  0.72841582447E+03  0.83053961748E+03  0.00000000000E+00 0. -1.
        -11    1    5    5    0    0  0.25581935892E+02  0.40789138177E+02  0.35744592894E+02  0.59965533087E+02  0.00000000000E+00 0.  1.
          3    1    6    6  503    0  0.14866188884E+03 -0.99893218284E+02 -0.18639113629E+03  0.25849693990E+03  0.00000000000E+00 0. -1.
         -3    1    6    6    0  503  0.20947261882E+02 -0.27675375395E+02  0.50096825345E+01  0.35068662688E+02  0.00000000000E+00 0.  1.
<mgrwt>
<rscale>  0 0.15427223E+04</rscale>
<asrwt>0</asrwt>
<pdfrwt beam="1">  1        1 0.23392373E+00 0.15427223E+04</pdfrwt>
<pdfrwt beam="2">  1       -4 0.60202501E-01 0.15427223E+04</pdfrwt>
<totfact> 0.78018076E+00</totfact>
</mgrwt>
</event>
<event>
12    4  0.4398275E-008  0.1991370E+04  0.7818608E-02  0.8610666E-01
         -2   -1    0    0    0  501 -0.00000000000E+00  0.00000000000E+00  0.33215319905E+04  0.33215319905E+04  0.00000000000E+00 0.  1.
          1   -1    0    0  501    0  0.00000000000E+00 -0.00000000000E+00 -0.29847342509E+03  0.29847342509E+03  0.00000000000E+00 0. -1.
        -24    2    1    2    0    0 -0.73249767834E+03  0.27030768900E+03  0.97888680346E+03  0.12548818351E+04  0.83005726333E+02 0.  0.
        254    2    1    2    0    0  0.73249767834E+03 -0.27030768900E+03  0.20441717620E+04  0.23651235805E+04  0.89752563364E+03 0.  0.
         23    2    4    4    0    0  0.24955340480E+03 -0.24847440636E+03  0.12616429401E+03  0.38507865074E+03  0.91387667144E+02 0.  0.
         23    2    4    4    0    0  0.48294427354E+03 -0.21833282633E+02  0.19180074680E+04  0.19800449298E+04  0.90074486371E+02 0.  0.
          1    1    3    3  502    0 -0.75771110391E+02  0.35308314834E+02  0.68918861432E+02  0.10834088668E+03  0.00000000000E+00 0. -1.
         -2    1    3    3    0  502 -0.65672656795E+03  0.23499937416E+03  0.90996794202E+03  0.11465409484E+04  0.00000000000E+00 0.  1.
         11    1    5    5    0    0  0.13452976440E+03 -0.11405804763E+03  0.10899608333E+03  0.20733461342E+03  0.00000000000E+00 0.  1.
        -11    1    5    5    0    0  0.11502364041E+03 -0.13441635873E+03  0.17168210681E+02  0.17774403733E+03  0.00000000000E+00 0. -1.
          2    1    6    6  503    0  0.18861367509E+03 -0.35545497414E+02  0.62072694487E+03  0.64972343417E+03  0.00000000000E+00 0. -1.
         -2    1    6    6    0  503  0.29433059845E+03  0.13712214781E+02  0.12972805231E+04  0.13303214956E+04  0.00000000000E+00 0.  1.
<mgrwt>
<rscale>  0 0.19913704E+04</rscale>
<asrwt>0</asrwt>
<pdfrwt beam="1">  1        1 0.45918991E-01 0.19913704E+04</pdfrwt>
<pdfrwt beam="2">  1       -2 0.51100490E+00 0.19913704E+04</pdfrwt>
<totfact> 0.10071032E-01</totfact>
</mgrwt>
</event>
<event>
12    4  0.4398275E-008  0.1147367E+04  0.7818608E-02  0.9160216E-01
          1   -1    0    0  501    0  0.00000000000E+00  0.00000000000E+00  0.10529181255E+04  0.10529181255E+04  0.00000000000E+00 0. -1.
         -2   -1    0    0    0  501 -0.00000000000E+00 -0.00000000000E+00 -0.31257196480E+03  0.31257196480E+03  0.00000000000E+00 0.  1.
        -24    2    1    2    0    0 -0.67486320592E+02  0.16964823734E+03  0.28971906951E+03  0.35315623897E+03  0.86297520187E+02 0.  0.
        254    2    1    2    0    0  0.67486320592E+02 -0.16964823734E+03  0.45062709121E+03  0.10123338513E+04  0.88793024689E+03 0.  0.
         23    2    4    4    0    0  0.18894436096E+03  0.29595966162E+03  0.25981000608E+02  0.36405062374E+03  0.92551344697E+02 0.  0.
         23    2    4    4    0    0 -0.12145804037E+03 -0.46560789897E+03  0.42464609060E+03  0.64828322760E+03  0.91673713674E+02 0.  0.
          3    1    3    3  502    0 -0.65971118658E+02  0.16340257947E+03  0.29579825190E+03  0.34430974035E+03  0.00000000000E+00 0. -1.
         -4    1    3    3    0  502 -0.15152019339E+01  0.62456578752E+01 -0.60791823981E+01  0.88464986194E+01  0.00000000000E+00 0.  1.
         11    1    5    5    0    0  0.12131827187E+03  0.15046147384E+03  0.55108406434E+02  0.20098187644E+03  0.00000000000E+00 0. -1.
        -11    1    5    5    0    0  0.67626089092E+02  0.14549818778E+03 -0.29127405827E+02  0.16306874730E+03  0.00000000000E+00 0.  1.
          1    1    6    6  503    0 -0.45437014046E+02 -0.76342887185E+02  0.46449770423E+02  0.10025138324E+03  0.00000000000E+00 0. -1.
         -1    1    6    6    0  503 -0.76021026323E+02 -0.38926501178E+03  0.37819632018E+03  0.54803184436E+03  0.00000000000E+00 0.  1.
<mgrwt>
<rscale>  0 0.11473669E+04</rscale>
<asrwt>0</asrwt>
<pdfrwt beam="1">  1        1 0.16198740E+00 0.11473669E+04</pdfrwt>
<pdfrwt beam="2">  1       -2 0.48087995E-01 0.11473669E+04</pdfrwt>
<totfact> 0.49117838E+01</totfact>
</mgrwt>
</event>
<event>
12    4  0.4398275E-008  0.1136312E+04  0.7818608E-02  0.9170505E-01
          1   -1    0    0  501    0  0.00000000000E+00  0.00000000000E+00  0.14452679682E+04  0.14452679682E+04  0.00000000000E+00 0. -1.
         -2   -1    0    0    0  501 -0.00000000000E+00 -0.00000000000E+00 -0.22335046618E+03  0.22335046618E+03  0.00000000000E+00 0.  1.
        -24    2    1    2    0    0 -0.47085583148E+01 -0.13973591806E+03  0.43285534196E+03  0.46209438705E+03  0.81358331835E+02 0.  0.
        254    2    1    2    0    0  0.47085583148E+01  0.13973591806E+03  0.78906216008E+03  0.12065240474E+04  0.90196057955E+03 0.  0.
         23    2    4    4    0    0  0.38545028625E+02  0.41965679592E+03  0.80124950347E+03  0.90986594586E+03  0.90872036493E+02 0.  0.
         23    2    4    4    0    0 -0.33836470310E+02 -0.27992087786E+03 -0.12187343394E+02  0.29665810150E+03  0.91416044889E+02 0.  0.
          1    1    3    3  502    0 -0.18890385954E+02 -0.13713216689E+03  0.42177406792E+03  0.44390927254E+03  0.00000000000E+00 0. -1.
         -2    1    3    3    0  502  0.14181827640E+02 -0.26037511693E+01  0.11081274049E+02  0.18185114514E+02  0.00000000000E+00 0.  1.
         11    1    5    5    0    0  0.54313988518E+02  0.18092304040E+03  0.40696702151E+03  0.44867060578E+03  0.00000000000E+00 0. -1.
        -11    1    5    5    0    0 -0.15768959894E+02  0.23873375553E+03  0.39428248196E+03  0.46119534007E+03  0.00000000000E+00 0.  1.
          2    1    6    6  503    0 -0.21844156660E+02 -0.76596930017E+01  0.46604130856E+01  0.23612656081E+02  0.00000000000E+00 0. -1.
         -2    1    6    6    0  503 -0.11992313650E+02 -0.27226118486E+03 -0.16847756480E+02  0.27304544542E+03  0.00000000000E+00 0.  1.
<mgrwt>
<rscale>  0 0.11363121E+04</rscale>
<asrwt>0</asrwt>
<pdfrwt beam="1">  1        1 0.22234891E+00 0.11363121E+04</pdfrwt>
<pdfrwt beam="2">  1       -2 0.34361611E-01 0.11363121E+04</pdfrwt>
<totfact> 0.49418969E+01</totfact>
</mgrwt>
</event>
<event>
12    4  0.4398275E-008  0.1158815E+04  0.7818608E-02  0.9149690E-01
         -2   -1    0    0    0  501 -0.00000000000E+00  0.00000000000E+00  0.55680200231E+03  0.55680200231E+03  0.00000000000E+00 0.  1.
          1   -1    0    0  501    0  0.00000000000E+00 -0.00000000000E+00 -0.60293056090E+03  0.60293056090E+03  0.00000000000E+00 0. -1.
        -24    2    1    2    0    0 -0.10757810565E+03  0.15684397581E+02 -0.17212560466E+03  0.21853910051E+03  0.79454801800E+02 0.  0.
        254    2    1    2    0    0  0.10757810565E+03 -0.15684397581E+02  0.12599704607E+03  0.94119346270E+03  0.92636430710E+03 0.  0.
         23    2    4    4    0    0  0.10888273419E+03  0.43838073602E+03  0.12737478147E+03  0.47815629131E+03  0.91520404527E+02 0.  0.
         23    2    4    4    0    0 -0.13046285384E+01 -0.45406513360E+03 -0.13777354014E+01  0.46303717139E+03  0.90690001235E+02 0.  0.
          3    1    3    3  502    0  0.90491100488E+00 -0.20299155724E+02 -0.24085215718E+02  0.31511461458E+02  0.00000000000E+00 0. -1.
         -4    1    3    3    0  502 -0.10848301666E+03  0.35983553305E+02 -0.14804038894E+03  0.18702763905E+03  0.00000000000E+00 0.  1.
         11    1    5    5    0    0  0.11106172106E+03  0.40185114790E+03  0.91353052655E+02  0.42680725297E+03  0.00000000000E+00 0. -1.
        -11    1    5    5    0    0 -0.21789868673E+01  0.36529588118E+02  0.36021728816E+02  0.51349038343E+02  0.00000000000E+00 0.  1.
          2    1    6    6  503    0  0.44524923422E+02 -0.22317368218E+03 -0.46262323240E+01  0.22761889914E+03  0.00000000000E+00 0. -1.
         -2    1    6    6    0  503 -0.45829551961E+02 -0.23089145143E+03  0.32484969226E+01  0.23541827225E+03  0.00000000000E+00 0.  1.
<mgrwt>
<rscale>  0 0.11588148E+04</rscale>
<asrwt>0</asrwt>
<pdfrwt beam="1">  1        1 0.92758547E-01 0.11588148E+04</pdfrwt>
<pdfrwt beam="2">  1       -2 0.85661847E-01 0.11588148E+04</pdfrwt>
<totfact> 0.34982773E+01</totfact>
</mgrwt>
</event>
<event>
12    4  0.4398275E-008  0.1582863E+04  0.7818608E-02  0.8831146E-01
          1   -1    0    0  501    0  0.00000000000E+00  0.00000000000E+00  0.85630162179E+03  0.85630162179E+03  0.00000000000E+00 0. -1.
         -2   -1    0    0    0  501 -0.00000000000E+00 -0.00000000000E+00 -0.73147541647E+03  0.73147541647E+03  0.00000000000E+00 0.  1.
        -24    2    1    2    0    0 -0.11177411209E+02 -0.16541400773E+03  0.54910259162E+03  0.57915235871E+03  0.80106616441E+02 0.  0.
        254    2    1    2    0    0  0.11177411209E+02  0.16541400773E+03 -0.42427638630E+03  0.10086246795E+04  0.89990364136E+03 0.  0.
         23    2    4    4    0    0  0.10622890367E+03 -0.24362451257E+03  0.12822574918E+03  0.30870529297E+03  0.90662186468E+02 0.  0.
         23    2    4    4    0    0 -0.95051492460E+02  0.40903852030E+03 -0.55250213549E+03  0.69991938657E+03  0.91001322398E+02 0.  0.
          1    1    3    3  502    0  0.13329421699E+02 -0.44879869751E+02  0.27169000867E+03  0.27569428177E+03  0.00000000000E+00 0. -1.
         -2    1    3    3    0  502 -0.24506832908E+02 -0.12053413798E+03  0.27741258296E+03  0.30345807694E+03  0.00000000000E+00 0.  1.
         11    1    5    5    0    0  0.91167505731E+02 -0.10808948234E+03  0.87906250593E+02  0.16650032789E+03  0.00000000000E+00 0. -1.
        -11    1    5    5    0    0  0.15061397938E+02 -0.13553503023E+03  0.40319498591E+02  0.14220496508E+03  0.00000000000E+00 0.  1.
          2    1    6    6  503    0 -0.83337408785E+02  0.22635425854E+03 -0.36804736853E+03  0.44004572438E+03  0.00000000000E+00 0. -1.
         -2    1    6    6    0  503 -0.11714083675E+02  0.18268426175E+03 -0.18445476696E+03  0.25987366220E+03  0.00000000000E+00 0.  1.
<mgrwt>
<rscale>  0 0.15828627E+04</rscale>
<asrwt>0</asrwt>
<pdfrwt beam="1">  1        1 0.13173871E+00 0.15828627E+04</pdfrwt>
<pdfrwt beam="2">  1       -2 0.11253468E+00 0.15828627E+04</pdfrwt>
<totfact> 0.10354109E+01</totfact>
</mgrwt>
</event>
<event>
12    4  0.4398275E-008  0.1387788E+04  0.7818608E-02  0.8962706E-01
          1   -1    0    0  501    0  0.00000000000E+00  0.00000000000E+00  0.21345655969E+04  0.21345655969E+04  0.00000000000E+00 0. -1.
         -2   -1    0    0    0  501 -0.00000000000E+00 -0.00000000000E+00 -0.22556767312E+03  0.22556767312E+03  0.00000000000E+00 0.  1.
        -24    2    1    2    0    0 -0.26780674502E+03 -0.25552283361E+02  0.10251967054E+04  0.10628647731E+04  0.79245626353E+02 0.  0.
        254    2    1    2    0    0  0.26780674502E+03  0.25552283361E+02  0.88380121840E+03  0.12972684969E+04  0.91072915164E+03 0.  0.
         23    2    4    4    0    0  0.18616597737E+03 -0.28714161206E+03  0.32762336637E+01  0.35503340505E+03  0.94498193059E+02 0.  0.
         23    2    4    4    0    0  0.81640767645E+02  0.31269389542E+03  0.88052498474E+03  0.94223509188E+03  0.89666228090E+02 0.  0.
          3    1    3    3  502    0 -0.24647930745E+03 -0.22278160951E+02  0.99756945113E+03  0.10278098926E+04  0.00000000000E+00 0. -1.
         -4    1    3    3    0  502 -0.21327437570E+02 -0.32741224104E+01  0.27627254287E+02  0.35054880549E+02  0.00000000000E+00 0.  1.
         11    1    5    5    0    0  0.18915457103E+03 -0.26003599542E+03 -0.15492491926E+02  0.32192885543E+03  0.00000000000E+00 0.  1.
        -11    1    5    5    0    0 -0.29885936544E+01 -0.27105616639E+02  0.18768725590E+02  0.33104549622E+02  0.00000000000E+00 0. -1.
          3    1    6    6  503    0  0.23544144022E+01  0.97175004546E+02  0.17378267140E+03  0.19912041998E+03  0.00000000000E+00 0. -1.
         -3    1    6    6    0  503  0.79286353243E+02  0.21551889087E+03  0.70674231334E+03  0.74311467190E+03  0.00000000000E+00 0.  1.
<mgrwt>
<rscale>  0 0.13877882E+04</rscale>
<asrwt>0</asrwt>
<pdfrwt beam="1">  1        1 0.32839469E+00 0.13877882E+04</pdfrwt>
<pdfrwt beam="2">  1       -2 0.34702720E-01 0.13877882E+04</pdfrwt>
<totfact> 0.16131858E+01</totfact>
</mgrwt>
</event>
<event>
12    4  0.4398275E-008  0.1528737E+04  0.7818608E-02  0.8865565E-01
         -2   -1    0    0    0  501 -0.00000000000E+00  0.00000000000E+00  0.28678382857E+04  0.28678382857E+04  0.00000000000E+00 0.  1.
          1   -1    0    0  501    0  0.00000000000E+00 -0.00000000000E+00 -0.20372810697E+03  0.20372810697E+03  0.00000000000E+00 0. -1.
        -24    2    1    2    0    0  0.11653216594E+03  0.16575948784E+03 -0.33386943861E+02  0.22147835253E+03  0.82957935804E+02 0.  0.
        254    2    1    2    0    0 -0.11653216594E+03 -0.16575948784E+03  0.26974971226E+04  0.28500880401E+04  0.89747153525E+03 0.  0.
         23    2    4    4    0    0 -0.54030401292E+02 -0.51925041226E+03  0.18646642249E+04  0.19384909118E+04  0.90741768821E+02 0.  0.
         23    2    4    4    0    0 -0.62501764653E+02  0.35349092442E+03  0.83283289767E+03  0.91159712830E+03  0.92392557416E+02 0.  0.
          1    1    3    3  502    0  0.10822364489E+03  0.11132514514E+03  0.33285444850E+01  0.15529560349E+03  0.00000000000E+00 0. -1.
         -2    1    3    3    0  502  0.83085210544E+01  0.54434342697E+02 -0.36715488346E+02  0.66182749047E+02  0.00000000000E+00 0.  1.
         11    1    5    5    0    0 -0.78728732049E+02 -0.35168926076E+03  0.12872973992E+04  0.13367939794E+04  0.00000000000E+00 0.  1.
        -11    1    5    5    0    0  0.24698330757E+02 -0.16756115150E+03  0.57736682570E+03  0.60169693240E+03  0.00000000000E+00 0. -1.
          1    1    6    6  503    0 -0.51131387802E+02  0.69621425610E+02  0.20694839664E+03  0.22425253755E+03  0.00000000000E+00 0. -1.
         -1    1    6    6    0  503 -0.11370376850E+02  0.28386949881E+03  0.62588450102E+03  0.68734459076E+03  0.00000000000E+00 0.  1.
<mgrwt>
<rscale>  0 0.15287371E+04</rscale>
<asrwt>0</asrwt>
<pdfrwt beam="1">  1        1 0.31342788E-01 0.15287371E+04</pdfrwt>
<pdfrwt beam="2">  1       -2 0.44120586E+00 0.15287371E+04</pdfrwt>
<totfact> 0.48947780E-01</totfact>
</mgrwt>
</event>
<event>
12    4  0.4398275E-008  0.2249194E+04  0.7818608E-02  0.8498227E-01
          1   -1    0    0  501    0  0.00000000000E+00  0.00000000000E+00  0.32569891207E+04  0.32569891207E+04  0.00000000000E+00 0. -1.
         -2   -1    0    0    0  501 -0.00000000000E+00 -0.00000000000E+00 -0.38830915615E+03  0.38830915615E+03  0.00000000000E+00 0.  1.
        -24    2    1    2    0    0 -0.62683308688E+03  0.37402110526E+03  0.24081664466E+03  0.77277093073E+03  0.79816972154E+02 0.  0.
        254    2    1    2    0    0  0.62683308688E+03 -0.37402110526E+03  0.26278633199E+04  0.28725273461E+04  0.90162975779E+03 0.  0.
         23    2    4    4    0    0 -0.84531511412E+02 -0.13347055750E+03  0.15205972955E+04  0.15314880912E+04  0.90992704212E+02 0.  0.
         23    2    4    4    0    0  0.71136459830E+03 -0.24055054776E+03  0.11072660244E+04  0.13410392549E+04  0.91891657655E+02 0.  0.
          3    1    3    3  502    0 -0.38018392779E+03  0.21374871775E+03  0.18303604106E+03  0.47300161270E+03  0.00000000000E+00 0. -1.
         -4    1    3    3    0  502 -0.24664915910E+03  0.16027238751E+03  0.57780603599E+02  0.29976931803E+03  0.00000000000E+00 0.  1.
         11    1    5    5    0    0 -0.79959587861E+02 -0.72852311312E+02  0.12212115020E+04  0.12259928742E+04  0.00000000000E+00 0. -1.
        -11    1    5    5    0    0 -0.45719235510E+01 -0.60618246186E+02  0.29938579349E+03  0.30549521699E+03  0.00000000000E+00 0.  1.
          1    1    6    6  503    0  0.70636628213E+03 -0.23197014980E+03  0.10733296730E+04  0.13056799232E+04  0.00000000000E+00 0. -1.
         -1    1    6    6    0  503  0.49983161705E+01 -0.85803979637E+01  0.33936351416E+02  0.35359331741E+02  0.00000000000E+00 0.  1.
<mgrwt>
<rscale>  0 0.22491943E+04</rscale>
<asrwt>0</asrwt>
<pdfrwt beam="1">  1        1 0.50107523E+00 0.22491943E+04</pdfrwt>
<pdfrwt beam="2">  1       -2 0.59739872E-01 0.22491943E+04</pdfrwt>
<totfact> 0.80422618E-01</totfact>
</mgrwt>
</event>
<event>
12    4  0.4398275E-008  0.1472738E+04  0.7818608E-02  0.8902787E-01
          1   -1    0    0  501    0  0.00000000000E+00  0.00000000000E+00  0.77557754507E+03  0.77557754507E+03  0.00000000000E+00 0. -1.
         -2   -1    0    0    0  501 -0.00000000000E+00 -0.00000000000E+00 -0.69914284601E+03  0.69914284601E+03  0.00000000000E+00 0.  1.
        -24    2    1    2    0    0 -0.18458496193E+03 -0.96516226081E+02 -0.38452448588E+03  0.44448871789E+03  0.79524524695E+02 0.  0.
        254    2    1    2    0    0  0.18458496193E+03  0.96516226081E+02  0.46095918493E+03  0.10302316732E+04  0.89750038451E+03 0.  0.
         23    2    4    4    0    0 -0.14953381013E+03  0.14934752371E+03 -0.18482614941E+03  0.29533301798E+03  0.91628831661E+02 0.  0.
         23    2    4    4    0    0  0.33411877206E+03 -0.52831297631E+02  0.64578533434E+03  0.73489865521E+03  0.92794587826E+02 0.  0.
          3    1    3    3  502    0 -0.46785617119E+02 -0.19205230202E+01 -0.40094450415E+02  0.61645335038E+02  0.00000000000E+00 0. -1.
         -2    1    3    3    0  502 -0.13779934481E+03 -0.94595703061E+02 -0.34443003546E+03  0.38284338286E+03  0.00000000000E+00 0.  1.
         11    1    5    5    0    0 -0.90322522203E+02  0.73857795051E+02 -0.43505370422E+02  0.12452248457E+03  0.00000000000E+00 0. -1.
        -11    1    5    5    0    0 -0.59211287931E+02  0.75489728661E+02 -0.14132077899E+03  0.17081053341E+03  0.00000000000E+00 0.  1.
          2    1    6    6  503    0  0.81410499175E+02  0.19372482395E+01  0.86884968395E+02  0.11908156885E+03  0.00000000000E+00 0. -1.
         -2    1    6    6    0  503  0.25270827289E+03 -0.54768545871E+02  0.55890036594E+03  0.61581708636E+03  0.00000000000E+00 0.  1.
<mgrwt>
<rscale>  0 0.14727383E+04</rscale>
<asrwt>0</asrwt>
<pdfrwt beam="1">  1        1 0.11931962E+00 0.14727383E+04</pdfrwt>
<pdfrwt beam="2">  1       -2 0.10756044E+00 0.14727383E+04</pdfrwt>
<totfact> 0.13684411E+01</totfact>
</mgrwt>
</event>
<event>
12    4  0.4398275E-008  0.1460923E+04  0.7818608E-02  0.8910862E-01
         -4   -1    0    0    0  501 -0.00000000000E+00  0.00000000000E+00  0.11613461375E+04  0.11613461375E+04  0.00000000000E+00 0.  1.
          3   -1    0    0  501    0  0.00000000000E+00 -0.00000000000E+00 -0.45944465550E+03  0.45944465550E+03  0.00000000000E+00 0. -1.
        -24    2    1    2    0    0 -0.25585515591E+03 -0.26261170922E+02  0.61847980471E+03  0.67443962506E+03  0.78740263590E+02 0.  0.
        254    2    1    2    0    0  0.25585515591E+03  0.26261170922E+02  0.83421677265E+02  0.94635116792E+03  0.90690123325E+03 0.  0.
         23    2    4    4    0    0 -0.20151187772E+03  0.32029645686E+03  0.61136211965E+02  0.39518976973E+03  0.96127314227E+02 0.  0.
         23    2    4    4    0    0  0.45736703363E+03 -0.29403528594E+03  0.22285465300E+02  0.55116139819E+03  0.87412196285E+02 0.  0.
          3    1    3    3  502    0 -0.52465062547E+02  0.69955021742E+01  0.64932090415E+02  0.83771690948E+02  0.00000000000E+00 0. -1.
         -4    1    3    3    0  502 -0.20339009337E+03 -0.33256673096E+02  0.55354771430E+03  0.59066793411E+03  0.00000000000E+00 0.  1.
         11    1    5    5    0    0 -0.90115814482E+01  0.80095997434E+02  0.29161184414E+02  0.85714363332E+02  0.00000000000E+00 0. -1.
        -11    1    5    5    0    0 -0.19250029627E+03  0.24020045943E+03  0.31975027551E+02  0.30947540639E+03  0.00000000000E+00 0.  1.
          4    1    6    6  503    0  0.30759761525E+03 -0.18877865557E+03 -0.26003959608E+02  0.36184234083E+03  0.00000000000E+00 0. -1.
         -4    1    6    6    0  503  0.14976941839E+03 -0.10525663037E+03  0.48289424909E+02  0.18931905736E+03  0.00000000000E+00 0.  1.
<mgrwt>
<rscale>  0 0.14609234E+04</rscale>
<asrwt>0</asrwt>
<pdfrwt beam="1">  1        3 0.70683794E-01 0.14609234E+04</pdfrwt>
<pdfrwt beam="2">  1       -4 0.17866864E+00 0.14609234E+04</pdfrwt>
<totfact> 0.77788665E-01</totfact>
</mgrwt>
</event>
<event>
12    4  0.4398275E-008  0.1874253E+04  0.7818608E-02  0.8667779E-01
          1   -1    0    0  501    0  0.00000000000E+00  0.00000000000E+00  0.21534051270E+04  0.21534051270E+04  0.00000000000E+00 0. -1.
         -2   -1    0    0    0  501 -0.00000000000E+00 -0.00000000000E+00 -0.40782218934E+03  0.40782218934E+03  0.00000000000E+00 0.  1.
        -24    2    1    2    0    0  0.41746772768E+03  0.36789538880E+03  0.19199516698E+03  0.59450192210E+03  0.83331089514E+02 0.  0.
        254    2    1    2    0    0 -0.41746772768E+03 -0.36789538880E+03  0.15535877706E+04  0.19667253942E+04  0.10699287333E+04 0.  0.
         23    2    4    4    0    0  0.24822283587E+03 -0.79962418596E+02  0.10331766615E+04  0.10692466540E+04  0.88463713101E+02 0.  0.
         23    2    4    4    0    0 -0.66569056355E+03 -0.28793297020E+03  0.52041110912E+03  0.89747874021E+03  0.92687889815E+02 0.  0.
          1    1    3    3  502    0  0.18804541187E+03  0.18903647377E+03  0.51985258738E+02  0.27165848499E+03  0.00000000000E+00 0. -1.
         -2    1    3    3    0  502  0.22942231581E+03  0.17885891502E+03  0.14000990824E+03  0.32284343710E+03  0.00000000000E+00 0.  1.
         11    1    5    5    0    0  0.18372039646E+03 -0.21569569889E+02  0.61995100790E+03  0.64696034084E+03  0.00000000000E+00 0.  1.
        -11    1    5    5    0    0  0.64502439403E+02 -0.58392848707E+02  0.41322565362E+03  0.42228631316E+03  0.00000000000E+00 0. -1.
          1    1    6    6  503    0 -0.10818813754E+02  0.34836530943E-01 -0.28009447733E+01  0.11175564248E+02  0.00000000000E+00 0. -1.
         -1    1    6    6    0  503 -0.65487174979E+03 -0.28796780673E+03  0.52321205389E+03  0.88630317597E+03  0.00000000000E+00 0.  1.
<mgrwt>
<rscale>  0 0.18742533E+04</rscale>
<asrwt>0</asrwt>
<pdfrwt beam="1">  1        1 0.33129309E+00 0.18742533E+04</pdfrwt>
<pdfrwt beam="2">  1       -2 0.62741876E-01 0.18742533E+04</pdfrwt>
<totfact> 0.45464989E+00</totfact>
</mgrwt>
</event>
<event>
12    4  0.4398275E-008  0.1090585E+04  0.7818608E-02  0.9214417E-01
         -2   -1    0    0    0  501 -0.00000000000E+00  0.00000000000E+00  0.28401396773E+03  0.28401396773E+03  0.00000000000E+00 0.  1.
          1   -1    0    0  501    0  0.00000000000E+00 -0.00000000000E+00 -0.10469337520E+04  0.10469337520E+04  0.00000000000E+00 0. -1.
        -24    2    1    2    0    0 -0.80648580534E+02 -0.13452647066E+03 -0.19373653251E+03  0.26093393649E+03  0.77143440005E+02 0.  0.
        254    2    1    2    0    0  0.80648580534E+02  0.13452647066E+03 -0.56918325176E+03  0.10700137832E+04  0.89238912889E+03 0.  0.
         23    2    4    4    0    0  0.46708205792E+03  0.12141294661E+02 -0.20765811796E+03  0.51947636834E+03  0.91764608875E+02 0.  0.
         23    2    4    4    0    0 -0.38643347738E+03  0.12238517600E+03 -0.36152513380E+03  0.55053741488E+03  0.89900272945E+02 0.  0.
          3    1    3    3  502    0 -0.54002649861E+02 -0.64710275236E+02 -0.47591832422E+02  0.96791985341E+02  0.00000000000E+00 0. -1.
         -4    1    3    3    0  502 -0.26645930674E+02 -0.69816195421E+02 -0.14614470009E+03  0.16414195115E+03  0.00000000000E+00 0.  1.
         11    1    5    5    0    0  0.38834516097E+03  0.30699970182E+02 -0.13977707451E+03  0.41387447708E+03  0.00000000000E+00 0.  1.
        -11    1    5    5    0    0  0.78736896946E+02 -0.18558675521E+02 -0.67881043445E+02  0.10560189126E+03  0.00000000000E+00 0. -1.
          2    1    6    6  503    0 -0.32135329481E+02  0.14314219956E+02 -0.34567324810E+01  0.35348625054E+02  0.00000000000E+00 0. -1.
         -2    1    6    6    0  503 -0.35429814790E+03  0.10807095604E+03 -0.35806840132E+03  0.51518878983E+03  0.00000000000E+00 0.  1.
<mgrwt>
<rscale>  0 0.10905848E+04</rscale>
<asrwt>0</asrwt>
<pdfrwt beam="1">  1        1 0.16106673E+00 0.10905848E+04</pdfrwt>
<pdfrwt beam="2">  1       -2 0.43694456E-01 0.10905848E+04</pdfrwt>
<totfact> 0.60399099E+01</totfact>
</mgrwt>
</event>
<event>
12    4  0.4398275E-008  0.1886210E+04  0.7818608E-02  0.8661751E-01
         -2   -1    0    0    0  501 -0.00000000000E+00  0.00000000000E+00  0.20274134337E+03  0.20274134337E+03  0.00000000000E+00 0.  1.
          1   -1    0    0  501    0  0.00000000000E+00 -0.00000000000E+00 -0.43871036983E+04  0.43871036983E+04  0.00000000000E+00 0. -1.
        -24    2    1    2    0    0 -0.37937583786E+03  0.45043887700E+03 -0.58618680661E+03  0.83497983440E+03  0.82189679099E+02 0.  0.
        254    2    1    2    0    0  0.37937583786E+03 -0.45043887700E+03 -0.35981755483E+04  0.37548652073E+04  0.89739859593E+03 0.  0.
         23    2    4    4    0    0 -0.23082629579E+03 -0.35522944467E+03 -0.11699793479E+04  0.12476728856E+04  0.91472498012E+02 0.  0.
         23    2    4    4    0    0  0.61020213365E+03 -0.95209432333E+02 -0.24281962004E+04  0.25071923216E+04  0.92005814582E+02 0.  0.
          1    1    3    3  502    0 -0.31685245479E+03  0.39528800904E+03 -0.53666798004E+03  0.73801125262E+03  0.00000000000E+00 0. -1.
         -2    1    3    3    0  502 -0.62523383073E+02  0.55150867967E+02 -0.49518826566E+02  0.96968581782E+02  0.00000000000E+00 0.  1.
         11    1    5    5    0    0 -0.84044085116E+02 -0.85050232020E+02 -0.23917026414E+03  0.26739365262E+03  0.00000000000E+00 0. -1.
        -11    1    5    5    0    0 -0.14678221068E+03 -0.27017921265E+03 -0.93080908372E+03  0.98027923300E+03  0.00000000000E+00 0.  1.
          1    1    6    6  503    0  0.60615026718E+03 -0.10372332848E+03 -0.23896412989E+04  0.24675012083E+04  0.00000000000E+00 0.  1.
         -1    1    6    6    0  503  0.40518664712E+01  0.85138961481E+01 -0.38554901533E+02  0.39691113385E+02  0.00000000000E+00 0. -1.
<mgrwt>
<rscale>  0 0.18862103E+04</rscale>
<asrwt>0</asrwt>
<pdfrwt beam="1">  1        1 0.67493901E+00 0.18862103E+04</pdfrwt>
<pdfrwt beam="2">  1       -2 0.31190977E-01 0.18862103E+04</pdfrwt>
<totfact> 0.33321151E-01</totfact>
</mgrwt>
</event>
<event>
12    4  0.4398275E-008  0.1267829E+04  0.7818608E-02  0.9055473E-01
          1   -1    0    0  501    0  0.00000000000E+00  0.00000000000E+00  0.67649797786E+03  0.67649797786E+03  0.00000000000E+00 0. -1.
         -2   -1    0    0    0  501 -0.00000000000E+00 -0.00000000000E+00 -0.59401156560E+03  0.59401156560E+03  0.00000000000E+00 0.  1.
        -24    2    1    2    0    0  0.17646406782E+03  0.12678704013E+03 -0.19270935309E+03  0.30116355285E+03  0.79674776540E+02 0.  0.
        254    2    1    2    0    0 -0.17646406782E+03 -0.12678704013E+03  0.27519576536E+03  0.96934599061E+03  0.90370593639E+03 0.  0.
         23    2    4    4    0    0 -0.26865098128E+03  0.24406276135E+03 -0.13797605297E+03  0.39936547765E+03  0.93356372700E+02 0.  0.
         23    2    4    4    0    0  0.92186913452E+02 -0.37084980149E+03  0.41317181833E+03  0.56998051296E+03  0.90215472193E+02 0.  0.
          3    1    3    3  502    0  0.78727821063E+02  0.19234355225E+02 -0.40077513036E+02  0.90411488658E+02  0.00000000000E+00 0. -1.
         -4    1    3    3    0  502  0.97736246761E+02  0.10755268491E+03 -0.15263184006E+03  0.21075206419E+03  0.00000000000E+00 0.  1.
         11    1    5    5    0    0 -0.12103780370E+03  0.16343668624E+03 -0.10133633434E+03  0.22722401500E+03  0.00000000000E+00 0.  1.
        -11    1    5    5    0    0 -0.14761317758E+03  0.80626075112E+02 -0.36639718628E+02  0.17214146265E+03  0.00000000000E+00 0. -1.
          2    1    6    6  503    0  0.90195844387E+01 -0.10991703004E+03  0.68800555777E+02  0.12998701040E+03  0.00000000000E+00 0. -1.
         -2    1    6    6    0  503  0.83167329013E+02 -0.26093277144E+03  0.34437126255E+03  0.43999350256E+03  0.00000000000E+00 0.  1.
<mgrwt>
<rscale>  0 0.12678290E+04</rscale>
<asrwt>0</asrwt>
<pdfrwt beam="1">  1        1 0.10407661E+00 0.12678290E+04</pdfrwt>
<pdfrwt beam="2">  1       -2 0.91386395E-01 0.12678290E+04</pdfrwt>
<totfact> 0.25241491E+01</totfact>
</mgrwt>
</event>
<event>
12    4  0.4398275E-008  0.1560187E+04  0.7818608E-02  0.8845387E-01
         -2   -1    0    0    0  501 -0.00000000000E+00  0.00000000000E+00  0.78104677300E+03  0.78104677300E+03  0.00000000000E+00 0.  1.
          1   -1    0    0  501    0  0.00000000000E+00 -0.00000000000E+00 -0.77914171425E+03  0.77914171425E+03  0.00000000000E+00 0. -1.
        -24    2    1    2    0    0 -0.27504974391E+03 -0.22076847133E+03  0.37457641879E+03  0.52059591762E+03  0.79508090008E+02 0.  0.
        254    2    1    2    0    0  0.27504974391E+03  0.22076847133E+03 -0.37267136004E+03  0.10395925696E+04  0.90414472772E+03 0.  0.
         23    2    4    4    0    0  0.42844831266E+03 -0.15721922441E+03  0.20268414466E+02  0.46584514609E+03  0.91186898004E+02 0.  0.
         23    2    4    4    0    0 -0.15339856875E+03  0.37798769574E+03 -0.39293977450E+03  0.57374742353E+03  0.91534805362E+02 0.  0.
          1    1    3    3  502    0 -0.40770785304E+01  0.63321043150E+00  0.27261789610E+02  0.27572245058E+02  0.00000000000E+00 0. -1.
         -4    1    3    3    0  502 -0.27097266538E+03 -0.22140168176E+03  0.34731462918E+03  0.49302367257E+03  0.00000000000E+00 0.  1.
         11    1    5    5    0    0 -0.25898437973E+01 -0.58867659285E+00  0.65029117624E+01  0.70243642001E+01  0.00000000000E+00 0. -1.
        -11    1    5    5    0    0  0.43103815645E+03 -0.15663054782E+03  0.13765502704E+02  0.45882078189E+03  0.00000000000E+00 0.  1.
          4    1    6    6  503    0 -0.12936774630E+03  0.20266773273E+03 -0.21014084670E+03  0.31932647733E+03  0.00000000000E+00 0. -1.
         -4    1    6    6    0  503 -0.24030822448E+02  0.17531996301E+03 -0.18279892781E+03  0.25442094620E+03  0.00000000000E+00 0.  1.
<mgrwt>
<rscale>  0 0.15601873E+04</rscale>
<asrwt>0</asrwt>
<pdfrwt beam="1">  1        1 0.11986796E+00 0.15601873E+04</pdfrwt>
<pdfrwt beam="2">  1       -2 0.12016104E+00 0.15601873E+04</pdfrwt>
<totfact> 0.10290633E+01</totfact>
</mgrwt>
</event>
<event>
12    4  0.4398275E-008  0.1277468E+04  0.7818608E-02  0.9047626E-01
         -4   -1    0    0    0  501 -0.00000000000E+00  0.00000000000E+00  0.64883543070E+03  0.64883543070E+03  0.00000000000E+00 0.  1.
          3   -1    0    0  501    0  0.00000000000E+00 -0.00000000000E+00 -0.62879027936E+03  0.62879027936E+03  0.00000000000E+00 0. -1.
        -24    2    1    2    0    0  0.15336782177E+03 -0.12748866588E+03 -0.24616792575E+03  0.32607881704E+03  0.77160213659E+02 0.  0.
        254    2    1    2    0    0 -0.15336782177E+03  0.12748866588E+03  0.26621307709E+03  0.95154689302E+03  0.89151390260E+03 0.  0.
         23    2    4    4    0    0 -0.11054825572E+03 -0.31694719816E+03  0.34423176538E+03  0.48936638101E+03  0.91145506206E+02 0.  0.
         23    2    4    4    0    0 -0.42819566042E+02  0.44443586405E+03 -0.78018688292E+02  0.46218051201E+03  0.90372326936E+02 0.  0.
          1    1    3    3  502    0  0.14648584647E+03 -0.13792527402E+03 -0.22883547203E+03  0.30470831575E+03  0.00000000000E+00 0. -1.
         -2    1    3    3    0  502  0.68819752947E+01  0.10436608135E+02 -0.17332453719E+02  0.21370501287E+02  0.00000000000E+00 0.  1.
         11    1    5    5    0    0 -0.21076139307E+01 -0.10601602927E+03  0.71284607169E+02  0.12777063715E+03  0.00000000000E+00 0.  1.
        -11    1    5    5    0    0 -0.10844064179E+03 -0.21093116889E+03  0.27294715821E+03  0.36159574386E+03  0.00000000000E+00 0. -1.
          4    1    6    6  503    0  0.21614949307E+02  0.24403863442E+03 -0.45460229263E+02  0.24917602928E+03  0.00000000000E+00 0. -1.
         -4    1    6    6    0  503 -0.64434515350E+02  0.20039722963E+03 -0.32558459028E+02  0.21300448273E+03  0.00000000000E+00 0.  1.
<mgrwt>
<rscale>  0 0.12774685E+04</rscale>
<asrwt>0</asrwt>
<pdfrwt beam="1">  1        3 0.96736966E-01 0.12774685E+04</pdfrwt>
<pdfrwt beam="2">  1       -4 0.99820835E-01 0.12774685E+04</pdfrwt>
<totfact> 0.17605217E+00</totfact>
</mgrwt>
</event>
<event>
12    4  0.4398275E-008  0.1833761E+04  0.7818608E-02  0.8688549E-01
         -2   -1    0    0    0  501 -0.00000000000E+00  0.00000000000E+00  0.28482339626E+03  0.28482339626E+03  0.00000000000E+00 0.  1.
          1   -1    0    0  501    0  0.00000000000E+00 -0.00000000000E+00 -0.29515474992E+04  0.29515474992E+04  0.00000000000E+00 0. -1.
        -24    2    1    2    0    0  0.51365579976E+03  0.41823993328E+03 -0.13778923989E+04  0.15308962727E+04  0.79303293239E+02 0.  0.
        254    2    1    2    0    0 -0.51365579976E+03 -0.41823993328E+03 -0.12888317041E+04  0.17054746228E+04  0.89932730705E+03 0.  0.
         23    2    4    4    0    0 -0.39521710378E+03 -0.34714283975E+03 -0.15063852733E+03  0.55484500559E+03  0.91958164422E+02 0.  0.
         23    2    4    4    0    0 -0.11843869599E+03 -0.71097093535E+02 -0.11381931767E+04  0.11506296172E+04  0.96862206439E+02 0.  0.
          3    1    3    3  502    0  0.27392693977E+03  0.18237040795E+03 -0.73663915704E+03  0.80680368226E+03  0.00000000000E+00 0. -1.
         -4    1    3    3    0  502  0.23972886000E+03  0.23586952533E+03 -0.64125324188E+03  0.72409259043E+03  0.00000000000E+00 0.  1.
         11    1    5    5    0    0 -0.33567834037E+03 -0.26092146634E+03 -0.14749774112E+03  0.45001727014E+03  0.00000000000E+00 0. -1.
        -11    1    5    5    0    0 -0.59538763404E+02 -0.86221373413E+02 -0.31407862102E+01  0.10482773545E+03  0.00000000000E+00 0.  1.
          1    1    6    6  503    0 -0.12331561928E+02 -0.17111977601E+01 -0.11895874419E+02  0.17219391555E+02  0.00000000000E+00 0. -1.
         -1    1    6    6    0  503 -0.10610713406E+03 -0.69385895775E+02 -0.11262973023E+04  0.11334102257E+04  0.00000000000E+00 0.  1.
<mgrwt>
<rscale>  0 0.18337609E+04</rscale>
<asrwt>0</asrwt>
<pdfrwt beam="1">  1        1 0.45408421E+00 0.18337609E+04</pdfrwt>
<pdfrwt beam="2">  1       -2 0.43818986E-01 0.18337609E+04</pdfrwt>
<totfact> 0.26533096E+00</totfact>
</mgrwt>
</event>
<event>
12    4  0.4398275E-008  0.1579994E+04  0.7818608E-02  0.8832934E-01
         -2   -1    0    0    0  501 -0.00000000000E+00  0.00000000000E+00  0.15431093675E+04  0.15431093675E+04  0.00000000000E+00 0.  1.
          1   -1    0    0  501    0  0.00000000000E+00 -0.00000000000E+00 -0.40443986026E+03  0.40443986026E+03  0.00000000000E+00 0. -1.
        -24    2    1    2    0    0  0.22375558706E+02 -0.30571727102E+03  0.91939169877E+03  0.97208811543E+03  0.75567803715E+02 0.  0.
        254    2    1    2    0    0 -0.22375558706E+02  0.30571727102E+03  0.21927780843E+03  0.97546111229E+03  0.89970990263E+03 0.  0.
         23    2    4    4    0    0  0.13654371308E+03  0.32375962258E+03 -0.27069264877E+03  0.45205397319E+03  0.87257124565E+02 0.  0.
         23    2    4    4    0    0 -0.15891927178E+03 -0.18042351561E+02  0.48997045720E+03  0.52340713910E+03  0.91121473534E+02 0.  0.
          3    1    3    3  502    0  0.13577806782E+02 -0.22328422205E+03  0.55500758124E+03  0.59839252660E+03  0.00000000000E+00 0. -1.
         -4    1    3    3    0  502  0.87977519240E+01 -0.82433048962E+02  0.36438411753E+03  0.37369558883E+03  0.00000000000E+00 0.  1.
         11    1    5    5    0    0  0.94535112240E+02  0.21521913823E+03 -0.22969550728E+03  0.32865816736E+03  0.00000000000E+00 0.  1.
        -11    1    5    5    0    0  0.42008600837E+02  0.10854048434E+03 -0.40997141485E+02  0.12339580583E+03  0.00000000000E+00 0. -1.
          1    1    6    6  503    0 -0.10659802417E+03  0.21079899307E+02  0.38252287999E+03  0.39765720743E+03  0.00000000000E+00 0.  1.
         -1    1    6    6    0  503 -0.52321247616E+02 -0.39122250867E+02  0.10744757721E+03  0.12574993166E+03  0.00000000000E+00 0. -1.
<mgrwt>
<rscale>  0 0.15799936E+04</rscale>
<asrwt>0</asrwt>
<pdfrwt beam="1">  1        1 0.62221518E-01 0.15799936E+04</pdfrwt>
<pdfrwt beam="2">  1       -2 0.23740144E+00 0.15799936E+04</pdfrwt>
<totfact> 0.38181650E+00</totfact>
</mgrwt>
</event>
<event>
12    4  0.4398275E-008  0.1339974E+04  0.7818608E-02  0.8998452E-01
          1   -1    0    0  501    0  0.00000000000E+00  0.00000000000E+00  0.11044113340E+04  0.11044113340E+04  0.00000000000E+00 0. -1.
         -2   -1    0    0    0  501 -0.00000000000E+00 -0.00000000000E+00 -0.40644522572E+03  0.40644522572E+03  0.00000000000E+00 0.  1.
        -24    2    1    2    0    0  0.22698671028E+03  0.70565044005E+02  0.48174176983E+03  0.54322851338E+03  0.80744615154E+02 0.  0.
        254    2    1    2    0    0 -0.22698671028E+03 -0.70565044005E+02  0.21622433844E+03  0.96762804632E+03  0.91271500449E+03 0.  0.
         23    2    4    4    0    0  0.19341765106E+03  0.29765871232E+03  0.16548038571E+02  0.36717189712E+03  0.92359448306E+02 0.  0.
         23    2    4    4    0    0 -0.42040436134E+03 -0.36822375633E+03  0.19967629986E+03  0.60045614920E+03  0.91369582623E+02 0.  0.
          1    1    3    3  502    0  0.88399639893E+02 -0.11415967121E+02  0.19402152974E+03  0.21351621635E+03  0.00000000000E+00 0. -1.
         -2    1    3    3    0  502  0.13858707038E+03  0.81981011126E+02  0.28772024009E+03  0.32971229704E+03  0.00000000000E+00 0.  1.
         11    1    5    5    0    0  0.17149100604E+03  0.28872944269E+03 -0.39720238899E+01  0.33584167877E+03  0.00000000000E+00 0.  1.
        -11    1    5    5    0    0  0.21926645024E+02  0.89292696291E+01  0.20520062461E+02  0.31330218345E+02  0.00000000000E+00 0. -1.
          3    1    6    6  503    0 -0.63679117824E+01 -0.30933180911E+02  0.46306738523E+01  0.31919510054E+02  0.00000000000E+00 0. -1.
         -3    1    6    6    0  503 -0.41403644955E+03 -0.33729057542E+03  0.19504562601E+03  0.56853663915E+03  0.00000000000E+00 0.  1.
<mgrwt>
<rscale>  0 0.13399742E+04</rscale>
<asrwt>0</asrwt>
<pdfrwt beam="1">  1        1 0.16990943E+00 0.13399742E+04</pdfrwt>
<pdfrwt beam="2">  1       -2 0.62530035E-01 0.13399742E+04</pdfrwt>
<totfact> 0.25638336E+01</totfact>
</mgrwt>
</event>
<event>
12    4  0.4398275E-008  0.1997482E+04  0.7818608E-02  0.8607799E-01
          1   -1    0    0  501    0  0.00000000000E+00  0.00000000000E+00  0.78928026178E+03  0.78928026178E+03  0.00000000000E+00 0. -1.
         -2   -1    0    0    0  501 -0.00000000000E+00 -0.00000000000E+00 -0.12637887846E+04  0.12637887846E+04  0.00000000000E+00 0.  1.
        -24    2    1    2    0    0  0.49788972195E+03 -0.45700790935E+03 -0.58076414511E+03  0.89459736221E+03  0.79164662583E+02 0.  0.
        254    2    1    2    0    0 -0.49788972195E+03  0.45700790935E+03  0.10625562232E+03  0.11584716841E+04  0.93488821859E+03 0.  0.
         23    2    4    4    0    0 -0.36199229665E+03  0.48614824236E+03 -0.32702985570E+03  0.69462516675E+03  0.90427094259E+02 0.  0.
         23    2    4    4    0    0 -0.13589742529E+03 -0.29140333012E+02  0.43328547802E+03  0.46384651740E+03  0.90000094610E+02 0.  0.
          1    1    3    3  502    0  0.22605085448E+03 -0.21726998949E+03 -0.21861228714E+03  0.38222580922E+03  0.00000000000E+00 0. -1.
         -2    1    3    3    0  502  0.27183886747E+03 -0.23973791986E+03 -0.36215185798E+03  0.51237155299E+03  0.00000000000E+00 0.  1.
         11    1    5    5    0    0 -0.19626836584E+03  0.26015232957E+03 -0.22661223713E+03  0.39693023572E+03  0.00000000000E+00 0.  1.
        -11    1    5    5    0    0 -0.16572393081E+03  0.22599591279E+03 -0.10041761857E+03  0.29769493103E+03  0.00000000000E+00 0. -1.
          3    1    6    6  503    0 -0.52424566974E+01  0.13444282364E+02  0.13098682136E+03  0.13177928308E+03  0.00000000000E+00 0. -1.
         -3    1    6    6    0  503 -0.13065496860E+03 -0.42584615376E+02  0.30229865666E+03  0.33206723431E+03  0.00000000000E+00 0.  1.
<mgrwt>
<rscale>  0 0.19974820E+04</rscale>
<asrwt>0</asrwt>
<pdfrwt beam="1">  1        1 0.12142773E+00 0.19974820E+04</pdfrwt>
<pdfrwt beam="2">  1       -2 0.19442904E+00 0.19974820E+04</pdfrwt>
<totfact> 0.26578329E+00</totfact>
</mgrwt>
</event>
<event>
12    4  0.4398275E-008  0.1228847E+04  0.7818608E-02  0.9087975E-01
         -2   -1    0    0    0  501 -0.00000000000E+00  0.00000000000E+00  0.39824138226E+03  0.39824138226E+03  0.00000000000E+00 0.  1.
          1   -1    0    0  501    0  0.00000000000E+00 -0.00000000000E+00 -0.94795798829E+03  0.94795798829E+03  0.00000000000E+00 0. -1.
        -24    2    1    2    0    0  0.15484843093E+03 -0.15541453703E+03  0.61811613079E+02  0.24139029866E+03  0.79478839276E+02 0.  0.
        254    2    1    2    0    0 -0.15484843093E+03  0.15541453703E+03 -0.61152821911E+03  0.11048090719E+04  0.89359085026E+03 0.  0.
         23    2    4    4    0    0 -0.35302017798E+03  0.43278239671E+03 -0.40077451254E+03  0.69379782357E+03  0.93868850680E+02 0.  0.
         23    2    4    4    0    0  0.19817174704E+03 -0.27736785967E+03 -0.21075370657E+03  0.41101124832E+03  0.91149056529E+02 0.  0.
          3    1    3    3  502    0 -0.78247183609E+01 -0.86910661271E+01  0.11950748507E+02  0.16720682933E+02  0.00000000000E+00 0. -1.
         -4    1    3    3    0  502  0.16267314929E+03 -0.14672347091E+03  0.49860864572E+02  0.22466961573E+03  0.00000000000E+00 0.  1.
         11    1    5    5    0    0 -0.13872689388E+03  0.15543759613E+03 -0.20524704906E+03  0.29245913993E+03  0.00000000000E+00 0.  1.
        -11    1    5    5    0    0 -0.21429328409E+03  0.27734480057E+03 -0.19552746348E+03  0.40133868364E+03  0.00000000000E+00 0. -1.
          3    1    6    6  503    0  0.18973920764E+03 -0.25229883091E+03 -0.21793658665E+03  0.38360399215E+03  0.00000000000E+00 0. -1.
         -3    1    6    6    0  503  0.84325394007E+01 -0.25069028768E+02  0.71828800880E+01  0.27407256165E+02  0.00000000000E+00 0.  1.
<mgrwt>
<rscale>  0 0.12288468E+04</rscale>
<asrwt>0</asrwt>
<pdfrwt beam="1">  1        1 0.14583969E+00 0.12288468E+04</pdfrwt>
<pdfrwt beam="2">  1       -2 0.61267906E-01 0.12288468E+04</pdfrwt>
<totfact> 0.35689035E+01</totfact>
</mgrwt>
</event>
<event>
12    4  0.4398275E-008  0.1220539E+04  0.7818608E-02  0.9095066E-01
         -2   -1    0    0    0  501 -0.00000000000E+00  0.00000000000E+00  0.34913868591E+03  0.34913868591E+03  0.00000000000E+00 0.  1.
          1   -1    0    0  501    0  0.00000000000E+00 -0.00000000000E+00 -0.10667073482E+04  0.10667073482E+04  0.00000000000E+00 0. -1.
        -24    2    1    2    0    0 -0.41952636638E+02 -0.58938890762E+02  0.13710332827E+03  0.17465566420E+03  0.80457826534E+02 0.  0.
        254    2    1    2    0    0  0.41952636638E+02  0.58938890762E+02 -0.85467199054E+03  0.12411903699E+04  0.89713739547E+03 0.  0.
         23    2    4    4    0    0  0.24086587974E+03  0.40547402568E+03 -0.55132873254E+03  0.73031393788E+03  0.83483645233E+02 0.  0.
         23    2    4    4    0    0 -0.19891324310E+03 -0.34653513492E+03 -0.30334325800E+03  0.51087643201E+03  0.96563546964E+02 0.  0.
          1    1    3    3  502    0  0.21800864239E+02 -0.24317129723E+02  0.25015853090E+02  0.41138709087E+02  0.00000000000E+00 0. -1.
         -2    1    3    3    0  502 -0.63753500877E+02 -0.34621761039E+02  0.11208747518E+03  0.13351695511E+03  0.00000000000E+00 0.  1.
         11    1    5    5    0    0  0.24751868880E+03  0.38876982156E+03 -0.52775893133E+03  0.70066894112E+03  0.00000000000E+00 0. -1.
        -11    1    5    5    0    0 -0.66528090620E+01  0.16704204120E+02 -0.23569801212E+02  0.29644996760E+02  0.00000000000E+00 0.  1.
          2    1    6    6  503    0 -0.74343635377E+02 -0.22506929043E+03 -0.17893626374E+03  0.29698711773E+03  0.00000000000E+00 0. -1.
         -2    1    6    6    0  503 -0.12456960772E+03 -0.12146584449E+03 -0.12440699426E+03  0.21388931428E+03  0.00000000000E+00 0.  1.
<mgrwt>
<rscale>  0 0.12205389E+04</rscale>
<asrwt>0</asrwt>
<pdfrwt beam="1">  1        1 0.16410882E+00 0.12205389E+04</pdfrwt>
<pdfrwt beam="2">  1       -2 0.53713646E-01 0.12205389E+04</pdfrwt>
<totfact> 0.38022979E+01</totfact>
</mgrwt>
</event>
<event>
12    4  0.4561460E-008  0.1614946E+04  0.7818608E-02  0.8811418E-01
          1   -1    0    0  501    0  0.00000000000E+00  0.00000000000E+00  0.19826211034E+04  0.19826211034E+04  0.00000000000E+00 0. -1.
         -2   -1    0    0    0  501 -0.00000000000E+00 -0.00000000000E+00 -0.32886401063E+03  0.32886401063E+03  0.00000000000E+00 0.  1.
        -24    2    1    2    0    0  0.13167180325E+03 -0.99804398891E+02  0.13325617464E+04  0.13454509817E+04  0.84965607059E+02 0.  0.
        254    2    1    2    0    0 -0.13167180325E+03  0.99804398891E+02  0.32119534638E+03  0.96603413235E+03  0.89596713808E+03 0.  0.
         23    2    4    4    0    0 -0.19038690716E+03  0.30236653461E+03 -0.18257226861E+03  0.41228457025E+03  0.94727176307E+02 0.  0.
         23    2    4    4    0    0  0.58715103909E+02 -0.20256213572E+03  0.50376761499E+03  0.55374956210E+03  0.91530789105E+02 0.  0.
          3    1    3    3  502    0  0.82735249417E+02 -0.78676559066E+02  0.11382286694E+04  0.11439403946E+04  0.00000000000E+00 0. -1.
         -4    1    3    3    0  502  0.48936553836E+02 -0.21127839825E+02  0.19433307698E+03  0.20151058713E+03  0.00000000000E+00 0.  1.
         11    1    5    5    0    0 -0.17895515659E+03  0.30531473622E+03 -0.18625698206E+03  0.39991711590E+03  0.00000000000E+00 0. -1.
        -11    1    5    5    0    0 -0.11431750569E+02 -0.29482016094E+01  0.36847134558E+01  0.12367454348E+02  0.00000000000E+00 0.  1.
          4    1    6    6  503    0  0.20995214916E+01 -0.15756911467E+03  0.34719590861E+03  0.38128392681E+03  0.00000000000E+00 0. -1.
         -4    1    6    6    0  503  0.56615582417E+02 -0.44993021050E+02  0.15657170638E+03  0.17246563528E+03  0.00000000000E+00 0.  1.
<mgrwt>
<rscale>  0 0.16149461E+04</rscale>
<asrwt>0</asrwt>
<pdfrwt beam="1">  1        1 0.30501862E+00 0.16149461E+04</pdfrwt>
<pdfrwt beam="2">  1       -2 0.50594465E-01 0.16149461E+04</pdfrwt>
<totfact> 0.95201350E+00</totfact>
</mgrwt>
</event>
<event>
12    4  0.4398275E-008  0.1440410E+04  0.7818608E-02  0.8925076E-01
         -2   -1    0    0    0  501 -0.00000000000E+00  0.00000000000E+00  0.12786456527E+04  0.12786456527E+04  0.00000000000E+00 0.  1.
          1   -1    0    0  501    0  0.00000000000E+00 -0.00000000000E+00 -0.40566013659E+03  0.40566013659E+03  0.00000000000E+00 0. -1.
        -24    2    1    2    0    0  0.22892543381E+03  0.25879169919E+03 -0.45087268842E+02  0.35730103410E+03  0.79064336704E+02 0.  0.
        254    2    1    2    0    0 -0.22892543381E+03 -0.25879169919E+03  0.91807278498E+03  0.13270047552E+04  0.89370240240E+03 0.  0.
         23    2    4    4    0    0  0.77980118383E+02  0.85402344182E+02  0.83686774650E+03  0.84980554123E+03  0.91909594261E+02 0.  0.
         23    2    4    4    0    0 -0.30690555219E+03 -0.34419404337E+03  0.81205038489E+02  0.47719921400E+03  0.92001489710E+02 0.  0.
          3    1    3    3  502    0  0.22904911253E+03  0.23866174538E+03 -0.30008924488E+02  0.33214975569E+03  0.00000000000E+00 0. -1.
         -4    1    3    3    0  502 -0.12367871682E+00  0.20129953811E+02 -0.15078344354E+02  0.25151278403E+02  0.00000000000E+00 0.  1.
         11    1    5    5    0    0 -0.20518907999E+02  0.11827267521E+02  0.17758124406E+03  0.17915358797E+03  0.00000000000E+00 0.  1.
        -11    1    5    5    0    0  0.98499026383E+02  0.73575076662E+02  0.65928650244E+03  0.67065195325E+03  0.00000000000E+00 0. -1.
          1    1    6    6  503    0 -0.84411179302E+02 -0.60380940374E+02  0.50062881493E+02  0.11522758895E+03  0.00000000000E+00 0. -1.
         -1    1    6    6    0  503 -0.22249437289E+03 -0.28381310300E+03  0.31142156996E+02  0.36197162506E+03  0.00000000000E+00 0.  1.
<mgrwt>
<rscale>  0 0.14404105E+04</rscale>
<asrwt>0</asrwt>
<pdfrwt beam="1">  1        1 0.62409252E-01 0.14404105E+04</pdfrwt>
<pdfrwt beam="2">  1       -2 0.19671471E+00 0.14404105E+04</pdfrwt>
<totfact> 0.69859678E+00</totfact>
</mgrwt>
</event>
<event>
12    4  0.4398275E-008  0.2293313E+04  0.7818608E-02  0.8480562E-01
          1   -1    0    0  501    0  0.00000000000E+00  0.00000000000E+00  0.19577960378E+04  0.19577960378E+04  0.00000000000E+00 0. -1.
         -2   -1    0    0    0  501 -0.00000000000E+00 -0.00000000000E+00 -0.67158215917E+03  0.67158215917E+03  0.00000000000E+00 0.  1.
        -24    2    1    2    0    0 -0.94322640948E+03  0.82077485426E+02  0.77237366427E+03  0.12244966906E+04  0.80114260894E+02 0.  0.
        254    2    1    2    0    0  0.94322640948E+03 -0.82077485426E+02  0.51384021434E+03  0.14048815064E+04  0.90180236635E+03 0.  0.
         23    2    4    4    0    0  0.19189168151E+03  0.14344119759E+03 -0.21075331685E+03  0.33275061058E+03  0.94383333717E+02 0.  0.
         23    2    4    4    0    0  0.75133472797E+03 -0.22551868301E+03  0.72459353119E+03  0.10721308958E+04  0.95217238153E+02 0.  0.
          1    1    3    3  502    0 -0.92232408989E+03  0.84878016275E+02  0.73850718047E+03  0.11846007176E+04  0.00000000000E+00 0. -1.
         -2    1    3    3    0  502 -0.20902319593E+02 -0.28005308497E+01  0.33866483801E+02  0.39895973010E+02  0.00000000000E+00 0.  1.
         11    1    5    5    0    0  0.79785999014E+02  0.10752090158E+03 -0.76532062064E+02  0.15421966943E+03  0.00000000000E+00 0. -1.
        -11    1    5    5    0    0  0.11210568249E+03  0.35920296005E+02 -0.13422125478E+03  0.17853094115E+03  0.00000000000E+00 0.  1.
          3    1    6    6  503    0  0.23157556329E+03 -0.10471399164E+03  0.27397438841E+03  0.37370339450E+03  0.00000000000E+00 0. -1.
         -3    1    6    6    0  503  0.51975916469E+03 -0.12080469138E+03  0.45061914278E+03  0.69842750130E+03  0.00000000000E+00 0.  1.
<mgrwt>
<rscale>  0 0.22933128E+04</rscale>
<asrwt>0</asrwt>
<pdfrwt beam="1">  1        1 0.30119939E+00 0.22933128E+04</pdfrwt>
<pdfrwt beam="2">  1       -2 0.10332033E+00 0.22933128E+04</pdfrwt>
<totfact> 0.19323387E+00</totfact>
</mgrwt>
</event>
<event>
12    4  0.4398275E-008  0.1543225E+04  0.7818608E-02  0.8856207E-01
          1   -1    0    0  501    0  0.00000000000E+00  0.00000000000E+00  0.30937691766E+04  0.30937691766E+04  0.00000000000E+00 0. -1.
         -2   -1    0    0    0  501 -0.00000000000E+00 -0.00000000000E+00 -0.19244676045E+03  0.19244676045E+03  0.00000000000E+00 0.  1.
        -24    2    1    2    0    0 -0.46589296266E+03  0.14632414339E+02  0.64538189661E+03  0.80012867112E+03  0.80110783764E+02 0.  0.
        254    2    1    2    0    0  0.46589296266E+03 -0.14632414339E+02  0.22559405196E+04  0.24860872660E+04  0.93492882397E+03 0.  0.
         23    2    4    4    0    0  0.30607737875E+03  0.24014130498E+03  0.20958479352E+04  0.21335872039E+04  0.90909741556E+02 0.  0.
         23    2    4    4    0    0  0.15981558392E+03 -0.25477371932E+03  0.16009258439E+03  0.35250006206E+03  0.90421177017E+02 0.  0.
          1    1    3    3  502    0 -0.94344684506E+02  0.14627361849E+02  0.18799850906E+03  0.21085141360E+03  0.00000000000E+00 0. -1.
         -2    1    3    3    0  502 -0.37154827816E+03  0.50524902462E-02  0.45738338755E+03  0.58927725753E+03  0.00000000000E+00 0.  1.
         11    1    5    5    0    0  0.77272474964E+02  0.11315665440E+03  0.78633257682E+03  0.79818192487E+03  0.00000000000E+00 0. -1.
        -11    1    5    5    0    0  0.22880490378E+03  0.12698465058E+03  0.13095153584E+04  0.13354052790E+04  0.00000000000E+00 0.  1.
          2    1    6    6  503    0  0.39308640185E+02 -0.32026323636E+02  0.63944935388E+02  0.81607655037E+02  0.00000000000E+00 0. -1.
         -2    1    6    6    0  503  0.12050694373E+03 -0.22274739568E+03  0.96147649005E+02  0.27089240702E+03  0.00000000000E+00 0.  1.
<mgrwt>
<rscale>  0 0.15432250E+04</rscale>
<asrwt>0</asrwt>
<pdfrwt beam="1">  1        1 0.47596445E+00 0.15432250E+04</pdfrwt>
<pdfrwt beam="2">  1       -2 0.29607196E-01 0.15432250E+04</pdfrwt>
<totfact> 0.45672883E+00</totfact>
</mgrwt>
</event>
<event>
12    4  0.4398275E-008  0.1993716E+04  0.7818608E-02  0.8609564E-01
         -2   -1    0    0    0  501 -0.00000000000E+00  0.00000000000E+00  0.42393835940E+03  0.42393835940E+03  0.00000000000E+00 0.  1.
          1   -1    0    0  501    0  0.00000000000E+00 -0.00000000000E+00 -0.23440332730E+04  0.23440332730E+04  0.00000000000E+00 0. -1.
        -24    2    1    2    0    0  0.52205976411E+03 -0.23163821819E+03 -0.65586048074E+01  0.57691342909E+03  0.81138325893E+02 0.  0.
        254    2    1    2    0    0 -0.52205976411E+03  0.23163821819E+03 -0.19135363088E+04  0.21910582033E+04  0.90161642833E+03 0.  0.
         23    2    4    4    0    0 -0.70517305593E+03  0.35240709881E+03 -0.16803170751E+04  0.18582151341E+04  0.89656061498E+02 0.  0.
         23    2    4    4    0    0  0.18311329181E+03 -0.12076888062E+03 -0.23321923368E+03  0.33284306928E+03  0.90981853374E+02 0.  0.
          3    1    3    3  502    0  0.36491751222E+02 -0.15726915132E+02  0.20704635662E+02  0.44806982767E+02  0.00000000000E+00 0. -1.
         -4    1    3    3    0  502  0.48556801289E+03 -0.21591130306E+03 -0.27263240469E+02  0.53210644632E+03  0.00000000000E+00 0.  1.
         11    1    5    5    0    0 -0.36184783878E+03  0.13076127886E+03 -0.81183925836E+03  0.89839598836E+03  0.00000000000E+00 0.  1.
        -11    1    5    5    0    0 -0.34332521715E+03  0.22164581996E+03 -0.86847781678E+03  0.95981914571E+03  0.00000000000E+00 0. -1.
          3    1    6    6  503    0  0.54341494402E+02 -0.88856129370E+02 -0.90433697484E+02  0.13793717186E+03  0.00000000000E+00 0. -1.
         -3    1    6    6    0  503  0.12877179741E+03 -0.31912751247E+02 -0.14278553620E+03  0.19490589742E+03  0.00000000000E+00 0.  1.
<mgrwt>
<rscale>  0 0.19937157E+04</rscale>
<asrwt>0</asrwt>
<pdfrwt beam="1">  1        1 0.36062051E+00 0.19937157E+04</pdfrwt>
<pdfrwt beam="2">  1       -2 0.65221285E-01 0.19937157E+04</pdfrwt>
<totfact> 0.30682977E+00</totfact>
</mgrwt>
</event>
<event>
12    4  0.4398275E-008  0.1580181E+04  0.7818608E-02  0.8832817E-01
          1   -1    0    0  501    0  0.00000000000E+00  0.00000000000E+00  0.45795712290E+03  0.45795712290E+03  0.00000000000E+00 0. -1.
         -2   -1    0    0    0  501 -0.00000000000E+00 -0.00000000000E+00 -0.13631027578E+04  0.13631027578E+04  0.00000000000E+00 0.  1.
        -24    2    1    2    0    0  0.17103705845E+03 -0.37432669514E+03 -0.69376496929E+03  0.81049202713E+03  0.78824763696E+02 0.  0.
        254    2    1    2    0    0 -0.17103705845E+03  0.37432669514E+03 -0.21138066560E+03  0.10105678536E+04  0.89843834003E+03 0.  0.
         23    2    4    4    0    0  0.54445928472E+02 -0.92829103489E+02 -0.42100389190E+03  0.44398250241E+03  0.91074606064E+02 0.  0.
         23    2    4    4    0    0 -0.22548298692E+03  0.46715579863E+03  0.20962322630E+03  0.56658535116E+03  0.89442414807E+02 0.  0.
          3    1    3    3  502    0 -0.14244488137E+01 -0.21601748708E+02 -0.71562418350E+02  0.74765261464E+02  0.00000000000E+00 0. -1.
         -4    1    3    3    0  502  0.17246150726E+03 -0.35272494643E+03 -0.62220255094E+03  0.73572676567E+03  0.00000000000E+00 0.  1.
         11    1    5    5    0    0  0.73764868543E+02 -0.95949784152E+02 -0.37297553213E+03  0.39212034438E+03  0.00000000000E+00 0. -1.
        -11    1    5    5    0    0 -0.19318940070E+02  0.31206806630E+01 -0.48028359773E+02  0.51862158032E+02  0.00000000000E+00 0.  1.
          3    1    6    6  503    0 -0.21627963612E+03  0.37561407368E+03  0.18559769976E+03  0.47149689235E+03  0.00000000000E+00 0. -1.
         -3    1    6    6    0  503 -0.92033507966E+01  0.91541724949E+02  0.24025526543E+02  0.95088458806E+02  0.00000000000E+00 0.  1.
<mgrwt>
<rscale>  0 0.15801805E+04</rscale>
<asrwt>0</asrwt>
<pdfrwt beam="1">  1        1 0.70454943E-01 0.15801805E+04</pdfrwt>
<pdfrwt beam="2">  1       -2 0.20970811E+00 0.15801805E+04</pdfrwt>
<totfact> 0.48288671E+00</totfact>
</mgrwt>
</event>
<event>
12    4  0.4398275E-008  0.3288234E+04  0.7818608E-02  0.8165896E-01
         -2   -1    0    0    0  501 -0.00000000000E+00  0.00000000000E+00  0.13870069758E+04  0.13870069758E+04  0.00000000000E+00 0.  1.
          1   -1    0    0  501    0  0.00000000000E+00 -0.00000000000E+00 -0.19488875072E+04  0.19488875072E+04  0.00000000000E+00 0. -1.
        -24    2    1    2    0    0 -0.67756728919E+03 -0.10517213159E+04 -0.11370665692E+04  0.16925247078E+04  0.80649525940E+02 0.  0.
        254    2    1    2    0    0  0.67756728919E+03  0.10517213159E+04  0.57518603787E+03  0.16433697752E+04  0.89700060317E+03 0.  0.
         23    2    4    4    0    0  0.34362240762E+03  0.86263525377E+02 -0.14182363890E+03  0.39217015490E+03  0.90364434437E+02 0.  0.
         23    2    4    4    0    0  0.33394488157E+03  0.96545779055E+03  0.71700967677E+03  0.12511996203E+04  0.88145810963E+02 0.  0.
          3    1    3    3  502    0 -0.47675747801E+03 -0.68470381482E+03 -0.78865759202E+03  0.11480844064E+04  0.00000000000E+00 0. -1.
         -4    1    3    3    0  502 -0.20080981118E+03 -0.36701750111E+03 -0.34840897722E+03  0.54444030141E+03  0.00000000000E+00 0.  1.
         11    1    5    5    0    0  0.27796380464E+03  0.10223441874E+03 -0.13054189155E+03  0.32366176561E+03  0.00000000000E+00 0. -1.
        -11    1    5    5    0    0  0.65658602980E+02 -0.15970893360E+02 -0.11281747347E+02  0.68508389291E+02  0.00000000000E+00 0.  1.
          2    1    6    6  503    0  0.18615571477E+03  0.57765067441E+03  0.47579928799E+03  0.77118040317E+03  0.00000000000E+00 0. -1.
         -2    1    6    6    0  503  0.14778916680E+03  0.38780711614E+03  0.24121038878E+03  0.48001921712E+03  0.00000000000E+00 0.  1.
<mgrwt>
<rscale>  0 0.32882339E+04</rscale>
<asrwt>0</asrwt>
<pdfrwt beam="1">  1        1 0.29982885E+00 0.32882339E+04</pdfrwt>
<pdfrwt beam="2">  1       -2 0.21338569E+00 0.32882339E+04</pdfrwt>
<totfact> 0.25666522E-01</totfact>
</mgrwt>
</event>
<event>
12    4  0.4398275E-008  0.2389973E+04  0.7818608E-02  0.8443267E-01
         -2   -1    0    0    0  501 -0.00000000000E+00  0.00000000000E+00  0.64826345172E+03  0.64826345172E+03  0.00000000000E+00 0.  1.
          1   -1    0    0  501    0  0.00000000000E+00 -0.00000000000E+00 -0.22027969044E+04  0.22027969044E+04  0.00000000000E+00 0. -1.
        -24    2    1    2    0    0  0.19342004124E+03  0.24823752369E+03  0.49379867740E+03  0.59000746125E+03  0.72377413686E+02 0.  0.
        254    2    1    2    0    0 -0.19342004124E+03 -0.24823752369E+03 -0.20483321301E+04  0.22610528949E+04  0.90424692303E+03 0.  0.
         23    2    4    4    0    0 -0.39888294369E+03 -0.28999852926E+03 -0.19460433892E+04  0.20096813769E+04  0.92345083398E+02 0.  0.
         23    2    4    4    0    0  0.20546290245E+03  0.41761005566E+02 -0.10228874096E+03  0.25137151801E+03  0.93625144437E+02 0.  0.
          3    1    3    3  502    0  0.90024036506E+02  0.77482257281E+02  0.23354409585E+03  0.26201273261E+03  0.00000000000E+00 0. -1.
         -4    1    3    3    0  502  0.10339600474E+03  0.17075526641E+03  0.26025458155E+03  0.32799472864E+03  0.00000000000E+00 0.  1.
         11    1    5    5    0    0 -0.38959954670E+03 -0.29239845580E+03 -0.19333580930E+04  0.19937798724E+04  0.00000000000E+00 0.  1.
        -11    1    5    5    0    0 -0.92833969976E+01  0.23999265447E+01 -0.12685296140E+02  0.15901504501E+02  0.00000000000E+00 0. -1.
          1    1    6    6  503    0  0.28751166499E+02  0.43949289318E+02 -0.17485646737E+02  0.55352664330E+02  0.00000000000E+00 0. -1.
         -1    1    6    6    0  503  0.17671173595E+03 -0.21882837521E+01 -0.84803094220E+02  0.19601885368E+03  0.00000000000E+00 0.  1.
<mgrwt>
<rscale>  0 0.23899730E+04</rscale>
<asrwt>0</asrwt>
<pdfrwt beam="1">  1        1 0.33889183E+00 0.23899730E+04</pdfrwt>
<pdfrwt beam="2">  1       -2 0.99732840E-01 0.23899730E+04</pdfrwt>
<totfact> 0.14209614E+00</totfact>
</mgrwt>
</event>
<event>
12    4  0.4398275E-008  0.1134791E+04  0.7818608E-02  0.9171930E-01
          1   -1    0    0  501    0  0.00000000000E+00  0.00000000000E+00  0.10937316092E+04  0.10937316092E+04  0.00000000000E+00 0. -1.
         -2   -1    0    0    0  501 -0.00000000000E+00 -0.00000000000E+00 -0.29434799170E+03  0.29434799170E+03  0.00000000000E+00 0.  1.
        -24    2    1    2    0    0 -0.92382214794E+02  0.88520161280E+01 -0.62578462335E+02  0.13858768665E+03  0.81716896311E+02 0.  0.
        254    2    1    2    0    0  0.92382214794E+02 -0.88520161280E+01  0.86196207983E+03  0.12494919142E+04  0.89979919143E+03 0.  0.
         23    2    4    4    0    0 -0.43309669422E+02 -0.38860326449E+03  0.15487301810E+03  0.43041815908E+03  0.91574643306E+02 0.  0.
         23    2    4    4    0    0  0.13569188422E+03  0.37975124836E+03  0.70708906173E+03  0.81907375516E+03  0.91014158821E+02 0.  0.
          1    1    3    3  502    0 -0.46848534258E+02  0.34649974958E+02 -0.16838369137E+01  0.58294435699E+02  0.00000000000E+00 0. -1.
         -2    1    3    3    0  502 -0.45533680536E+02 -0.25797958830E+02 -0.60894625421E+02  0.80293250950E+02  0.00000000000E+00 0.  1.
         11    1    5    5    0    0 -0.10141104266E+02 -0.27273074294E+02  0.40697081456E+02  0.50029141670E+02  0.00000000000E+00 0.  1.
        -11    1    5    5    0    0 -0.33168565157E+02 -0.36133019019E+03  0.11417593664E+03  0.38038901741E+03  0.00000000000E+00 0. -1.
          2    1    6    6  503    0  0.12707854162E+03  0.28859197647E+03  0.60277218710E+03  0.68027097113E+03  0.00000000000E+00 0. -1.
         -2    1    6    6    0  503  0.86133426016E+01  0.91159271892E+02  0.10431687462E+03  0.13880278403E+03  0.00000000000E+00 0.  1.
<mgrwt>
<rscale>  0 0.11347911E+04</rscale>
<asrwt>0</asrwt>
<pdfrwt beam="1">  1        1 0.16826640E+00 0.11347911E+04</pdfrwt>
<pdfrwt beam="2">  1       -2 0.45284307E-01 0.11347911E+04</pdfrwt>
<totfact> 0.51660279E+01</totfact>
</mgrwt>
</event>
<event>
12    4  0.4398275E-008  0.1408171E+04  0.7818608E-02  0.8947925E-01
         -2   -1    0    0    0  501 -0.00000000000E+00  0.00000000000E+00  0.91826117888E+03  0.91826117888E+03  0.00000000000E+00 0.  1.
          1   -1    0    0  501    0  0.00000000000E+00 -0.00000000000E+00 -0.53986413960E+03  0.53986413960E+03  0.00000000000E+00 0. -1.
        -24    2    1    2    0    0 -0.46991274553E+02  0.13628042749E+02 -0.30527125290E+03  0.31930646870E+03  0.79825933573E+02 0.  0.
        254    2    1    2    0    0  0.46991274553E+02 -0.13628042749E+02  0.68366829218E+03  0.11388188498E+04  0.90945705531E+03 0.  0.
         23    2    4    4    0    0 -0.20541803351E+03 -0.19183587295E+03  0.75335179395E+03  0.80902190878E+03  0.89330581534E+02 0.  0.
         23    2    4    4    0    0  0.25240930806E+03  0.17820783020E+03 -0.69683501770E+02  0.32979694100E+03  0.91878954780E+02 0.  0.
          3    1    3    3  502    0 -0.26527242692E+02 -0.23868201240E+02 -0.23005894790E+03  0.23281001943E+03  0.00000000000E+00 0. -1.
         -4    1    3    3    0  502 -0.20464031861E+02  0.37496243989E+02 -0.75212305000E+02  0.86496449273E+02  0.00000000000E+00 0.  1.
         11    1    5    5    0    0 -0.12859130137E+03 -0.97207330985E+02  0.53728505636E+03  0.56094582606E+03  0.00000000000E+00 0. -1.
        -11    1    5    5    0    0 -0.76826732145E+02 -0.94628541961E+02  0.21606673759E+03  0.24807608272E+03  0.00000000000E+00 0.  1.
          2    1    6    6  503    0  0.23200647011E+03  0.18096487347E+03 -0.82451633908E+02  0.30557087482E+03  0.00000000000E+00 0. -1.
         -2    1    6    6    0  503  0.20402837958E+02 -0.27570432741E+01  0.12768132138E+02  0.24226066182E+02  0.00000000000E+00 0.  1.
<mgrwt>
<rscale>  0 0.14081708E+04</rscale>
<asrwt>0</asrwt>
<pdfrwt beam="1">  1        1 0.83056022E-01 0.14081708E+04</pdfrwt>
<pdfrwt beam="2">  1       -2 0.14127095E+00 0.14081708E+04</pdfrwt>
<totfact> 0.11900145E+01</totfact>
</mgrwt>
</event>
<event>
12    4  0.4398275E-008  0.1387960E+04  0.7818608E-02  0.8962580E-01
          1   -1    0    0  501    0  0.00000000000E+00  0.00000000000E+00  0.81153748731E+03  0.81153748731E+03  0.00000000000E+00 0. -1.
         -2   -1    0    0    0  501 -0.00000000000E+00 -0.00000000000E+00 -0.59345186960E+03  0.59345186960E+03  0.00000000000E+00 0.  1.
        -24    2    1    2    0    0 -0.11692408889E+03 -0.17749931324E+03  0.40479004203E+03  0.46368440298E+03  0.77272237451E+02 0.  0.
        254    2    1    2    0    0  0.11692408889E+03  0.17749931324E+03 -0.18670442432E+03  0.94130495392E+03  0.89778573471E+03 0.  0.
         23    2    4    4    0    0 -0.20637136951E+03 -0.70100961775E+02 -0.40585588145E+03  0.46957074720E+03  0.90963746206E+02 0.  0.
         23    2    4    4    0    0  0.32329545840E+03  0.24760027502E+03  0.21915145714E+03  0.47173420672E+03  0.93166254667E+02 0.  0.
          1    1    3    3  502    0 -0.88916813178E+02 -0.13190884687E+03  0.22123924303E+03  0.27249393792E+03  0.00000000000E+00 0. -1.
         -2    1    3    3    0  502 -0.28007275716E+02 -0.45590466369E+02  0.18355079900E+03  0.19119046506E+03  0.00000000000E+00 0.  1.
         11    1    5    5    0    0 -0.11202125384E+02  0.13630443110E+02 -0.98340046352E+01  0.20198619747E+02  0.00000000000E+00 0. -1.
        -11    1    5    5    0    0 -0.19516924412E+03 -0.83731404885E+02 -0.39602187682E+03  0.44937212746E+03  0.00000000000E+00 0.  1.
          4    1    6    6  503    0  0.19292717358E+01 -0.68893583105E+01  0.58576941423E+00  0.71783335926E+01  0.00000000000E+00 0. -1.
         -4    1    6    6    0  503  0.32136618667E+03  0.25448963333E+03  0.21856568772E+03  0.46455587312E+03  0.00000000000E+00 0.  1.
<mgrwt>
<rscale>  0 0.13879603E+04</rscale>
<asrwt>0</asrwt>
<pdfrwt beam="1">  1        1 0.12485192E+00 0.13879603E+04</pdfrwt>
<pdfrwt beam="2">  1       -2 0.91300287E-01 0.13879603E+04</pdfrwt>
<totfact> 0.18886948E+01</totfact>
</mgrwt>
</event>
<event>
12    4  0.4398275E-008  0.1273910E+04  0.7818608E-02  0.9050515E-01
         -2   -1    0    0    0  501 -0.00000000000E+00  0.00000000000E+00  0.44089753820E+03  0.44089753820E+03  0.00000000000E+00 0.  1.
          1   -1    0    0  501    0  0.00000000000E+00 -0.00000000000E+00 -0.92019446804E+03  0.92019446804E+03  0.00000000000E+00 0. -1.
        -24    2    1    2    0    0 -0.15138861523E+02  0.21997588530E+03 -0.30534420311E+03  0.38625775795E+03  0.85681958182E+02 0.  0.
        254    2    1    2    0    0  0.15138861523E+02 -0.21997588530E+03 -0.17395272672E+03  0.97483424829E+03  0.93350076875E+03 0.  0.
         23    2    4    4    0    0  0.14292449448E+03  0.31964662165E+03  0.59481037074E+02  0.36615019546E+03  0.89031443918E+02 0.  0.
         23    2    4    4    0    0 -0.12778563296E+03 -0.53962250695E+03 -0.23343376380E+03  0.60868405283E+03  0.92105027532E+02 0.  0.
          3    1    3    3  502    0 -0.34009077306E+02  0.11626698922E+03 -0.21785067093E+03  0.24926601241E+03  0.00000000000E+00 0. -1.
         -4    1    3    3    0  502  0.18870215782E+02  0.10370889608E+03 -0.87493532187E+02  0.13699174553E+03  0.00000000000E+00 0.  1.
         11    1    5    5    0    0  0.99832283003E+02  0.19068826387E+03  0.77977803568E+02  0.22893020018E+03  0.00000000000E+00 0.  1.
        -11    1    5    5    0    0  0.43092211478E+02  0.12895835779E+03 -0.18496766493E+02  0.13721999528E+03  0.00000000000E+00 0. -1.
          3    1    6    6  503    0 -0.85895384053E+01 -0.20334353703E+03 -0.61333480680E+02  0.21256568414E+03  0.00000000000E+00 0. -1.
         -3    1    6    6    0  503 -0.11919609455E+03 -0.33627896991E+03 -0.17210028312E+03  0.39611836869E+03  0.00000000000E+00 0.  1.
<mgrwt>
<rscale>  0 0.12739097E+04</rscale>
<asrwt>0</asrwt>
<pdfrwt beam="1">  1        1 0.14156838E+00 0.12739097E+04</pdfrwt>
<pdfrwt beam="2">  1       -2 0.67830391E-01 0.12739097E+04</pdfrwt>
<totfact> 0.30097492E+01</totfact>
</mgrwt>
</event>
<event>
12    4  0.4398275E-008  0.1155293E+04  0.7818608E-02  0.9152914E-01
          1   -1    0    0  501    0  0.00000000000E+00  0.00000000000E+00  0.21084872831E+04  0.21084872831E+04  0.00000000000E+00 0. -1.
         -2   -1    0    0    0  501 -0.00000000000E+00 -0.00000000000E+00 -0.15825348634E+03  0.15825348634E+03  0.00000000000E+00 0.  1.
        -24    2    1    2    0    0 -0.30292975465E+02  0.87722119010E+02  0.75499944015E+03  0.76451344501E+03  0.76444871971E+02 0.  0.
        254    2    1    2    0    0  0.30292975465E+02 -0.87722119010E+02  0.11952343566E+04  0.15022273244E+04  0.90525627999E+03 0.  0.
         23    2    4    4    0    0 -0.36902581357E+03 -0.18795253516E+03  0.32167883583E+03  0.53206713707E+03  0.90066410893E+02 0.  0.
         23    2    4    4    0    0  0.39931878903E+03  0.10023041615E+03  0.87355552075E+03  0.97016018732E+03  0.92789598745E+02 0.  0.
          3    1    3    3  502    0  0.18683261893E+02  0.37225460965E+02  0.42862475878E+03  0.43064368456E+03  0.00000000000E+00 0. -1.
         -4    1    3    3    0  502 -0.48976237358E+02  0.50496658045E+02  0.32637468137E+03  0.33386976044E+03  0.00000000000E+00 0.  1.
         11    1    5    5    0    0 -0.25541039661E+03 -0.10000917411E+03  0.25161806570E+03  0.37222030652E+03  0.00000000000E+00 0. -1.
        -11    1    5    5    0    0 -0.11361541696E+03 -0.87943361046E+02  0.70060770134E+02  0.15984683054E+03  0.00000000000E+00 0.  1.
          2    1    6    6  503    0  0.13935190347E+03 -0.78399376143E+01  0.32041058647E+03  0.34949014513E+03  0.00000000000E+00 0. -1.
         -2    1    6    6    0  503  0.25996688556E+03  0.10807035377E+03  0.55314493428E+03  0.62067004219E+03  0.00000000000E+00 0.  1.
<mgrwt>
<rscale>  0 0.11552930E+04</rscale>
<asrwt>0</asrwt>
<pdfrwt beam="1">  1        1 0.32438264E+00 0.11552930E+04</pdfrwt>
<pdfrwt beam="2">  1       -2 0.24346692E-01 0.11552930E+04</pdfrwt>
<totfact> 0.33094875E+01</totfact>
</mgrwt>
</event>
<event>
12    4  0.4398275E-008  0.1540817E+04  0.7818608E-02  0.8857755E-01
         -2   -1    0    0    0  501 -0.00000000000E+00  0.00000000000E+00  0.80900007924E+03  0.80900007924E+03  0.00000000000E+00 0.  1.
          1   -1    0    0  501    0  0.00000000000E+00 -0.00000000000E+00 -0.73365783965E+03  0.73365783965E+03  0.00000000000E+00 0. -1.
        -24    2    1    2    0    0 -0.42717302155E+03  0.27332363379E+03 -0.86338502336E+01  0.51335766702E+03  0.79239837178E+02 0.  0.
        254    2    1    2    0    0  0.42717302155E+03 -0.27332363379E+03  0.83976089815E+02  0.10293002519E+04  0.89175356781E+03 0.  0.
         23    2    4    4    0    0  0.46876876587E+03  0.44978845354E+02 -0.26384839500E+03  0.54729524277E+03  0.90271007684E+02 0.  0.
         23    2    4    4    0    0 -0.41595744319E+02 -0.31830247915E+03  0.34782448482E+03  0.48200500910E+03  0.91105885550E+02 0.  0.
          1    1    3    3  502    0 -0.28924576658E+03  0.15257834526E+03 -0.31904085156E+02  0.32857439884E+03  0.00000000000E+00 0. -1.
         -2    1    3    3    0  502 -0.13792725497E+03  0.12074528854E+03  0.23270234922E+02  0.18478326818E+03  0.00000000000E+00 0.  1.
         11    1    5    5    0    0  0.36751618078E+03  0.13691077196E+02 -0.16769611653E+03  0.40419992111E+03  0.00000000000E+00 0. -1.
        -11    1    5    5    0    0  0.10125258509E+03  0.31287768158E+02 -0.96152278478E+02  0.14309532166E+03  0.00000000000E+00 0.  1.
          3    1    6    6  503    0 -0.72482591628E+01 -0.99438383042E+02  0.52083775625E+02  0.11248666128E+03  0.00000000000E+00 0. -1.
         -3    1    6    6    0  503 -0.34347485156E+02 -0.21886409610E+03  0.29574070919E+03  0.36951834782E+03  0.00000000000E+00 0.  1.
<mgrwt>
<rscale>  0 0.15408170E+04</rscale>
<asrwt>0</asrwt>
<pdfrwt beam="1">  1        1 0.11287044E+00 0.15408170E+04</pdfrwt>
<pdfrwt beam="2">  1       -2 0.12446155E+00 0.15408170E+04</pdfrwt>
<totfact> 0.10371295E+01</totfact>
</mgrwt>
</event>
<event>
12    4  0.4398275E-008  0.1628925E+04  0.7818608E-02  0.8802973E-01
          1   -1    0    0  501    0  0.00000000000E+00  0.00000000000E+00  0.46878091473E+03  0.46878091473E+03  0.00000000000E+00 0. -1.
         -2   -1    0    0    0  501 -0.00000000000E+00 -0.00000000000E+00 -0.14150508553E+04  0.14150508553E+04  0.00000000000E+00 0.  1.
        -24    2    1    2    0    0  0.38680390790E+02 -0.50709825201E+03 -0.60004733554E+03  0.79171443089E+03  0.90056234499E+02 0.  0.
        254    2    1    2    0    0 -0.38680390790E+02  0.50709825201E+03 -0.34622260504E+03  0.10921173392E+04  0.90233329786E+03 0.  0.
         23    2    4    4    0    0  0.10455849080E+03  0.27862193310E+03 -0.62155779115E+03  0.69554057832E+03  0.94233479969E+02 0.  0.
         23    2    4    4    0    0 -0.14323888159E+03  0.22847631890E+03  0.27533518611E+03  0.39657676083E+03  0.93513940252E+02 0.  0.
          3    1    3    3  502    0  0.22646743314E+02 -0.44973930676E+03 -0.48280081339E+03  0.66020825838E+03  0.00000000000E+00 0. -1.
         -4    1    3    3    0  502  0.16033647476E+02 -0.57358945248E+02 -0.11724652215E+03  0.13150617251E+03  0.00000000000E+00 0.  1.
         11    1    5    5    0    0  0.65261477839E+02  0.10060152565E+03 -0.33593103333E+03  0.35669228560E+03  0.00000000000E+00 0. -1.
        -11    1    5    5    0    0  0.39297012961E+02  0.17802040745E+03 -0.28562675782E+03  0.33884829272E+03  0.00000000000E+00 0.  1.
          1    1    6    6  503    0 -0.12608370052E+03  0.23340973737E+03  0.24359139343E+03  0.36015825964E+03  0.00000000000E+00 0. -1.
         -1    1    6    6    0  503 -0.17155181069E+02 -0.49334184618E+01  0.31743792678E+02  0.36418501188E+02  0.00000000000E+00 0.  1.
<mgrwt>
<rscale>  0 0.16289246E+04</rscale>
<asrwt>0</asrwt>
<pdfrwt beam="1">  1        1 0.72120142E-01 0.16289246E+04</pdfrwt>
<pdfrwt beam="2">  1       -2 0.21770013E+00 0.16289246E+04</pdfrwt>
<totfact> 0.41418363E+00</totfact>
</mgrwt>
</event>
<event>
12    4  0.4398275E-008  0.2575110E+04  0.7818608E-02  0.8376705E-01
         -4   -1    0    0    0  501 -0.00000000000E+00  0.00000000000E+00  0.86263618066E+03  0.86263618066E+03  0.00000000000E+00 0.  1.
          3   -1    0    0  501    0  0.00000000000E+00 -0.00000000000E+00 -0.19217805832E+04  0.19217805832E+04  0.00000000000E+00 0. -1.
        -24    2    1    2    0    0  0.29323669778E+03  0.50899977921E+02  0.71198952731E+03  0.77574313547E+03  0.79181794260E+02 0.  0.
        254    2    1    2    0    0 -0.29323669778E+03 -0.50899977921E+02 -0.17711339299E+04  0.20086736284E+04  0.89959756518E+03 0.  0.
         23    2    4    4    0    0 -0.54469189554E+03 -0.93170448653E+01 -0.63852536477E+03  0.84415719831E+03  0.90059233920E+02 0.  0.
         23    2    4    4    0    0  0.25145519776E+03 -0.41582933055E+02 -0.11326085651E+04  0.11645164301E+04  0.91309897829E+02 0.  0.
          1    1    3    3  502    0  0.11419059286E+03  0.52266000459E+02  0.23875910508E+03  0.26977237916E+03  0.00000000000E+00 0. -1.
         -2    1    3    3    0  502  0.17904610491E+03 -0.13660225387E+01  0.47323042224E+03  0.50597075630E+03  0.00000000000E+00 0.  1.
         11    1    5    5    0    0 -0.51094923148E+03  0.10790406994E+02 -0.57334300167E+03  0.76805452124E+03  0.00000000000E+00 0. -1.
        -11    1    5    5    0    0 -0.33742664059E+02 -0.20107451859E+02 -0.65182363100E+02  0.76102677071E+02  0.00000000000E+00 0.  1.
          3    1    6    6  503    0  0.14085600644E+03  0.22447231731E+02 -0.62478817792E+03  0.64086235655E+03  0.00000000000E+00 0. -1.
         -3    1    6    6    0  503  0.11059919132E+03 -0.64030164786E+02 -0.50782038719E+03  0.52365407357E+03  0.00000000000E+00 0.  1.
<mgrwt>
<rscale>  0 0.25751097E+04</rscale>
<asrwt>0</asrwt>
<pdfrwt beam="1">  1        3 0.29565855E+00 0.25751097E+04</pdfrwt>
<pdfrwt beam="2">  1       -4 0.13271326E+00 0.25751097E+04</pdfrwt>
<totfact> 0.33965453E-02</totfact>
</mgrwt>
</event>
<event>
12    4  0.4398275E-008  0.4156838E+04  0.7818608E-02  0.7973634E-01
          1   -1    0    0  501    0  0.00000000000E+00  0.00000000000E+00  0.22821425966E+04  0.22821425966E+04  0.00000000000E+00 0. -1.
         -2   -1    0    0    0  501 -0.00000000000E+00 -0.00000000000E+00 -0.18928813669E+04  0.18928813669E+04  0.00000000000E+00 0.  1.
        -24    2    1    2    0    0 -0.65356472697E+03  0.41543588072E+03  0.19874575468E+04  0.21345072238E+04  0.79998530164E+02 0.  0.
        254    2    1    2    0    0  0.65356472697E+03 -0.41543588072E+03 -0.15981963172E+04  0.20405167396E+04  0.10048598277E+04 0.  0.
         23    2    4    4    0    0 -0.11664708103E+03  0.20856597805E+03 -0.47886310674E+03  0.54269843391E+03  0.90030030913E+02 0.  0.
         23    2    4    4    0    0  0.77021180799E+03 -0.62400185876E+03 -0.11193332104E+04  0.14978183057E+04  0.89153194655E+02 0.  0.
          3    1    3    3  502    0 -0.33628418249E+03  0.19103929532E+03  0.10876165248E+04  0.11543365059E+04  0.00000000000E+00 0. -1.
         -4    1    3    3    0  502 -0.31728054448E+03  0.22439658540E+03  0.89984102203E+03  0.98017071797E+03  0.00000000000E+00 0.  1.
         11    1    5    5    0    0 -0.18732796579E+01  0.90909537925E+02 -0.17674022434E+03  0.19875905052E+03  0.00000000000E+00 0. -1.
        -11    1    5    5    0    0 -0.11477380137E+03  0.11765644012E+03 -0.30212288240E+03  0.34393938339E+03  0.00000000000E+00 0.  1.
          1    1    6    6  503    0  0.76862273052E+03 -0.62637623111E+03 -0.11115151390E+04  0.14894945415E+04  0.00000000000E+00 0. -1.
         -1    1    6    6    0  503  0.15890774753E+01  0.23743723426E+01 -0.78180713955E+01  0.83237642680E+01  0.00000000000E+00 0.  1.
<mgrwt>
<rscale>  0 0.41568378E+04</rscale>
<asrwt>0</asrwt>
<pdfrwt beam="1">  1        1 0.35109886E+00 0.41568378E+04</pdfrwt>
<pdfrwt beam="2">  1       -2 0.29121252E+00 0.41568378E+04</pdfrwt>
<totfact> 0.46790917E-02</totfact>
</mgrwt>
</event>
<event>
12    4  0.4398275E-008  0.1669196E+04  0.7818608E-02  0.8779131E-01
          3   -1    0    0  501    0  0.00000000000E+00  0.00000000000E+00  0.72622699942E+03  0.72622699942E+03  0.00000000000E+00 0. -1.
         -2   -1    0    0    0  501 -0.00000000000E+00 -0.00000000000E+00 -0.95914024104E+03  0.95914024104E+03  0.00000000000E+00 0.  1.
        -24    2    1    2    0    0 -0.30734358742E+03 -0.10484909134E+03  0.41193206555E+03  0.53035344078E+03  0.78315597626E+02 0.  0.
        254    2    1    2    0    0  0.30734358742E+03  0.10484909134E+03 -0.64484530716E+03  0.11550137997E+04  0.90154200934E+03 0.  0.
         23    2    4    4    0    0 -0.83153708617E+02 -0.26472236219E+03 -0.52330040124E+03  0.59757218110E+03  0.79099515787E+02 0.  0.
         23    2    4    4    0    0  0.39049729604E+03  0.36957145352E+03 -0.12154490593E+03  0.55744161858E+03  0.83046953529E+02 0.  0.
          3    1    3    3  502    0 -0.30062685516E+03 -0.11435434956E+03  0.38998653980E+03  0.50551253647E+03  0.00000000000E+00 0. -1.
         -4    1    3    3    0  502 -0.67167322603E+01  0.95052582214E+01  0.21945525750E+02  0.24840904302E+02  0.00000000000E+00 0.  1.
         11    1    5    5    0    0 -0.76792738647E+02 -0.24836000831E+03 -0.51742767112E+03  0.57906063006E+03  0.00000000000E+00 0.  1.
        -11    1    5    5    0    0 -0.63609699699E+01 -0.16362353874E+02 -0.58727301152E+01  0.18511551050E+02  0.00000000000E+00 0. -1.
          4    1    6    6  503    0  0.22371045009E+03  0.18352602349E+03 -0.10202838379E+03  0.30681909634E+03  0.00000000000E+00 0. -1.
         -4    1    6    6    0  503  0.16678684595E+03  0.18604543003E+03 -0.19516522139E+02  0.25062252224E+03  0.00000000000E+00 0.  1.
<mgrwt>
<rscale>  0 0.16691957E+04</rscale>
<asrwt>0</asrwt>
<pdfrwt beam="1">  1        3 0.11172723E+00 0.16691957E+04</pdfrwt>
<pdfrwt beam="2">  1       -2 0.14756004E+00 0.16691957E+04</pdfrwt>
<totfact> 0.83432431E-01</totfact>
</mgrwt>
</event>
<event>
12    4  0.4398275E-008  0.1560183E+04  0.7818608E-02  0.8845389E-01
         -2   -1    0    0    0  501 -0.00000000000E+00  0.00000000000E+00  0.32461953334E+03  0.32461953334E+03  0.00000000000E+00 0.  1.
          1   -1    0    0  501    0  0.00000000000E+00 -0.00000000000E+00 -0.18746346149E+04  0.18746346149E+04  0.00000000000E+00 0. -1.
        -24    2    1    2    0    0 -0.21545380694E+03  0.42241878056E+03 -0.22133707802E+03  0.52913728039E+03  0.78346603618E+02 0.  0.
        254    2    1    2    0    0  0.21545380694E+03 -0.42241878056E+03 -0.13286780035E+04  0.16701168678E+04  0.89389437078E+03 0.  0.
         23    2    4    4    0    0  0.11930079515E+03 -0.61768196728E+03 -0.12746837231E+04  0.14244338553E+04  0.91812426742E+02 0.  0.
         23    2    4    4    0    0  0.96153011787E+02  0.19526318672E+03 -0.53994280387E+02  0.24568301253E+03  0.10035759348E+03 0.  0.
          3    1    3    3  502    0 -0.21925040040E+02  0.26832158039E+02  0.32224028569E+01  0.34800229396E+02  0.00000000000E+00 0. -1.
         -4    1    3    3    0  502 -0.19352876690E+03  0.39558662252E+03 -0.22455948088E+03  0.49433705099E+03  0.00000000000E+00 0.  1.
         11    1    5    5    0    0  0.10176171053E+03 -0.36486361293E+03 -0.83597015608E+03  0.91778374556E+03  0.00000000000E+00 0.  1.
        -11    1    5    5    0    0  0.17539084618E+02 -0.25281835435E+03 -0.43871356706E+03  0.50665010975E+03  0.00000000000E+00 0. -1.
          3    1    6    6  503    0  0.11455610255E+03  0.18124060832E+03 -0.38502321787E+02  0.21783867315E+03  0.00000000000E+00 0. -1.
         -3    1    6    6    0  503 -0.18403090761E+02  0.14022578398E+02 -0.15491958600E+02  0.27844339384E+02  0.00000000000E+00 0.  1.
<mgrwt>
<rscale>  0 0.15601833E+04</rscale>
<asrwt>0</asrwt>
<pdfrwt beam="1">  1        1 0.28840532E+00 0.15601833E+04</pdfrwt>
<pdfrwt beam="2">  1       -2 0.49941467E-01 0.15601833E+04</pdfrwt>
<totfact> 0.11623291E+01</totfact>
</mgrwt>
</event>
<event>
12    4  0.4398275E-008  0.2886294E+04  0.7818608E-02  0.8276967E-01
          1   -1    0    0  501    0  0.00000000000E+00  0.00000000000E+00  0.11488934064E+04  0.11488934064E+04  0.00000000000E+00 0. -1.
         -2   -1    0    0    0  501 -0.00000000000E+00 -0.00000000000E+00 -0.18127639716E+04  0.18127639716E+04  0.00000000000E+00 0.  1.
        -24    2    1    2    0    0  0.84915090963E+03 -0.97119477628E+03 -0.48936851512E+03  0.13821163163E+04  0.80544443646E+02 0.  0.
        254    2    1    2    0    0 -0.84915090963E+03  0.97119477628E+03 -0.17450205009E+03  0.15795410617E+04  0.89455152976E+03 0.  0.
         23    2    4    4    0    0 -0.88228751677E+02  0.11732445774E+01  0.24328743361E+03  0.27469516576E+03  0.92103038021E+02 0.  0.
         23    2    4    4    0    0 -0.76092215796E+03  0.97002153170E+03 -0.41778948370E+03  0.13048458960E+04  0.90169047355E+02 0.  0.
          3    1    3    3  502    0  0.53967458788E+03 -0.66239519316E+03 -0.34911077701E+03  0.92298124973E+03  0.00000000000E+00 0. -1.
         -4    1    3    3    0  502  0.30947632175E+03 -0.30879958312E+03 -0.14025773811E+03  0.45913506658E+03  0.00000000000E+00 0.  1.
         11    1    5    5    0    0  0.11376686699E+02  0.22761257466E+02  0.54728275723E+02  0.60354685032E+02  0.00000000000E+00 0. -1.
        -11    1    5    5    0    0 -0.99605438376E+02 -0.21588012889E+02  0.18855915789E+03  0.21434048073E+03  0.00000000000E+00 0.  1.
          2    1    6    6  503    0 -0.32211698963E+02  0.16978811745E+02 -0.10818381875E+02  0.37985668149E+02  0.00000000000E+00 0. -1.
         -2    1    6    6    0  503 -0.72871045899E+03  0.95304271996E+03 -0.40697110182E+03  0.12668602278E+04  0.00000000000E+00 0.  1.
<mgrwt>
<rscale>  0 0.28862935E+04</rscale>
<asrwt>0</asrwt>
<pdfrwt beam="1">  1        1 0.17675283E+00 0.28862935E+04</pdfrwt>
<pdfrwt beam="2">  1       -2 0.27888677E+00 0.28862935E+04</pdfrwt>
<totfact> 0.37597404E-01</totfact>
</mgrwt>
</event>
<event>
12    4  0.4398275E-008  0.1782087E+04  0.7818608E-02  0.8715884E-01
          1   -1    0    0  501    0  0.00000000000E+00  0.00000000000E+00  0.56986627096E+03  0.56986627096E+03  0.00000000000E+00 0. -1.
         -2   -1    0    0    0  501 -0.00000000000E+00 -0.00000000000E+00 -0.13932366869E+04  0.13932366869E+04  0.00000000000E+00 0.  1.
        -24    2    1    2    0    0  0.50782618715E+03  0.38482151089E+03 -0.50983273593E+03  0.81993451629E+03  0.79925970649E+02 0.  0.
        254    2    1    2    0    0 -0.50782618715E+03 -0.38482151089E+03 -0.31353768002E+03  0.11431684416E+04  0.89585332363E+03 0.  0.
         23    2    4    4    0    0 -0.12385763584E+03  0.28306544923E+03 -0.62529762186E+02  0.32789295663E+03  0.90205639186E+02 0.  0.
         23    2    4    4    0    0 -0.38396855131E+03 -0.66788696012E+03 -0.25100791784E+03  0.81527548496E+03  0.90356525313E+02 0.  0.
          1    1    3    3  502    0  0.27903037349E+02  0.46104103851E+02 -0.31666058703E+02  0.62505257051E+02  0.00000000000E+00 0. -1.
         -2    1    3    3    0  502  0.47992314980E+03  0.33871740704E+03 -0.47816667723E+03  0.75742925924E+03  0.00000000000E+00 0.  1.
         11    1    5    5    0    0 -0.12430190671E+03  0.26158384992E+03 -0.33166791428E+02  0.29150833711E+03  0.00000000000E+00 0. -1.
        -11    1    5    5    0    0  0.44427087132E+00  0.21481599312E+02 -0.29362970757E+02  0.36384619516E+02  0.00000000000E+00 0.  1.
          1    1    6    6  503    0 -0.32535854071E+03 -0.58264048595E+03 -0.18477146534E+03  0.69243671933E+03  0.00000000000E+00 0. -1.
         -1    1    6    6    0  503 -0.58610010605E+02 -0.85246474171E+02 -0.66236452493E+02  0.12283876563E+03  0.00000000000E+00 0.  1.
<mgrwt>
<rscale>  0 0.17820871E+04</rscale>
<asrwt>0</asrwt>
<pdfrwt beam="1">  1        1 0.87671734E-01 0.17820871E+04</pdfrwt>
<pdfrwt beam="2">  1       -2 0.21434411E+00 0.17820871E+04</pdfrwt>
<totfact> 0.32738043E+00</totfact>
</mgrwt>
</event>
<event>
12    4  0.4398275E-008  0.2205148E+04  0.7818608E-02  0.8516289E-01
         -2   -1    0    0    0  501 -0.00000000000E+00  0.00000000000E+00  0.92345101995E+03  0.92345101995E+03  0.00000000000E+00 0.  1.
          1   -1    0    0  501    0  0.00000000000E+00 -0.00000000000E+00 -0.13164413745E+04  0.13164413745E+04  0.00000000000E+00 0. -1.
        -24    2    1    2    0    0 -0.46494295595E+03 -0.47473608637E+03 -0.76498887565E+03  0.10163978102E+04  0.79436922760E+02 0.  0.
        254    2    1    2    0    0  0.46494295595E+03  0.47473608637E+03  0.37199852108E+03  0.12234945843E+04  0.95760628346E+03 0.  0.
         23    2    4    4    0    0 -0.74200381443E+02  0.39709136921E+03 -0.17165505482E+03  0.44847080560E+03  0.92050820312E+02 0.  0.
         23    2    4    4    0    0  0.53914333739E+03  0.77644717155E+02  0.54365357590E+03  0.77502377869E+03  0.91642820742E+02 0.  0.
          1    1    3    3  502    0 -0.31868829718E+03 -0.33612876143E+03 -0.47671678881E+03  0.66468313635E+03  0.00000000000E+00 0. -1.
         -2    1    3    3    0  502 -0.14625465877E+03 -0.13860732494E+03 -0.28827208685E+03  0.35171467384E+03  0.00000000000E+00 0.  1.
         11    1    5    5    0    0 -0.83489969016E+02  0.34655046254E+03 -0.17473946236E+03  0.39699077787E+03  0.00000000000E+00 0. -1.
        -11    1    5    5    0    0  0.92895875727E+01  0.50540906675E+02  0.30844075379E+01  0.51480027726E+02  0.00000000000E+00 0.  1.
          3    1    6    6  503    0  0.49199124941E+03  0.50889926695E+02  0.46076733749E+03  0.67598203632E+03  0.00000000000E+00 0. -1.
         -3    1    6    6    0  503  0.47152087982E+02  0.26754790460E+02  0.82886238411E+02  0.99041742369E+02  0.00000000000E+00 0.  1.
<mgrwt>
<rscale>  0 0.22051477E+04</rscale>
<asrwt>0</asrwt>
<pdfrwt beam="1">  1        1 0.20252944E+00 0.22051477E+04</pdfrwt>
<pdfrwt beam="2">  1       -2 0.14206939E+00 0.22051477E+04</pdfrwt>
<totfact> 0.24340177E+00</totfact>
</mgrwt>
</event>
<event>
12    4  0.4398275E-008  0.1878215E+04  0.7818608E-02  0.8665777E-01
         -2   -1    0    0    0  501 -0.00000000000E+00  0.00000000000E+00  0.25661773816E+04  0.25661773816E+04  0.00000000000E+00 0.  1.
          1   -1    0    0  501    0  0.00000000000E+00 -0.00000000000E+00 -0.34367181554E+03  0.34367181554E+03  0.00000000000E+00 0. -1.
        -24    2    1    2    0    0 -0.16513853377E+03  0.76435521173E+02 -0.22082898567E+03  0.29802457179E+03  0.83307144010E+02 0.  0.
        254    2    1    2    0    0  0.16513853377E+03 -0.76435521173E+02  0.24433345517E+04  0.26118246253E+04  0.90478230403E+03 0.  0.
         23    2    4    4    0    0  0.18997953602E+03 -0.30739339264E+03  0.22873585284E+04  0.23175323564E+04  0.91456349650E+02 0.  0.
         23    2    4    4    0    0 -0.24841002254E+02  0.23095787147E+03  0.15597602335E+03  0.29429226891E+03  0.91218451487E+02 0.  0.
          3    1    3    3  502    0 -0.14405333600E+03  0.90710944829E+02 -0.16697569649E+03  0.23845486437E+03  0.00000000000E+00 0. -1.
         -4    1    3    3    0  502 -0.21085197767E+02 -0.14275423656E+02 -0.53853289185E+02  0.59569707415E+02  0.00000000000E+00 0.  1.
         11    1    5    5    0    0  0.18514890086E+03 -0.28675973364E+03  0.22370687485E+04  0.22629599744E+04  0.00000000000E+00 0.  1.
        -11    1    5    5    0    0  0.48306351649E+01 -0.20633658998E+02  0.50289779896E+02  0.54572382042E+02  0.00000000000E+00 0. -1.
          2    1    6    6  503    0 -0.29061887242E+02  0.76919766042E+02  0.11438818987E+02  0.83018614044E+02  0.00000000000E+00 0. -1.
         -2    1    6    6    0  503  0.42208849887E+01  0.15403810542E+03  0.14453720437E+03  0.21127365486E+03  0.00000000000E+00 0.  1.
<mgrwt>
<rscale>  0 0.18782149E+04</rscale>
<asrwt>0</asrwt>
<pdfrwt beam="1">  1        1 0.52872589E-01 0.18782149E+04</pdfrwt>
<pdfrwt beam="2">  1       -2 0.39479651E+00 0.18782149E+04</pdfrwt>
<totfact> 0.48454998E-01</totfact>
</mgrwt>
</event>
<event>
12    4  0.4398275E-008  0.1411863E+04  0.7818608E-02  0.8945276E-01
         -2   -1    0    0    0  501 -0.00000000000E+00  0.00000000000E+00  0.37764008176E+03  0.37764008176E+03  0.00000000000E+00 0.  1.
          1   -1    0    0  501    0  0.00000000000E+00 -0.00000000000E+00 -0.13196143498E+04  0.13196143498E+04  0.00000000000E+00 0. -1.
        -24    2    1    2    0    0  0.11474278157E+03 -0.99038449284E+02  0.18257864840E+03  0.25043723540E+03  0.80058264173E+02 0.  0.
        254    2    1    2    0    0 -0.11474278157E+03  0.99038449284E+02 -0.11245529164E+04  0.14468171961E+04  0.89760025449E+03 0.  0.
         23    2    4    4    0    0 -0.82815992601E+02 -0.28723714289E+03 -0.97117818341E+03  0.10199801302E+04  0.88367059611E+02 0.  0.
         23    2    4    4    0    0 -0.31926788974E+02  0.38627559217E+03 -0.15337473300E+03  0.42683706591E+03  0.91858146913E+02 0.  0.
          1    1    3    3  502    0  0.15645862147E+02 -0.28268383658E+02  0.95269389045E+02  0.10059896126E+03  0.00000000000E+00 0. -1.
         -2    1    3    3    0  502  0.99096919428E+02 -0.70770065625E+02  0.87309259358E+02  0.14983827414E+03  0.00000000000E+00 0.  1.
         11    1    5    5    0    0 -0.77613527271E+02 -0.26538064193E+03 -0.94880932774E+03  0.98827621905E+03  0.00000000000E+00 0.  1.
        -11    1    5    5    0    0 -0.52024653295E+01 -0.21856500957E+02 -0.22368855669E+02  0.31703911171E+02  0.00000000000E+00 0. -1.
          1    1    6    6  503    0  0.11855691312E+02  0.10428432843E+02  0.51143258846E+01  0.16597167147E+02  0.00000000000E+00 0. -1.
         -1    1    6    6    0  503 -0.43782480286E+02  0.37584715933E+03 -0.15848905888E+03  0.41023989876E+03  0.00000000000E+00 0.  1.
<mgrwt>
<rscale>  0 0.14118630E+04</rscale>
<asrwt>0</asrwt>
<pdfrwt beam="1">  1        1 0.20301759E+00 0.14118630E+04</pdfrwt>
<pdfrwt beam="2">  1       -2 0.58098474E-01 0.14118630E+04</pdfrwt>
<totfact> 0.20747109E+01</totfact>
</mgrwt>
</event>
<event>
12    4  0.4398275E-008  0.1319774E+04  0.7818608E-02  0.9014029E-01
          1   -1    0    0  501    0  0.00000000000E+00  0.00000000000E+00  0.21188972359E+04  0.21188972359E+04  0.00000000000E+00 0. -1.
         -2   -1    0    0    0  501 -0.00000000000E+00 -0.00000000000E+00 -0.20550831683E+03  0.20550831683E+03  0.00000000000E+00 0.  1.
        -24    2    1    2    0    0  0.22915043726E+03 -0.41202496043E+02  0.71515751645E+02  0.25778531193E+03  0.84446407483E+02 0.  0.
        254    2    1    2    0    0 -0.22915043726E+03  0.41202496043E+02  0.18418731674E+04  0.20666202408E+04  0.90786281247E+03 0.  0.
         23    2    4    4    0    0 -0.47758802837E+03  0.28261868357E+03  0.13115487761E+04  0.14267040124E+04  0.85793365367E+02 0.  0.
         23    2    4    4    0    0  0.24843759111E+03 -0.24141618752E+03  0.53032439124E+03  0.63991622841E+03  0.90806426879E+02 0.  0.
          1    1    3    3  502    0  0.18689221009E+02 -0.10785466194E+02 -0.16980262558E+02  0.27458014850E+02  0.00000000000E+00 0. -1.
         -2    1    3    3    0  502  0.21046121625E+03 -0.30417029848E+02  0.88496014202E+02  0.23032729708E+03  0.00000000000E+00 0.  1.
         11    1    5    5    0    0 -0.15124212990E+03  0.13679412213E+03  0.45993892729E+03  0.50312089058E+03  0.00000000000E+00 0. -1.
        -11    1    5    5    0    0 -0.32634589847E+03  0.14582456144E+03  0.85160984886E+03  0.92358312178E+03  0.00000000000E+00 0.  1.
          3    1    6    6  503    0 -0.38607634854E+01  0.20927614824E+00 -0.10393540361E+01  0.40036917974E+01  0.00000000000E+00 0. -1.
         -3    1    6    6    0  503  0.25229835460E+03 -0.24162546367E+03  0.53136374528E+03  0.63591253662E+03  0.00000000000E+00 0.  1.
<mgrwt>
<rscale>  0 0.13197742E+04</rscale>
<asrwt>0</asrwt>
<pdfrwt beam="1">  1        1 0.32598417E+00 0.13197742E+04</pdfrwt>
<pdfrwt beam="2">  1       -2 0.31616666E-01 0.13197742E+04</pdfrwt>
<totfact> 0.19838147E+01</totfact>
</mgrwt>
</event>
<event>
12    4  0.4398275E-008  0.1320569E+04  0.7818608E-02  0.9013411E-01
         -2   -1    0    0    0  501 -0.00000000000E+00  0.00000000000E+00  0.90484125631E+03  0.90484125631E+03  0.00000000000E+00 0.  1.
          1   -1    0    0  501    0  0.00000000000E+00 -0.00000000000E+00 -0.48182542253E+03  0.48182542253E+03  0.00000000000E+00 0. -1.
        -24    2    1    2    0    0  0.33534317808E+03 -0.28001043250E+02  0.21573863477E+02  0.34663890382E+03  0.80336744702E+02 0.  0.
        254    2    1    2    0    0 -0.33534317808E+03  0.28001043250E+02  0.40144197030E+03  0.10400277750E+04  0.89847816432E+03 0.  0.
         23    2    4    4    0    0 -0.12491720897E+03 -0.36557974784E+03  0.42746844703E+03  0.58390618900E+03  0.94680004297E+02 0.  0.
         23    2    4    4    0    0 -0.21042596911E+03  0.39358079109E+03 -0.26026476734E+02  0.45612158601E+03  0.90468757798E+02 0.  0.
          1    1    3    3  502    0  0.24928672246E+03 -0.35239893591E+02  0.48053616358E+02  0.25631010542E+03  0.00000000000E+00 0. -1.
         -4    1    3    3    0  502  0.86056455623E+02  0.72388503410E+01 -0.26479752880E+02  0.90328798404E+02  0.00000000000E+00 0.  1.
         11    1    5    5    0    0 -0.12559409487E+03 -0.35409118523E+03  0.37738143358E+03  0.53251402849E+03  0.00000000000E+00 0. -1.
        -11    1    5    5    0    0  0.67688590443E+00 -0.11488562612E+02  0.50087013454E+02  0.51392160513E+02  0.00000000000E+00 0.  1.
          3    1    6    6  503    0 -0.11246254345E+03  0.25264235376E+03  0.23330846520E+02  0.27752533397E+03  0.00000000000E+00 0. -1.
         -3    1    6    6    0  503 -0.97963425664E+02  0.14093843733E+03 -0.49357323254E+02  0.17859625204E+03  0.00000000000E+00 0.  1.
<mgrwt>
<rscale>  0 0.13205688E+04</rscale>
<asrwt>0</asrwt>
<pdfrwt beam="1">  1        1 0.74126988E-01 0.13205688E+04</pdfrwt>
<pdfrwt beam="2">  1       -2 0.13920635E+00 0.13205688E+04</pdfrwt>
<totfact> 0.14572981E+01</totfact>
</mgrwt>
</event>
<event>
12    4  0.4398275E-008  0.1909016E+04  0.7818608E-02  0.8650381E-01
         -4   -1    0    0    0  501 -0.00000000000E+00  0.00000000000E+00  0.11248133439E+04  0.11248133439E+04  0.00000000000E+00 0.  1.
          3   -1    0    0  501    0  0.00000000000E+00 -0.00000000000E+00 -0.80998859773E+03  0.80998859773E+03  0.00000000000E+00 0. -1.
        -24    2    1    2    0    0  0.55396280987E+03  0.46235416238E+03  0.17371091444E+03  0.74786262959E+03  0.92069890577E+02 0.  0.
        254    2    1    2    0    0 -0.55396280987E+03 -0.46235416238E+03  0.14111383169E+03  0.11869393120E+04  0.93180773269E+03 0.  0.
         23    2    4    4    0    0 -0.77570751848E+03 -0.51192146087E+03  0.14397571865E+03  0.94480665655E+03  0.90248957693E+02 0.  0.
         23    2    4    4    0    0  0.22174470862E+03  0.49567298484E+02 -0.28618869554E+01  0.24213265546E+03  0.83620569030E+02 0.  0.
          1    1    3    3  502    0  0.51623004881E+03  0.40588439702E+03  0.17615828601E+03  0.67990245533E+03  0.00000000000E+00 0. -1.
         -4    1    3    3    0  502  0.37732761057E+02  0.56469765367E+02 -0.24473715672E+01  0.67960174258E+02  0.00000000000E+00 0.  1.
         11    1    5    5    0    0 -0.50924935721E+01 -0.65809336670E+01  0.10907651769E+02  0.13719294655E+02  0.00000000000E+00 0. -1.
        -11    1    5    5    0    0 -0.77061502491E+03 -0.50534052720E+03  0.13306806688E+03  0.93108736189E+03  0.00000000000E+00 0.  1.
          3    1    6    6  503    0 -0.67417526129E+01 -0.33138510226E+01 -0.11544447677E+01  0.76003670711E+01  0.00000000000E+00 0. -1.
         -3    1    6    6    0  503  0.22848646123E+03  0.52881149507E+02 -0.17074421877E+01  0.23453228839E+03  0.00000000000E+00 0.  1.
<mgrwt>
<rscale>  0 0.19090165E+04</rscale>
<asrwt>0</asrwt>
<pdfrwt beam="1">  1        3 0.12461363E+00 0.19090165E+04</pdfrwt>
<pdfrwt beam="2">  1       -4 0.17304821E+00 0.19090165E+04</pdfrwt>
<totfact> 0.22235520E-01</totfact>
</mgrwt>
</event>
<event>
12    4  0.4398275E-008  0.1401379E+04  0.7818608E-02  0.8952821E-01
         -2   -1    0    0    0  501 -0.00000000000E+00  0.00000000000E+00  0.17082511558E+03  0.17082511558E+03  0.00000000000E+00 0.  1.
          1   -1    0    0  501    0  0.00000000000E+00 -0.00000000000E+00 -0.28740861021E+04  0.28740861021E+04  0.00000000000E+00 0. -1.
        -24    2    1    2    0    0  0.26413362336E+03 -0.17241752603E+03 -0.14088363525E+04  0.14459291984E+04  0.79981275727E+02 0.  0.
        254    2    1    2    0    0 -0.26413362336E+03  0.17241752603E+03 -0.12944246340E+04  0.15989820193E+04  0.88414591018E+03 0.  0.
         23    2    4    4    0    0 -0.14397504625E+03  0.51181179908E+03 -0.56712231731E+03  0.78266119112E+03  0.90833285068E+02 0.  0.
         23    2    4    4    0    0 -0.12015857711E+03 -0.33939427305E+03 -0.72730231673E+03  0.81632082816E+03  0.88229690776E+02 0.  0.
          1    1    3    3  502    0  0.74025838042E+01  0.73632819846E+01 -0.77380910481E+02  0.78082145689E+02  0.00000000000E+00 0. -1.
         -2    1    3    3    0  502  0.25673103955E+03 -0.17978080801E+03 -0.13314554420E+04  0.13678470528E+04  0.00000000000E+00 0.  1.
         11    1    5    5    0    0 -0.61918781158E+02  0.23584237157E+03 -0.19532864532E+03  0.31242413379E+03  0.00000000000E+00 0. -1.
        -11    1    5    5    0    0 -0.82056265092E+02  0.27596942750E+03 -0.37179367199E+03  0.47023705733E+03  0.00000000000E+00 0.  1.
          3    1    6    6  503    0 -0.11012488361E+03 -0.18382729699E+03 -0.44200435447E+03  0.49121056023E+03  0.00000000000E+00 0. -1.
         -3    1    6    6    0  503 -0.10033693501E+02 -0.15556697605E+03 -0.28529796226E+03  0.32511026793E+03  0.00000000000E+00 0.  1.
<mgrwt>
<rscale>  0 0.14013794E+04</rscale>
<asrwt>0</asrwt>
<pdfrwt beam="1">  1        1 0.44216710E+00 0.14013794E+04</pdfrwt>
<pdfrwt beam="2">  1       -2 0.26280787E-01 0.14013794E+04</pdfrwt>
<totfact> 0.83243716E+00</totfact>
</mgrwt>
</event>
<event>
12    4  0.4398275E-008  0.2279236E+04  0.7818608E-02  0.8486153E-01
          1   -1    0    0  501    0  0.00000000000E+00  0.00000000000E+00  0.85310327828E+03  0.85310327828E+03  0.00000000000E+00 0. -1.
         -2   -1    0    0    0  501 -0.00000000000E+00 -0.00000000000E+00 -0.15223584440E+04  0.15223584440E+04  0.00000000000E+00 0.  1.
        -24    2    1    2    0    0 -0.18635449964E+03  0.90241660117E+03  0.50379503143E+01  0.92478122871E+03  0.78174282417E+02 0.  0.
        254    2    1    2    0    0  0.18635449964E+03 -0.90241660117E+03 -0.67429311604E+03  0.14506804936E+04  0.89482901525E+03 0.  0.
         23    2    4    4    0    0  0.42225977509E+03 -0.50841811864E+03 -0.71879159164E+03  0.98076820181E+03  0.91938090242E+02 0.  0.
         23    2    4    4    0    0 -0.23590527545E+03 -0.39399848253E+03  0.44498475600E+02  0.46991229178E+03  0.89170311301E+02 0.  0.
          3    1    3    3  502    0 -0.16874772979E+03  0.85657338245E+03 -0.11044122877E+02  0.87310693989E+03  0.00000000000E+00 0. -1.
         -4    1    3    3    0  502 -0.17606769853E+02  0.45843218713E+02  0.16082073192E+02  0.51674288817E+02  0.00000000000E+00 0.  1.
         11    1    5    5    0    0  0.39760523904E+03 -0.48588942906E+03 -0.70656016329E+03  0.94520142178E+03  0.00000000000E+00 0.  1.
        -11    1    5    5    0    0  0.24654536051E+02 -0.22528689574E+02 -0.12231428354E+02  0.35566780026E+02  0.00000000000E+00 0. -1.
          3    1    6    6  503    0 -0.15963141020E+03 -0.26105657811E+03 -0.12854295182E+02  0.30626452128E+03  0.00000000000E+00 0. -1.
         -3    1    6    6    0  503 -0.76273865253E+02 -0.13294190442E+03  0.57352770782E+02  0.16364777050E+03  0.00000000000E+00 0.  1.
<mgrwt>
<rscale>  0 0.22792358E+04</rscale>
<asrwt>0</asrwt>
<pdfrwt beam="1">  1        1 0.13124666E+00 0.22792358E+04</pdfrwt>
<pdfrwt beam="2">  1       -2 0.23420899E+00 0.22792358E+04</pdfrwt>
<totfact> 0.12713544E+00</totfact>
</mgrwt>
</event>
<event>
12    4  0.4398275E-008  0.3637566E+04  0.7818608E-02  0.8081941E-01
         -2   -1    0    0    0  501 -0.00000000000E+00  0.00000000000E+00  0.13755389199E+04  0.13755389199E+04  0.00000000000E+00 0.  1.
          1   -1    0    0  501    0  0.00000000000E+00 -0.00000000000E+00 -0.24048543337E+04  0.24048543337E+04  0.00000000000E+00 0. -1.
        -24    2    1    2    0    0 -0.99340914269E+03 -0.17565902402E+03 -0.18953467270E+04  0.21485906438E+04  0.79904452278E+02 0.  0.
        254    2    1    2    0    0  0.99340914269E+03  0.17565902402E+03  0.86603131317E+03  0.16318026098E+04  0.94607172274E+03 0.  0.
         23    2    4    4    0    0  0.40219659112E+03 -0.25590698225E+03  0.73805506478E+03  0.88323175027E+03  0.90125271537E+02 0.  0.
         23    2    4    4    0    0  0.59121255157E+03  0.43156600627E+03  0.12797624839E+03  0.74857085956E+03  0.90547847732E+02 0.  0.
          3    1    3    3  502    0 -0.31521754724E+03 -0.44102456742E+02 -0.67480458393E+03  0.74610210781E+03  0.00000000000E+00 0. -1.
         -4    1    3    3    0  502 -0.67819159545E+03 -0.13155656728E+03 -0.12205421431E+04  0.14024885360E+04  0.00000000000E+00 0.  1.
         11    1    5    5    0    0 -0.10883779659E+01  0.44711510443E+01  0.11821072400E+02  0.12685168936E+02  0.00000000000E+00 0. -1.
        -11    1    5    5    0    0  0.40328496909E+03 -0.26037813329E+03  0.72623399238E+03  0.87054658134E+03  0.00000000000E+00 0.  1.
          1    1    6    6  503    0  0.18569386661E+03  0.18892725233E+03  0.51160479880E+02  0.26980198938E+03  0.00000000000E+00 0. -1.
         -1    1    6    6    0  503  0.40551868496E+03  0.24263875394E+03  0.76815768506E+02  0.47876887018E+03  0.00000000000E+00 0.  1.
<mgrwt>
<rscale>  0 0.36375655E+04</rscale>
<asrwt>0</asrwt>
<pdfrwt beam="1">  1        1 0.36997759E+00 0.36375655E+04</pdfrwt>
<pdfrwt beam="2">  1       -2 0.21162137E+00 0.36375655E+04</pdfrwt>
<totfact> 0.12505051E-01</totfact>
</mgrwt>
</event>
<event>
12    4  0.4398275E-008  0.2314685E+04  0.7818608E-02  0.8472153E-01
         -2   -1    0    0    0  501 -0.00000000000E+00  0.00000000000E+00  0.74506275106E+03  0.74506275106E+03  0.00000000000E+00 0.  1.
          1   -1    0    0  501    0  0.00000000000E+00 -0.00000000000E+00 -0.17977566930E+04  0.17977566930E+04  0.00000000000E+00 0. -1.
        -24    2    1    2    0    0  0.56285087580E+03 -0.40609911811E+03  0.31375796678E+03  0.76609005754E+03  0.82050669922E+02 0.  0.
        254    2    1    2    0    0 -0.56285087580E+03  0.40609911811E+03 -0.13664519087E+04  0.17767293865E+04  0.89880970843E+03 0.  0.
         23    2    4    4    0    0 -0.35904373387E+03  0.58495565776E+03 -0.47212495708E+03  0.83797426859E+03  0.90627674219E+02 0.  0.
         23    2    4    4    0    0 -0.20380714192E+03 -0.17885653965E+03 -0.89432695162E+03  0.93875511792E+03  0.88957642408E+02 0.  0.
          1    1    3    3  502    0  0.37219122470E+02 -0.51845029416E+02  0.16131528221E+02  0.65828537545E+02  0.00000000000E+00 0. -1.
         -2    1    3    3    0  502  0.52563175333E+03 -0.35425408870E+03  0.29762643855E+03  0.70026152000E+03  0.00000000000E+00 0.  1.
         11    1    5    5    0    0 -0.20046183007E+03  0.30913336331E+03 -0.30663921953E+03  0.47934955156E+03  0.00000000000E+00 0. -1.
        -11    1    5    5    0    0 -0.15858190380E+03  0.27582229445E+03 -0.16548573755E+03  0.35862471703E+03  0.00000000000E+00 0.  1.
          1    1    6    6  503    0 -0.15505509339E+03 -0.17871958587E+03 -0.73744677264E+03  0.77447434743E+03  0.00000000000E+00 0. -1.
         -1    1    6    6    0  503 -0.48752048529E+02 -0.13695378273E+00 -0.15688017899E+03  0.16428077049E+03  0.00000000000E+00 0.  1.
<mgrwt>
<rscale>  0 0.23146849E+04</rscale>
<asrwt>0</asrwt>
<pdfrwt beam="1">  1        1 0.27657795E+00 0.23146849E+04</pdfrwt>
<pdfrwt beam="2">  1       -2 0.11462504E+00 0.23146849E+04</pdfrwt>
<totfact> 0.19268378E+00</totfact>
</mgrwt>
</event>
<event>
12    4  0.4398275E-008  0.1292025E+04  0.7818608E-02  0.9035913E-01
         -2   -1    0    0    0  501 -0.00000000000E+00  0.00000000000E+00  0.50312120668E+03  0.50312120668E+03  0.00000000000E+00 0.  1.
          1   -1    0    0  501    0  0.00000000000E+00 -0.00000000000E+00 -0.82948664496E+03  0.82948664496E+03  0.00000000000E+00 0. -1.
        -24    2    1    2    0    0  0.24260906323E+03  0.32282290672E+02  0.13355778221E+03  0.29036095594E+03  0.81058618881E+02 0.  0.
        254    2    1    2    0    0 -0.24260906323E+03 -0.32282290672E+02 -0.45992322049E+03  0.10422468957E+04  0.90268927045E+03 0.  0.
         23    2    4    4    0    0 -0.24799827414E+03 -0.20833215490E+03 -0.67236159072E+03  0.75198516676E+03  0.92228800365E+02 0.  0.
         23    2    4    4    0    0  0.53892109096E+01  0.17604986422E+03  0.21243837023E+03  0.29026172893E+03  0.89995621281E+02 0.  0.
          3    1    3    3  502    0  0.18443080176E+02 -0.15134407971E+02 -0.23275048801E+01  0.23971124087E+02  0.00000000000E+00 0. -1.
         -4    1    3    3    0  502  0.22416598305E+03  0.47416698643E+02  0.13588528709E+03  0.26638983185E+03  0.00000000000E+00 0.  1.
         11    1    5    5    0    0  0.72471590055E+01 -0.13550519133E+02 -0.24388858851E+02  0.28826278262E+02  0.00000000000E+00 0. -1.
        -11    1    5    5    0    0 -0.25524543314E+03 -0.19478163576E+03 -0.64797273187E+03  0.72315888850E+03  0.00000000000E+00 0.  1.
          3    1    6    6  503    0  0.82048711254E+01  0.38129794991E+02  0.25336725977E+01  0.39084788257E+02  0.00000000000E+00 0. -1.
         -3    1    6    6    0  503 -0.28156602158E+01  0.13792006923E+03  0.20990469763E+03  0.25117694067E+03  0.00000000000E+00 0.  1.
<mgrwt>
<rscale>  0 0.12920253E+04</rscale>
<asrwt>0</asrwt>
<pdfrwt beam="1">  1        1 0.12761333E+00 0.12920253E+04</pdfrwt>
<pdfrwt beam="2">  1       -2 0.77403264E-01 0.12920253E+04</pdfrwt>
<totfact> 0.26736838E+01</totfact>
</mgrwt>
</event>
<event>
12    4  0.4398275E-008  0.2512305E+04  0.7818608E-02  0.8398615E-01
         -2   -1    0    0    0  501 -0.00000000000E+00  0.00000000000E+00  0.11042025598E+04  0.11042025598E+04  0.00000000000E+00 0.  1.
          1   -1    0    0  501    0  0.00000000000E+00 -0.00000000000E+00 -0.14290118481E+04  0.14290118481E+04  0.00000000000E+00 0. -1.
        -24    2    1    2    0    0 -0.28698053878E+01 -0.31399604817E+03  0.90710745826E+03  0.96322785759E+03  0.79763467525E+02 0.  0.
        254    2    1    2    0    0  0.28698053878E+01  0.31399604817E+03 -0.12319167466E+04  0.15699865503E+04  0.92121503660E+03 0.  0.
         23    2    4    4    0    0 -0.36559298634E+03  0.42884679553E+03 -0.64356408511E+03  0.86034524268E+03  0.91931492235E+02 0.  0.
         23    2    4    4    0    0  0.36846279173E+03 -0.11485074736E+03 -0.58835266150E+03  0.70964130766E+03  0.92067411124E+02 0.  0.
          1    1    3    3  502    0  0.26470001457E+01 -0.23881099382E+01 -0.50214664905E+00  0.36002541724E+01  0.00000000000E+00 0. -1.
         -2    1    3    3    0  502 -0.55168055335E+01 -0.31160793823E+03  0.90760960491E+03  0.95962760341E+03  0.00000000000E+00 0.  1.
         11    1    5    5    0    0 -0.29181629682E+03  0.34767198337E+03 -0.56826724045E+03  0.72729651153E+03  0.00000000000E+00 0.  1.
        -11    1    5    5    0    0 -0.73776689524E+02  0.81174812163E+02 -0.75296844654E+02  0.13304873115E+03  0.00000000000E+00 0. -1.
          1    1    6    6  503    0  0.10236456827E+03 -0.68114838180E+02 -0.23062138433E+03  0.26135102626E+03  0.00000000000E+00 0. -1.
         -1    1    6    6    0  503  0.26609822346E+03 -0.46735909184E+02 -0.35773127717E+03  0.44829028140E+03  0.00000000000E+00 0.  1.
<mgrwt>
<rscale>  0 0.25123046E+04</rscale>
<asrwt>0</asrwt>
<pdfrwt beam="1">  1        1 0.21984797E+00 0.25123046E+04</pdfrwt>
<pdfrwt beam="2">  1       -2 0.16987732E+00 0.25123046E+04</pdfrwt>
<totfact> 0.12198907E+00</totfact>
</mgrwt>
</event>
<event>
12    4  0.4398275E-008  0.1771205E+04  0.7818608E-02  0.8721764E-01
          1   -1    0    0  501    0  0.00000000000E+00  0.00000000000E+00  0.34100875922E+03  0.34100875922E+03  0.00000000000E+00 0. -1.
         -2   -1    0    0    0  501 -0.00000000000E+00 -0.00000000000E+00 -0.22999163655E+04  0.22999163655E+04  0.00000000000E+00 0.  1.
        -24    2    1    2    0    0  0.10479968704E+03  0.15366433665E+03  0.20761686373E+03  0.28964571717E+03  0.78703091465E+02 0.  0.
        254    2    1    2    0    0 -0.10479968704E+03 -0.15366433665E+03 -0.21665244700E+04  0.23512794075E+04  0.89447798768E+03 0.  0.
         23    2    4    4    0    0  0.16225682416E+03 -0.44540934088E+03 -0.14409955869E+04  0.15200430357E+04  0.96673631458E+02 0.  0.
         23    2    4    4    0    0 -0.26705651120E+03  0.29174500423E+03 -0.72552888311E+03  0.83123637183E+03  0.90152193404E+02 0.  0.
          3    1    3    3  502    0  0.46663929278E+01  0.64499309894E+02  0.92883483090E+02  0.11317807929E+03  0.00000000000E+00 0. -1.
         -4    1    3    3    0  502  0.10013329411E+03  0.89165026757E+02  0.11473338064E+03  0.17646763788E+03  0.00000000000E+00 0.  1.
         11    1    5    5    0    0  0.10778817318E+02  0.16912805131E+01 -0.48315232998E+02  0.49531859164E+02  0.00000000000E+00 0. -1.
        -11    1    5    5    0    0  0.15147800684E+03 -0.44710062139E+03 -0.13926803539E+04  0.14705111765E+04  0.00000000000E+00 0.  1.
          2    1    6    6  503    0 -0.10439673686E+03  0.10978658806E+03 -0.19231467177E+03  0.24481974300E+03  0.00000000000E+00 0.  1.
         -2    1    6    6    0  503 -0.16265977433E+03  0.18195841617E+03 -0.53321421134E+03  0.58641662883E+03  0.00000000000E+00 0. -1.
<mgrwt>
<rscale>  0 0.17712048E+04</rscale>
<asrwt>0</asrwt>
<pdfrwt beam="1">  1        1 0.52462887E-01 0.17712048E+04</pdfrwt>
<pdfrwt beam="2">  1       -2 0.35383328E+00 0.17712048E+04</pdfrwt>
<totfact> 0.90553987E-01</totfact>
</mgrwt>
</event>
<event>
12    4  0.4398275E-008  0.1938089E+04  0.7818608E-02  0.8636126E-01
         -2   -1    0    0    0  501 -0.00000000000E+00  0.00000000000E+00  0.22027690629E+04  0.22027690629E+04  0.00000000000E+00 0.  1.
          1   -1    0    0  501    0  0.00000000000E+00 -0.00000000000E+00 -0.42630306331E+03  0.42630306331E+03  0.00000000000E+00 0. -1.
        -24    2    1    2    0    0  0.53772583511E+03  0.33996309281E+03  0.14092838150E+03  0.65533135072E+03  0.69816848211E+02 0.  0.
        254    2    1    2    0    0 -0.53772583511E+03 -0.33996309281E+03  0.16355376181E+04  0.19737407755E+04  0.90329694479E+03 0.  0.
         23    2    4    4    0    0 -0.23959138640E+03 -0.45720797571E+03  0.31303855553E+03  0.60991596800E+03  0.86955076184E+02 0.  0.
         23    2    4    4    0    0 -0.29813444871E+03  0.11724488290E+03  0.13224990625E+04  0.13638248075E+04  0.91563218859E+02 0.  0.
          3    1    3    3  502    0  0.27990244629E+03  0.18983268949E+03  0.40937349769E+02  0.34067241749E+03  0.00000000000E+00 0. -1.
         -4    1    3    3    0  502  0.25782338882E+03  0.15013040333E+03  0.99991031734E+02  0.31465893322E+03  0.00000000000E+00 0.  1.
         11    1    5    5    0    0 -0.20115640670E+03 -0.43006878501E+03  0.27022057964E+03  0.54629865591E+03  0.00000000000E+00 0.  1.
        -11    1    5    5    0    0 -0.38434979700E+02 -0.27139190704E+02  0.42817975896E+02  0.63617312081E+02  0.00000000000E+00 0. -1.
          2    1    6    6  503    0 -0.75020895066E+02 -0.10101443694E+02  0.33637095925E+03  0.34478340460E+03  0.00000000000E+00 0. -1.
         -2    1    6    6    0  503 -0.22311355365E+03  0.12734632659E+03  0.98612810327E+03  0.10190414029E+04  0.00000000000E+00 0.  1.
<mgrwt>
<rscale>  0 0.19380890E+04</rscale>
<asrwt>0</asrwt>
<pdfrwt beam="1">  1        1 0.65585088E-01 0.19380890E+04</pdfrwt>
<pdfrwt beam="2">  1       -2 0.33888754E+00 0.19380890E+04</pdfrwt>
<totfact> 0.82331596E-01</totfact>
</mgrwt>
</event>
<event>
12    4  0.4398275E-008  0.1743418E+04  0.7818608E-02  0.8736982E-01
          1   -1    0    0  501    0  0.00000000000E+00  0.00000000000E+00  0.62748272226E+03  0.62748272226E+03  0.00000000000E+00 0. -1.
         -2   -1    0    0    0  501 -0.00000000000E+00 -0.00000000000E+00 -0.12109915863E+04  0.12109915863E+04  0.00000000000E+00 0.  1.
        -24    2    1    2    0    0 -0.98114444021E+02 -0.13516110188E+03 -0.86484199336E+03  0.88426773949E+03  0.77992269073E+02 0.  0.
        254    2    1    2    0    0  0.98114444021E+02  0.13516110188E+03  0.28133312930E+03  0.95420656909E+03  0.89636314029E+03 0.  0.
         23    2    4    4    0    0 -0.26120763971E+03 -0.18350215992E+03  0.32300236031E+03  0.46351112530E+03  0.92787740396E+02 0.  0.
         23    2    4    4    0    0  0.35932208373E+03  0.31866326181E+03 -0.41669231007E+02  0.49069544380E+03  0.91580890305E+02 0.  0.
          1    1    3    3  502    0 -0.45972162346E+02 -0.36986038905E+02 -0.15644381929E+03  0.16720070388E+03  0.00000000000E+00 0. -1.
         -2    1    3    3    0  502 -0.52142281675E+02 -0.98175062978E+02 -0.70839817407E+03  0.71706703560E+03  0.00000000000E+00 0.  1.
         11    1    5    5    0    0 -0.77179736458E+00 -0.10723113593E+01 -0.58935471264E+01  0.60398195796E+01  0.00000000000E+00 0.  1.
        -11    1    5    5    0    0 -0.26043584235E+03 -0.18242984857E+03  0.32889590744E+03  0.45747130572E+03  0.00000000000E+00 0. -1.
          3    1    6    6  503    0  0.28516147497E+03  0.29071285307E+03 -0.16560347266E+02  0.40756014875E+03  0.00000000000E+00 0. -1.
         -3    1    6    6    0  503  0.74160608756E+02  0.27950408740E+02 -0.25108883741E+02  0.83135295047E+02  0.00000000000E+00 0.  1.
<mgrwt>
<rscale>  0 0.17434177E+04</rscale>
<asrwt>0</asrwt>
<pdfrwt beam="1">  1        1 0.96535805E-01 0.17434177E+04</pdfrwt>
<pdfrwt beam="2">  1       -2 0.18630640E+00 0.17434177E+04</pdfrwt>
<totfact> 0.43681429E+00</totfact>
</mgrwt>
</event>
<event>
12    4  0.4398275E-008  0.1247241E+04  0.7818608E-02  0.9072483E-01
          1   -1    0    0  501    0  0.00000000000E+00  0.00000000000E+00  0.11449924855E+04  0.11449924855E+04  0.00000000000E+00 0. -1.
         -2   -1    0    0    0  501 -0.00000000000E+00 -0.00000000000E+00 -0.33965521207E+03  0.33965521207E+03  0.00000000000E+00 0.  1.
        -24    2    1    2    0    0 -0.59639548846E+02 -0.27966890406E+03  0.13955435127E+03  0.32711264853E+03  0.75866304677E+02 0.  0.
        254    2    1    2    0    0  0.59639548846E+02  0.27966890406E+03  0.66578292219E+03  0.11575350491E+04  0.90268982417E+03 0.  0.
         23    2    4    4    0    0  0.25282462470E+03  0.52933026137E+03  0.54870632287E+03  0.80858803105E+03  0.92871732705E+02 0.  0.
         23    2    4    4    0    0 -0.19318507586E+03 -0.24966135732E+03  0.11707659932E+03  0.34894701802E+03  0.91683283103E+02 0.  0.
          1    1    3    3  502    0 -0.15173630344E+02 -0.11094839662E+02  0.26153070249E+02  0.32207415426E+02  0.00000000000E+00 0. -1.
         -2    1    3    3    0  502 -0.44465918502E+02 -0.26857406439E+03  0.11340128102E+03  0.29490523310E+03  0.00000000000E+00 0.  1.
         11    1    5    5    0    0  0.65609510261E+02  0.95884898802E+02  0.67190372721E+02  0.13421277078E+03  0.00000000000E+00 0. -1.
        -11    1    5    5    0    0  0.18721511444E+03  0.43344536257E+03  0.48151595015E+03  0.67437526026E+03  0.00000000000E+00 0.  1.
          4    1    6    6  503    0 -0.11668121874E+03 -0.11813846692E+03  0.10467920303E+03  0.19628790008E+03  0.00000000000E+00 0. -1.
         -4    1    6    6    0  503 -0.76503857120E+02 -0.13152289040E+03  0.12397396297E+02  0.15265911794E+03  0.00000000000E+00 0.  1.
<mgrwt>
<rscale>  0 0.12472412E+04</rscale>
<asrwt>0</asrwt>
<pdfrwt beam="1">  1        1 0.17615269E+00 0.12472412E+04</pdfrwt>
<pdfrwt beam="2">  1       -2 0.52254648E-01 0.12472412E+04</pdfrwt>
<totfact> 0.35077857E+01</totfact>
</mgrwt>
</event>
<event>
12    4  0.4398275E-008  0.1270868E+04  0.7818608E-02  0.9052992E-01
          1   -1    0    0  501    0  0.00000000000E+00  0.00000000000E+00  0.19289146952E+04  0.19289146952E+04  0.00000000000E+00 0. -1.
         -2   -1    0    0    0  501 -0.00000000000E+00 -0.00000000000E+00 -0.20932810214E+03  0.20932810214E+03  0.00000000000E+00 0.  1.
        -24    2    1    2    0    0 -0.28199188352E+03 -0.12010165087E+03  0.35792598758E+03  0.47783165704E+03  0.79172286638E+02 0.  0.
        254    2    1    2    0    0  0.28199188352E+03  0.12010165087E+03  0.13616606054E+04  0.16604111403E+04  0.89938963824E+03 0.  0.
         23    2    4    4    0    0 -0.11040647940E+03  0.16164963912E+03 -0.19782209996E+02  0.22077238227E+03  0.10014445775E+03 0.  0.
         23    2    4    4    0    0  0.39239836292E+03 -0.41547988255E+02  0.13814428154E+04  0.14396387580E+04  0.92047762823E+02 0.  0.
          3    1    3    3  502    0 -0.20217339422E+03 -0.93408341516E+02  0.30763436159E+03  0.37978691397E+03  0.00000000000E+00 0. -1.
         -4    1    3    3    0  502 -0.79818489294E+02 -0.26693309350E+02  0.50291625990E+02  0.98044743062E+02  0.00000000000E+00 0.  1.
         11    1    5    5    0    0 -0.33579212434E+02  0.12596998866E+03  0.10555841157E+02  0.13079536434E+03  0.00000000000E+00 0.  1.
        -11    1    5    5    0    0 -0.76827266967E+02  0.35679650458E+02 -0.30338051152E+02  0.89977017922E+02  0.00000000000E+00 0. -1.
          2    1    6    6  503    0  0.41112727533E+02 -0.28197639141E+02  0.11565519903E+03  0.12594240065E+03  0.00000000000E+00 0.  1.
         -2    1    6    6    0  503  0.35128563538E+03 -0.13350349114E+02  0.12657876164E+04  0.13136963573E+04  0.00000000000E+00 0. -1.
<mgrwt>
<rscale>  0 0.12708675E+04</rscale>
<asrwt>0</asrwt>
<pdfrwt beam="1">  1        1 0.29675609E+00 0.12708675E+04</pdfrwt>
<pdfrwt beam="2">  1       -2 0.32204325E-01 0.12708675E+04</pdfrwt>
<totfact> 0.25862992E+01</totfact>
</mgrwt>
</event>
<event>
12    4  0.4398275E-008  0.1266545E+04  0.7818608E-02  0.9056524E-01
         -2   -1    0    0    0  501 -0.00000000000E+00  0.00000000000E+00  0.29409537988E+03  0.29409537988E+03  0.00000000000E+00 0.  1.
          1   -1    0    0  501    0  0.00000000000E+00 -0.00000000000E+00 -0.13636197728E+04  0.13636197728E+04  0.00000000000E+00 0. -1.
        -24    2    1    2    0    0 -0.27882588715E+03  0.10685413229E+03 -0.32787795998E+03  0.45083025205E+03  0.81131242983E+02 0.  0.
        254    2    1    2    0    0  0.27882588715E+03 -0.10685413229E+03 -0.74164643292E+03  0.12068849006E+04  0.90408520116E+03 0.  0.
         23    2    4    4    0    0  0.52220092797E+03 -0.27108923793E+03 -0.29491172723E+03  0.66422361748E+03  0.89648776107E+02 0.  0.
         23    2    4    4    0    0 -0.24337504083E+03  0.16423510563E+03 -0.44673470569E+03  0.54266128315E+03  0.93299467008E+02 0.  0.
          1    1    3    3  502    0  0.18314373412E+01  0.12477410226E+02 -0.79557937980E+01  0.14910888090E+02  0.00000000000E+00 0. -1.
         -2    1    3    3    0  502 -0.28065732449E+03  0.94376722065E+02 -0.31992216619E+03  0.43591936396E+03  0.00000000000E+00 0.  1.
         11    1    5    5    0    0  0.25543324384E+03 -0.17996496894E+03 -0.13784294877E+03  0.34151751145E+03  0.00000000000E+00 0.  1.
        -11    1    5    5    0    0  0.26676768413E+03 -0.91124268988E+02 -0.15706877846E+03  0.32270610602E+03  0.00000000000E+00 0. -1.
          4    1    6    6  503    0 -0.44286184837E+02 -0.40809046670E+01 -0.41627885272E+02  0.60916342491E+02  0.00000000000E+00 0. -1.
         -4    1    6    6    0  503 -0.19908885599E+03  0.16831601030E+03 -0.40510682041E+03  0.48174494066E+03  0.00000000000E+00 0.  1.
<mgrwt>
<rscale>  0 0.12665453E+04</rscale>
<asrwt>0</asrwt>
<pdfrwt beam="1">  1        1 0.20978766E+00 0.12665453E+04</pdfrwt>
<pdfrwt beam="2">  1       -2 0.45245442E-01 0.12665453E+04</pdfrwt>
<totfact> 0.32619463E+01</totfact>
</mgrwt>
</event>
<event>
12    4  0.4398275E-008  0.1671470E+04  0.7818608E-02  0.8777805E-01
         -2   -1    0    0    0  501 -0.00000000000E+00  0.00000000000E+00  0.14238884269E+04  0.14238884269E+04  0.00000000000E+00 0.  1.
          1   -1    0    0  501    0  0.00000000000E+00 -0.00000000000E+00 -0.49052509838E+03  0.49052509838E+03  0.00000000000E+00 0. -1.
        -24    2    1    2    0    0  0.11088285084E+03  0.11153553897E+03  0.97328053417E+03  0.98923485259E+03  0.81088916094E+02 0.  0.
        254    2    1    2    0    0 -0.11088285084E+03 -0.11153553897E+03 -0.39917205605E+02  0.92517867273E+03  0.91083863011E+03 0.  0.
         23    2    4    4    0    0 -0.42062001662E+03 -0.18805534103E+03  0.20562423602E+03  0.51273414619E+03  0.91263182949E+02 0.  0.
         23    2    4    4    0    0  0.30973716578E+03  0.76519802061E+02 -0.24554144163E+03  0.41244452654E+03  0.89596294240E+02 0.  0.
          3    1    3    3  502    0  0.68602629812E+02  0.83819942626E+02  0.42339287291E+03  0.43702817807E+03  0.00000000000E+00 0. -1.
         -4    1    3    3    0  502  0.42280221027E+02  0.27715596346E+02  0.54988766126E+03  0.55220667452E+03  0.00000000000E+00 0.  1.
         11    1    5    5    0    0 -0.85269923254E+02 -0.46142785571E+02  0.85564187066E+02  0.12931104586E+03  0.00000000000E+00 0.  1.
        -11    1    5    5    0    0 -0.33535009336E+03 -0.14191255546E+03  0.12006004896E+03  0.38342310034E+03  0.00000000000E+00 0. -1.
          1    1    6    6  503    0  0.23776709903E+03  0.83565983225E+02 -0.15237746949E+03  0.29450867584E+03  0.00000000000E+00 0. -1.
         -1    1    6    6    0  503  0.71970066750E+02 -0.70461811642E+01 -0.93163972133E+02  0.11793585070E+03  0.00000000000E+00 0.  1.
<mgrwt>
<rscale>  0 0.16714700E+04</rscale>
<asrwt>0</asrwt>
<pdfrwt beam="1">  1        1 0.75465400E-01 0.16714700E+04</pdfrwt>
<pdfrwt beam="2">  1       -2 0.21905976E+00 0.16714700E+04</pdfrwt>
<totfact> 0.38026464E+00</totfact>
</mgrwt>
</event>
<event>
12    4  0.4398275E-008  0.2475520E+04  0.7818608E-02  0.8411759E-01
         -2   -1    0    0    0  501 -0.00000000000E+00  0.00000000000E+00  0.13295930543E+04  0.13295930543E+04  0.00000000000E+00 0.  1.
          1   -1    0    0  501    0  0.00000000000E+00 -0.00000000000E+00 -0.11522692889E+04  0.11522692889E+04  0.00000000000E+00 0. -1.
        -24    2    1    2    0    0  0.10207681659E+04 -0.93255796435E+02 -0.22679808196E+03  0.10526872001E+04  0.77773255115E+02 0.  0.
        254    2    1    2    0    0 -0.10207681659E+04  0.93255796435E+02  0.40412184732E+03  0.14291751431E+04  0.91025426680E+03 0.  0.
         23    2    4    4    0    0 -0.56572055973E+02 -0.23006341438E+03 -0.11899653441E+03  0.28197585079E+03  0.96024127569E+02 0.  0.
         23    2    4    4    0    0 -0.96419610991E+03  0.32331921081E+03  0.52311838173E+03  0.11471992923E+04  0.90575518810E+02 0.  0.
          3    1    3    3  502    0  0.41719051568E+03 -0.39464638115E+02 -0.13197223873E+03  0.43934275439E+03  0.00000000000E+00 0. -1.
         -4    1    3    3    0  502  0.60357765019E+03 -0.53791158320E+02 -0.94825843233E+02  0.61334444570E+03  0.00000000000E+00 0.  1.
         11    1    5    5    0    0  0.25405601685E+02 -0.45759892133E+02 -0.37666886867E+02  0.64484158452E+02  0.00000000000E+00 0.  1.
        -11    1    5    5    0    0 -0.81977657658E+02 -0.18430352224E+03 -0.81329647543E+02  0.21749169234E+03  0.00000000000E+00 0. -1.
          4    1    6    6  503    0 -0.74218201040E+03  0.28787472930E+03  0.40108851985E+03  0.89139104611E+03  0.00000000000E+00 0. -1.
         -4    1    6    6    0  503 -0.22201409951E+03  0.35444481510E+02  0.12202986188E+03  0.25580824623E+03  0.00000000000E+00 0.  1.
<mgrwt>
<rscale>  0 0.24755195E+04</rscale>
<asrwt>0</asrwt>
<pdfrwt beam="1">  1        1 0.17727220E+00 0.24755195E+04</pdfrwt>
<pdfrwt beam="2">  1       -2 0.20455278E+00 0.24755195E+04</pdfrwt>
<totfact> 0.11239208E+00</totfact>
</mgrwt>
</event>
<event>
12    4  0.4398275E-008  0.2643821E+04  0.7818608E-02  0.8353467E-01
         -2   -1    0    0    0  501 -0.00000000000E+00  0.00000000000E+00  0.59174890659E+03  0.59174890659E+03  0.00000000000E+00 0.  1.
          1   -1    0    0  501    0  0.00000000000E+00 -0.00000000000E+00 -0.29530212495E+04  0.29530212495E+04  0.00000000000E+00 0. -1.
        -24    2    1    2    0    0  0.38683308903E+03  0.52081208926E+03 -0.23303778451E+04  0.24202606510E+04  0.78202600572E+02 0.  0.
        254    2    1    2    0    0 -0.38683308903E+03 -0.52081208926E+03 -0.30894497826E+02  0.11245095051E+04  0.91797717074E+03 0.  0.
         23    2    4    4    0    0 -0.21506944901E+02 -0.69930332784E+03 -0.50961612627E+02  0.70753761525E+03  0.92329291269E+02 0.  0.
         23    2    4    4    0    0 -0.36532614413E+03  0.17849123858E+03  0.20067114801E+02  0.41697188986E+03  0.90225018693E+02 0.  0.
          1    1    3    3  502    0  0.39048370957E+03  0.51367136753E+03 -0.22945986184E+04  0.23835936358E+04  0.00000000000E+00 0. -1.
         -2    1    3    3    0  502 -0.36506205333E+01  0.71407217270E+01 -0.35779226744E+02  0.36667015197E+02  0.00000000000E+00 0.  1.
         11    1    5    5    0    0 -0.14374446152E+01 -0.63106693651E+03 -0.67030483264E+02  0.63461849192E+03  0.00000000000E+00 0. -1.
        -11    1    5    5    0    0 -0.20069500286E+02 -0.68236391331E+02  0.16068870637E+02  0.72919123330E+02  0.00000000000E+00 0.  1.
          1    1    6    6  503    0 -0.27064752119E+03  0.10278858884E+03 -0.17567216234E+02  0.29004168977E+03  0.00000000000E+00 0. -1.
         -1    1    6    6    0  503 -0.94678622947E+02  0.75702649749E+02  0.37634331034E+02  0.12693020009E+03  0.00000000000E+00 0.  1.
<mgrwt>
<rscale>  0 0.26438208E+04</rscale>
<asrwt>0</asrwt>
<pdfrwt beam="1">  1        1 0.45431097E+00 0.26438208E+04</pdfrwt>
<pdfrwt beam="2">  1       -2 0.91038292E-01 0.26438208E+04</pdfrwt>
<totfact> 0.51346140E-01</totfact>
</mgrwt>
</event>
<event>
12    4  0.4398275E-008  0.1547280E+04  0.7818608E-02  0.8853607E-01
         -2   -1    0    0    0  501 -0.00000000000E+00  0.00000000000E+00  0.19929439364E+03  0.19929439364E+03  0.00000000000E+00 0.  1.
          1   -1    0    0  501    0  0.00000000000E+00 -0.00000000000E+00 -0.30031893825E+04  0.30031893825E+04  0.00000000000E+00 0. -1.
        -24    2    1    2    0    0 -0.32175814552E+03 -0.59541548804E+02 -0.17177305313E+04  0.17503560250E+04  0.77939308122E+02 0.  0.
        254    2    1    2    0    0  0.32175814552E+03  0.59541548804E+02 -0.10861644575E+04  0.14521277511E+04  0.90655847942E+03 0.  0.
         23    2    4    4    0    0  0.43729105109E+03  0.68244368983E+02 -0.11919375926E+04  0.12746645006E+04  0.90408004495E+02 0.  0.
         23    2    4    4    0    0 -0.11553290557E+03 -0.87028201794E+01  0.10577313507E+03  0.17746325051E+03  0.82955758266E+02 0.  0.
          1    1    3    3  502    0 -0.13833961722E+03  0.11684118305E+01 -0.57506751092E+03  0.59147430798E+03  0.00000000000E+00 0. -1.
         -2    1    3    3    0  502 -0.18341852829E+03 -0.60709960634E+02 -0.11426630204E+04  0.11588817170E+04  0.00000000000E+00 0.  1.
         11    1    5    5    0    0  0.12316039095E+03 -0.10706443014E+02 -0.25648893325E+03  0.28472738313E+03  0.00000000000E+00 0.  1.
        -11    1    5    5    0    0  0.31413066013E+03  0.78950811998E+02 -0.93544865935E+03  0.98993711751E+03  0.00000000000E+00 0. -1.
          3    1    6    6  503    0 -0.11506718725E+03  0.89495404016E+01  0.10985596110E+03  0.15933889683E+03  0.00000000000E+00 0. -1.
         -3    1    6    6    0  503 -0.46571832023E+00 -0.17652360581E+02 -0.40828260317E+01  0.18124353672E+02  0.00000000000E+00 0.  1.
<mgrwt>
<rscale>  0 0.15472799E+04</rscale>
<asrwt>0</asrwt>
<pdfrwt beam="1">  1        1 0.46202917E+00 0.15472799E+04</pdfrwt>
<pdfrwt beam="2">  1       -2 0.30660674E-01 0.15472799E+04</pdfrwt>
<totfact> 0.49812730E+00</totfact>
</mgrwt>
</event>
<event>
12    4  0.4398275E-008  0.1271135E+04  0.7818608E-02  0.9052774E-01
         -2   -1    0    0    0  501 -0.00000000000E+00  0.00000000000E+00  0.58799219674E+03  0.58799219674E+03  0.00000000000E+00 0.  1.
          1   -1    0    0  501    0  0.00000000000E+00 -0.00000000000E+00 -0.68699232434E+03  0.68699232434E+03  0.00000000000E+00 0. -1.
        -24    2    1    2    0    0 -0.18299737116E+03 -0.22116549910E+03 -0.14496185139E+03  0.33122719842E+03  0.79342944055E+02 0.  0.
        254    2    1    2    0    0  0.18299737116E+03  0.22116549910E+03  0.45961723781E+02  0.94375732266E+03  0.89786590768E+03 0.  0.
         23    2    4    4    0    0 -0.99357766421E+02 -0.25973761163E+03  0.20684670154E+03  0.35610762050E+03  0.81801508538E+02 0.  0.
         23    2    4    4    0    0  0.28235513758E+03  0.48090311073E+03 -0.16088497775E+03  0.58764970216E+03  0.91956352397E+02 0.  0.
          3    1    3    3  502    0 -0.14167964005E+03 -0.21239145407E+03 -0.11934350670E+03  0.28182640537E+03  0.00000000000E+00 0. -1.
         -4    1    3    3    0  502 -0.41317731105E+02 -0.87740450257E+01 -0.25618344686E+02  0.49400793053E+02  0.00000000000E+00 0.  1.
         11    1    5    5    0    0 -0.55128849060E+02 -0.19400973915E+03  0.18558276052E+03  0.27408015230E+03  0.00000000000E+00 0. -1.
        -11    1    5    5    0    0 -0.44228917360E+02 -0.65727872479E+02  0.21263941016E+02  0.82027468198E+02  0.00000000000E+00 0.  1.
          1    1    6    6  503    0  0.26416858260E+03  0.43622678494E+03 -0.17190086882E+03  0.53817167951E+03  0.00000000000E+00 0. -1.
         -1    1    6    6    0  503  0.18186554981E+02  0.44676325796E+02  0.11015891065E+02  0.49478022643E+02  0.00000000000E+00 0.  1.
<mgrwt>
<rscale>  0 0.12711351E+04</rscale>
<asrwt>0</asrwt>
<pdfrwt beam="1">  1        1 0.10569113E+00 0.12711351E+04</pdfrwt>
<pdfrwt beam="2">  1       -2 0.90460339E-01 0.12711351E+04</pdfrwt>
<totfact> 0.25245636E+01</totfact>
</mgrwt>
</event>
<event>
12    4  0.4398275E-008  0.1381924E+04  0.7818608E-02  0.8967008E-01
         -2   -1    0    0    0  501 -0.00000000000E+00  0.00000000000E+00  0.66208346975E+03  0.66208346975E+03  0.00000000000E+00 0.  1.
          1   -1    0    0  501    0  0.00000000000E+00 -0.00000000000E+00 -0.72110040879E+03  0.72110040879E+03  0.00000000000E+00 0. -1.
        -24    2    1    2    0    0 -0.31177267761E+03  0.22522513511E+03  0.46443883120E+02  0.39561675219E+03  0.80168674316E+02 0.  0.
        254    2    1    2    0    0  0.31177267761E+03 -0.22522513511E+03 -0.10546082215E+03  0.98756712636E+03  0.90345906386E+03 0.  0.
         23    2    4    4    0    0 -0.16789229086E+03  0.17614330165E+03  0.15706740628E+03  0.30305343274E+03  0.89201619550E+02 0.  0.
         23    2    4    4    0    0  0.47966496847E+03 -0.40136843676E+03 -0.26252822844E+03  0.68451369362E+03  0.91993597740E+02 0.  0.
          1    1    3    3  502    0 -0.16407087694E+03  0.82190910833E+02 -0.53544279526E+01  0.18358449929E+03  0.00000000000E+00 0. -1.
         -2    1    3    3    0  502 -0.14770180067E+03  0.14303422428E+03  0.51798311072E+02  0.21203225289E+03  0.00000000000E+00 0.  1.
         11    1    5    5    0    0 -0.37876355380E+02  0.79367964615E+02  0.18617646495E+02  0.89891650697E+02  0.00000000000E+00 0. -1.
        -11    1    5    5    0    0 -0.13001593548E+03  0.96775337037E+02  0.13844975979E+03  0.21316178204E+03  0.00000000000E+00 0.  1.
          1    1    6    6  503    0  0.12910460544E+03 -0.12497998759E+03 -0.33518567732E+02  0.18278810362E+03  0.00000000000E+00 0. -1.
         -1    1    6    6    0  503  0.35056036302E+03 -0.27638844917E+03 -0.22900966071E+03  0.50172559000E+03  0.00000000000E+00 0.  1.
<mgrwt>
<rscale>  0 0.13819243E+04</rscale>
<asrwt>0</asrwt>
<pdfrwt beam="1">  1        1 0.11093852E+00 0.13819243E+04</pdfrwt>
<pdfrwt beam="2">  1       -2 0.10185900E+00 0.13819243E+04</pdfrwt>
<totfact> 0.17598228E+01</totfact>
</mgrwt>
</event>
<event>
12    4  0.4398275E-008  0.2287935E+04  0.7818608E-02  0.8482694E-01
          1   -1    0    0  501    0  0.00000000000E+00  0.00000000000E+00  0.44059973501E+04  0.44059973501E+04  0.00000000000E+00 0. -1.
         -2   -1    0    0    0  501 -0.00000000000E+00 -0.00000000000E+00 -0.29701817869E+03  0.29701817869E+03  0.00000000000E+00 0.  1.
        -24    2    1    2    0    0 -0.91864121959E+03  0.14090327291E+03  0.22697756370E+04  0.24540735534E+04  0.82705142619E+02 0.  0.
        254    2    1    2    0    0  0.91864121959E+03 -0.14090327291E+03  0.18392035344E+04  0.22489419754E+04  0.90073022875E+03 0.  0.
         23    2    4    4    0    0  0.97330845663E+03  0.13328723001E+03  0.15501470774E+04  0.18375987947E+04  0.93373077275E+02 0.  0.
         23    2    4    4    0    0 -0.54667237037E+02 -0.27419050292E+03  0.28905645706E+03  0.41134318065E+03  0.86490682746E+02 0.  0.
          3    1    3    3  502    0 -0.39152905697E+03  0.75866418887E+02  0.10740192417E+04  0.11456736217E+04  0.00000000000E+00 0. -1.
         -4    1    3    3    0  502 -0.52711216262E+03  0.65036854020E+02  0.11957563954E+04  0.13083999318E+04  0.00000000000E+00 0.  1.
         11    1    5    5    0    0  0.15625583308E+03  0.34791694568E+02  0.19698068591E+03  0.25382619645E+03  0.00000000000E+00 0.  1.
        -11    1    5    5    0    0  0.81705262355E+03  0.98495535441E+02  0.13531663915E+04  0.15837725983E+04  0.00000000000E+00 0. -1.
          1    1    6    6  503    0 -0.76915990074E+02 -0.23826667499E+03  0.24522190245E+03  0.35045807079E+03  0.00000000000E+00 0. -1.
         -1    1    6    6    0  503  0.22248753037E+02 -0.35923827928E+02  0.43834554612E+02  0.60885109861E+02  0.00000000000E+00 0.  1.
<mgrwt>
<rscale>  0 0.22879347E+04</rscale>
<asrwt>0</asrwt>
<pdfrwt beam="1">  1        1 0.67784570E+00 0.22879347E+04</pdfrwt>
<pdfrwt beam="2">  1       -2 0.45695108E-01 0.22879347E+04</pdfrwt>
<totfact> 0.14586614E-01</totfact>
</mgrwt>
</event>
<event>
12    4  0.4398275E-008  0.1630102E+04  0.7818608E-02  0.8802266E-01
         -4   -1    0    0    0  501 -0.00000000000E+00  0.00000000000E+00  0.10137874943E+04  0.10137874943E+04  0.00000000000E+00 0.  1.
          3   -1    0    0  501    0  0.00000000000E+00 -0.00000000000E+00 -0.65527340018E+03  0.65527340018E+03  0.00000000000E+00 0. -1.
        -24    2    1    2    0    0  0.16457219299E+03 -0.17337297445E+02 -0.42636144431E+03  0.46467240114E+03  0.82169158396E+02 0.  0.
        254    2    1    2    0    0 -0.16457219299E+03  0.17337297445E+02  0.78487553846E+03  0.12043884934E+04  0.89840828330E+03 0.  0.
         23    2    4    4    0    0 -0.90847004792E+01 -0.22110977057E+03  0.86211856439E+03  0.89495435154E+03  0.93395984141E+02 0.  0.
         23    2    4    4    0    0 -0.15548749251E+03  0.23844706801E+03 -0.77243025926E+02  0.30943414183E+03  0.93539502386E+02 0.  0.
          1    1    3    3  502    0  0.16939596777E+03 -0.77148664215E+01 -0.41785996275E+03  0.45095616365E+03  0.00000000000E+00 0. -1.
         -2    1    3    3    0  502 -0.48237747866E+01 -0.96224310238E+01 -0.85014815600E+01  0.13716237484E+02  0.00000000000E+00 0.  1.
         11    1    5    5    0    0  0.38261960192E+02 -0.54485524341E+02  0.26309492517E+03  0.27138826358E+03  0.00000000000E+00 0.  1.
        -11    1    5    5    0    0 -0.47346660671E+02 -0.16662424622E+03  0.59902363922E+03  0.62356608796E+03  0.00000000000E+00 0. -1.
          4    1    6    6  503    0 -0.45635871000E+02  0.12568154813E+03  0.82413923692E+00  0.13371298915E+03  0.00000000000E+00 0. -1.
         -4    1    6    6    0  503 -0.10985162151E+03  0.11276551988E+03 -0.78067165163E+02  0.17572115267E+03  0.00000000000E+00 0.  1.
<mgrwt>
<rscale>  0 0.16301018E+04</rscale>
<asrwt>0</asrwt>
<pdfrwt beam="1">  1        3 0.10081129E+00 0.16301018E+04</pdfrwt>
<pdfrwt beam="2">  1       -4 0.15596731E+00 0.16301018E+04</pdfrwt>
<totfact> 0.50410734E-01</totfact>
</mgrwt>
</event>
<event>
12    4  0.4398275E-008  0.1659026E+04  0.7818608E-02  0.8785084E-01
          1   -1    0    0  501    0  0.00000000000E+00  0.00000000000E+00  0.15698887729E+04  0.15698887729E+04  0.00000000000E+00 0. -1.
         -2   -1    0    0    0  501 -0.00000000000E+00 -0.00000000000E+00 -0.43830624292E+03  0.43830624292E+03  0.00000000000E+00 0.  1.
        -24    2    1    2    0    0  0.28447651672E+03 -0.31929346040E+03  0.88373426431E+03  0.98497616354E+03  0.79476980372E+02 0.  0.
        254    2    1    2    0    0 -0.28447651672E+03  0.31929346040E+03  0.24784826563E+03  0.10232188523E+04  0.89592011609E+03 0.  0.
         23    2    4    4    0    0 -0.38415790102E+03 -0.18227928882E+03  0.25643349873E+03  0.50464118723E+03  0.90008646987E+02 0.  0.
         23    2    4    4    0    0  0.99681384305E+02  0.50157274923E+03 -0.85852330921E+01  0.51857766502E+03  0.85659134291E+02 0.  0.
          3    1    3    3  502    0  0.13344790221E+03 -0.17395092421E+03  0.36925152219E+03  0.42943445749E+03  0.00000000000E+00 0. -1.
         -4    1    3    3    0  502  0.15102861451E+03 -0.14534253620E+03  0.51448274211E+03  0.55554170605E+03  0.00000000000E+00 0.  1.
         11    1    5    5    0    0 -0.59899533674E+02  0.48726483977E+01  0.31072010124E+02  0.67654760733E+02  0.00000000000E+00 0. -1.
        -11    1    5    5    0    0 -0.32425836735E+03 -0.18715193722E+03  0.22536148860E+03  0.43698642650E+03  0.00000000000E+00 0.  1.
          2    1    6    6  503    0  0.34723949834E+02  0.42655471052E+02 -0.20293384347E+01  0.55039623157E+02  0.00000000000E+00 0. -1.
         -2    1    6    6    0  503  0.64957434471E+02  0.45891727817E+03 -0.65558946573E+01  0.46353804186E+03  0.00000000000E+00 0.  1.
<mgrwt>
<rscale>  0 0.16590263E+04</rscale>
<asrwt>0</asrwt>
<pdfrwt beam="1">  1        1 0.24152135E+00 0.16590263E+04</pdfrwt>
<pdfrwt beam="2">  1       -2 0.67431730E-01 0.16590263E+04</pdfrwt>
<totfact> 0.98903296E+00</totfact>
</mgrwt>
</event>
<event>
12    4  0.4398275E-008  0.2226348E+04  0.7818608E-02  0.8507541E-01
         -2   -1    0    0    0  501 -0.00000000000E+00  0.00000000000E+00  0.44542816128E+03  0.44542816128E+03  0.00000000000E+00 0.  1.
          1   -1    0    0  501    0  0.00000000000E+00 -0.00000000000E+00 -0.27819450423E+04  0.27819450423E+04  0.00000000000E+00 0. -1.
        -24    2    1    2    0    0 -0.86515776451E+03  0.25351022098E+03 -0.13245323185E+04  0.16042058757E+04  0.79531372143E+02 0.  0.
        254    2    1    2    0    0  0.86515776451E+03 -0.25351022098E+03 -0.10119845626E+04  0.16231673280E+04  0.89319316501E+03 0.  0.
         23    2    4    4    0    0  0.79243433514E+03 -0.38734032970E+02 -0.27206593053E+03  0.84365385337E+03  0.90991499175E+02 0.  0.
         23    2    4    4    0    0  0.72723429369E+02 -0.21477618802E+03 -0.73991863205E+03  0.77951347459E+03  0.93510250265E+02 0.  0.
          1    1    3    3  502    0 -0.34299733617E+03  0.94463199538E+02 -0.59184406323E+03  0.69054316582E+03  0.00000000000E+00 0. -1.
         -2    1    3    3    0  502 -0.52216042834E+03  0.15904702145E+03 -0.73268825526E+03  0.91366270984E+03  0.00000000000E+00 0.  1.
         11    1    5    5    0    0 -0.19470529427E+01 -0.77213361258E+00 -0.37998532834E+01  0.43389042918E+01  0.00000000000E+00 0. -1.
        -11    1    5    5    0    0  0.79438138809E+03 -0.37961899357E+02 -0.26826607725E+03  0.83931494908E+03  0.00000000000E+00 0.  1.
          2    1    6    6  503    0 -0.19481080478E+02 -0.77338751858E+02 -0.24561156884E+03  0.25823601179E+03  0.00000000000E+00 0. -1.
         -2    1    6    6    0  503  0.92204509847E+02 -0.13743743616E+03 -0.49430706320E+03  0.52127746280E+03  0.00000000000E+00 0.  1.
<mgrwt>
<rscale>  0 0.22263483E+04</rscale>
<asrwt>0</asrwt>
<pdfrwt beam="1">  1        1 0.42799154E+00 0.22263483E+04</pdfrwt>
<pdfrwt beam="2">  1       -2 0.68527410E-01 0.22263483E+04</pdfrwt>
<totfact> 0.13367833E+00</totfact>
</mgrwt>
</event>
<event>
12    4  0.4398275E-008  0.2891101E+04  0.7818608E-02  0.8275530E-01
          1   -1    0    0  501    0  0.00000000000E+00  0.00000000000E+00  0.10710827382E+04  0.10710827382E+04  0.00000000000E+00 0. -1.
         -2   -1    0    0    0  501 -0.00000000000E+00 -0.00000000000E+00 -0.19509380732E+04  0.19509380732E+04  0.00000000000E+00 0.  1.
        -24    2    1    2    0    0 -0.78847341135E+03  0.46559887547E+03 -0.13638557130E+04  0.16446973236E+04  0.80338327858E+02 0.  0.
        254    2    1    2    0    0  0.78847341135E+03 -0.46559887547E+03  0.48400037807E+03  0.13773234879E+04  0.90790472572E+03 0.  0.
         23    2    4    4    0    0  0.67959118639E+03  0.10723809016E+03  0.33106850654E+03  0.76775168885E+03  0.80573637818E+02 0.  0.
         23    2    4    4    0    0  0.10888222495E+03 -0.57283696562E+03  0.15293187153E+03  0.60957179900E+03  0.90510180168E+02 0.  0.
          3    1    3    3  502    0 -0.50727208010E+02  0.13585090958E+02 -0.10174412700E+03  0.11449747468E+03  0.00000000000E+00 0. -1.
         -4    1    3    3    0  502 -0.73774620334E+03  0.45201378451E+03 -0.12621115860E+04  0.15301998489E+04  0.00000000000E+00 0.  1.
         11    1    5    5    0    0  0.58800900049E+03  0.85214782080E+02  0.25450144300E+03  0.64636454748E+03  0.00000000000E+00 0. -1.
        -11    1    5    5    0    0  0.91582185904E+02  0.22023308077E+02  0.76567063536E+02  0.12138714138E+03  0.00000000000E+00 0.  1.
          2    1    6    6  503    0  0.45317599326E+02 -0.17139489457E+03  0.88175791436E+02  0.19800218405E+03  0.00000000000E+00 0. -1.
         -2    1    6    6    0  503  0.63564625628E+02 -0.40144207105E+03  0.64756080095E+02  0.41156961495E+03  0.00000000000E+00 0.  1.
<mgrwt>
<rscale>  0 0.28911009E+04</rscale>
<asrwt>0</asrwt>
<pdfrwt beam="1">  1        1 0.16478196E+00 0.28911009E+04</pdfrwt>
<pdfrwt beam="2">  1       -2 0.30014432E+00 0.28911009E+04</pdfrwt>
<totfact> 0.31881506E-01</totfact>
</mgrwt>
</event>
<event>
12    4  0.4398275E-008  0.1602118E+04  0.7818608E-02  0.8819248E-01
          1   -1    0    0  501    0  0.00000000000E+00  0.00000000000E+00  0.14605790779E+04  0.14605790779E+04  0.00000000000E+00 0. -1.
         -2   -1    0    0    0  501 -0.00000000000E+00 -0.00000000000E+00 -0.43934303850E+03  0.43934303850E+03  0.00000000000E+00 0.  1.
        -24    2    1    2    0    0 -0.61047575852E+02 -0.61334549294E+02 -0.28673992936E+03  0.30981793924E+03  0.79237837747E+02 0.  0.
        254    2    1    2    0    0  0.61047575852E+02  0.61334549294E+02  0.13079759687E+04  0.15901041771E+04  0.90007856649E+03 0.  0.
         23    2    4    4    0    0  0.12461119508E+03  0.44168387026E+03  0.46740424482E+03  0.66084504917E+03  0.87389128368E+02 0.  0.
         23    2    4    4    0    0 -0.63563619227E+02 -0.38034932097E+03  0.84057172392E+03  0.92925912795E+03  0.90861235842E+02 0.  0.
          1    1    3    3  502    0 -0.41321427140E+01 -0.39455766240E+02 -0.42738789039E+02  0.58313259054E+02  0.00000000000E+00 0. -1.
         -2    1    3    3    0  502 -0.56915433138E+02 -0.21878783054E+02 -0.24400114033E+03  0.25150468019E+03  0.00000000000E+00 0.  1.
         11    1    5    5    0    0  0.56157403436E+02  0.13468824706E+03  0.98526718199E+02  0.17607410955E+03  0.00000000000E+00 0.  1.
        -11    1    5    5    0    0  0.68453791643E+02  0.30699562320E+03  0.36887752662E+03  0.48477093962E+03  0.00000000000E+00 0. -1.
          1    1    6    6  503    0 -0.15922199426E+02 -0.57725562890E+02  0.22260418601E+03  0.23051763636E+03  0.00000000000E+00 0. -1.
         -1    1    6    6    0  503 -0.47641419800E+02 -0.32262375808E+03  0.61796753791E+03  0.69874149159E+03  0.00000000000E+00 0.  1.
<mgrwt>
<rscale>  0 0.16021177E+04</rscale>
<asrwt>0</asrwt>
<pdfrwt beam="1">  1        1 0.22470447E+00 0.16021177E+04</pdfrwt>
<pdfrwt beam="2">  1       -2 0.67591237E-01 0.16021177E+04</pdfrwt>
<totfact> 0.11767701E+01</totfact>
</mgrwt>
</event>
<event>
12    4  0.4398275E-008  0.1033764E+04  0.7818608E-02  0.9272270E-01
         -2   -1    0    0    0  501 -0.00000000000E+00  0.00000000000E+00  0.59642882202E+03  0.59642882202E+03  0.00000000000E+00 0.  1.
          1   -1    0    0  501    0  0.00000000000E+00 -0.00000000000E+00 -0.44794405526E+03  0.44794405526E+03  0.00000000000E+00 0. -1.
        -24    2    1    2    0    0  0.21657948547E+02  0.65297779228E+02  0.12599904967E+02  0.10824095739E+03  0.82610414256E+02 0.  0.
        254    2    1    2    0    0 -0.21657948547E+02 -0.65297779228E+02  0.13588486180E+03  0.93613191989E+03  0.92365870811E+03 0.  0.
         23    2    4    4    0    0  0.30437706563E+03  0.27838900514E+03 -0.42906460859E+02  0.42348287881E+03  0.85737669675E+02 0.  0.
         23    2    4    4    0    0 -0.32603501418E+03 -0.34368678436E+03  0.17879132266E+03  0.51264904108E+03  0.80145280867E+02 0.  0.
          3    1    3    3  502    0  0.34554929110E+02  0.66665788130E+02 -0.16056267634E+02  0.76786549363E+02  0.00000000000E+00 0. -1.
         -4    1    3    3    0  502 -0.12896980563E+02 -0.13680089022E+01  0.28656172600E+02  0.31454408024E+02  0.00000000000E+00 0.  1.
         11    1    5    5    0    0  0.21845790834E+02  0.27209309366E+02 -0.28690548106E+02  0.45174468939E+02  0.00000000000E+00 0. -1.
        -11    1    5    5    0    0  0.28253127480E+03  0.25117969577E+03 -0.14215912753E+02  0.37830840987E+03  0.00000000000E+00 0.  1.
          4    1    6    6  503    0 -0.37335053084E+02 -0.45760725835E+02  0.52428327911E+02  0.78972652135E+02  0.00000000000E+00 0. -1.
         -4    1    6    6    0  503 -0.28869996109E+03 -0.29792605853E+03  0.12636299475E+03  0.43367638894E+03  0.00000000000E+00 0.  1.
<mgrwt>
<rscale>  0 0.10337635E+04</rscale>
<asrwt>0</asrwt>
<pdfrwt beam="1">  1        1 0.68914470E-01 0.10337635E+04</pdfrwt>
<pdfrwt beam="2">  1       -2 0.91758280E-01 0.10337635E+04</pdfrwt>
<totfact> 0.45558222E+01</totfact>
</mgrwt>
</event>
<event>
12    4  0.4398275E-008  0.2112093E+04  0.7818608E-02  0.8555935E-01
         -2   -1    0    0    0  501 -0.00000000000E+00  0.00000000000E+00  0.45931844508E+03  0.45931844508E+03  0.00000000000E+00 0.  1.
          1   -1    0    0  501    0  0.00000000000E+00 -0.00000000000E+00 -0.24280206442E+04  0.24280206442E+04  0.00000000000E+00 0. -1.
        -24    2    1    2    0    0  0.13229620753E+03 -0.81692649290E+02  0.35786664094E+03  0.39848658260E+03  0.80913832824E+02 0.  0.
        254    2    1    2    0    0 -0.13229620753E+03  0.81692649290E+02 -0.23265688400E+04  0.24888525067E+04  0.87022310758E+03 0.  0.
         23    2    4    4    0    0  0.31532475306E+03  0.10795621964E+03 -0.15403046161E+04  0.15786324191E+04  0.91966076433E+02 0.  0.
         23    2    4    4    0    0 -0.44762096059E+03 -0.26263570354E+02 -0.78626422397E+03  0.91022008752E+03  0.96098274401E+02 0.  0.
          1    1    3    3  502    0  0.66033560684E+02 -0.14349883117E+02  0.78508940934E+02  0.10358573304E+03  0.00000000000E+00 0. -1.
         -4    1    3    3    0  502  0.66262646848E+02 -0.67342766172E+02  0.27935770000E+03  0.29490084957E+03  0.00000000000E+00 0.  1.
         11    1    5    5    0    0  0.47652713397E+02  0.34657685331E+02 -0.43718215802E+03  0.44113509896E+03  0.00000000000E+00 0.  1.
        -11    1    5    5    0    0  0.26767203966E+03  0.73298534314E+02 -0.11031224580E+04  0.11374973202E+04  0.00000000000E+00 0. -1.
          1    1    6    6  503    0 -0.42020086630E+03 -0.21607100905E+02 -0.77139014750E+03  0.87867991585E+03  0.00000000000E+00 0. -1.
         -1    1    6    6    0  503 -0.27420094283E+02 -0.46564694489E+01 -0.14874076468E+02  0.31540171671E+02  0.00000000000E+00 0.  1.
<mgrwt>
<rscale>  0 0.21120934E+04</rscale>
<asrwt>0</asrwt>
<pdfrwt beam="1">  1        1 0.37354164E+00 0.21120934E+04</pdfrwt>
<pdfrwt beam="2">  1       -2 0.70664375E-01 0.21120934E+04</pdfrwt>
<totfact> 0.22336464E+00</totfact>
</mgrwt>
</event>
<event>
12    4  0.4398275E-008  0.1955878E+04  0.7818608E-02  0.8627531E-01
         -2   -1    0    0    0  501 -0.00000000000E+00  0.00000000000E+00  0.32463693453E+03  0.32463693453E+03  0.00000000000E+00 0.  1.
          1   -1    0    0  501    0  0.00000000000E+00 -0.00000000000E+00 -0.29459526375E+04  0.29459526375E+04  0.00000000000E+00 0. -1.
        -24    2    1    2    0    0 -0.43221613992E+03 -0.50879377216E+03 -0.16726491390E+04  0.18028462290E+04  0.82568087366E+02 0.  0.
        254    2    1    2    0    0  0.43221613992E+03  0.50879377216E+03 -0.94866656398E+03  0.14677433430E+04  0.89923321626E+03 0.  0.
         23    2    4    4    0    0  0.10629836134E+03 -0.25111312720E+03 -0.25519493948E+03  0.38468697818E+03  0.92208837782E+02 0.  0.
         23    2    4    4    0    0  0.32591777859E+03  0.75990689936E+03 -0.69347162449E+03  0.10830563649E+04  0.91800334414E+02 0.  0.
          3    1    3    3  502    0 -0.24789925873E+03 -0.34887006700E+03 -0.11037288539E+04  0.11837997082E+04  0.00000000000E+00 0. -1.
         -4    1    3    3    0  502 -0.18431688120E+03 -0.15992370516E+03 -0.56892028508E+03  0.61904652082E+03  0.00000000000E+00 0.  1.
         11    1    5    5    0    0  0.69102892028E+01 -0.10390113449E+03 -0.13379807552E+03  0.16954386706E+03  0.00000000000E+00 0.  1.
        -11    1    5    5    0    0  0.99388072133E+02 -0.14721199271E+03 -0.12139686396E+03  0.21514311112E+03  0.00000000000E+00 0. -1.
          3    1    6    6  503    0  0.84631816990E+02  0.17142695911E+03 -0.21109044893E+03  0.28479628576E+03  0.00000000000E+00 0. -1.
         -3    1    6    6    0  503  0.24128596160E+03  0.58847994025E+03 -0.48238117556E+03  0.79826007910E+03  0.00000000000E+00 0.  1.
<mgrwt>
<rscale>  0 0.19558784E+04</rscale>
<asrwt>0</asrwt>
<pdfrwt beam="1">  1        1 0.45322348E+00 0.19558784E+04</pdfrwt>
<pdfrwt beam="2">  1       -2 0.49944144E-01 0.19558784E+04</pdfrwt>
<totfact> 0.20344038E+00</totfact>
</mgrwt>
</event>
<event>
12    4  0.4398275E-008  0.1486774E+04  0.7818608E-02  0.8893296E-01
         -2   -1    0    0    0  501 -0.00000000000E+00  0.00000000000E+00  0.17721191155E+03  0.17721191155E+03  0.00000000000E+00 0.  1.
          1   -1    0    0  501    0  0.00000000000E+00 -0.00000000000E+00 -0.31184356027E+04  0.31184356027E+04  0.00000000000E+00 0. -1.
        -24    2    1    2    0    0 -0.43006429568E+03 -0.30843695994E+03 -0.96643154901E+03  0.11047978718E+04  0.80620977535E+02 0.  0.
        254    2    1    2    0    0  0.43006429568E+03  0.30843695994E+03 -0.19747921421E+04  0.21908496424E+04  0.78735601497E+03 0.  0.
         23    2    4    4    0    0  0.27935831367E+03  0.40445425748E+03 -0.19180263935E+04  0.19820716325E+04  0.90323842257E+02 0.  0.
         23    2    4    4    0    0  0.15070598201E+03 -0.96017297535E+02 -0.56765748626E+02  0.20877800988E+03  0.91838405644E+02 0.  0.
          3    1    3    3  502    0 -0.16742294523E+03 -0.13833629256E+03 -0.47354920378E+03  0.52097621907E+03  0.00000000000E+00 0. -1.
         -4    1    3    3    0  502 -0.26264135044E+03 -0.17010066738E+03 -0.49288234523E+03  0.58382165277E+03  0.00000000000E+00 0.  1.
         11    1    5    5    0    0  0.87756670085E+02  0.12084845319E+03 -0.75952301135E+03  0.77406768861E+03  0.00000000000E+00 0.  1.
        -11    1    5    5    0    0  0.19160164358E+03  0.28360580429E+03 -0.11585033821E+04  0.12080039439E+04  0.00000000000E+00 0. -1.
          3    1    6    6  503    0  0.67841140210E+02 -0.86133722848E+02 -0.60529861961E+02  0.12524097854E+03  0.00000000000E+00 0. -1.
         -3    1    6    6    0  503  0.82864841802E+02 -0.98835746871E+01  0.37641133352E+01  0.83537031338E+02  0.00000000000E+00 0.  1.
<mgrwt>
<rscale>  0 0.14867736E+04</rscale>
<asrwt>0</asrwt>
<pdfrwt beam="1">  1        1 0.47975934E+00 0.14867736E+04</pdfrwt>
<pdfrwt beam="2">  1       -2 0.27263370E-01 0.14867736E+04</pdfrwt>
<totfact> 0.51308739E+00</totfact>
</mgrwt>
</event>
<event>
12    4  0.4398275E-008  0.1698410E+04  0.7818608E-02  0.8762272E-01
          1   -1    0    0  501    0  0.00000000000E+00  0.00000000000E+00  0.41052272930E+04  0.41052272930E+04  0.00000000000E+00 0. -1.
         -2   -1    0    0    0  501 -0.00000000000E+00 -0.00000000000E+00 -0.17566612266E+03  0.17566612266E+03  0.00000000000E+00 0.  1.
        -24    2    1    2    0    0  0.43714256615E+03 -0.18158998662E+03  0.45688350021E+03  0.66276312912E+03  0.80273820014E+02 0.  0.
        254    2    1    2    0    0 -0.43714256615E+03  0.18158998662E+03  0.34726776701E+04  0.36181302865E+04  0.89850321281E+03 0.  0.
         23    2    4    4    0    0 -0.63692116734E+03 -0.10035103524E+03  0.20359789018E+04  0.21375763730E+04  0.91015153293E+02 0.  0.
         23    2    4    4    0    0  0.19977860119E+03  0.28194102186E+03  0.14366987683E+04  0.14805539135E+04  0.92381333165E+02 0.  0.
          1    1    3    3  502    0  0.47645534828E+02 -0.24207457981E+00  0.26007353331E+02  0.54282022958E+02  0.00000000000E+00 0. -1.
         -2    1    3    3    0  502  0.38949703132E+03 -0.18134791204E+03  0.43087614688E+03  0.60848110616E+03  0.00000000000E+00 0.  1.
         11    1    5    5    0    0 -0.80031371888E+02 -0.36192299332E+02  0.34971043291E+03  0.36057217017E+03  0.00000000000E+00 0. -1.
        -11    1    5    5    0    0 -0.55688979545E+03 -0.64158735910E+02  0.16862684689E+04  0.17770042028E+04  0.00000000000E+00 0.  1.
          1    1    6    6  503    0  0.22256692154E+02  0.42347976854E+02  0.36576528055E+03  0.36888067440E+03  0.00000000000E+00 0. -1.
         -1    1    6    6    0  503  0.17752190903E+03  0.23959304501E+03  0.10709334877E+04  0.11116732391E+04  0.00000000000E+00 0.  1.
<mgrwt>
<rscale>  0 0.16984103E+04</rscale>
<asrwt>0</asrwt>
<pdfrwt beam="1">  1        1 0.63157336E+00 0.16984103E+04</pdfrwt>
<pdfrwt beam="2">  1       -2 0.27025560E-01 0.16984103E+04</pdfrwt>
<totfact> 0.81632692E-01</totfact>
</mgrwt>
</event>
<event>
12    4  0.4398275E-008  0.2450222E+04  0.7818608E-02  0.8420937E-01
         -2   -1    0    0    0  501 -0.00000000000E+00  0.00000000000E+00  0.97687872570E+03  0.97687872570E+03  0.00000000000E+00 0.  1.
          1   -1    0    0  501    0  0.00000000000E+00 -0.00000000000E+00 -0.15364210474E+04  0.15364210474E+04  0.00000000000E+00 0. -1.
        -24    2    1    2    0    0 -0.96725041441E+02 -0.73647254762E+03  0.53087709942E+03  0.91639249097E+03  0.78722015837E+02 0.  0.
        254    2    1    2    0    0  0.96725041441E+02  0.73647254762E+03 -0.10904194211E+04  0.15969072821E+04  0.89963926478E+03 0.  0.
         23    2    4    4    0    0 -0.20617607057E+02  0.28397505438E+03 -0.10795617709E+04  0.11200113776E+04  0.88909794015E+02 0.  0.
         23    2    4    4    0    0  0.11734264850E+03  0.45249749323E+03 -0.10857650193E+02  0.47689590453E+03  0.93747195427E+02 0.  0.
          3    1    3    3  502    0 -0.12274607851E+02 -0.31298425643E+03  0.25569232471E+03  0.40433695810E+03  0.00000000000E+00 0. -1.
         -4    1    3    3    0  502 -0.84450433590E+02 -0.42348829119E+03  0.27518477471E+03  0.51205553287E+03  0.00000000000E+00 0.  1.
         11    1    5    5    0    0  0.10565939885E+02  0.42715692224E+02 -0.80315358854E+02  0.91579617359E+02  0.00000000000E+00 0.  1.
        -11    1    5    5    0    0 -0.31183546942E+02  0.24125936216E+03 -0.99924641209E+03  0.10284317603E+04  0.00000000000E+00 0. -1.
          3    1    6    6  503    0  0.91513591833E+02  0.20447573315E+03 -0.33482420093E+02  0.22650857687E+03  0.00000000000E+00 0. -1.
         -3    1    6    6    0  503  0.25829056665E+02  0.24802176008E+03  0.22624769900E+02  0.25038732766E+03  0.00000000000E+00 0.  1.
<mgrwt>
<rscale>  0 0.24502221E+04</rscale>
<asrwt>0</asrwt>
<pdfrwt beam="1">  1        1 0.23637247E+00 0.24502221E+04</pdfrwt>
<pdfrwt beam="2">  1       -2 0.15028904E+00 0.24502221E+04</pdfrwt>
<totfact> 0.14416538E+00</totfact>
</mgrwt>
</event>
<event>
12    4  0.4398275E-008  0.1549143E+04  0.7818608E-02  0.8852415E-01
          1   -1    0    0  501    0  0.00000000000E+00  0.00000000000E+00  0.10865505754E+04  0.10865505754E+04  0.00000000000E+00 0. -1.
         -2   -1    0    0    0  501 -0.00000000000E+00 -0.00000000000E+00 -0.55217057901E+03  0.55217057901E+03  0.00000000000E+00 0.  1.
        -24    2    1    2    0    0 -0.12723226735E+03 -0.30995728439E+03 -0.22372309540E+03  0.41019896473E+03  0.77133645395E+02 0.  0.
        254    2    1    2    0    0  0.12723226735E+03  0.30995728439E+03  0.75810309178E+03  0.12285221897E+04  0.90679926374E+03 0.  0.
         23    2    4    4    0    0  0.29803141194E+03  0.56231751111E+03  0.56516322819E+03  0.85606788086E+03  0.91755306810E+02 0.  0.
         23    2    4    4    0    0 -0.17079914459E+03 -0.25236022672E+03  0.19293986359E+03  0.37245430880E+03  0.92942936052E+02 0.  0.
          3    1    3    3  502    0 -0.26151362072E+02 -0.20874775398E+02 -0.43424002812E+02  0.54820561894E+02  0.00000000000E+00 0. -1.
         -4    1    3    3    0  502 -0.10108090528E+03 -0.28908250899E+03 -0.18029909258E+03  0.35537840284E+03  0.00000000000E+00 0.  1.
         11    1    5    5    0    0  0.30256321199E+03  0.54899198919E+03  0.56141880890E+03  0.84150328605E+03  0.00000000000E+00 0. -1.
        -11    1    5    5    0    0 -0.45318000430E+01  0.13325521925E+02  0.37444192915E+01  0.14564594812E+02  0.00000000000E+00 0.  1.
          3    1    6    6  503    0 -0.13565157084E+03 -0.24863427482E+03  0.17067349820E+03  0.33068080421E+03  0.00000000000E+00 0. -1.
         -3    1    6    6    0  503 -0.35147573750E+02 -0.37259518980E+01  0.22266365390E+02  0.41773504590E+02  0.00000000000E+00 0.  1.
<mgrwt>
<rscale>  0 0.15491433E+04</rscale>
<asrwt>0</asrwt>
<pdfrwt beam="1">  1        1 0.16716163E+00 0.15491433E+04</pdfrwt>
<pdfrwt beam="2">  1       -2 0.84949320E-01 0.15491433E+04</pdfrwt>
<totfact> 0.13230782E+01</totfact>
</mgrwt>
</event>
<event>
12    4  0.4398275E-008  0.1325524E+04  0.7818608E-02  0.9009566E-01
          1   -1    0    0  501    0  0.00000000000E+00  0.00000000000E+00  0.49623595530E+03  0.49623595530E+03  0.00000000000E+00 0. -1.
         -2   -1    0    0    0  501 -0.00000000000E+00 -0.00000000000E+00 -0.88517059607E+03  0.88517059607E+03  0.00000000000E+00 0.  1.
        -24    2    1    2    0    0 -0.23141785744E+03  0.24628086260E+01 -0.38003230883E+03  0.45216822064E+03  0.80444103756E+02 0.  0.
        254    2    1    2    0    0  0.23141785744E+03 -0.24628086260E+01 -0.89023319366E+01  0.92923833072E+03  0.89991351451E+03 0.  0.
         23    2    4    4    0    0  0.51317710808E+03 -0.13777014069E+03 -0.17016216790E+03  0.56587609952E+03  0.94494659676E+02 0.  0.
         23    2    4    4    0    0 -0.28175925063E+03  0.13530733207E+03  0.16125983596E+03  0.36336223120E+03  0.91274459408E+02 0.  0.
          3    1    3    3  502    0 -0.79311459323E+02 -0.31786343895E+02 -0.98919035690E+02  0.13071210678E+03  0.00000000000E+00 0. -1.
         -4    1    3    3    0  502 -0.15210639812E+03  0.34249152521E+02 -0.28111327314E+03  0.32145611386E+03  0.00000000000E+00 0.  1.
         11    1    5    5    0    0  0.26426802008E+01  0.66097716258E+01 -0.88096436162E+01  0.11326193546E+02  0.00000000000E+00 0. -1.
        -11    1    5    5    0    0  0.51053442787E+03 -0.14437991232E+03 -0.16135252429E+03  0.55454990598E+03  0.00000000000E+00 0.  1.
          1    1    6    6  503    0 -0.82298728617E+02  0.42504050970E+02  0.35783173743E+01  0.92695627924E+02  0.00000000000E+00 0. -1.
         -1    1    6    6    0  503 -0.19946052201E+03  0.92803281095E+02  0.15768151859E+03  0.27066660328E+03  0.00000000000E+00 0.  1.
<mgrwt>
<rscale>  0 0.13255240E+04</rscale>
<asrwt>0</asrwt>
<pdfrwt beam="1">  1        1 0.76343995E-01 0.13255240E+04</pdfrwt>
<pdfrwt beam="2">  1       -2 0.13618009E+00 0.13255240E+04</pdfrwt>
<totfact> 0.14808537E+01</totfact>
</mgrwt>
</event>
<event>
12    4  0.4398275E-008  0.2518817E+04  0.7818608E-02  0.8396312E-01
          1   -1    0    0  501    0  0.00000000000E+00  0.00000000000E+00  0.13263946108E+04  0.13263946108E+04  0.00000000000E+00 0. -1.
         -2   -1    0    0    0  501 -0.00000000000E+00 -0.00000000000E+00 -0.11958051766E+04  0.11958051766E+04  0.00000000000E+00 0.  1.
        -24    2    1    2    0    0  0.99676463002E+01  0.43779235902E+03 -0.94753900365E+03  0.10481568937E+04  0.95085261049E+02 0.  0.
        254    2    1    2    0    0 -0.99676463002E+01 -0.43779235902E+03  0.10781284379E+04  0.14740428937E+04  0.90480938328E+03 0.  0.
         23    2    4    4    0    0 -0.22310657383E+03  0.20637559903E+03  0.28241925037E+03  0.42428012534E+03  0.88800679142E+02 0.  0.
         23    2    4    4    0    0  0.21313892753E+03 -0.64416795805E+03  0.79570918757E+03  0.10497627683E+04  0.92022812216E+02 0.  0.
          3    1    3    3  502    0 -0.36262836848E+02  0.22730058149E+03 -0.54362563126E+03  0.59034682572E+03  0.00000000000E+00 0. -1.
         -4    1    3    3    0  502  0.46230483149E+02  0.21049177753E+03 -0.40391337239E+03  0.45781006802E+03  0.00000000000E+00 0.  1.
         11    1    5    5    0    0 -0.12916765993E+03  0.17504881386E+03  0.19033913711E+03  0.28905943804E+03  0.00000000000E+00 0. -1.
        -11    1    5    5    0    0 -0.93938913909E+02  0.31326785164E+02  0.92080113258E+02  0.13522068730E+03  0.00000000000E+00 0.  1.
          2    1    6    6  503    0  0.85799932174E+02 -0.37431214697E+03  0.40466153446E+03  0.55787289700E+03  0.00000000000E+00 0. -1.
         -2    1    6    6    0  503  0.12733899536E+03 -0.26985581107E+03  0.39104765311E+03  0.49188987132E+03  0.00000000000E+00 0.  1.
<mgrwt>
<rscale>  0 0.25188168E+04</rscale>
<asrwt>0</asrwt>
<pdfrwt beam="1">  1        1 0.20406071E+00 0.25188168E+04</pdfrwt>
<pdfrwt beam="2">  1       -2 0.18397003E+00 0.25188168E+04</pdfrwt>
<totfact> 0.11482722E+00</totfact>
</mgrwt>
</event>
<event>
12    4  0.4398275E-008  0.1559455E+04  0.7818608E-02  0.8845851E-01
          1   -1    0    0  501    0  0.00000000000E+00  0.00000000000E+00  0.29890746763E+04  0.29890746763E+04  0.00000000000E+00 0. -1.
         -2   -1    0    0    0  501 -0.00000000000E+00 -0.00000000000E+00 -0.20339894911E+03  0.20339894911E+03  0.00000000000E+00 0.  1.
        -24    2    1    2    0    0  0.46174170436E+03 -0.15903955079E+03  0.59856888604E+03  0.77650029046E+03  0.78543042306E+02 0.  0.
        254    2    1    2    0    0 -0.46174170436E+03  0.15903955079E+03  0.21871068412E+04  0.24159733350E+04  0.90276898502E+03 0.  0.
         23    2    4    4    0    0  0.38711421748E+02 -0.31170942109E+03  0.83114320737E+03  0.89314959180E+03  0.90861569462E+02 0.  0.
         23    2    4    4    0    0 -0.50045312610E+03  0.47074897188E+03  0.13559636338E+04  0.15228237432E+04  0.91087049648E+02 0.  0.
          3    1    3    3  502    0  0.63246522670E+02 -0.37258100584E+02  0.55677455049E+02  0.92131795216E+02  0.00000000000E+00 0. -1.
         -4    1    3    3    0  502  0.39849518169E+03 -0.12178145020E+03  0.54289143099E+03  0.68436849525E+03  0.00000000000E+00 0.  1.
         11    1    5    5    0    0  0.44307358491E+02 -0.29869088187E+03  0.71502800728E+03  0.77617294215E+03  0.00000000000E+00 0.  1.
        -11    1    5    5    0    0 -0.55959367423E+01 -0.13018539216E+02  0.11611520009E+03  0.11697664965E+03  0.00000000000E+00 0. -1.
          1    1    6    6  503    0 -0.89541367966E+02  0.13616940978E+03  0.30338339035E+03  0.34438531658E+03  0.00000000000E+00 0. -1.
         -1    1    6    6    0  503 -0.41091175814E+03  0.33457956209E+03  0.10525802435E+04  0.11784384266E+04  0.00000000000E+00 0.  1.
<mgrwt>
<rscale>  0 0.15594546E+04</rscale>
<asrwt>0</asrwt>
<pdfrwt beam="1">  1        1 0.45985761E+00 0.15594546E+04</pdfrwt>
<pdfrwt beam="2">  1       -2 0.31292148E-01 0.15594546E+04</pdfrwt>
<totfact> 0.49032308E+00</totfact>
</mgrwt>
</event>
<event>
12    4  0.4398275E-008  0.1553311E+04  0.7818608E-02  0.8849755E-01
          1   -1    0    0  501    0  0.00000000000E+00  0.00000000000E+00  0.11939597104E+04  0.11939597104E+04  0.00000000000E+00 0. -1.
         -2   -1    0    0    0  501 -0.00000000000E+00 -0.00000000000E+00 -0.50520462542E+03  0.50520462542E+03  0.00000000000E+00 0.  1.
        -24    2    1    2    0    0 -0.27549923741E+03 -0.23407389887E+03  0.63958119533E+03  0.73895703974E+03  0.79391316955E+02 0.  0.
        254    2    1    2    0    0  0.27549923741E+03  0.23407389887E+03  0.49173889610E+02  0.96020729604E+03  0.88819455076E+03 0.  0.
         23    2    4    4    0    0  0.15116342439E+03 -0.34437359509E+02  0.43320932838E+03  0.46718314870E+03  0.80953441155E+02 0.  0.
         23    2    4    4    0    0  0.12433581302E+03  0.26851125838E+03 -0.38403543877E+03  0.49302414734E+03  0.89620875674E+02 0.  0.
          1    1    3    3  502    0 -0.22810251250E+03 -0.20942626695E+03  0.48520677766E+03  0.57560032539E+03  0.00000000000E+00 0. -1.
         -2    1    3    3    0  502 -0.47396724909E+02 -0.24647631916E+02  0.15437441767E+03  0.16335671435E+03  0.00000000000E+00 0.  1.
         11    1    5    5    0    0  0.48080205288E+01  0.49320589335E+01 -0.12919449207E+01  0.70079517983E+01  0.00000000000E+00 0.  1.
        -11    1    5    5    0    0  0.14635540386E+03 -0.39369418442E+02  0.43450127330E+03  0.46017519690E+03  0.00000000000E+00 0. -1.
          1    1    6    6  503    0  0.70502851462E+02  0.18479060107E+03 -0.18658515204E+03  0.27190483127E+03  0.00000000000E+00 0. -1.
         -1    1    6    6    0  503  0.53832961559E+02  0.83720657313E+02 -0.19745028672E+03  0.22111931607E+03  0.00000000000E+00 0.  1.
<mgrwt>
<rscale>  0 0.15533113E+04</rscale>
<asrwt>0</asrwt>
<pdfrwt beam="1">  1        1 0.18368611E+00 0.15533113E+04</pdfrwt>
<pdfrwt beam="2">  1       -2 0.77723789E-01 0.15533113E+04</pdfrwt>
<totfact> 0.13449468E+01</totfact>
</mgrwt>
</event>
<event>
12    4  0.4398275E-008  0.1661371E+04  0.7818608E-02  0.8783708E-01
          1   -1    0    0  501    0  0.00000000000E+00  0.00000000000E+00  0.68452053347E+03  0.68452053347E+03  0.00000000000E+00 0. -1.
         -2   -1    0    0    0  501 -0.00000000000E+00 -0.00000000000E+00 -0.10080610870E+04  0.10080610870E+04  0.00000000000E+00 0.  1.
        -24    2    1    2    0    0 -0.47578279380E+03  0.35104882713E+03 -0.51388918203E+02  0.59916861580E+03  0.82205007980E+02 0.  0.
        254    2    1    2    0    0  0.47578279380E+03 -0.35104882713E+03 -0.27215163538E+03  0.10934130047E+04  0.87856755023E+03 0.  0.
         23    2    4    4    0    0 -0.70602129377E+02  0.22836849945E+03 -0.31774172019E+02  0.25659139096E+03  0.87708105054E+02 0.  0.
         23    2    4    4    0    0  0.54638492318E+03 -0.57941732659E+03 -0.24037746336E+03  0.83682161375E+03  0.90709237238E+02 0.  0.
          1    1    3    3  502    0 -0.47425556786E+03  0.33799462401E+03 -0.56409937500E+02  0.58509895792E+03  0.00000000000E+00 0. -1.
         -2    1    3    3    0  502 -0.15272259428E+01  0.13054203120E+02  0.50210192969E+01  0.14069657883E+02  0.00000000000E+00 0.  1.
         11    1    5    5    0    0 -0.61758392660E+02  0.20062062271E+03 -0.57595815104E+02  0.21766950002E+03  0.00000000000E+00 0.  1.
        -11    1    5    5    0    0 -0.88437367172E+01  0.27747876738E+02  0.25821643084E+02  0.38921890938E+02  0.00000000000E+00 0. -1.
          3    1    6    6  503    0  0.14429658943E+03 -0.17752039527E+03 -0.10864040655E+03  0.25325428801E+03  0.00000000000E+00 0. -1.
         -3    1    6    6    0  503  0.40208833375E+03 -0.40189693131E+03 -0.13173705681E+03  0.58356732574E+03  0.00000000000E+00 0.  1.
<mgrwt>
<rscale>  0 0.16613711E+04</rscale>
<asrwt>0</asrwt>
<pdfrwt beam="1">  1        1 0.10531085E+00 0.16613711E+04</pdfrwt>
<pdfrwt beam="2">  1       -2 0.15508632E+00 0.16613711E+04</pdfrwt>
<totfact> 0.64539775E+00</totfact>
</mgrwt>
</event>
<event>
12    4  0.4398275E-008  0.1343803E+04  0.7818608E-02  0.8995533E-01
          1   -1    0    0  501    0  0.00000000000E+00  0.00000000000E+00  0.13185140499E+04  0.13185140499E+04  0.00000000000E+00 0. -1.
         -2   -1    0    0    0  501 -0.00000000000E+00 -0.00000000000E+00 -0.34239402540E+03  0.34239402540E+03  0.00000000000E+00 0.  1.
        -24    2    1    2    0    0 -0.29712582155E+03 -0.28730223775E+02 -0.14257927698E+01  0.30927817917E+03  0.80881268776E+02 0.  0.
        254    2    1    2    0    0  0.29712582155E+03  0.28730223775E+02  0.97754581723E+03  0.13516298961E+04  0.88441979378E+03 0.  0.
         23    2    4    4    0    0 -0.18888633451E+03 -0.74937549218E+02  0.77621199297E+03  0.80788531539E+03  0.94233439574E+02 0.  0.
         23    2    4    4    0    0  0.48601215606E+03  0.10366777299E+03  0.20133382426E+03  0.54374458070E+03  0.90377194343E+02 0.  0.
          1    1    3    3  502    0 -0.21031159262E+03 -0.34335869740E+01  0.32227353820E+02  0.21279416779E+03  0.00000000000E+00 0. -1.
         -2    1    3    3    0  502 -0.86814228928E+02 -0.25296636801E+02 -0.33653146590E+02  0.96484011386E+02  0.00000000000E+00 0.  1.
         11    1    5    5    0    0 -0.18014089476E+03 -0.48814625089E+02  0.56845438224E+03  0.59830927979E+03  0.00000000000E+00 0.  1.
        -11    1    5    5    0    0 -0.87454397518E+01 -0.26122924129E+02  0.20775761073E+03  0.20957603560E+03  0.00000000000E+00 0. -1.
          3    1    6    6  503    0  0.25191352947E+03  0.56075796515E+02  0.55881822689E+02  0.26406002990E+03  0.00000000000E+00 0. -1.
         -3    1    6    6    0  503  0.23409862659E+03  0.47591976478E+02  0.14545200157E+03  0.27968455080E+03  0.00000000000E+00 0.  1.
<mgrwt>
<rscale>  0 0.13438026E+04</rscale>
<asrwt>0</asrwt>
<pdfrwt beam="1">  1        1 0.20284831E+00 0.13438026E+04</pdfrwt>
<pdfrwt beam="2">  1       -2 0.52676005E-01 0.13438026E+04</pdfrwt>
<totfact> 0.25626118E+01</totfact>
</mgrwt>
</event>
<event>
12    4  0.4398275E-008  0.1761527E+04  0.7818608E-02  0.8727031E-01
         -2   -1    0    0    0  501 -0.00000000000E+00  0.00000000000E+00  0.99447312197E+03  0.99447312197E+03  0.00000000000E+00 0.  1.
          1   -1    0    0  501    0  0.00000000000E+00 -0.00000000000E+00 -0.78005545958E+03  0.78005545958E+03  0.00000000000E+00 0. -1.
        -24    2    1    2    0    0 -0.14046382547E+01  0.46389075915E+03 -0.35948387862E+03  0.59275439806E+03  0.83261683864E+02 0.  0.
        254    2    1    2    0    0  0.14046382547E+01 -0.46389075915E+03  0.57390154101E+03  0.11817741835E+04  0.92305505392E+03 0.  0.
         23    2    4    4    0    0  0.27770266295E+03 -0.44349588740E+03 -0.73356382419E+01  0.53115231591E+03  0.90893343879E+02 0.  0.
         23    2    4    4    0    0 -0.27629802469E+03 -0.20394871745E+02  0.58123717925E+03  0.65062186758E+03  0.93357414223E+02 0.  0.
          1    1    3    3  502    0  0.30062272192E+02  0.32639883349E+03 -0.27845372236E+03  0.43008884455E+03  0.00000000000E+00 0. -1.
         -2    1    3    3    0  502 -0.31466910447E+02  0.13749192566E+03 -0.81030156263E+02  0.16266555351E+03  0.00000000000E+00 0.  1.
         11    1    5    5    0    0  0.25964445150E+03 -0.43198771006E+03 -0.23131695306E+02  0.50454305878E+03  0.00000000000E+00 0. -1.
        -11    1    5    5    0    0  0.18058211442E+02 -0.11508177345E+02  0.15796057064E+02  0.26609257131E+02  0.00000000000E+00 0.  1.
          1    1    6    6  503    0 -0.26314663815E+03 -0.42038309290E+02  0.51864930566E+03  0.58310417155E+03  0.00000000000E+00 0. -1.
         -1    1    6    6    0  503 -0.13151386540E+02  0.21643437545E+02  0.62587873595E+02  0.67517696035E+02  0.00000000000E+00 0.  1.
<mgrwt>
<rscale>  0 0.17615268E+04</rscale>
<asrwt>0</asrwt>
<pdfrwt beam="1">  1        1 0.12000853E+00 0.17615268E+04</pdfrwt>
<pdfrwt beam="2">  1       -2 0.15299586E+00 0.17615268E+04</pdfrwt>
<totfact> 0.54241782E+00</totfact>
</mgrwt>
</event>
<event>
12    4  0.4398275E-008  0.1072131E+04  0.7818608E-02  0.9232788E-01
         -2   -1    0    0    0  501 -0.00000000000E+00  0.00000000000E+00  0.29364552756E+03  0.29364552756E+03  0.00000000000E+00 0.  1.
          1   -1    0    0  501    0  0.00000000000E+00 -0.00000000000E+00 -0.97861659256E+03  0.97861659256E+03  0.00000000000E+00 0. -1.
        -24    2    1    2    0    0  0.73234374128E+02  0.95713133162E+01  0.12997751136E+02  0.11007288400E+03  0.80574280423E+02 0.  0.
        254    2    1    2    0    0 -0.73234374128E+02 -0.95713133162E+01 -0.69796881613E+03  0.11621892361E+04  0.92631985224E+03 0.  0.
         23    2    4    4    0    0  0.49376391747E+02  0.40902020855E+03 -0.13226634230E+03  0.44247149789E+03  0.92472061065E+02 0.  0.
         23    2    4    4    0    0 -0.12261076588E+03 -0.41859152186E+03 -0.56570247384E+03  0.71971773823E+03  0.87875319255E+02 0.  0.
          1    1    3    3  502    0 -0.10780910098E+02  0.84403196756E+01  0.21638900657E+02  0.25606816288E+02  0.00000000000E+00 0. -1.
         -2    1    3    3    0  502  0.84015284226E+02  0.11309936406E+01 -0.86411495216E+01  0.84466067715E+02  0.00000000000E+00 0.  1.
         11    1    5    5    0    0  0.41669544330E+02  0.72525947040E+02 -0.43984051714E+02  0.94503760369E+02  0.00000000000E+00 0. -1.
        -11    1    5    5    0    0  0.77068474173E+01  0.33649426150E+03 -0.88282290582E+02  0.34796773752E+03  0.00000000000E+00 0.  1.
          1    1    6    6  503    0 -0.33254215463E+01 -0.66775720817E+02 -0.47070902270E+02  0.81766283758E+02  0.00000000000E+00 0. -1.
         -1    1    6    6    0  503 -0.11928534433E+03 -0.35181580104E+03 -0.51863157157E+03  0.63795145447E+03  0.00000000000E+00 0.  1.
<mgrwt>
<rscale>  0 0.10721313E+04</rscale>
<asrwt>0</asrwt>
<pdfrwt beam="1">  1        1 0.15055640E+00 0.10721313E+04</pdfrwt>
<pdfrwt beam="2">  1       -2 0.45176235E-01 0.10721313E+04</pdfrwt>
<totfact> 0.63940246E+01</totfact>
</mgrwt>
</event>
<event>
12    4  0.4398275E-008  0.1820146E+04  0.7818608E-02  0.8695659E-01
         -2   -1    0    0    0  501 -0.00000000000E+00  0.00000000000E+00  0.14562208480E+04  0.14562208480E+04  0.00000000000E+00 0.  1.
          1   -1    0    0  501    0  0.00000000000E+00 -0.00000000000E+00 -0.56875511571E+03  0.56875511571E+03  0.00000000000E+00 0. -1.
        -24    2    1    2    0    0 -0.17148279672E+03  0.63638292374E+03  0.13907862993E+03  0.67837041354E+03  0.80336650854E+02 0.  0.
        254    2    1    2    0    0  0.17148279672E+03 -0.63638292374E+03  0.74838710240E+03  0.13466055502E+04  0.90491639260E+03 0.  0.
         23    2    4    4    0    0 -0.25222128018E+03 -0.62343773409E+03  0.52861085411E+03  0.86026622174E+03  0.91314592071E+02 0.  0.
         23    2    4    4    0    0  0.42370407690E+03 -0.12945189648E+02  0.21977624829E+03  0.48633932846E+03  0.92366770963E+02 0.  0.
          3    1    3    3  502    0 -0.14302122835E+03  0.39672167313E+03  0.10540085878E+03  0.43468666730E+03  0.00000000000E+00 0. -1.
         -4    1    3    3    0  502 -0.28461568371E+02  0.23966125060E+03  0.33677771142E+02  0.24368374625E+03  0.00000000000E+00 0.  1.
         11    1    5    5    0    0 -0.19247726834E+03 -0.41793894855E+03  0.40588898365E+03  0.61356852151E+03  0.00000000000E+00 0. -1.
        -11    1    5    5    0    0 -0.59744011840E+02 -0.20549878554E+03  0.12272187046E+03  0.24669770023E+03  0.00000000000E+00 0.  1.
          1    1    6    6  503    0  0.41093085795E+03  0.46477147575E+01  0.20039257568E+03  0.45721215606E+03  0.00000000000E+00 0. -1.
         -1    1    6    6    0  503  0.12773218950E+02 -0.17592904406E+02  0.19383672610E+02  0.29127172393E+02  0.00000000000E+00 0.  1.
<mgrwt>
<rscale>  0 0.18201462E+04</rscale>
<asrwt>0</asrwt>
<pdfrwt beam="1">  1        1 0.87500788E-01 0.18201462E+04</pdfrwt>
<pdfrwt beam="2">  1       -2 0.22403398E+00 0.18201462E+04</pdfrwt>
<totfact> 0.28406412E+00</totfact>
</mgrwt>
</event>
<event>
12    4  0.5250551E-008  0.1458314E+04  0.7818608E-02  0.8912657E-01
          1   -1    0    0  501    0  0.00000000000E+00  0.00000000000E+00  0.15296605544E+04  0.15296605544E+04  0.00000000000E+00 0. -1.
         -2   -1    0    0    0  501 -0.00000000000E+00 -0.00000000000E+00 -0.34757384388E+03  0.34757384388E+03  0.00000000000E+00 0.  1.
        -24    2    1    2    0    0  0.24559152522E+03  0.26050842358E+03  0.73368739215E+03  0.82167869835E+03  0.93160388118E+02 0.  0.
        254    2    1    2    0    0 -0.24559152522E+03 -0.26050842358E+03  0.44839931832E+03  0.10555556999E+04  0.88597745505E+03 0.  0.
         23    2    4    4    0    0  0.10939190321E+03 -0.23820647473E+03  0.59790574774E+03  0.65888553223E+03  0.89050257206E+02 0.  0.
         23    2    4    4    0    0 -0.35498342843E+03 -0.22301948850E+02 -0.14950642942E+03  0.39667016765E+03  0.92111009559E+02 0.  0.
          1    1    3    3  502    0  0.22872862736E+03  0.22940417494E+03  0.58364550384E+03  0.66752163606E+03  0.00000000000E+00 0. -1.
         -2    1    3    3    0  502  0.16862897857E+02  0.31104248636E+02  0.15004188831E+03  0.15415706230E+03  0.00000000000E+00 0.  1.
         11    1    5    5    0    0  0.12302825162E+03 -0.22761352775E+03  0.57142778947E+03  0.62727473031E+03  0.00000000000E+00 0. -1.
        -11    1    5    5    0    0 -0.13636348408E+02 -0.10592946976E+02  0.26477958276E+02  0.31610801920E+02  0.00000000000E+00 0.  1.
          2    1    6    6  503    0 -0.34341345329E+03 -0.12043604854E+02 -0.15889158992E+03  0.37858207256E+03  0.00000000000E+00 0. -1.
         -2    1    6    6    0  503 -0.11569975141E+02 -0.10258343996E+02  0.93851604989E+01  0.18088095087E+02  0.00000000000E+00 0.  1.
<mgrwt>
<rscale>  0 0.14583141E+04</rscale>
<asrwt>0</asrwt>
<pdfrwt beam="1">  1        1 0.23533239E+00 0.14583141E+04</pdfrwt>
<pdfrwt beam="2">  1       -2 0.53472900E-01 0.14583141E+04</pdfrwt>
<totfact> 0.17515309E+01</totfact>
</mgrwt>
</event>
<event>
12    4  0.4398275E-008  0.1586447E+04  0.7818608E-02  0.8828918E-01
         -2   -1    0    0    0  501 -0.00000000000E+00  0.00000000000E+00  0.42072833269E+03  0.42072833269E+03  0.00000000000E+00 0.  1.
          1   -1    0    0  501    0  0.00000000000E+00 -0.00000000000E+00 -0.14955098265E+04  0.14955098265E+04  0.00000000000E+00 0. -1.
        -24    2    1    2    0    0  0.88258174282E+02 -0.16982178213E+03 -0.96489372323E+03  0.98702075090E+03  0.81000756562E+02 0.  0.
        254    2    1    2    0    0 -0.88258174282E+02  0.16982178213E+03 -0.10988777054E+03  0.92921740824E+03  0.90262989461E+03 0.  0.
         23    2    4    4    0    0  0.16688445759E+03 -0.31246248829E+03 -0.52648534035E+01  0.36631317700E+03  0.93136438566E+02 0.  0.
         23    2    4    4    0    0 -0.25514263188E+03  0.48228427041E+03 -0.10462291713E+03  0.56290423124E+03  0.90660568462E+02 0.  0.
          1    1    3    3  502    0  0.95556131986E+02 -0.11917313391E+03 -0.79683612249E+03  0.81134518937E+03  0.00000000000E+00 0. -1.
         -2    1    3    3    0  502 -0.72979577044E+01 -0.50648648211E+02 -0.16805760074E+03  0.17567556153E+03  0.00000000000E+00 0.  1.
         11    1    5    5    0    0  0.83281293162E+02 -0.22922570948E+03  0.23100166918E+02  0.24497717729E+03  0.00000000000E+00 0. -1.
        -11    1    5    5    0    0  0.83603164432E+02 -0.83236778803E+02 -0.28365020322E+02  0.12133599971E+03  0.00000000000E+00 0.  1.
          4    1    6    6  503    0 -0.12605709428E+03  0.28184932446E+03 -0.99683006575E+02  0.32444742951E+03  0.00000000000E+00 0. -1.
         -4    1    6    6    0  503 -0.12908553760E+03  0.20043494595E+03 -0.49399105569E+01  0.23845680173E+03  0.00000000000E+00 0.  1.
<mgrwt>
<rscale>  0 0.15864468E+04</rscale>
<asrwt>0</asrwt>
<pdfrwt beam="1">  1        1 0.23007844E+00 0.15864468E+04</pdfrwt>
<pdfrwt beam="2">  1       -2 0.64727435E-01 0.15864468E+04</pdfrwt>
<totfact> 0.12234436E+01</totfact>
</mgrwt>
</event>
<event>
12    4  0.4398275E-008  0.1720802E+04  0.7818608E-02  0.8749588E-01
         -2   -1    0    0    0  501 -0.00000000000E+00  0.00000000000E+00  0.49091474150E+03  0.49091474150E+03  0.00000000000E+00 0.  1.
          1   -1    0    0  501    0  0.00000000000E+00 -0.00000000000E+00 -0.15079802019E+04  0.15079802019E+04  0.00000000000E+00 0. -1.
        -24    2    1    2    0    0 -0.36248059393E+03  0.18331040564E+03  0.17866195973E+03  0.45046055748E+03  0.77457938261E+02 0.  0.
        254    2    1    2    0    0  0.36248059393E+03 -0.18331040564E+03 -0.11957274201E+04  0.15484343859E+04  0.89604134861E+03 0.  0.
         23    2    4    4    0    0  0.17076470315E+03 -0.34974541388E+03 -0.90147682899E+02  0.41028778612E+03  0.93418543877E+02 0.  0.
         23    2    4    4    0    0  0.19171589078E+03  0.16643500824E+03 -0.11055797372E+04  0.11381465997E+04  0.92819892809E+02 0.  0.
          1    1    3    3  502    0 -0.44933356787E+02  0.43046271374E+01  0.15011371000E+01  0.45164031923E+02  0.00000000000E+00 0. -1.
         -2    1    3    3    0  502 -0.31754723714E+03  0.17900577850E+03  0.17716082263E+03  0.40529652556E+03  0.00000000000E+00 0.  1.
         11    1    5    5    0    0  0.46950801897E+02 -0.20243366359E+03 -0.44692720333E+02  0.21255871002E+03  0.00000000000E+00 0. -1.
        -11    1    5    5    0    0  0.12381390125E+03 -0.14731175029E+03 -0.45454962566E+02  0.19772907611E+03  0.00000000000E+00 0.  1.
          3    1    6    6  503    0  0.20178783889E+03  0.15610038882E+03 -0.10240939515E+04  0.10553928581E+04  0.00000000000E+00 0. -1.
         -3    1    6    6    0  503 -0.10071948113E+02  0.10334619415E+02 -0.81485785639E+02  0.82753741658E+02  0.00000000000E+00 0.  1.
<mgrwt>
<rscale>  0 0.17208018E+04</rscale>
<asrwt>0</asrwt>
<pdfrwt beam="1">  1        1 0.23199695E+00 0.17208018E+04</pdfrwt>
<pdfrwt beam="2">  1       -2 0.75525346E-01 0.17208018E+04</pdfrwt>
<totfact> 0.84651915E+00</totfact>
</mgrwt>
</event>
<event>
12    4  0.4398275E-008  0.1230276E+04  0.7818608E-02  0.9086761E-01
         -2   -1    0    0    0  501 -0.00000000000E+00  0.00000000000E+00  0.55976906797E+03  0.55976906797E+03  0.00000000000E+00 0.  1.
          1   -1    0    0  501    0  0.00000000000E+00 -0.00000000000E+00 -0.67598404247E+03  0.67598404247E+03  0.00000000000E+00 0. -1.
        -24    2    1    2    0    0 -0.13863316531E+03  0.24988530114E+03 -0.66823878065E+02  0.30381575935E+03  0.78592408683E+02 0.  0.
        254    2    1    2    0    0  0.13863316531E+03 -0.24988530114E+03 -0.49391096427E+02  0.93193735109E+03  0.88566693949E+03 0.  0.
         23    2    4    4    0    0 -0.52918962205E+02  0.52676013006E+02  0.36114558986E+03  0.37990261335E+03  0.91239682433E+02 0.  0.
         23    2    4    4    0    0  0.19155212752E+03 -0.30256131414E+03 -0.41053668629E+03  0.55203473774E+03  0.89254773032E+02 0.  0.
          1    1    3    3  502    0 -0.10319942017E+03  0.22913255356E+03 -0.74349608618E+02  0.26206814329E+03  0.00000000000E+00 0. -1.
         -2    1    3    3    0  502 -0.35433745143E+02  0.20752747577E+02  0.75257305525E+01  0.41747616066E+02  0.00000000000E+00 0.  1.
         11    1    5    5    0    0 -0.15987207863E+02  0.60141578523E+02  0.11380027637E+03  0.12970390582E+03  0.00000000000E+00 0.  1.
        -11    1    5    5    0    0 -0.36931754343E+02 -0.74655655171E+01  0.24734531349E+03  0.25019870753E+03  0.00000000000E+00 0. -1.
          2    1    6    6  503    0  0.79252631872E+02 -0.19849540079E+03 -0.26860037255E+03  0.34326019858E+03  0.00000000000E+00 0. -1.
         -2    1    6    6    0  503  0.11229949565E+03 -0.10406591335E+03 -0.14193631374E+03  0.20877453916E+03  0.00000000000E+00 0.  1.
<mgrwt>
<rscale>  0 0.12302763E+04</rscale>
<asrwt>0</asrwt>
<pdfrwt beam="1">  1        1 0.10399754E+00 0.12302763E+04</pdfrwt>
<pdfrwt beam="2">  1       -2 0.86118318E-01 0.12302763E+04</pdfrwt>
<totfact> 0.29053400E+01</totfact>
</mgrwt>
</event>
<event>
12    4  0.4398275E-008  0.1863451E+04  0.7818608E-02  0.8673266E-01
         -2   -1    0    0    0  501 -0.00000000000E+00  0.00000000000E+00  0.67721942155E+03  0.67721942155E+03  0.00000000000E+00 0.  1.
          1   -1    0    0  501    0  0.00000000000E+00 -0.00000000000E+00 -0.12818770227E+04  0.12818770227E+04  0.00000000000E+00 0. -1.
        -24    2    1    2    0    0 -0.21019734465E+03  0.60430933266E+03 -0.56479232581E+03  0.85721197062E+03  0.80307521653E+02 0.  0.
        254    2    1    2    0    0  0.21019734465E+03 -0.60430933266E+03 -0.39865275371E+02  0.11018844737E+04  0.89620726392E+03 0.  0.
         23    2    4    4    0    0  0.15826902937E+03 -0.75531991189E+03 -0.25381857103E+03  0.81750613596E+03  0.91297099485E+02 0.  0.
         23    2    4    4    0    0  0.51928315276E+02  0.15101057923E+03  0.21395329566E+03  0.28437833771E+03  0.97950402098E+02 0.  0.
          3    1    3    3  502    0 -0.21677536415E+03  0.57002749305E+03 -0.53108412515E+03  0.80868612535E+03  0.00000000000E+00 0. -1.
         -4    1    3    3    0  502  0.65780195024E+01  0.34281839606E+02 -0.33708200661E+02  0.48525845270E+02  0.00000000000E+00 0.  1.
         11    1    5    5    0    0  0.15221536049E+03 -0.71340469126E+03 -0.26060339462E+03  0.77461596857E+03  0.00000000000E+00 0. -1.
        -11    1    5    5    0    0  0.60536688783E+01 -0.41915220627E+02  0.67848235857E+01  0.42890167384E+02  0.00000000000E+00 0.  1.
          3    1    6    6  503    0  0.58966975997E+02  0.15767783757E+03  0.16954662495E+03  0.23892564272E+03  0.00000000000E+00 0. -1.
         -3    1    6    6    0  503 -0.70386607215E+01 -0.66672583381E+01  0.44406670714E+02  0.45452694996E+02  0.00000000000E+00 0.  1.
<mgrwt>
<rscale>  0 0.18634506E+04</rscale>
<asrwt>0</asrwt>
<pdfrwt beam="1">  1        1 0.19721185E+00 0.18634506E+04</pdfrwt>
<pdfrwt beam="2">  1       -2 0.10418760E+00 0.18634506E+04</pdfrwt>
<totfact> 0.57474893E+00</totfact>
</mgrwt>
</event>
<event>
12    4  0.4398275E-008  0.2526279E+04  0.7818608E-02  0.8393683E-01
          1   -1    0    0  501    0  0.00000000000E+00  0.00000000000E+00  0.10878316440E+04  0.10878316440E+04  0.00000000000E+00 0. -1.
         -2   -1    0    0    0  501 -0.00000000000E+00 -0.00000000000E+00 -0.14666987525E+04  0.14666987525E+04  0.00000000000E+00 0.  1.
        -24    2    1    2    0    0 -0.94608331079E+03 -0.36604227680E+03 -0.58720532154E+03  0.11748393552E+04  0.79855129091E+02 0.  0.
        254    2    1    2    0    0  0.94608331079E+03  0.36604227680E+03  0.20833821304E+03  0.13796910413E+04  0.91163697763E+03 0.  0.
         23    2    4    4    0    0  0.57023910261E+03  0.48785279126E+02  0.53021430501E+03  0.78543935002E+03  0.90747593453E+02 0.  0.
         23    2    4    4    0    0  0.37584420818E+03  0.31725699767E+03 -0.32187609197E+03  0.59425169124E+03  0.87292511515E+02 0.  0.
          3    1    3    3  502    0 -0.33322742461E+03 -0.89543736639E+02 -0.20946157420E+03  0.40364928880E+03  0.00000000000E+00 0. -1.
         -4    1    3    3    0  502 -0.61285588618E+03 -0.27649854016E+03 -0.37774374733E+03  0.77119006645E+03  0.00000000000E+00 0.  1.
         11    1    5    5    0    0  0.41909236982E+02 -0.20279019237E+02  0.38923889460E+02  0.60685187125E+02  0.00000000000E+00 0. -1.
        -11    1    5    5    0    0  0.52832986563E+03  0.69064298364E+02  0.49129041555E+03  0.72475416289E+03  0.00000000000E+00 0.  1.
          1    1    6    6  503    0  0.17175879742E+03  0.89886401921E+02 -0.13192081053E+03  0.23448614030E+03  0.00000000000E+00 0. -1.
         -1    1    6    6    0  503  0.20408541076E+03  0.22737059575E+03 -0.18995528144E+03  0.35976555094E+03  0.00000000000E+00 0.  1.
<mgrwt>
<rscale>  0 0.25262789E+04</rscale>
<asrwt>0</asrwt>
<pdfrwt beam="1">  1        1 0.16735872E+00 0.25262789E+04</pdfrwt>
<pdfrwt beam="2">  1       -2 0.22564596E+00 0.25262789E+04</pdfrwt>
<totfact> 0.91675518E-01</totfact>
</mgrwt>
</event>
<event>
12    4  0.4398275E-008  0.1301992E+04  0.7818608E-02  0.9027987E-01
         -2   -1    0    0    0  501 -0.00000000000E+00  0.00000000000E+00  0.70202788426E+03  0.70202788426E+03  0.00000000000E+00 0.  1.
          1   -1    0    0  501    0  0.00000000000E+00 -0.00000000000E+00 -0.60367415761E+03  0.60367415761E+03  0.00000000000E+00 0. -1.
        -24    2    1    2    0    0  0.33345144564E+03 -0.21545333398E+02  0.71083916486E+02  0.35053754866E+03  0.78546685798E+02 0.  0.
        254    2    1    2    0    0 -0.33345144564E+03  0.21545333398E+02  0.27269810164E+02  0.95516449321E+03  0.89439448710E+03 0.  0.
         23    2    4    4    0    0 -0.14963765023E+02  0.25087119857E+03 -0.32433594814E+03  0.42045583339E+03  0.91809738215E+02 0.  0.
         23    2    4    4    0    0 -0.31848768061E+03 -0.22932586518E+03  0.35160575831E+03  0.53470865983E+03  0.90895470050E+02 0.  0.
          1    1    3    3  502    0  0.11217315554E+02  0.15200928989E+02  0.51447014821E+01  0.19579692636E+02  0.00000000000E+00 0. -1.
         -2    1    3    3    0  502  0.32223413008E+03 -0.36746262388E+02  0.65939215004E+02  0.33095785602E+03  0.00000000000E+00 0.  1.
         11    1    5    5    0    0  0.13230234122E+02  0.11420718849E+01 -0.33751166815E+02  0.36269611034E+02  0.00000000000E+00 0.  1.
        -11    1    5    5    0    0 -0.28193999145E+02  0.24972912669E+03 -0.29058478133E+03  0.38418622235E+03  0.00000000000E+00 0. -1.
          2    1    6    6  503    0 -0.29506006914E+03 -0.18258702835E+03  0.27901480291E+03  0.44525018536E+03  0.00000000000E+00 0. -1.
         -2    1    6    6    0  503 -0.23427611470E+02 -0.46738836829E+02  0.72590955401E+02  0.89458474464E+02  0.00000000000E+00 0.  1.
<mgrwt>
<rscale>  0 0.13019925E+04</rscale>
<asrwt>0</asrwt>
<pdfrwt beam="1">  1        1 0.92872947E-01 0.13019925E+04</pdfrwt>
<pdfrwt beam="2">  1       -2 0.10800429E+00 0.13019925E+04</pdfrwt>
<totfact> 0.20042868E+01</totfact>
</mgrwt>
</event>
<event>
12    4  0.4398275E-008  0.1056561E+04  0.7818608E-02  0.9248597E-01
         -2   -1    0    0    0  501 -0.00000000000E+00  0.00000000000E+00  0.37207207512E+03  0.37207207512E+03  0.00000000000E+00 0.  1.
          1   -1    0    0  501    0  0.00000000000E+00 -0.00000000000E+00 -0.75007014427E+03  0.75007014427E+03  0.00000000000E+00 0. -1.
        -24    2    1    2    0    0  0.13916699438E+03 -0.46092233490E+02 -0.18630800151E+03  0.24703609755E+03  0.69456574573E+02 0.  0.
        254    2    1    2    0    0 -0.13916699438E+03  0.46092233490E+02 -0.19169006764E+03  0.87510612185E+03  0.84117399874E+03 0.  0.
         23    2    4    4    0    0 -0.17067881056E+03 -0.36694633480E+03 -0.17728027692E+03  0.45078075243E+03  0.89409849464E+02 0.  0.
         23    2    4    4    0    0  0.31511816175E+02  0.41303856829E+03 -0.14409790717E+02  0.42432536942E+03  0.90832392987E+02 0.  0.
          1    1    3    3  502    0  0.10030312119E+03 -0.57506088041E+02 -0.16440169713E+03  0.20098652767E+03  0.00000000000E+00 0. -1.
         -2    1    3    3    0  502  0.38863873189E+02  0.11413854551E+02 -0.21906304381E+02  0.46049569885E+02  0.00000000000E+00 0.  1.
         11    1    5    5    0    0 -0.69225118264E+02 -0.21183445308E+03 -0.13539076282E+03  0.26076159834E+03  0.00000000000E+00 0. -1.
        -11    1    5    5    0    0 -0.10145369229E+03 -0.15511188171E+03 -0.41889514095E+02  0.19001915409E+03  0.00000000000E+00 0.  1.
          1    1    6    6  503    0  0.54174155549E+01  0.21016109593E+03  0.36887299533E+02  0.21344251568E+03  0.00000000000E+00 0. -1.
         -1    1    6    6    0  503  0.26094400620E+02  0.20287747235E+03 -0.51297090250E+02  0.21088285374E+03  0.00000000000E+00 0.  1.
<mgrwt>
<rscale>  0 0.10565608E+04</rscale>
<asrwt>0</asrwt>
<pdfrwt beam="1">  1        1 0.11539541E+00 0.10565608E+04</pdfrwt>
<pdfrwt beam="2">  1       -2 0.57241858E-01 0.10565608E+04</pdfrwt>
<totfact> 0.61318477E+01</totfact>
</mgrwt>
</event>
<event>
12    4  0.4398275E-008  0.1382229E+04  0.7818608E-02  0.8966784E-01
          1   -1    0    0  501    0  0.00000000000E+00  0.00000000000E+00  0.72486364695E+03  0.72486364695E+03  0.00000000000E+00 0. -1.
         -2   -1    0    0    0  501 -0.00000000000E+00 -0.00000000000E+00 -0.65893634636E+03  0.65893634636E+03  0.00000000000E+00 0.  1.
        -24    2    1    2    0    0  0.23792294597E+03 -0.21870015009E+03 -0.20110029915E+03  0.39285197021E+03  0.97233000088E+02 0.  0.
        254    2    1    2    0    0 -0.23792294597E+03  0.21870015009E+03  0.26702759974E+03  0.99094802310E+03  0.89790710076E+03 0.  0.
         23    2    4    4    0    0 -0.37861843701E+02  0.53901423475E+03  0.24994662272E+03  0.60314708808E+03  0.96660390963E+02 0.  0.
         23    2    4    4    0    0 -0.20006110227E+03 -0.32031408466E+03  0.17080977026E+02  0.38780093502E+03  0.86442165348E+02 0.  0.
          3    1    3    3  502    0  0.37144810702E+02 -0.36732902588E+02  0.49002812324E+01  0.52469570712E+02  0.00000000000E+00 0. -1.
         -4    1    3    3    0  502  0.20077813527E+03 -0.18196724750E+03 -0.20600058038E+03  0.34038239949E+03  0.00000000000E+00 0.  1.
         11    1    5    5    0    0 -0.54646206238E+02  0.24583149690E+03  0.14904829070E+03  0.29263411572E+03  0.00000000000E+00 0. -1.
        -11    1    5    5    0    0  0.16784362537E+02  0.29318273785E+03  0.10089833202E+03  0.31051297236E+03  0.00000000000E+00 0.  1.
          3    1    6    6  503    0 -0.29689818323E+02 -0.70720161700E+01  0.56632821981E+01  0.31041447937E+02  0.00000000000E+00 0. -1.
         -3    1    6    6    0  503 -0.17037128395E+03 -0.31324206849E+03  0.11417694828E+02  0.35675948708E+03  0.00000000000E+00 0.  1.
<mgrwt>
<rscale>  0 0.13822286E+04</rscale>
<asrwt>0</asrwt>
<pdfrwt beam="1">  1        1 0.11151748E+00 0.13822286E+04</pdfrwt>
<pdfrwt beam="2">  1       -2 0.10137482E+00 0.13822286E+04</pdfrwt>
<totfact> 0.17657206E+01</totfact>
</mgrwt>
</event>
<event>
12    4  0.4398275E-008  0.1692149E+04  0.7818608E-02  0.8765855E-01
          1   -1    0    0  501    0  0.00000000000E+00  0.00000000000E+00  0.11267317820E+04  0.11267317820E+04  0.00000000000E+00 0. -1.
         -2   -1    0    0    0  501 -0.00000000000E+00 -0.00000000000E+00 -0.63532572198E+03  0.63532572198E+03  0.00000000000E+00 0.  1.
        -24    2    1    2    0    0  0.62489919153E+02 -0.58773443773E+03  0.29947237974E+03  0.66747045002E+03  0.80599851910E+02 0.  0.
        254    2    1    2    0    0 -0.62489919153E+02  0.58773443773E+03  0.19193368033E+03  0.10945870540E+04  0.90108019724E+03 0.  0.
         23    2    4    4    0    0 -0.59432272772E+02  0.31655996497E+03 -0.34878904028E+03  0.48293456590E+03  0.88484992213E+02 0.  0.
         23    2    4    4    0    0 -0.30576463805E+01  0.27117447276E+03  0.54072272061E+03  0.61165248811E+03  0.90513875983E+02 0.  0.
          1    1    3    3  502    0 -0.46593000553E+01 -0.27329003254E+02  0.33627517337E+02  0.43582030909E+02  0.00000000000E+00 0. -1.
         -2    1    3    3    0  502  0.67149219208E+02 -0.56040543448E+03  0.26584486241E+03  0.62388841911E+03  0.00000000000E+00 0.  1.
         11    1    5    5    0    0 -0.10993704021E+02  0.43095601158E+01 -0.37726293221E+02  0.39531089496E+02  0.00000000000E+00 0. -1.
        -11    1    5    5    0    0 -0.48438568752E+02  0.31225040485E+03 -0.31106274706E+03  0.44340347640E+03  0.00000000000E+00 0.  1.
          3    1    6    6  503    0 -0.21386006248E+02  0.95900676010E+02  0.11726722561E+03  0.15298987916E+03  0.00000000000E+00 0. -1.
         -3    1    6    6    0  503  0.18328359868E+02  0.17527379675E+03  0.42345549500E+03  0.45866260895E+03  0.00000000000E+00 0.  1.
<mgrwt>
<rscale>  0 0.16921486E+04</rscale>
<asrwt>0</asrwt>
<pdfrwt beam="1">  1        1 0.17334335E+00 0.16921486E+04</pdfrwt>
<pdfrwt beam="2">  1       -2 0.97742419E-01 0.16921486E+04</pdfrwt>
<totfact> 0.88134030E+00</totfact>
</mgrwt>
</event>
<event>
12    4  0.4398275E-008  0.1813429E+04  0.7818608E-02  0.8699190E-01
         -2   -1    0    0    0  501 -0.00000000000E+00  0.00000000000E+00  0.11216871582E+04  0.11216871582E+04  0.00000000000E+00 0.  1.
          1   -1    0    0  501    0  0.00000000000E+00 -0.00000000000E+00 -0.73294189699E+03  0.73294189699E+03  0.00000000000E+00 0. -1.
        -24    2    1    2    0    0 -0.27959187777E+03 -0.20464290185E+03  0.76377343564E+03  0.84261226464E+03  0.81211034534E+02 0.  0.
        254    2    1    2    0    0  0.27959187777E+03  0.20464290185E+03 -0.37502817438E+03  0.10120167906E+04  0.87377429436E+03 0.  0.
         23    2    4    4    0    0  0.29946395271E+03  0.42830710309E+03 -0.50839914694E+03  0.73477478677E+03  0.91096987530E+02 0.  0.
         23    2    4    4    0    0 -0.19872074933E+02 -0.22366420125E+03  0.13337097256E+03  0.27724200383E+03  0.93030844793E+02 0.  0.
          1    1    3    3  502    0 -0.62611650425E+02 -0.55567813216E+02  0.11318367196E+03  0.14077835143E+03  0.00000000000E+00 0. -1.
         -2    1    3    3    0  502 -0.21698022735E+03 -0.14907508863E+03  0.65058976368E+03  0.70183391320E+03  0.00000000000E+00 0.  1.
         11    1    5    5    0    0  0.24104546506E+03  0.32993653618E+03 -0.34204072333E+03  0.53287230229E+03  0.00000000000E+00 0.  1.
        -11    1    5    5    0    0  0.58418487643E+02  0.98370566914E+02 -0.16635842361E+03  0.20190248448E+03  0.00000000000E+00 0. -1.
          2    1    6    6  503    0 -0.41752690047E+02 -0.45318231475E+02  0.49044298143E+02  0.78755142121E+02  0.00000000000E+00 0. -1.
         -2    1    6    6    0  503  0.21880615114E+02 -0.17834596977E+03  0.84326674418E+02  0.19848686170E+03  0.00000000000E+00 0.  1.
<mgrwt>
<rscale>  0 0.18134294E+04</rscale>
<asrwt>0</asrwt>
<pdfrwt beam="1">  1        1 0.11276029E+00 0.18134294E+04</pdfrwt>
<pdfrwt beam="2">  1       -2 0.17256725E+00 0.18134294E+04</pdfrwt>
<totfact> 0.42805994E+00</totfact>
</mgrwt>
</event>
<event>
12    4  0.4398275E-008  0.1397269E+04  0.7818608E-02  0.8955798E-01
          1   -1    0    0  501    0  0.00000000000E+00  0.00000000000E+00  0.21438875144E+04  0.21438875144E+04  0.00000000000E+00 0. -1.
         -2   -1    0    0    0  501 -0.00000000000E+00 -0.00000000000E+00 -0.22766597777E+03  0.22766597777E+03  0.00000000000E+00 0.  1.
        -24    2    1    2    0    0  0.12950544675E+03 -0.16949839703E+03 -0.17608019030E+02  0.22886602141E+03  0.81044716579E+02 0.  0.
        254    2    1    2    0    0 -0.12950544675E+03  0.16949839703E+03  0.19338295556E+04  0.21426874707E+04  0.89772572630E+03 0.  0.
         23    2    4    4    0    0 -0.50586058806E+03  0.59538550771E+02  0.10017831860E+04  0.11276163253E+04  0.92245605636E+02 0.  0.
         23    2    4    4    0    0  0.37635514130E+03  0.10995984626E+03  0.93204636959E+03  0.10150711454E+04  0.89020418799E+02 0.  0.
          3    1    3    3  502    0  0.33156897680E+02 -0.10797503650E+03  0.15154534482E+01  0.11296143133E+03  0.00000000000E+00 0. -1.
         -4    1    3    3    0  502  0.96348549075E+02 -0.61523360536E+02 -0.19123472478E+02  0.11590459007E+03  0.00000000000E+00 0.  1.
         11    1    5    5    0    0 -0.36749414667E+03  0.81285488410E+02  0.69494360384E+03  0.79032011931E+03  0.00000000000E+00 0. -1.
        -11    1    5    5    0    0 -0.13836644139E+03 -0.21746937640E+02  0.30683958219E+03  0.33729620602E+03  0.00000000000E+00 0.  1.
          4    1    6    6  503    0  0.62553819390E+02 -0.12795263803E+02  0.12097526040E+03  0.13679076257E+03  0.00000000000E+00 0. -1.
         -4    1    6    6    0  503  0.31380132191E+03  0.12275511006E+03  0.81107110919E+03  0.87828038282E+03  0.00000000000E+00 0.  1.
<mgrwt>
<rscale>  0 0.13972691E+04</rscale>
<asrwt>0</asrwt>
<pdfrwt beam="1">  1        1 0.32982883E+00 0.13972691E+04</pdfrwt>
<pdfrwt beam="2">  1       -2 0.35025536E-01 0.13972691E+04</pdfrwt>
<totfact> 0.15607029E+01</totfact>
</mgrwt>
</event>
<event>
12    4  0.4398275E-008  0.1593024E+04  0.7818608E-02  0.8824845E-01
          1   -1    0    0  501    0  0.00000000000E+00  0.00000000000E+00  0.36096483114E+03  0.36096483114E+03  0.00000000000E+00 0. -1.
         -2   -1    0    0    0  501 -0.00000000000E+00 -0.00000000000E+00 -0.17575996727E+04  0.17575996727E+04  0.00000000000E+00 0.  1.
        -24    2    1    2    0    0 -0.35236611270E+03 -0.53232432387E+02  0.61337159221E+02  0.37016805126E+03  0.79161668958E+02 0.  0.
        254    2    1    2    0    0  0.35236611270E+03  0.53232432387E+02 -0.14579720008E+04  0.17483964526E+04  0.89677880834E+03 0.  0.
         23    2    4    4    0    0  0.14976448594E+03 -0.25985155244E+03 -0.12957605107E+04  0.13331049045E+04  0.90670584781E+02 0.  0.
         23    2    4    4    0    0  0.20260162677E+03  0.31308398483E+03 -0.16221149011E+03  0.41529154804E+03  0.84175421715E+02 0.  0.
          1    1    3    3  502    0 -0.22923909328E+03 -0.57756819699E+02  0.97784894295E+01  0.23660522176E+03  0.00000000000E+00 0. -1.
         -4    1    3    3    0  502 -0.12312701943E+03  0.45243873117E+01  0.51558669792E+02  0.13356282950E+03  0.00000000000E+00 0.  1.
         11    1    5    5    0    0  0.50434531216E+02 -0.22844412571E+02 -0.19199291379E+03  0.19981688635E+03  0.00000000000E+00 0.  1.
        -11    1    5    5    0    0  0.99329954720E+02 -0.23700713987E+03 -0.11037675969E+04  0.11332880182E+04  0.00000000000E+00 0. -1.
          4    1    6    6  503    0  0.16449195758E+03  0.22234762349E+03 -0.15393066330E+03  0.31652917541E+03  0.00000000000E+00 0. -1.
         -4    1    6    6    0  503  0.38109669188E+02  0.90736361337E+02 -0.82808268102E+01  0.98762372627E+02  0.00000000000E+00 0.  1.
<mgrwt>
<rscale>  0 0.15930244E+04</rscale>
<asrwt>0</asrwt>
<pdfrwt beam="1">  1        1 0.55533051E-01 0.15930244E+04</pdfrwt>
<pdfrwt beam="2">  1       -2 0.27039995E+00 0.15930244E+04</pdfrwt>
<totfact> 0.27842443E+00</totfact>
</mgrwt>
</event>
<event>
12    4  0.4398275E-008  0.1581330E+04  0.7818608E-02  0.8832100E-01
         -2   -1    0    0    0  501 -0.00000000000E+00  0.00000000000E+00  0.44247430055E+03  0.44247430055E+03  0.00000000000E+00 0.  1.
          1   -1    0    0  501    0  0.00000000000E+00 -0.00000000000E+00 -0.14128538517E+04  0.14128538517E+04  0.00000000000E+00 0. -1.
        -24    2    1    2    0    0  0.48757165506E+02 -0.29762179141E+03 -0.83895266569E+03  0.89512481251E+03  0.80317263285E+02 0.  0.
        254    2    1    2    0    0 -0.48757165506E+02  0.29762179141E+03 -0.13142688548E+03  0.96020333978E+03  0.90208726606E+03 0.  0.
         23    2    4    4    0    0  0.23448282115E+03 -0.16181641577E+03  0.16323818760E+03  0.33766732821E+03  0.78776727633E+02 0.  0.
         23    2    4    4    0    0 -0.28323998666E+03  0.45943820717E+03 -0.29466507309E+03  0.62253601157E+03  0.97032077971E+02 0.  0.
          3    1    3    3  502    0  0.59252758317E+02 -0.13556128512E+03 -0.35280365666E+03  0.38256786528E+03  0.00000000000E+00 0. -1.
         -4    1    3    3    0  502 -0.10495592811E+02 -0.16206050628E+03 -0.48614900903E+03  0.51255694722E+03  0.00000000000E+00 0.  1.
         11    1    5    5    0    0  0.53889511401E+02 -0.30246050995E+02  0.14668070791E+01  0.61814679186E+02  0.00000000000E+00 0.  1.
        -11    1    5    5    0    0  0.18059330975E+03 -0.13157036477E+03  0.16177138052E+03  0.27585264902E+03  0.00000000000E+00 0. -1.
          1    1    6    6  503    0 -0.22187007935E+03  0.36581283572E+03 -0.27575151717E+03  0.50900320441E+03  0.00000000000E+00 0. -1.
         -1    1    6    6    0  503 -0.61369907313E+02  0.93625371458E+02 -0.18913555921E+02  0.11353280716E+03  0.00000000000E+00 0.  1.
<mgrwt>
<rscale>  0 0.15813305E+04</rscale>
<asrwt>0</asrwt>
<pdfrwt beam="1">  1        1 0.21736213E+00 0.15813305E+04</pdfrwt>
<pdfrwt beam="2">  1       -2 0.68072970E-01 0.15813305E+04</pdfrwt>
<totfact> 0.12533806E+01</totfact>
</mgrwt>
</event>
<event>
12    4  0.4398275E-008  0.2393101E+04  0.7818608E-02  0.8442091E-01
         -2   -1    0    0    0  501 -0.00000000000E+00  0.00000000000E+00  0.37661524874E+03  0.37661524874E+03  0.00000000000E+00 0.  1.
          1   -1    0    0  501    0  0.00000000000E+00 -0.00000000000E+00 -0.38015805192E+04  0.38015805192E+04  0.00000000000E+00 0. -1.
        -24    2    1    2    0    0 -0.21345527946E+03 -0.96239096857E+01  0.27316819098E+03  0.35587761097E+03  0.79826295529E+02 0.  0.
        254    2    1    2    0    0  0.21345527946E+03  0.96239096857E+01 -0.36981334614E+04  0.38223181570E+04  0.94248035441E+03 0.  0.
         23    2    4    4    0    0  0.52047992329E+02  0.24984502216E+03 -0.28229079043E+03  0.39304562510E+03  0.98311975066E+02 0.  0.
         23    2    4    4    0    0  0.16140728713E+03 -0.24022111248E+03 -0.34158426710E+04  0.34292725319E+04  0.90390538821E+02 0.  0.
          1    1    3    3  502    0 -0.19125567558E+02  0.99262333044E+01  0.73397327699E+02  0.76495000852E+02  0.00000000000E+00 0. -1.
         -2    1    3    3    0  502 -0.19432971190E+03 -0.19550142990E+02  0.19977086328E+03  0.27938261012E+03  0.00000000000E+00 0.  1.
         11    1    5    5    0    0 -0.23908497054E+02  0.36218566423E+02 -0.24892854978E+02  0.50030540813E+02  0.00000000000E+00 0.  1.
        -11    1    5    5    0    0  0.75956489382E+02  0.21362645574E+03 -0.25739793546E+03  0.34301508429E+03  0.00000000000E+00 0. -1.
          4    1    6    6  503    0  0.11483793761E+03 -0.22654004198E+03 -0.27784743790E+04  0.27900587839E+04  0.00000000000E+00 0. -1.
         -4    1    6    6    0  503  0.46569349521E+02 -0.13681070496E+02 -0.63736829198E+03  0.63921374799E+03  0.00000000000E+00 0.  1.
<mgrwt>
<rscale>  0 0.23931011E+04</rscale>
<asrwt>0</asrwt>
<pdfrwt beam="1">  1        1 0.58485854E+00 0.23931011E+04</pdfrwt>
<pdfrwt beam="2">  1       -2 0.57940808E-01 0.23931011E+04</pdfrwt>
<totfact> 0.31309791E-01</totfact>
</mgrwt>
</event>
<event>
12    4  0.4398275E-008  0.1532117E+04  0.7818608E-02  0.8863372E-01
         -2   -1    0    0    0  501 -0.00000000000E+00  0.00000000000E+00  0.22557427552E+03  0.22557427552E+03  0.00000000000E+00 0.  1.
          1   -1    0    0  501    0  0.00000000000E+00 -0.00000000000E+00 -0.26015635749E+04  0.26015635749E+04  0.00000000000E+00 0. -1.
        -24    2    1    2    0    0  0.13824256295E+03  0.26607699513E+03 -0.53879633388E+02  0.31937349212E+03  0.95856345805E+02 0.  0.
        254    2    1    2    0    0 -0.13824256295E+03 -0.26607699513E+03 -0.23221096660E+04  0.25077643583E+04  0.89820977631E+03 0.  0.
         23    2    4    4    0    0 -0.41905208808E+03 -0.35950588925E+03 -0.19209222364E+04  0.20007673931E+04  0.90987834349E+02 0.  0.
         23    2    4    4    0    0  0.28080952513E+03  0.93428894125E+02 -0.40118742957E+03  0.50699696519E+03  0.92258448934E+02 0.  0.
          3    1    3    3  502    0  0.54173282969E+01  0.10191440885E+03 -0.32588209315E+02  0.10713489424E+03  0.00000000000E+00 0. -1.
         -4    1    3    3    0  502  0.13282523465E+03  0.16416258627E+03 -0.21291424073E+02  0.21223859788E+03  0.00000000000E+00 0.  1.
         11    1    5    5    0    0 -0.13859791037E+03 -0.15624937698E+03 -0.84700666310E+03  0.87237809229E+03  0.00000000000E+00 0.  1.
        -11    1    5    5    0    0 -0.28045417771E+03 -0.20325651227E+03 -0.10739155733E+04  0.11283893008E+04  0.00000000000E+00 0. -1.
          3    1    6    6  503    0  0.24694049191E+03  0.98559743111E+02 -0.38785279181E+03  0.47023761825E+03  0.00000000000E+00 0. -1.
         -3    1    6    6    0  503  0.33869033221E+02 -0.51308489855E+01 -0.13334637763E+02  0.36759346933E+02  0.00000000000E+00 0.  1.
<mgrwt>
<rscale>  0 0.15321173E+04</rscale>
<asrwt>0</asrwt>
<pdfrwt beam="1">  1        1 0.40024053E+00 0.15321173E+04</pdfrwt>
<pdfrwt beam="2">  1       -2 0.34703736E-01 0.15321173E+04</pdfrwt>
<totfact> 0.76152812E+00</totfact>
</mgrwt>
</event>
<event>
12    4  0.4398275E-008  0.2002657E+04  0.7818608E-02  0.8605379E-01
         -2   -1    0    0    0  501 -0.00000000000E+00  0.00000000000E+00  0.10203323396E+04  0.10203323396E+04  0.00000000000E+00 0.  1.
          1   -1    0    0  501    0  0.00000000000E+00 -0.00000000000E+00 -0.98267892983E+03  0.98267892983E+03  0.00000000000E+00 0. -1.
        -24    2    1    2    0    0 -0.21808224861E+03 -0.67438398987E+03 -0.35420459565E+03  0.79646878074E+03  0.80919652500E+02 0.  0.
        254    2    1    2    0    0  0.21808224861E+03  0.67438398987E+03  0.39185800538E+03  0.12065424887E+04  0.89433687590E+03 0.  0.
         23    2    4    4    0    0  0.15421079816E+03 -0.18365483904E+03  0.18405164800E+03  0.31658788970E+03  0.94036230257E+02 0.  0.
         23    2    4    4    0    0  0.63871450448E+02  0.85803882891E+03  0.20780635738E+03  0.88995459896E+03  0.92333698823E+02 0.  0.
          1    1    3    3  502    0 -0.15985174892E+03 -0.57552118338E+03 -0.31456882926E+03  0.67507833804E+03  0.00000000000E+00 0. -1.
         -2    1    3    3    0  502 -0.58230499683E+02 -0.98862806491E+02 -0.39635766392E+02  0.12139044270E+03  0.00000000000E+00 0.  1.
         11    1    5    5    0    0  0.26072288962E+02  0.35693443624E+01  0.33175347384E+01  0.26523772500E+02  0.00000000000E+00 0.  1.
        -11    1    5    5    0    0  0.12813850920E+03 -0.18722418340E+03  0.18073411327E+03  0.29006411720E+03  0.00000000000E+00 0. -1.
          2    1    6    6  503    0  0.59646807100E+02  0.49365851078E+03  0.16039895417E+03  0.52247898653E+03  0.00000000000E+00 0. -1.
         -2    1    6    6    0  503  0.42246433475E+01  0.36438031813E+03  0.47407403205E+02  0.36747561243E+03  0.00000000000E+00 0.  1.
<mgrwt>
<rscale>  0 0.20026573E+04</rscale>
<asrwt>0</asrwt>
<pdfrwt beam="1">  1        1 0.15118137E+00 0.20026573E+04</pdfrwt>
<pdfrwt beam="2">  1       -2 0.15697421E+00 0.20026573E+04</pdfrwt>
<totfact> 0.33670638E+00</totfact>
</mgrwt>
</event>
<event>
12    4  0.4398275E-008  0.2840397E+04  0.7818608E-02  0.8290835E-01
         -2   -1    0    0    0  501 -0.00000000000E+00  0.00000000000E+00  0.88073533493E+03  0.88073533493E+03  0.00000000000E+00 0.  1.
          1   -1    0    0  501    0  0.00000000000E+00 -0.00000000000E+00 -0.22900908998E+04  0.22900908998E+04  0.00000000000E+00 0. -1.
        -24    2    1    2    0    0  0.11007671893E+04  0.12661581364E+03  0.74488446486E+02  0.11133886430E+04  0.79785790313E+02 0.  0.
        254    2    1    2    0    0 -0.11007671893E+04 -0.12661581364E+03 -0.14838440113E+04  0.20574375917E+04  0.89640193242E+03 0.  0.
         23    2    4    4    0    0 -0.86741475007E+03 -0.22791089897E+02 -0.15507582090E+04  0.17789037741E+04  0.81974583042E+02 0.  0.
         23    2    4    4    0    0 -0.23335243926E+03 -0.10382472374E+03  0.66914197654E+02  0.27853381764E+03  0.88716647556E+02 0.  0.
          3    1    3    3  502    0  0.81003011635E+02 -0.11509194925E+02  0.50052990072E+01  0.81969521652E+02  0.00000000000E+00 0. -1.
         -4    1    3    3    0  502  0.10197641777E+04  0.13812500857E+03  0.69483147479E+02  0.10314191213E+04  0.00000000000E+00 0.  1.
         11    1    5    5    0    0 -0.22735088916E+03 -0.20165687439E+02 -0.34259223759E+03  0.41166068917E+03  0.00000000000E+00 0.  1.
        -11    1    5    5    0    0 -0.64006386091E+03 -0.26254024582E+01 -0.12081659714E+04  0.13672430849E+04  0.00000000000E+00 0. -1.
          3    1    6    6  503    0 -0.22327676137E+03 -0.88888683479E+02  0.83132480634E+02  0.25429258651E+03  0.00000000000E+00 0. -1.
         -3    1    6    6    0  503 -0.10075677884E+02 -0.14936040265E+02 -0.16218282981E+02  0.24241231125E+02  0.00000000000E+00 0.  1.
<mgrwt>
<rscale>  0 0.28403971E+04</rscale>
<asrwt>0</asrwt>
<pdfrwt beam="1">  1        1 0.35232167E+00 0.28403971E+04</pdfrwt>
<pdfrwt beam="2">  1       -2 0.13549775E+00 0.28403971E+04</pdfrwt>
<totfact> 0.56044519E-01</totfact>
</mgrwt>
</event>
<event>
12    4  0.4398275E-008  0.2936688E+04  0.7818608E-02  0.8262045E-01
         -2   -1    0    0    0  501 -0.00000000000E+00  0.00000000000E+00  0.93871826975E+03  0.93871826975E+03  0.00000000000E+00 0.  1.
          1   -1    0    0  501    0  0.00000000000E+00 -0.00000000000E+00 -0.22967857779E+04  0.22967857779E+04  0.00000000000E+00 0. -1.
        -24    2    1    2    0    0  0.40660807289E+03 -0.94243733123E+03  0.31478255198E+03  0.10765831524E+04  0.80155977813E+02 0.  0.
        254    2    1    2    0    0 -0.40660807289E+03  0.94243733123E+03 -0.16728500601E+04  0.21589208952E+04  0.89944085966E+03 0.  0.
         23    2    4    4    0    0  0.73907642056E+02  0.78446923666E+03 -0.13048007159E+04  0.15269423116E+04  0.90518461639E+02 0.  0.
         23    2    4    4    0    0 -0.48051571494E+03  0.15796809457E+03 -0.36804934424E+03  0.63197858366E+03  0.89929634730E+02 0.  0.
          1    1    3    3  502    0  0.10713263841E+03 -0.34402680747E+03  0.10514841510E+03  0.37535055038E+03  0.00000000000E+00 0. -1.
         -2    1    3    3    0  502  0.29947543447E+03 -0.59841052376E+03  0.20963413688E+03  0.70123260202E+03  0.00000000000E+00 0.  1.
         11    1    5    5    0    0  0.84186309458E+02  0.41513795843E+03 -0.70651335905E+03  0.82376452081E+03  0.00000000000E+00 0. -1.
        -11    1    5    5    0    0 -0.10278667402E+02  0.36933127823E+03 -0.59828735684E+03  0.70317779078E+03  0.00000000000E+00 0.  1.
          2    1    6    6  503    0 -0.40127389468E+03  0.12501443261E+03 -0.26087159947E+03  0.49467498251E+03  0.00000000000E+00 0. -1.
         -2    1    6    6    0  503 -0.79241820265E+02  0.32953661951E+02 -0.10717774477E+03  0.13730360115E+03  0.00000000000E+00 0.  1.
<mgrwt>
<rscale>  0 0.29366885E+04</rscale>
<asrwt>0</asrwt>
<pdfrwt beam="1">  1        1 0.35335165E+00 0.29366885E+04</pdfrwt>
<pdfrwt beam="2">  1       -2 0.14441820E+00 0.29366885E+04</pdfrwt>
<totfact> 0.46610001E-01</totfact>
</mgrwt>
</event>
<event>
12    4  0.4398275E-008  0.1563749E+04  0.7818608E-02  0.8843133E-01
          3   -1    0    0  501    0  0.00000000000E+00  0.00000000000E+00  0.21598294743E+04  0.21598294743E+04  0.00000000000E+00 0. -1.
         -4   -1    0    0    0  501 -0.00000000000E+00 -0.00000000000E+00 -0.28304434084E+03  0.28304434084E+03  0.00000000000E+00 0.  1.
        -24    2    1    2    0    0  0.47346378262E+02  0.19892573613E+03  0.13293848237E+04  0.13478152135E+04  0.86768151838E+02 0.  0.
        254    2    1    2    0    0 -0.47346378262E+02 -0.19892573613E+03  0.54740030973E+03  0.10950586016E+04  0.92611722469E+03 0.  0.
         23    2    4    4    0    0 -0.33134746785E+03 -0.40462323908E+03  0.13913819219E+03  0.54911136423E+03  0.93020125492E+02 0.  0.
         23    2    4    4    0    0  0.28400108958E+03  0.20569750295E+03  0.40826211753E+03  0.54594723739E+03  0.91718851942E+02 0.  0.
          1    1    3    3  502    0  0.22447209985E+02  0.12435714427E+03  0.54298360699E+03  0.55749419192E+03  0.00000000000E+00 0. -1.
         -2    1    3    3    0  502  0.24899168278E+02  0.74568591863E+02  0.78640121671E+03  0.79032102156E+03  0.00000000000E+00 0.  1.
         11    1    5    5    0    0 -0.13027699876E+03 -0.10207833970E+03  0.68075835565E+02  0.17895922226E+03  0.00000000000E+00 0.  1.
        -11    1    5    5    0    0 -0.20107046908E+03 -0.30254489938E+03  0.71062356629E+02  0.37015214197E+03  0.00000000000E+00 0. -1.
          3    1    6    6  503    0  0.26933074723E+03  0.15960816796E+03  0.36679817484E+03  0.48223927644E+03  0.00000000000E+00 0. -1.
         -3    1    6    6    0  503  0.14670342357E+02  0.46089334989E+02  0.41463942698E+02  0.63707960952E+02  0.00000000000E+00 0.  1.
<mgrwt>
<rscale>  0 0.15637487E+04</rscale>
<asrwt>0</asrwt>
<pdfrwt beam="1">  1        3 0.33228145E+00 0.15637487E+04</pdfrwt>
<pdfrwt beam="2">  1       -4 0.43545285E-01 0.15637487E+04</pdfrwt>
<totfact> 0.29313654E-01</totfact>
</mgrwt>
</event>
<event>
12    4  0.4398275E-008  0.2332248E+04  0.7818608E-02  0.8465314E-01
         -2   -1    0    0    0  501 -0.00000000000E+00  0.00000000000E+00  0.12842842699E+04  0.12842842699E+04  0.00000000000E+00 0.  1.
          1   -1    0    0  501    0  0.00000000000E+00 -0.00000000000E+00 -0.10588353310E+04  0.10588353310E+04  0.00000000000E+00 0. -1.
        -24    2    1    2    0    0  0.52250490739E+03 -0.70267509142E+03 -0.35723833434E+03  0.94997107195E+03  0.89789463067E+02 0.  0.
        254    2    1    2    0    0 -0.52250490739E+03  0.70267509142E+03  0.58268727322E+03  0.13931485290E+04  0.91355060240E+03 0.  0.
         23    2    4    4    0    0 -0.56865342722E+03  0.50177366641E+03  0.78058218037E+03  0.10931143036E+04  0.10220962642E+03 0.  0.
         23    2    4    4    0    0  0.46148519834E+02  0.20090142501E+03 -0.19789490715E+03  0.30003422545E+03  0.91471709888E+02 0.  0.
          1    1    3    3  502    0  0.32833911679E+03 -0.50638687108E+03 -0.22837484657E+03  0.64528234856E+03  0.00000000000E+00 0. -1.
         -2    1    3    3    0  502  0.19416579060E+03 -0.19628822034E+03 -0.12886348777E+03  0.30468872339E+03  0.00000000000E+00 0.  1.
         11    1    5    5    0    0 -0.80007848862E+02  0.57582668157E+02  0.15364663092E+03  0.18254946383E+03  0.00000000000E+00 0.  1.
        -11    1    5    5    0    0 -0.48864557836E+03  0.44419099825E+03  0.62693554945E+03  0.91056483973E+03  0.00000000000E+00 0. -1.
          3    1    6    6  503    0  0.25962110423E+02  0.14709832933E+03 -0.19052445804E+03  0.24209815939E+03  0.00000000000E+00 0. -1.
         -3    1    6    6    0  503  0.20186409411E+02  0.53803095684E+02 -0.73704491091E+01  0.57936066057E+02  0.00000000000E+00 0.  1.
<mgrwt>
<rscale>  0 0.23322483E+04</rscale>
<asrwt>0</asrwt>
<pdfrwt beam="1">  1        1 0.16289774E+00 0.23322483E+04</pdfrwt>
<pdfrwt beam="2">  1       -2 0.19758219E+00 0.23322483E+04</pdfrwt>
<totfact> 0.14859320E+00</totfact>
</mgrwt>
</event>
<event>
12    4  0.4398275E-008  0.2157002E+04  0.7818608E-02  0.8536541E-01
          1   -1    0    0  501    0  0.00000000000E+00  0.00000000000E+00  0.16620341275E+04  0.16620341275E+04  0.00000000000E+00 0. -1.
         -2   -1    0    0    0  501 -0.00000000000E+00 -0.00000000000E+00 -0.69984398313E+03  0.69984398313E+03  0.00000000000E+00 0.  1.
        -24    2    1    2    0    0  0.43124348934E+03 -0.74320807798E+03  0.14808006675E+03  0.87475040109E+03  0.70223669450E+02 0.  0.
        254    2    1    2    0    0 -0.43124348934E+03  0.74320807798E+03  0.81411007765E+03  0.14871277096E+04  0.90024686157E+03 0.  0.
         23    2    4    4    0    0 -0.40111168124E+03  0.91399013805E+03  0.81459168050E+03  0.12917879046E+04  0.94275294889E+02 0.  0.
         23    2    4    4    0    0 -0.30131808103E+02 -0.17078206006E+03 -0.48160284770E+00  0.19533980498E+03  0.89905336718E+02 0.  0.
          1    1    3    3  502    0  0.32140308428E+03 -0.51688349869E+03  0.13101221577E+03  0.62260155355E+03  0.00000000000E+00 0. -1.
         -2    1    3    3    0  502  0.10984040506E+03 -0.22632457929E+03  0.17067850986E+02  0.25214884754E+03  0.00000000000E+00 0.  1.
         11    1    5    5    0    0 -0.34821371520E+02  0.16523143823E+03  0.14601657641E+03  0.22323708626E+03  0.00000000000E+00 0. -1.
        -11    1    5    5    0    0 -0.36629030972E+03  0.74875869981E+03  0.66857510408E+03  0.10685508183E+04  0.00000000000E+00 0.  1.
          4    1    6    6  503    0  0.50498084012E+00 -0.64891573385E+02 -0.42275691863E+02  0.77449373300E+02  0.00000000000E+00 0. -1.
         -4    1    6    6    0  503 -0.30636788943E+02 -0.10589048668E+03  0.41794089016E+02  0.11789043168E+03  0.00000000000E+00 0.  1.
<mgrwt>
<rscale>  0 0.21570022E+04</rscale>
<asrwt>0</asrwt>
<pdfrwt beam="1">  1        1 0.25569756E+00 0.21570022E+04</pdfrwt>
<pdfrwt beam="2">  1       -2 0.10766831E+00 0.21570022E+04</pdfrwt>
<totfact> 0.28132370E+00</totfact>
</mgrwt>
</event>
<event>
12    4  0.4398275E-008  0.1702015E+04  0.7818608E-02  0.8760216E-01
         -2   -1    0    0    0  501 -0.00000000000E+00  0.00000000000E+00  0.44736699634E+03  0.44736699634E+03  0.00000000000E+00 0.  1.
          1   -1    0    0  501    0  0.00000000000E+00 -0.00000000000E+00 -0.16188367705E+04  0.16188367705E+04  0.00000000000E+00 0. -1.
        -24    2    1    2    0    0  0.43399789158E+03 -0.12904634648E+03 -0.91044850199E+03  0.10198084612E+04  0.78010853265E+02 0.  0.
        254    2    1    2    0    0 -0.43399789158E+03  0.12904634648E+03 -0.26102127220E+03  0.10463953057E+04  0.90653400479E+03 0.  0.
         23    2    4    4    0    0 -0.97445397922E+02  0.39059177145E+03  0.15741110906E+03  0.44175115082E+03  0.91149791476E+02 0.  0.
         23    2    4    4    0    0 -0.33655249366E+03 -0.26154542498E+03 -0.41843238126E+03  0.60464415490E+03  0.93996308719E+02 0.  0.
          3    1    3    3  502    0  0.23942631823E+03 -0.74680166750E+02 -0.58862589207E+03  0.63983007899E+03  0.00000000000E+00 0. -1.
         -2    1    3    3    0  502  0.19457157335E+03 -0.54366179728E+02 -0.32182260992E+03  0.37997838216E+03  0.00000000000E+00 0.  1.
         11    1    5    5    0    0 -0.50411386051E+02  0.23211500634E+03  0.44757249046E+02  0.24170621704E+03  0.00000000000E+00 0.  1.
        -11    1    5    5    0    0 -0.47034011871E+02  0.15847676511E+03  0.11265386002E+03  0.20004493377E+03  0.00000000000E+00 0. -1.
          4    1    6    6  503    0 -0.86752774496E+02 -0.22742286142E+02 -0.68692672084E+02  0.11296875081E+03  0.00000000000E+00 0. -1.
         -4    1    6    6    0  503 -0.24979971916E+03 -0.23880313883E+03 -0.34973970917E+03  0.49167540409E+03  0.00000000000E+00 0.  1.
<mgrwt>
<rscale>  0 0.17020154E+04</rscale>
<asrwt>0</asrwt>
<pdfrwt beam="1">  1        1 0.24905181E+00 0.17020154E+04</pdfrwt>
<pdfrwt beam="2">  1       -2 0.68825692E-01 0.17020154E+04</pdfrwt>
<totfact> 0.87239286E+00</totfact>
</mgrwt>
</event>
<event>
12    4  0.4398275E-008  0.2429969E+04  0.7818608E-02  0.8428368E-01
          1   -1    0    0  501    0  0.00000000000E+00  0.00000000000E+00  0.18100845800E+04  0.18100845800E+04  0.00000000000E+00 0. -1.
         -2   -1    0    0    0  501 -0.00000000000E+00 -0.00000000000E+00 -0.81553491262E+03  0.81553491262E+03  0.00000000000E+00 0.  1.
        -24    2    1    2    0    0 -0.89261895015E+02 -0.83435237373E+02 -0.69683205347E+03  0.71194404430E+03  0.79751405842E+02 0.  0.
        254    2    1    2    0    0  0.89261895015E+02  0.83435237373E+02  0.16913817208E+04  0.19136754483E+04  0.88682155542E+03 0.  0.
         23    2    4    4    0    0 -0.31116955060E+03 -0.16411609515E+03  0.42960659419E+03  0.56391876066E+03  0.98396955964E+02 0.  0.
         23    2    4    4    0    0  0.40043144562E+03  0.24755133253E+03  0.12617751266E+04  0.13497566876E+04  0.90219957750E+02 0.  0.
          1    1    3    3  502    0 -0.81230705942E+01  0.12479776545E+02 -0.31341395436E+02  0.34698878459E+02  0.00000000000E+00 0. -1.
         -2    1    3    3    0  502 -0.81138824420E+02 -0.95915013918E+02 -0.66549065803E+03  0.67724516584E+03  0.00000000000E+00 0.  1.
         11    1    5    5    0    0 -0.30216546285E+03 -0.17216808695E+03  0.42838409787E+03  0.55177781072E+03  0.00000000000E+00 0. -1.
        -11    1    5    5    0    0 -0.90040877505E+01  0.80519917938E+01  0.12224963227E+01  0.12140949935E+02  0.00000000000E+00 0.  1.
          1    1    6    6  503    0  0.40171654277E+03  0.25205250442E+03  0.12540161414E+04  0.13406950170E+04  0.00000000000E+00 0. -1.
         -1    1    6    6    0  503 -0.12850971511E+01 -0.45011718906E+01  0.77589852693E+01  0.90616706785E+01  0.00000000000E+00 0.  1.
<mgrwt>
<rscale>  0 0.24299689E+04</rscale>
<asrwt>0</asrwt>
<pdfrwt beam="1">  1        1 0.27847455E+00 0.24299689E+04</pdfrwt>
<pdfrwt beam="2">  1       -2 0.12546691E+00 0.24299689E+04</pdfrwt>
<totfact> 0.14957133E+00</totfact>
</mgrwt>
</event>
<event>
12    4  0.4398275E-008  0.2976360E+04  0.7818608E-02  0.8250514E-01
         -2   -1    0    0    0  501 -0.00000000000E+00  0.00000000000E+00  0.57035054504E+03  0.57035054504E+03  0.00000000000E+00 0.  1.
          1   -1    0    0  501    0  0.00000000000E+00 -0.00000000000E+00 -0.38830141691E+04  0.38830141691E+04  0.00000000000E+00 0. -1.
        -24    2    1    2    0    0 -0.87025163096E+03  0.18796802216E+03 -0.29220982992E+04  0.30557106262E+04  0.77711533522E+02 0.  0.
        254    2    1    2    0    0  0.87025163096E+03 -0.18796802216E+03 -0.39056532493E+03  0.13976540880E+04  0.10041044757E+04 0.  0.
         23    2    4    4    0    0  0.27802802856E+02 -0.37717167549E+03 -0.35826423596E+03  0.52885336200E+03  0.91110631076E+02 0.  0.
         23    2    4    4    0    0  0.84244882810E+03  0.18920365333E+03 -0.32301088979E+02  0.86880072600E+03  0.90847623745E+02 0.  0.
          3    1    3    3  502    0 -0.59993011607E+03  0.97736394199E+02 -0.20516429930E+04  0.21397914660E+04  0.00000000000E+00 0. -1.
         -2    1    3    3    0  502 -0.27032151489E+03  0.90231627960E+02 -0.87045530612E+03  0.91591916022E+03  0.00000000000E+00 0.  1.
         11    1    5    5    0    0 -0.19045378507E+02 -0.93575349453E+02 -0.13263597657E+03  0.16343614884E+03  0.00000000000E+00 0. -1.
        -11    1    5    5    0    0  0.46848181363E+02 -0.28359632604E+03 -0.22562825939E+03  0.36541721316E+03  0.00000000000E+00 0.  1.
          3    1    6    6  503    0  0.61843491094E+02  0.29996206260E+02 -0.21618174955E+02  0.72053697123E+02  0.00000000000E+00 0. -1.
         -3    1    6    6    0  503  0.78060533701E+03  0.15920744707E+03 -0.10682914024E+02  0.79674702888E+03  0.00000000000E+00 0.  1.
<mgrwt>
<rscale>  0 0.29763597E+04</rscale>
<asrwt>0</asrwt>
<pdfrwt beam="1">  1        1 0.59738678E+00 0.29763597E+04</pdfrwt>
<pdfrwt beam="2">  1       -2 0.87746239E-01 0.29763597E+04</pdfrwt>
<totfact> 0.10187395E-01</totfact>
</mgrwt>
</event>
<event>
12    4  0.4398275E-008  0.1170596E+04  0.7818608E-02  0.9138991E-01
          1   -1    0    0  501    0  0.00000000000E+00  0.00000000000E+00  0.31048323145E+03  0.31048323145E+03  0.00000000000E+00 0. -1.
         -2   -1    0    0    0  501 -0.00000000000E+00 -0.00000000000E+00 -0.11033560719E+04  0.11033560719E+04  0.00000000000E+00 0.  1.
        -24    2    1    2    0    0  0.77815699032E+02 -0.19079859858E+02  0.92766576439E+02  0.14718945642E+03  0.81484810292E+02 0.  0.
        254    2    1    2    0    0 -0.77815699032E+02  0.19079859858E+02 -0.88563941688E+03  0.12666498469E+04  0.90201182581E+03 0.  0.
         23    2    4    4    0    0 -0.37344969760E+03  0.23968853280E+03 -0.22763777028E+03  0.50693278964E+03  0.90810953993E+02 0.  0.
         23    2    4    4    0    0  0.29563399857E+03 -0.22060867295E+03 -0.65800164660E+03  0.75971705728E+03  0.90200845335E+02 0.  0.
          1    1    3    3  502    0  0.12674831452E+02 -0.65479354820E+01  0.77917043202E+02  0.79212325006E+02  0.00000000000E+00 0. -1.
         -2    1    3    3    0  502  0.65140867580E+02 -0.12531924376E+02  0.14849533236E+02  0.67977131412E+02  0.00000000000E+00 0.  1.
         11    1    5    5    0    0 -0.13329642577E+03  0.13152937152E+03 -0.11992522858E+03  0.22237349920E+03  0.00000000000E+00 0.  1.
        -11    1    5    5    0    0 -0.24015327183E+03  0.10815916128E+03 -0.10771254170E+03  0.28455929045E+03  0.00000000000E+00 0. -1.
          1    1    6    6  503    0  0.28732943026E+03 -0.18564076033E+03 -0.57167933956E+03  0.66621164855E+03  0.00000000000E+00 0. -1.
         -1    1    6    6    0  503  0.83045683095E+01 -0.34967912618E+02 -0.86322307047E+02  0.93505408729E+02  0.00000000000E+00 0.  1.
<mgrwt>
<rscale>  0 0.11705957E+04</rscale>
<asrwt>0</asrwt>
<pdfrwt beam="1">  1        1 0.47766652E-01 0.11705957E+04</pdfrwt>
<pdfrwt beam="2">  1       -2 0.16974709E+00 0.11705957E+04</pdfrwt>
<totfact> 0.15511087E+01</totfact>
</mgrwt>
</event>
<event>
12    4  0.4398275E-008  0.1474169E+04  0.7818608E-02  0.8901814E-01
          1   -1    0    0  501    0  0.00000000000E+00  0.00000000000E+00  0.19584593314E+04  0.19584593314E+04  0.00000000000E+00 0. -1.
         -2   -1    0    0    0  501 -0.00000000000E+00 -0.00000000000E+00 -0.27740856193E+03  0.27740856193E+03  0.00000000000E+00 0.  1.
        -24    2    1    2    0    0  0.28339197167E+03 -0.24240802130E+03  0.81281552816E+03  0.89951898314E+03  0.96915735646E+02 0.  0.
        254    2    1    2    0    0 -0.28339197167E+03  0.24240802130E+03  0.86823524131E+03  0.13363489102E+04  0.94494619801E+03 0.  0.
         23    2    4    4    0    0 -0.35379827320E+03 -0.18834625574E+03  0.78059246110E+03  0.88252797847E+03  0.94252386133E+02 0.  0.
         23    2    4    4    0    0  0.70406301529E+02  0.43075427703E+03  0.87642780210E+02  0.45382093172E+03  0.88124268316E+02 0.  0.
          3    1    3    3  502    0  0.27375628843E+03 -0.20196720961E+03  0.75693972605E+03  0.82987409170E+03  0.00000000000E+00 0. -1.
         -4    1    3    3    0  502  0.96356832400E+01 -0.40440811688E+02  0.55875802113E+02  0.69644891437E+02  0.00000000000E+00 0.  1.
         11    1    5    5    0    0 -0.14876300115E+03 -0.53858862632E+02  0.22322206806E+03  0.27360427494E+03  0.00000000000E+00 0.  1.
        -11    1    5    5    0    0 -0.20503527205E+03 -0.13448739311E+03  0.55737039304E+03  0.60892370353E+03  0.00000000000E+00 0. -1.
          2    1    6    6  503    0  0.61466081240E+02  0.42248823697E+03  0.70383212275E+02  0.43269872439E+03  0.00000000000E+00 0. -1.
         -2    1    6    6    0  503  0.89402202890E+01  0.82660400675E+01  0.17259567935E+02  0.21122207331E+02  0.00000000000E+00 0.  1.
<mgrwt>
<rscale>  0 0.14741688E+04</rscale>
<asrwt>0</asrwt>
<pdfrwt beam="1">  1        1 0.30130143E+00 0.14741688E+04</pdfrwt>
<pdfrwt beam="2">  1       -2 0.42678241E-01 0.14741688E+04</pdfrwt>
<totfact> 0.14092146E+01</totfact>
</mgrwt>
</event>
<event>
12    4  0.4398275E-008  0.1474448E+04  0.7818608E-02  0.8901625E-01
          1   -1    0    0  501    0  0.00000000000E+00  0.00000000000E+00  0.95248020144E+03  0.95248020144E+03  0.00000000000E+00 0. -1.
         -2   -1    0    0    0  501 -0.00000000000E+00 -0.00000000000E+00 -0.57061441224E+03  0.57061441224E+03  0.00000000000E+00 0.  1.
        -24    2    1    2    0    0  0.11022021018E+03 -0.21862750140E+03 -0.28135436211E+03  0.38210153457E+03  0.83035092248E+02 0.  0.
        254    2    1    2    0    0 -0.11022021018E+03  0.21862750140E+03  0.66322015130E+03  0.11409930791E+04  0.89557677415E+03 0.  0.
         23    2    4    4    0    0 -0.31583091722E+03 -0.20772068459E+03  0.10468666588E+03  0.40228452327E+03  0.89311189514E+02 0.  0.
         23    2    4    4    0    0  0.20561070704E+03  0.42634818599E+03  0.55853348543E+03  0.73870855584E+03  0.98397853567E+02 0.  0.
          3    1    3    3  502    0  0.33978012708E+02 -0.82402226953E+02 -0.47695634141E+02  0.10109157171E+03  0.00000000000E+00 0. -1.
         -4    1    3    3    0  502  0.76242197473E+02 -0.13622527444E+03 -0.23365872797E+03  0.28100996286E+03  0.00000000000E+00 0.  1.
         11    1    5    5    0    0 -0.15926832056E+03 -0.10831676051E+03  0.71440426984E+01  0.19274323825E+03  0.00000000000E+00 0. -1.
        -11    1    5    5    0    0 -0.15656259666E+03 -0.99403924075E+02  0.97542623179E+02  0.20954128503E+03  0.00000000000E+00 0.  1.
          4    1    6    6  503    0  0.17692867594E+03  0.39856068263E+03  0.54160242463E+03  0.69533269768E+03  0.00000000000E+00 0. -1.
         -4    1    6    6    0  503  0.28682031106E+02  0.27787503359E+02  0.16931060802E+02  0.43375858161E+02  0.00000000000E+00 0.  1.
<mgrwt>
<rscale>  0 0.14744476E+04</rscale>
<asrwt>0</asrwt>
<pdfrwt beam="1">  1        1 0.14653542E+00 0.14744476E+04</pdfrwt>
<pdfrwt beam="2">  1       -2 0.87786832E-01 0.14744476E+04</pdfrwt>
<totfact> 0.15690398E+01</totfact>
</mgrwt>
</event>
<event>
12    4  0.4398275E-008  0.1509048E+04  0.7818608E-02  0.8878458E-01
          1   -1    0    0  501    0  0.00000000000E+00  0.00000000000E+00  0.57907389967E+03  0.57907389967E+03  0.00000000000E+00 0. -1.
         -2   -1    0    0    0  501 -0.00000000000E+00 -0.00000000000E+00 -0.98313248019E+03  0.98313248019E+03  0.00000000000E+00 0.  1.
        -24    2    1    2    0    0  0.43444349314E+02  0.48440616788E+02  0.32948454540E+03  0.34506919471E+03  0.79238744557E+02 0.  0.
        254    2    1    2    0    0 -0.43444349314E+02 -0.48440616788E+02 -0.73354312592E+03  0.12171371852E+04  0.96907352923E+03 0.  0.
         23    2    4    4    0    0 -0.25581689032E+03 -0.41846489810E+02  0.14320748318E+03  0.30944299791E+03  0.89739487599E+02 0.  0.
         23    2    4    4    0    0  0.21237254100E+03 -0.65941269780E+01 -0.87675060910E+03  0.90769418724E+03  0.10035700434E+03 0.  0.
          3    1    3    3  502    0  0.41467651082E+02  0.57562423586E+02  0.32804107501E+03  0.33562470945E+03  0.00000000000E+00 0. -1.
         -4    1    3    3    0  502  0.19766982321E+01 -0.91218067976E+01  0.14434703867E+01  0.94444852644E+01  0.00000000000E+00 0.  1.
         11    1    5    5    0    0 -0.13657458451E+03  0.98999099118E+01  0.10903292200E+03  0.17503943393E+03  0.00000000000E+00 0.  1.
        -11    1    5    5    0    0 -0.11924230581E+03 -0.51746399722E+02  0.34174561181E+02  0.13440356398E+03  0.00000000000E+00 0. -1.
          2    1    6    6  503    0  0.22062646222E+03  0.28110026523E+01 -0.79743013071E+03  0.82739274286E+03  0.00000000000E+00 0. -1.
         -2    1    6    6    0  503 -0.82539212196E+01 -0.94051296303E+01 -0.79320478389E+02  0.80301444387E+02  0.00000000000E+00 0.  1.
<mgrwt>
<rscale>  0 0.15090479E+04</rscale>
<asrwt>0</asrwt>
<pdfrwt beam="1">  1        1 0.89088293E-01 0.15090479E+04</pdfrwt>
<pdfrwt beam="2">  1       -2 0.15125115E+00 0.15090479E+04</pdfrwt>
<totfact> 0.89291379E+00</totfact>
</mgrwt>
</event>
<event>
12    4  0.4398275E-008  0.1350384E+04  0.7818608E-02  0.8990538E-01
         -2   -1    0    0    0  501 -0.00000000000E+00  0.00000000000E+00  0.32358858636E+03  0.32358858636E+03  0.00000000000E+00 0.  1.
          1   -1    0    0  501    0  0.00000000000E+00 -0.00000000000E+00 -0.14088384988E+04  0.14088384988E+04  0.00000000000E+00 0. -1.
        -24    2    1    2    0    0 -0.15974401521E+03  0.10264465787E+03 -0.74958561319E+03  0.77782056828E+03  0.84096187503E+02 0.  0.
        254    2    1    2    0    0  0.15974401521E+03 -0.10264465787E+03 -0.33566429928E+03  0.95460651692E+03  0.87324051907E+03 0.  0.
         23    2    4    4    0    0 -0.12520523566E+03 -0.85028638417E+02  0.24373861346E+03  0.30239654861E+03  0.95545489311E+02 0.  0.
         23    2    4    4    0    0  0.28494925087E+03 -0.17616019456E+02 -0.57940291274E+03  0.65220996831E+03  0.90353238747E+02 0.  0.
          3    1    3    3  502    0 -0.69605550426E+02  0.93806564943E+02 -0.40178075872E+03  0.41841651778E+03  0.00000000000E+00 0. -1.
         -4    1    3    3    0  502 -0.90138464784E+02  0.88380929304E+01 -0.34780485448E+03  0.35940405050E+03  0.00000000000E+00 0.  1.
         11    1    5    5    0    0 -0.77634040435E+02 -0.74394767566E+02  0.22644064514E+03  0.25067307683E+03  0.00000000000E+00 0.  1.
        -11    1    5    5    0    0 -0.47571195227E+02 -0.10633870851E+02  0.17297968324E+02  0.51723471778E+02  0.00000000000E+00 0. -1.
          4    1    6    6  503    0  0.89473639044E+01 -0.21416700534E+02 -0.51846826950E+02  0.56805139269E+02  0.00000000000E+00 0. -1.
         -4    1    6    6    0  503  0.27600188697E+03  0.38006810781E+01 -0.52755608579E+03  0.59540482904E+03  0.00000000000E+00 0.  1.
<mgrwt>
<rscale>  0 0.13503837E+04</rscale>
<asrwt>0</asrwt>
<pdfrwt beam="1">  1        1 0.21674439E+00 0.13503837E+04</pdfrwt>
<pdfrwt beam="2">  1       -2 0.49782859E-01 0.13503837E+04</pdfrwt>
<totfact> 0.24830379E+01</totfact>
</mgrwt>
</event>
<event>
12    4  0.4398275E-008  0.1886669E+04  0.7818608E-02  0.8661521E-01
         -2   -1    0    0    0  501 -0.00000000000E+00  0.00000000000E+00  0.57440376866E+03  0.57440376866E+03  0.00000000000E+00 0.  1.
          1   -1    0    0  501    0  0.00000000000E+00 -0.00000000000E+00 -0.15492232780E+04  0.15492232780E+04  0.00000000000E+00 0. -1.
        -24    2    1    2    0    0  0.17968077200E+03  0.13967476358E+03  0.39167299371E+03  0.45974050987E+03  0.78481736741E+02 0.  0.
        254    2    1    2    0    0 -0.17968077200E+03 -0.13967476358E+03 -0.13664925031E+04  0.16638865368E+04  0.92164115958E+03 0.  0.
         23    2    4    4    0    0 -0.48230074428E+02  0.19791821158E+03  0.20917195973E+02  0.22707287837E+03  0.98116280249E+02 0.  0.
         23    2    4    4    0    0 -0.13145069758E+03 -0.33759297516E+03 -0.13874096991E+04  0.14368136585E+04  0.90991831008E+02 0.  0.
          1    1    3    3  502    0  0.84473313528E+02  0.71383823767E+02  0.11636504331E+03  0.16053726763E+03  0.00000000000E+00 0. -1.
         -2    1    3    3    0  502  0.95207458475E+02  0.68290939808E+02  0.27530795041E+03  0.29920324224E+03  0.00000000000E+00 0.  1.
         11    1    5    5    0    0 -0.35334701441E+02  0.15289169084E+03 -0.27942621917E+02  0.15939008869E+03  0.00000000000E+00 0.  1.
        -11    1    5    5    0    0 -0.12895372987E+02  0.45026520739E+02  0.48859817889E+02  0.67682789677E+02  0.00000000000E+00 0. -1.
          1    1    6    6  503    0 -0.66154956508E+02 -0.13984249926E+03 -0.42904119031E+03  0.45607975822E+03  0.00000000000E+00 0. -1.
         -1    1    6    6    0  503 -0.65295741068E+02 -0.19775047589E+03 -0.95836850876E+03  0.98073390025E+03  0.00000000000E+00 0.  1.
<mgrwt>
<rscale>  0 0.18866687E+04</rscale>
<asrwt>0</asrwt>
<pdfrwt beam="1">  1        1 0.23834204E+00 0.18866687E+04</pdfrwt>
<pdfrwt beam="2">  1       -2 0.88369811E-01 0.18866687E+04</pdfrwt>
<totfact> 0.54808008E+00</totfact>
</mgrwt>
</event>
<event>
12    4  0.4398275E-008  0.2098868E+04  0.7818608E-02  0.8561742E-01
          1   -1    0    0  501    0  0.00000000000E+00  0.00000000000E+00  0.60954057546E+03  0.60954057546E+03  0.00000000000E+00 0. -1.
         -2   -1    0    0    0  501 -0.00000000000E+00 -0.00000000000E+00 -0.18067905955E+04  0.18067905955E+04  0.00000000000E+00 0.  1.
        -24    2    1    2    0    0  0.83197501426E+03  0.15325106319E+03 -0.31719819524E+03  0.90702142610E+03  0.80030366880E+02 0.  0.
        254    2    1    2    0    0 -0.83197501426E+03 -0.15325106319E+03 -0.88005182476E+03  0.15093097448E+04  0.88761274146E+03 0.  0.
         23    2    4    4    0    0 -0.74465295039E+03 -0.45788533792E+03 -0.74553262763E+03  0.11530781855E+04  0.97996958472E+02 0.  0.
         23    2    4    4    0    0 -0.87322063871E+02  0.30463427473E+03 -0.13451919713E+03  0.35623155929E+03  0.91533192112E+02 0.  0.
          3    1    3    3  502    0  0.41293613771E+03  0.90558185707E+02 -0.11851181684E+03  0.43904679654E+03  0.00000000000E+00 0. -1.
         -4    1    3    3    0  502  0.41903887655E+03  0.62692877483E+02 -0.19868637840E+03  0.46797462956E+03  0.00000000000E+00 0.  1.
         11    1    5    5    0    0 -0.33442231192E+03 -0.21649776079E+03 -0.27726168396E+03  0.48536955460E+03  0.00000000000E+00 0. -1.
        -11    1    5    5    0    0 -0.41023063847E+03 -0.24138757713E+03 -0.46827094367E+03  0.66770863093E+03  0.00000000000E+00 0.  1.
          2    1    6    6  503    0 -0.57562859816E+02  0.28920708099E+03 -0.13051735574E+03  0.32247325265E+03  0.00000000000E+00 0. -1.
         -2    1    6    6    0  503 -0.29759204055E+02  0.15427193740E+02 -0.40018413900E+01  0.33758306640E+02  0.00000000000E+00 0.  1.
<mgrwt>
<rscale>  0 0.20988684E+04</rscale>
<asrwt>0</asrwt>
<pdfrwt beam="1">  1        1 0.93775475E-01 0.20988684E+04</pdfrwt>
<pdfrwt beam="2">  1       -2 0.27796778E+00 0.20988684E+04</pdfrwt>
<totfact> 0.11687977E+00</totfact>
</mgrwt>
</event>
<event>
12    4  0.4398275E-008  0.1794885E+04  0.7818608E-02  0.8709024E-01
          1   -1    0    0  501    0  0.00000000000E+00  0.00000000000E+00  0.12181214203E+04  0.12181214203E+04  0.00000000000E+00 0. -1.
         -2   -1    0    0    0  501 -0.00000000000E+00 -0.00000000000E+00 -0.66118481866E+03  0.66118481866E+03  0.00000000000E+00 0.  1.
        -24    2    1    2    0    0  0.41403981922E+03  0.50291563401E+03  0.12533418762E+02  0.65600974615E+03  0.76410690506E+02 0.  0.
        254    2    1    2    0    0 -0.41403981922E+03 -0.50291563401E+03  0.54440318284E+03  0.12232964928E+04  0.88075330082E+03 0.  0.
         23    2    4    4    0    0 -0.71057635614E+01 -0.64690762556E+03  0.29847222338E+03  0.71824971631E+03  0.90868140537E+02 0.  0.
         23    2    4    4    0    0 -0.40693405566E+03  0.14399199155E+03  0.24593095946E+03  0.50504677646E+03  0.90891090370E+02 0.  0.
          3    1    3    3  502    0  0.21232887543E+03  0.25756904240E+03  0.44620376009E+02  0.33677342665E+03  0.00000000000E+00 0. -1.
         -4    1    3    3    0  502  0.20171094379E+03  0.24534659161E+03 -0.32086957248E+02  0.31923631950E+03  0.00000000000E+00 0.  1.
         11    1    5    5    0    0  0.30396550678E+02 -0.11270962586E+03  0.69330779416E+02  0.13577248259E+03  0.00000000000E+00 0.  1.
        -11    1    5    5    0    0 -0.37502314240E+02 -0.53419799970E+03  0.22914144397E+03  0.58247723372E+03  0.00000000000E+00 0. -1.
          3    1    6    6  503    0 -0.35743140218E+03  0.98095649437E+02  0.18564606811E+03  0.41454122390E+03  0.00000000000E+00 0. -1.
         -3    1    6    6    0  503 -0.49502653478E+02  0.45896342115E+02  0.60284891341E+02  0.90505552564E+02  0.00000000000E+00 0.  1.
<mgrwt>
<rscale>  0 0.17948854E+04</rscale>
<asrwt>0</asrwt>
<pdfrwt beam="1">  1        1 0.18740329E+00 0.17948854E+04</pdfrwt>
<pdfrwt beam="2">  1       -2 0.10172074E+00 0.17948854E+04</pdfrwt>
<totfact> 0.68072449E+00</totfact>
</mgrwt>
</event>
<event>
12    4  0.4398275E-008  0.1709629E+04  0.7818608E-02  0.8755892E-01
          1   -1    0    0  501    0  0.00000000000E+00  0.00000000000E+00  0.13480842243E+04  0.13480842243E+04  0.00000000000E+00 0. -1.
         -2   -1    0    0    0  501 -0.00000000000E+00 -0.00000000000E+00 -0.54203398886E+03  0.54203398886E+03  0.00000000000E+00 0.  1.
        -24    2    1    2    0    0 -0.44135588415E+03 -0.44196022759E+02  0.75846020625E+03  0.88363648078E+03  0.93825587141E+02 0.  0.
        254    2    1    2    0    0  0.44135588415E+03  0.44196022759E+02  0.47590029192E+02  0.10064817324E+04  0.90221525250E+03 0.  0.
         23    2    4    4    0    0  0.40306196045E+03 -0.23914549779E+03  0.34027966957E+03  0.58702349432E+03  0.95691254993E+02 0.  0.
         23    2    4    4    0    0  0.38293923694E+02  0.28334152055E+03 -0.29268964038E+03  0.41945823806E+03  0.92353375880E+02 0.  0.
          1    1    3    3  502    0 -0.41833282628E+03 -0.18767799575E+02  0.70940099256E+03  0.82377445462E+03  0.00000000000E+00 0. -1.
         -2    1    3    3    0  502 -0.23023057870E+02 -0.25428223184E+02  0.49059213690E+02  0.59862026159E+02  0.00000000000E+00 0.  1.
         11    1    5    5    0    0  0.35077064443E+03 -0.16523136730E+03  0.27228384973E+03  0.47379314532E+03  0.00000000000E+00 0. -1.
        -11    1    5    5    0    0  0.52291316027E+02 -0.73914130493E+02  0.67995819842E+02  0.11323034900E+03  0.00000000000E+00 0.  1.
          3    1    6    6  503    0  0.52806988094E+02  0.24620768031E+03 -0.21086399499E+03  0.32843633206E+03  0.00000000000E+00 0. -1.
         -3    1    6    6    0  503 -0.14513064399E+02  0.37133840241E+02 -0.81825645388E+02  0.91021906003E+02  0.00000000000E+00 0.  1.
<mgrwt>
<rscale>  0 0.17096286E+04</rscale>
<asrwt>0</asrwt>
<pdfrwt beam="1">  1        1 0.20739757E+00 0.17096286E+04</pdfrwt>
<pdfrwt beam="2">  1       -2 0.83389844E-01 0.17096286E+04</pdfrwt>
<totfact> 0.87761907E+00</totfact>
</mgrwt>
</event>
<event>
12    4  0.4398275E-008  0.1568176E+04  0.7818608E-02  0.8840341E-01
          1   -1    0    0  501    0  0.00000000000E+00  0.00000000000E+00  0.41448942368E+03  0.41448942368E+03  0.00000000000E+00 0. -1.
         -2   -1    0    0    0  501 -0.00000000000E+00 -0.00000000000E+00 -0.14832556059E+04  0.14832556059E+04  0.00000000000E+00 0.  1.
        -24    2    1    2    0    0 -0.91974525336E+02 -0.50324925915E+02  0.26056477032E+03  0.29206478847E+03  0.80099498439E+02 0.  0.
        254    2    1    2    0    0  0.91974525336E+02  0.50324925915E+02 -0.13293309526E+04  0.16056802411E+04  0.89448104723E+03 0.  0.
         23    2    4    4    0    0 -0.20936423134E+02 -0.37296637121E+03 -0.92641174523E+03  0.10033435176E+04  0.94431164073E+02 0.  0.
         23    2    4    4    0    0  0.11291094847E+03  0.42329129713E+03 -0.40291920734E+03  0.60233672354E+03  0.92418809631E+02 0.  0.
          3    1    3    3  502    0 -0.83504279898E+02 -0.41699812467E+02  0.26356955670E+03  0.27960820864E+03  0.00000000000E+00 0. -1.
         -4    1    3    3    0  502 -0.84702454382E+01 -0.86251134486E+01 -0.30047863769E+01  0.12456579826E+02  0.00000000000E+00 0.  1.
         11    1    5    5    0    0 -0.32834125772E+01 -0.11520768827E+02 -0.42366413005E+01  0.12706614105E+02  0.00000000000E+00 0.  1.
        -11    1    5    5    0    0 -0.17653010557E+02 -0.36144560239E+03 -0.92217510393E+03  0.99063690350E+03  0.00000000000E+00 0. -1.
          1    1    6    6  503    0  0.10928275428E+03  0.35127862025E+03 -0.29037420204E+03  0.46867533180E+03  0.00000000000E+00 0. -1.
         -1    1    6    6    0  503  0.36281941910E+01  0.72012676876E+02 -0.11254500530E+03  0.13366139174E+03  0.00000000000E+00 0.  1.
<mgrwt>
<rscale>  0 0.15681757E+04</rscale>
<asrwt>0</asrwt>
<pdfrwt beam="1">  1        1 0.63767602E-01 0.15681757E+04</pdfrwt>
<pdfrwt beam="2">  1       -2 0.22819318E+00 0.15681757E+04</pdfrwt>
<totfact> 0.42207312E+00</totfact>
</mgrwt>
</event>
<event>
12    4  0.4398275E-008  0.1108567E+04  0.7818608E-02  0.9196882E-01
          1   -1    0    0  501    0  0.00000000000E+00  0.00000000000E+00  0.29564131772E+04  0.29564131772E+04  0.00000000000E+00 0. -1.
         -2   -1    0    0    0  501 -0.00000000000E+00 -0.00000000000E+00 -0.10391998004E+03  0.10391998004E+03  0.00000000000E+00 0.  1.
        -24    2    1    2    0    0 -0.57037292216E+02 -0.15753204911E+03  0.37677940577E+03  0.42007023883E+03  0.80166612377E+02 0.  0.
        254    2    1    2    0    0  0.57037292216E+02  0.15753204911E+03  0.24757137913E+04  0.26402629184E+04  0.90208641617E+03 0.  0.
         23    2    4    4    0    0 -0.82164386798E+02  0.25125358916E+02  0.24157647958E+04  0.24189938668E+04  0.90716642094E+02 0.  0.
         23    2    4    4    0    0  0.13920167901E+03  0.13240669019E+03  0.59948995588E+02  0.22126905155E+03  0.91964515182E+02 0.  0.
          1    1    3    3  502    0  0.30559752079E+01  0.85668797184E+01  0.18194300559E+02  0.20341164800E+02  0.00000000000E+00 0. -1.
         -2    1    3    3    0  502 -0.60093267424E+02 -0.16609892883E+03  0.35858510521E+03  0.39972907403E+03  0.00000000000E+00 0.  1.
         11    1    5    5    0    0 -0.98765230625E+02  0.56442293680E+01  0.18335985510E+04  0.18362652516E+04  0.00000000000E+00 0.  1.
        -11    1    5    5    0    0  0.16600843826E+02  0.19481129548E+02  0.58216624476E+03  0.58272861519E+03  0.00000000000E+00 0. -1.
          1    1    6    6  503    0  0.11510998027E+02  0.29025595678E+02 -0.21483017246E+02  0.37901296944E+02  0.00000000000E+00 0. -1.
         -1    1    6    6    0  503  0.12769068099E+03  0.10338109452E+03  0.81432012835E+02  0.18336775461E+03  0.00000000000E+00 0.  1.
<mgrwt>
<rscale>  0 0.11085674E+04</rscale>
<asrwt>0</asrwt>
<pdfrwt beam="1">  1        1 0.45483273E+00 0.11085674E+04</pdfrwt>
<pdfrwt beam="2">  1       -2 0.15987692E-01 0.11085674E+04</pdfrwt>
<totfact> 0.18002783E+01</totfact>
</mgrwt>
</event>
<event>
12    4  0.4398275E-008  0.1366408E+04  0.7818608E-02  0.8978499E-01
          1   -1    0    0  501    0  0.00000000000E+00  0.00000000000E+00  0.59056845631E+03  0.59056845631E+03  0.00000000000E+00 0. -1.
         -2   -1    0    0    0  501 -0.00000000000E+00 -0.00000000000E+00 -0.79037050785E+03  0.79037050785E+03  0.00000000000E+00 0.  1.
        -24    2    1    2    0    0 -0.29711207062E+03 -0.64574862972E+02 -0.28758518503E+03  0.42617591371E+03  0.80468474243E+02 0.  0.
        254    2    1    2    0    0  0.29711207062E+03  0.64574862972E+02  0.87783133484E+02  0.95476305045E+03  0.90078915876E+03 0.  0.
         23    2    4    4    0    0  0.49281280109E+03 -0.12140772534E+01 -0.23954181142E+03  0.55635447550E+03  0.96353993648E+02 0.  0.
         23    2    4    4    0    0 -0.19570073048E+03  0.65788940226E+02  0.32732494490E+03  0.39840857494E+03  0.94661568068E+02 0.  0.
          1    1    3    3  502    0 -0.17033132926E+01 -0.83640602428E+01  0.19278408926E+01  0.87507342792E+01  0.00000000000E+00 0. -1.
         -2    1    3    3    0  502 -0.29540875733E+03 -0.56210802729E+02 -0.28951302592E+03  0.41742517943E+03  0.00000000000E+00 0.  1.
         11    1    5    5    0    0  0.25451400354E+03 -0.40106247339E+02 -0.93069127100E+02  0.27394844678E+03  0.00000000000E+00 0. -1.
        -11    1    5    5    0    0  0.23829879755E+03  0.38892170086E+02 -0.14647268432E+03  0.28240602872E+03  0.00000000000E+00 0.  1.
          2    1    6    6  503    0 -0.10820549998E+03  0.56352773106E+02  0.26134485742E+03  0.28841844560E+03  0.00000000000E+00 0. -1.
         -2    1    6    6    0  503 -0.87495230492E+02  0.94361671200E+01  0.65980087485E+02  0.10999012935E+03  0.00000000000E+00 0.  1.
<mgrwt>
<rscale>  0 0.13664083E+04</rscale>
<asrwt>0</asrwt>
<pdfrwt beam="1">  1        1 0.90856685E-01 0.13664083E+04</pdfrwt>
<pdfrwt beam="2">  1       -2 0.12159546E+00 0.13664083E+04</pdfrwt>
<totfact> 0.15397437E+01</totfact>
</mgrwt>
</event>
<event>
12    4  0.4398275E-008  0.1170578E+04  0.7818608E-02  0.9139007E-01
         -2   -1    0    0    0  501 -0.00000000000E+00  0.00000000000E+00  0.22011660677E+03  0.22011660677E+03  0.00000000000E+00 0.  1.
          1   -1    0    0  501    0  0.00000000000E+00 -0.00000000000E+00 -0.15562801584E+04  0.15562801584E+04  0.00000000000E+00 0. -1.
        -24    2    1    2    0    0  0.11662419726E+03 -0.15772984967E+03 -0.93480658136E+02  0.23208706425E+03  0.81522163144E+02 0.  0.
        254    2    1    2    0    0 -0.11662419726E+03  0.15772984967E+03 -0.12426828935E+04  0.15443097009E+04  0.89562925907E+03 0.  0.
         23    2    4    4    0    0 -0.18864811648E+03  0.18701448719E+03  0.14575817526E+02  0.28124081854E+03  0.91221780763E+02 0.  0.
         23    2    4    4    0    0  0.72023919226E+02 -0.29284637515E+02 -0.12572587110E+04  0.12630688824E+04  0.92728098477E+02 0.  0.
          1    1    3    3  502    0  0.97400371447E+02 -0.15825955028E+03 -0.10092169763E+03  0.21146656158E+03  0.00000000000E+00 0. -1.
         -2    1    3    3    0  502  0.19223825810E+02  0.52970061332E+00  0.74410394967E+01  0.20620502668E+02  0.00000000000E+00 0.  1.
         11    1    5    5    0    0 -0.96029664015E+02  0.34036804581E+02  0.96981696779E+01  0.10234380749E+03  0.00000000000E+00 0. -1.
        -11    1    5    5    0    0 -0.92618452468E+02  0.15297768260E+03  0.48776478477E+01  0.17889701105E+03  0.00000000000E+00 0.  1.
          2    1    6    6  503    0  0.56987957799E+02  0.25413740259E+02 -0.76854945428E+03  0.77107830290E+03  0.00000000000E+00 0. -1.
         -2    1    6    6    0  503  0.15035961428E+02 -0.54698377774E+02 -0.48870925677E+03  0.49199057950E+03  0.00000000000E+00 0.  1.
<mgrwt>
<rscale>  0 0.11705778E+04</rscale>
<asrwt>0</asrwt>
<pdfrwt beam="1">  1        1 0.23942772E+00 0.11705778E+04</pdfrwt>
<pdfrwt beam="2">  1       -2 0.33864093E-01 0.11705778E+04</pdfrwt>
<totfact> 0.42469239E+01</totfact>
</mgrwt>
</event>
<event>
12    4  0.4398275E-008  0.2869683E+04  0.7818608E-02  0.8281955E-01
          1   -1    0    0  501    0  0.00000000000E+00  0.00000000000E+00  0.30762763599E+04  0.30762763599E+04  0.00000000000E+00 0. -1.
         -2   -1    0    0    0  501 -0.00000000000E+00 -0.00000000000E+00 -0.66924085905E+03  0.66924085905E+03  0.00000000000E+00 0.  1.
        -24    2    1    2    0    0  0.89912997344E+03 -0.91550224969E+03  0.90173698352E+03  0.15704204597E+04  0.80695443387E+02 0.  0.
        254    2    1    2    0    0 -0.89912997344E+03  0.91550224969E+03  0.15052985173E+04  0.21750967592E+04  0.90473377711E+03 0.  0.
         23    2    4    4    0    0 -0.79661248127E+03  0.19686668451E+03  0.93841188703E+03  0.12495313031E+04  0.85811834276E+02 0.  0.
         23    2    4    4    0    0 -0.10251749217E+03  0.71863556517E+03  0.56688663032E+03  0.92556545616E+03  0.91455181710E+02 0.  0.
          1    1    3    3  502    0  0.37083097032E+03 -0.36664068171E+03  0.41425110048E+03  0.66599172088E+03  0.00000000000E+00 0. -1.
         -2    1    3    3    0  502  0.52829900312E+03 -0.54886156797E+03  0.48748588304E+03  0.90442873885E+03  0.00000000000E+00 0.  1.
         11    1    5    5    0    0 -0.64361019316E+03  0.18613591147E+03  0.73124633628E+03  0.99176704049E+03  0.00000000000E+00 0. -1.
        -11    1    5    5    0    0 -0.15300228811E+03  0.10730773038E+02  0.20716555076E+03  0.25776426260E+03  0.00000000000E+00 0.  1.
          1    1    6    6  503    0 -0.67960381835E+02  0.40472152927E+03  0.26389588529E+03  0.48791307425E+03  0.00000000000E+00 0. -1.
         -1    1    6    6    0  503 -0.34557110336E+02  0.31391403590E+03  0.30299074503E+03  0.43765238190E+03  0.00000000000E+00 0.  1.
<mgrwt>
<rscale>  0 0.28696828E+04</rscale>
<asrwt>0</asrwt>
<pdfrwt beam="1">  1        1 0.47327328E+00 0.28696828E+04</pdfrwt>
<pdfrwt beam="2">  1       -2 0.10296013E+00 0.28696828E+04</pdfrwt>
<totfact> 0.30638809E-01</totfact>
</mgrwt>
</event>
<event>
12    4  0.4398275E-008  0.2855221E+04  0.7818608E-02  0.8286327E-01
         -2   -1    0    0    0  501 -0.00000000000E+00  0.00000000000E+00  0.64927820088E+03  0.64927820088E+03  0.00000000000E+00 0.  1.
          1   -1    0    0  501    0  0.00000000000E+00 -0.00000000000E+00 -0.31389798009E+04  0.31389798009E+04  0.00000000000E+00 0. -1.
        -24    2    1    2    0    0 -0.65782006575E+02 -0.12811514352E+04 -0.10365316417E+04  0.16519360127E+04  0.93906727592E+02 0.  0.
        254    2    1    2    0    0  0.65782006575E+02  0.12811514352E+04 -0.14531699583E+04  0.21363219890E+04  0.89804924180E+03 0.  0.
         23    2    4    4    0    0  0.61077089460E+02  0.12136488645E+04 -0.76456738104E+03  0.14385612307E+04  0.90670596472E+02 0.  0.
         23    2    4    4    0    0  0.47049171150E+01  0.67502570719E+02 -0.68860257725E+03  0.69776075834E+03  0.90099018753E+02 0.  0.
          1    1    3    3  502    0 -0.76837531256E+02 -0.12052926100E+04 -0.99455058139E+03  0.15645335218E+04  0.00000000000E+00 0. -1.
         -2    1    3    3    0  502  0.11055524682E+02 -0.75858825270E+02 -0.41981060317E+02  0.87402490941E+02  0.00000000000E+00 0.  1.
         11    1    5    5    0    0  0.32478469306E+02  0.36220865592E+03 -0.18341900696E+03  0.40729902222E+03  0.00000000000E+00 0. -1.
        -11    1    5    5    0    0  0.28598620154E+02  0.85144020861E+03 -0.58114837408E+03  0.10312622085E+04  0.00000000000E+00 0.  1.
          2    1    6    6  503    0  0.38179168548E+01 -0.22069736977E+02 -0.17159193617E+03  0.17304751468E+03  0.00000000000E+00 0. -1.
         -2    1    6    6    0  503  0.88700026025E+00  0.89572307696E+02 -0.51701064109E+03  0.52471324366E+03  0.00000000000E+00 0.  1.
<mgrwt>
<rscale>  0 0.28552206E+04</rscale>
<asrwt>0</asrwt>
<pdfrwt beam="1">  1        1 0.48291997E+00 0.28552206E+04</pdfrwt>
<pdfrwt beam="2">  1       -2 0.99888953E-01 0.28552206E+04</pdfrwt>
<totfact> 0.29629556E-01</totfact>
</mgrwt>
</event>
<event>
12    4  0.4398275E-008  0.1438116E+04  0.7818608E-02  0.8926681E-01
          1   -1    0    0  501    0  0.00000000000E+00  0.00000000000E+00  0.96148326757E+03  0.96148326757E+03  0.00000000000E+00 0. -1.
         -2   -1    0    0    0  501 -0.00000000000E+00 -0.00000000000E+00 -0.53775714553E+03  0.53775714553E+03  0.00000000000E+00 0.  1.
        -24    2    1    2    0    0  0.79986919626E+02  0.20142641758E+03 -0.26382374026E+03  0.35091554571E+03  0.81044711639E+02 0.  0.
        254    2    1    2    0    0 -0.79986919626E+02 -0.20142641758E+03  0.68754986229E+03  0.11483248674E+04  0.89384264774E+03 0.  0.
         23    2    4    4    0    0  0.20350444039E+02  0.13228468506E+03  0.76395551266E+03  0.78112470123E+03  0.92813765510E+02 0.  0.
         23    2    4    4    0    0 -0.10033736367E+03 -0.33371110264E+03 -0.76405650372E+02  0.36720016616E+03  0.86991103271E+02 0.  0.
          3    1    3    3  502    0  0.24464092089E+02  0.29484137552E+02 -0.10442038058E+02  0.39709474030E+02  0.00000000000E+00 0. -1.
         -2    1    3    3    0  502  0.55522827537E+02  0.17194228003E+03 -0.25338170220E+03  0.31120607168E+03  0.00000000000E+00 0.  1.
         11    1    5    5    0    0  0.84481993929E-01  0.14080949820E+03  0.66878144282E+03  0.68344417489E+03  0.00000000000E+00 0. -1.
        -11    1    5    5    0    0  0.20265962046E+02 -0.85248131432E+01  0.95174069840E+02  0.97680526343E+02  0.00000000000E+00 0.  1.
          2    1    6    6  503    0  0.11509553449E+02 -0.29618753544E+02 -0.22015246532E+02  0.38657618421E+02  0.00000000000E+00 0.  1.
         -2    1    6    6    0  503 -0.11184691711E+03 -0.30409234910E+03 -0.54390403840E+02  0.32854254774E+03  0.00000000000E+00 0. -1.
<mgrwt>
<rscale>  0 0.14381161E+04</rscale>
<asrwt>0</asrwt>
<pdfrwt beam="1">  1        1 0.14792050E+00 0.14381161E+04</pdfrwt>
<pdfrwt beam="2">  1       -2 0.82731868E-01 0.14381161E+04</pdfrwt>
<totfact> 0.17720472E+01</totfact>
</mgrwt>
</event>
<event>
12    4  0.4398275E-008  0.1634146E+04  0.7818608E-02  0.8799841E-01
          1   -1    0    0  501    0  0.00000000000E+00  0.00000000000E+00  0.23413837042E+04  0.23413837042E+04  0.00000000000E+00 0. -1.
         -2   -1    0    0    0  501 -0.00000000000E+00 -0.00000000000E+00 -0.28513403782E+03  0.28513403782E+03  0.00000000000E+00 0.  1.
        -24    2    1    2    0    0  0.56667143900E+02  0.19868187924E+03  0.15529362901E+04  0.15691107055E+04  0.88383428561E+02 0.  0.
        254    2    1    2    0    0 -0.56667143900E+02 -0.19868187924E+03  0.50331337620E+03  0.10574070365E+04  0.90669710040E+03 0.  0.
         23    2    4    4    0    0 -0.44135347043E+03 -0.13355181117E+03  0.83504773938E+02  0.47773086862E+03  0.92869604492E+02 0.  0.
         23    2    4    4    0    0  0.38468632653E+03 -0.65130068067E+02  0.41980860226E+03  0.57967616789E+03  0.86946543929E+02 0.  0.
          1    1    3    3  502    0  0.44247738247E+02  0.20419127392E+03  0.13907211762E+04  0.14063276035E+04  0.00000000000E+00 0. -1.
         -2    1    3    3    0  502  0.12419405652E+02 -0.55093946833E+01  0.16221511398E+03  0.16278310192E+03  0.00000000000E+00 0.  1.
         11    1    5    5    0    0 -0.61248541600E+02 -0.43019651386E+02  0.39196095831E+02  0.84489100966E+02  0.00000000000E+00 0.  1.
        -11    1    5    5    0    0 -0.38010492883E+03 -0.90532159786E+02  0.44308678107E+02  0.39324176766E+03  0.00000000000E+00 0. -1.
          1    1    6    6  503    0  0.21489253362E+03 -0.71784282553E+02  0.27587403769E+03  0.35698497013E+03  0.00000000000E+00 0. -1.
         -1    1    6    6    0  503  0.16979379291E+03  0.66542144859E+01  0.14393456457E+03  0.22269119776E+03  0.00000000000E+00 0.  1.
<mgrwt>
<rscale>  0 0.16341459E+04</rscale>
<asrwt>0</asrwt>
<pdfrwt beam="1">  1        1 0.36021287E+00 0.16341459E+04</pdfrwt>
<pdfrwt beam="2">  1       -2 0.43866776E-01 0.16341459E+04</pdfrwt>
<totfact> 0.72274314E+00</totfact>
</mgrwt>
</event>
<event>
12    4  0.4398275E-008  0.2302722E+04  0.7818608E-02  0.8476849E-01
          1   -1    0    0  501    0  0.00000000000E+00  0.00000000000E+00  0.16724589348E+04  0.16724589348E+04  0.00000000000E+00 0. -1.
         -2   -1    0    0    0  501 -0.00000000000E+00 -0.00000000000E+00 -0.79262431411E+03  0.79262431411E+03  0.00000000000E+00 0.  1.
        -24    2    1    2    0    0 -0.65979559399E+03  0.55127124685E+03  0.85915116538E+03  0.12180907093E+04  0.79837571047E+02 0.  0.
        254    2    1    2    0    0  0.65979559399E+03 -0.55127124685E+03  0.20683455265E+02  0.12469925395E+04  0.90295757090E+03 0.  0.
         23    2    4    4    0    0  0.67602414324E+03 -0.62611255606E+01 -0.69563689967E+02  0.68546880479E+03  0.89333820219E+02 0.  0.
         23    2    4    4    0    0 -0.16228549250E+02 -0.54501012129E+03  0.90247145232E+02  0.56152373474E+03  0.99322501609E+02 0.  0.
          3    1    3    3  502    0 -0.60838990473E+03  0.50369437170E+03  0.75548290723E+03  0.10929779135E+04  0.00000000000E+00 0. -1.
         -4    1    3    3    0  502 -0.51405689267E+02  0.47576875158E+02  0.10366825816E+03  0.12511279586E+03  0.00000000000E+00 0.  1.
         11    1    5    5    0    0  0.23118977503E+03  0.31152022637E+02  0.24533943229E+01  0.23329204817E+03  0.00000000000E+00 0.  1.
        -11    1    5    5    0    0  0.44483436821E+03 -0.37413148197E+02 -0.72017084290E+02  0.45217675662E+03  0.00000000000E+00 0. -1.
          4    1    6    6  503    0 -0.56591622313E-01 -0.24509976299E+03  0.90221287046E+02  0.26117767450E+03  0.00000000000E+00 0. -1.
         -4    1    6    6    0  503 -0.16171957628E+02 -0.29991035830E+03  0.25858186168E-01  0.30034606023E+03  0.00000000000E+00 0.  1.
<mgrwt>
<rscale>  0 0.23027215E+04</rscale>
<asrwt>0</asrwt>
<pdfrwt beam="1">  1        1 0.25730137E+00 0.23027215E+04</pdfrwt>
<pdfrwt beam="2">  1       -2 0.12194220E+00 0.23027215E+04</pdfrwt>
<totfact> 0.20151425E+00</totfact>
</mgrwt>
</event>
<event>
12    4  0.4398275E-008  0.1068502E+04  0.7818608E-02  0.9236448E-01
         -4   -1    0    0    0  501 -0.00000000000E+00  0.00000000000E+00  0.17648286151E+04  0.17648286151E+04  0.00000000000E+00 0.  1.
          3   -1    0    0  501    0  0.00000000000E+00 -0.00000000000E+00 -0.16172899408E+03  0.16172899408E+03  0.00000000000E+00 0. -1.
        -24    2    1    2    0    0 -0.27165903887E+02  0.10573822669E+03  0.89297213346E+02  0.16195082109E+03  0.79595962338E+02 0.  0.
        254    2    1    2    0    0  0.27165903887E+02 -0.10573822669E+03  0.15138024077E+04  0.17646067881E+04  0.90017822023E+03 0.  0.
         23    2    4    4    0    0 -0.40710864658E+03  0.71734254804E+02  0.58722253081E+03  0.72267440902E+03  0.80899612703E+02 0.  0.
         23    2    4    4    0    0  0.43427455047E+03 -0.17747248150E+03  0.92657987686E+03  0.10419323791E+04  0.83558048482E+02 0.  0.
          3    1    3    3  502    0 -0.29975194356E+02  0.97062088737E+02  0.35841342196E+02  0.10772262138E+03  0.00000000000E+00 0. -1.
         -4    1    3    3    0  502  0.28092904689E+01  0.86761379570E+01  0.53455871150E+02  0.54228199705E+02  0.00000000000E+00 0.  1.
         11    1    5    5    0    0 -0.65317083139E+02  0.20756613274E+02  0.15357852184E+03  0.16817705169E+03  0.00000000000E+00 0.  1.
        -11    1    5    5    0    0 -0.34179156344E+03  0.50977641530E+02  0.43364400897E+03  0.55449735733E+03  0.00000000000E+00 0. -1.
          1    1    6    6  503    0  0.38231001847E+03 -0.16691387912E+03  0.75798286992E+03  0.86519317171E+03  0.00000000000E+00 0. -1.
         -1    1    6    6    0  503  0.51964531995E+02 -0.10558602375E+02  0.16859700694E+03  0.17673920736E+03  0.00000000000E+00 0.  1.
<mgrwt>
<rscale>  0 0.10685017E+04</rscale>
<asrwt>0</asrwt>
<pdfrwt beam="1">  1        3 0.24881385E-01 0.10685017E+04</pdfrwt>
<pdfrwt beam="2">  1       -4 0.27151208E+00 0.10685017E+04</pdfrwt>
<totfact> 0.16434049E+00</totfact>
</mgrwt>
</event>
<event>
12    4  0.4398275E-008  0.1521344E+04  0.7818608E-02  0.8870382E-01
          1   -1    0    0  501    0  0.00000000000E+00  0.00000000000E+00  0.13421727871E+04  0.13421727871E+04  0.00000000000E+00 0. -1.
         -2   -1    0    0    0  501 -0.00000000000E+00 -0.00000000000E+00 -0.43110817046E+03  0.43110817046E+03  0.00000000000E+00 0.  1.
        -24    2    1    2    0    0 -0.32020933341E+03 -0.36650924742E+03  0.38191644242E+03  0.62369348119E+03  0.79185502750E+02 0.  0.
        254    2    1    2    0    0  0.32020933341E+03  0.36650924742E+03  0.52914817424E+03  0.11495874764E+04  0.89704544473E+03 0.  0.
         23    2    4    4    0    0  0.51810758577E+03  0.13337791564E+03  0.61337871454E+03  0.81915456551E+03  0.92496572607E+02 0.  0.
         23    2    4    4    0    0 -0.19789825236E+03  0.23313133177E+03 -0.84230540303E+02  0.33043291087E+03  0.92613112065E+02 0.  0.
          3    1    3    3  502    0 -0.18124369734E+03 -0.23780604837E+03  0.19122329402E+03  0.35491878316E+03  0.00000000000E+00 0. -1.
         -4    1    3    3    0  502 -0.13896563607E+03 -0.12870319905E+03  0.19069314840E+03  0.26877469803E+03  0.00000000000E+00 0.  1.
         11    1    5    5    0    0  0.40057631944E+03  0.62376777906E+02  0.44791028682E+03  0.60413233249E+03  0.00000000000E+00 0. -1.
        -11    1    5    5    0    0  0.11753126633E+03  0.71001137737E+02  0.16546842772E+03  0.21502223303E+03  0.00000000000E+00 0.  1.
          2    1    6    6  503    0 -0.93136270419E+02  0.52875061326E+02 -0.44176891034E+01  0.10718979874E+03  0.00000000000E+00 0.  1.
         -2    1    6    6    0  503 -0.10476198194E+03  0.18025627045E+03 -0.79812851199E+02  0.22324311212E+03  0.00000000000E+00 0. -1.
<mgrwt>
<rscale>  0 0.15213437E+04</rscale>
<asrwt>0</asrwt>
<pdfrwt beam="1">  1        1 0.20648812E+00 0.15213437E+04</pdfrwt>
<pdfrwt beam="2">  1       -2 0.66324335E-01 0.15213437E+04</pdfrwt>
<totfact> 0.14946013E+01</totfact>
</mgrwt>
</event>
<event>
12    4  0.4398275E-008  0.2105555E+04  0.7818608E-02  0.8558800E-01
          3   -1    0    0  501    0  0.00000000000E+00  0.00000000000E+00  0.13898570455E+04  0.13898570455E+04  0.00000000000E+00 0. -1.
         -2   -1    0    0    0  501 -0.00000000000E+00 -0.00000000000E+00 -0.79744908523E+03  0.79744908523E+03  0.00000000000E+00 0.  1.
        -24    2    1    2    0    0 -0.27524538299E+03 -0.34036784765E+03  0.10108937256E+04  0.11044287820E+04  0.79034912890E+02 0.  0.
        254    2    1    2    0    0  0.27524538299E+03  0.34036784765E+03 -0.41848576525E+03  0.10828773488E+04  0.89770971049E+03 0.  0.
         23    2    4    4    0    0  0.48275408917E+03  0.35349094883E+03  0.30344918015E+01  0.60420970118E+03  0.83980910583E+02 0.  0.
         23    2    4    4    0    0 -0.20750870618E+03 -0.13123101180E+02 -0.42152025706E+03  0.47866764764E+03  0.90616283673E+02 0.  0.
          3    1    3    3  502    0 -0.25516744547E+03 -0.33303302460E+03  0.98641292937E+03  0.10719290499E+04  0.00000000000E+00 0. -1.
         -4    1    3    3    0  502 -0.20077937516E+02 -0.73348230444E+01  0.24480796201E+02  0.32499732101E+02  0.00000000000E+00 0.  1.
         11    1    5    5    0    0  0.13114232111E+03  0.55364592702E+02  0.14438241164E+02  0.14308042955E+03  0.00000000000E+00 0. -1.
        -11    1    5    5    0    0  0.35161176806E+03  0.29812635612E+03 -0.11403749363E+02  0.46112927163E+03  0.00000000000E+00 0.  1.
          3    1    6    6  503    0 -0.12188985854E+03 -0.81720053225E+01 -0.14739436721E+03  0.19143933444E+03  0.00000000000E+00 0. -1.
         -3    1    6    6    0  503 -0.85618847642E+02 -0.49510958574E+01 -0.27412588985E+03  0.28722831320E+03  0.00000000000E+00 0.  1.
<mgrwt>
<rscale>  0 0.21055548E+04</rscale>
<asrwt>0</asrwt>
<pdfrwt beam="1">  1        3 0.21382416E+00 0.21055548E+04</pdfrwt>
<pdfrwt beam="2">  1       -2 0.12268447E+00 0.21055548E+04</pdfrwt>
<totfact> 0.23031573E-01</totfact>
</mgrwt>
</event>
<event>
12    4  0.4398275E-008  0.1943355E+04  0.7818608E-02  0.8633572E-01
         -2   -1    0    0    0  501 -0.00000000000E+00  0.00000000000E+00  0.34776362436E+03  0.34776362436E+03  0.00000000000E+00 0.  1.
          1   -1    0    0  501    0  0.00000000000E+00 -0.00000000000E+00 -0.27149404966E+04  0.27149404966E+04  0.00000000000E+00 0. -1.
        -24    2    1    2    0    0  0.39706951832E+03 -0.50380543122E+03 -0.30289567552E+03  0.71393014727E+03  0.80413618428E+02 0.  0.
        254    2    1    2    0    0 -0.39706951832E+03  0.50380543122E+03 -0.20642811967E+04  0.23487739737E+04  0.91869374955E+03 0.  0.
         23    2    4    4    0    0 -0.70207802936E+02  0.82712663824E+02  0.61545668333E+02  0.15517444884E+03  0.92307745786E+02 0.  0.
         23    2    4    4    0    0 -0.32686171539E+03  0.42109276739E+03 -0.21258268650E+04  0.21935995248E+04  0.92635390251E+02 0.  0.
          1    1    3    3  502    0  0.21863719151E+02 -0.60502602909E+01 -0.57780008548E+01  0.23409680873E+02  0.00000000000E+00 0. -1.
         -2    1    3    3    0  502  0.37520579917E+03 -0.49775517092E+03 -0.29711767467E+03  0.69052046640E+03  0.00000000000E+00 0.  1.
         11    1    5    5    0    0  0.71522573774E+01  0.49353225311E+02 -0.15930291587E+01  0.49894221871E+02  0.00000000000E+00 0. -1.
        -11    1    5    5    0    0 -0.77360060313E+02  0.33359438513E+02  0.63138697492E+02  0.10528022697E+03  0.00000000000E+00 0.  1.
          3    1    6    6  503    0 -0.15344414347E+03  0.13215078774E+03 -0.71889968036E+03  0.74687728998E+03  0.00000000000E+00 0. -1.
         -3    1    6    6    0  503 -0.17341757192E+03  0.28894197965E+03 -0.14069271847E+04  0.14467222349E+04  0.00000000000E+00 0.  1.
<mgrwt>
<rscale>  0 0.19433554E+04</rscale>
<asrwt>0</asrwt>
<pdfrwt beam="1">  1        1 0.41768314E+00 0.19433554E+04</pdfrwt>
<pdfrwt beam="2">  1       -2 0.53502098E-01 0.19433554E+04</pdfrwt>
<totfact> 0.25853606E+00</totfact>
</mgrwt>
</event>
<event>
12    4  0.4398275E-008  0.2117466E+04  0.7818608E-02  0.8553588E-01
          1   -1    0    0  501    0  0.00000000000E+00  0.00000000000E+00  0.68812714358E+03  0.68812714358E+03  0.00000000000E+00 0. -1.
         -2   -1    0    0    0  501 -0.00000000000E+00 -0.00000000000E+00 -0.16289366220E+04  0.16289366220E+04  0.00000000000E+00 0.  1.
        -24    2    1    2    0    0  0.39407554984E+03 -0.74632067060E+03 -0.17234197074E+03  0.86583586231E+03  0.87635057207E+02 0.  0.
        254    2    1    2    0    0 -0.39407554984E+03  0.74632067060E+03 -0.76846750769E+03  0.14512279033E+04  0.89623101628E+03 0.  0.
         23    2    4    4    0    0  0.20574296623E+03  0.47641850735E+03 -0.15959805642E+03  0.55042467273E+03  0.90504245402E+02 0.  0.
         23    2    4    4    0    0 -0.59981851607E+03  0.26990216324E+03 -0.60886945127E+03  0.90080323055E+03  0.89972337591E+02 0.  0.
          1    1    3    3  502    0 -0.36623670516E+01 -0.16409366680E+02 -0.74768130913E+01  0.18400624481E+02  0.00000000000E+00 0. -1.
         -2    1    3    3    0  502  0.39773791689E+03 -0.72991130392E+03 -0.16486515765E+03  0.84743523783E+03  0.00000000000E+00 0.  1.
         11    1    5    5    0    0  0.18120553511E+03  0.35343152428E+03 -0.15032057244E+03  0.42467112312E+03  0.00000000000E+00 0. -1.
        -11    1    5    5    0    0  0.24537431118E+02  0.12298698307E+03 -0.92774839757E+01  0.12575354961E+03  0.00000000000E+00 0.  1.
          1    1    6    6  503    0 -0.49166572851E+03  0.18286772904E+03 -0.46733712299E+03  0.70255233360E+03  0.00000000000E+00 0. -1.
         -1    1    6    6    0  503 -0.10815278756E+03  0.87034434199E+02 -0.14153232828E+03  0.19825089695E+03  0.00000000000E+00 0.  1.
<mgrwt>
<rscale>  0 0.21174659E+04</rscale>
<asrwt>0</asrwt>
<pdfrwt beam="1">  1        1 0.10586572E+00 0.21174659E+04</pdfrwt>
<pdfrwt beam="2">  1       -2 0.25060563E+00 0.21174659E+04</pdfrwt>
<totfact> 0.14329241E+00</totfact>
</mgrwt>
</event>
<event>
12    4  0.4398275E-008  0.1522292E+04  0.7818608E-02  0.8869763E-01
          1   -1    0    0  501    0  0.00000000000E+00  0.00000000000E+00  0.16785944420E+04  0.16785944420E+04  0.00000000000E+00 0. -1.
         -2   -1    0    0    0  501 -0.00000000000E+00 -0.00000000000E+00 -0.34513581701E+03  0.34513581701E+03  0.00000000000E+00 0.  1.
        -24    2    1    2    0    0 -0.93160560788E+02  0.30216991120E+03 -0.65466436632E+02  0.33249699421E+03  0.79264440412E+02 0.  0.
        254    2    1    2    0    0  0.93160560788E+02 -0.30216991120E+03  0.13989250616E+04  0.16912332648E+04  0.89626618958E+03 0.  0.
         23    2    4    4    0    0  0.32018732263E+03  0.17169054322E+03  0.34221986283E+03  0.50741189287E+03  0.91404760852E+02 0.  0.
         23    2    4    4    0    0 -0.22702676184E+03 -0.47386045442E+03  0.10567051988E+04  0.11838213719E+04  0.93393161419E+02 0.  0.
          3    1    3    3  502    0 -0.97107170532E+02  0.23809517978E+03 -0.29263347357E+02  0.25879617598E+03  0.00000000000E+00 0. -1.
         -4    1    3    3    0  502  0.39466097447E+01  0.64074731416E+02 -0.36203089275E+02  0.73700818228E+02  0.00000000000E+00 0.  1.
         11    1    5    5    0    0  0.28971430065E+03  0.15115149206E+03  0.33847219708E+03  0.47047271733E+03  0.00000000000E+00 0.  1.
        -11    1    5    5    0    0  0.30473021980E+02  0.20539051163E+02  0.37476657494E+01  0.36939175544E+02  0.00000000000E+00 0. -1.
          3    1    6    6  503    0 -0.18282318705E+02 -0.12669443274E+03  0.23083336407E+03  0.26395030674E+03  0.00000000000E+00 0. -1.
         -3    1    6    6    0  503 -0.20874444314E+03 -0.34716602168E+03  0.82587183470E+03  0.91987106515E+03  0.00000000000E+00 0.  1.
<mgrwt>
<rscale>  0 0.15222918E+04</rscale>
<asrwt>0</asrwt>
<pdfrwt beam="1">  1        1 0.25824529E+00 0.15222918E+04</pdfrwt>
<pdfrwt beam="2">  1       -2 0.53097819E-01 0.15222918E+04</pdfrwt>
<totfact> 0.13971954E+01</totfact>
</mgrwt>
</event>
<event>
12    4  0.4398275E-008  0.2174827E+04  0.7818608E-02  0.8528979E-01
          3   -1    0    0  501    0  0.00000000000E+00  0.00000000000E+00  0.79620504838E+03  0.79620504838E+03  0.00000000000E+00 0. -1.
         -4   -1    0    0    0  501 -0.00000000000E+00 -0.00000000000E+00 -0.14851297426E+04  0.14851297426E+04  0.00000000000E+00 0.  1.
        -24    2    1    2    0    0  0.86576252295E+02  0.75355131433E+03 -0.78235853807E+03  0.10924331463E+04  0.77396810928E+02 0.  0.
        254    2    1    2    0    0 -0.86576252295E+02 -0.75355131433E+03  0.93433843890E+02  0.11889016446E+04  0.91072619738E+03 0.  0.
         23    2    4    4    0    0  0.66686669236E+02 -0.72099589760E+03 -0.27415834896E+03  0.77936081014E+03  0.89209169157E+02 0.  0.
         23    2    4    4    0    0 -0.15326292153E+03 -0.32555416726E+02  0.36759219285E+03  0.40954083447E+03  0.89723445016E+02 0.  0.
          3    1    3    3  502    0 -0.93969058341E+01  0.86886913739E+02 -0.69032784213E+02  0.11136948826E+03  0.00000000000E+00 0. -1.
         -4    1    3    3    0  502  0.95973158129E+02  0.66666440059E+03 -0.71332575386E+03  0.98106365808E+03  0.00000000000E+00 0.  1.
         11    1    5    5    0    0  0.31329621050E+02 -0.51322537529E+03 -0.15395551294E+03  0.53673469327E+03  0.00000000000E+00 0.  1.
        -11    1    5    5    0    0  0.35357048186E+02 -0.20777052231E+03 -0.12020283602E+03  0.24262611687E+03  0.00000000000E+00 0. -1.
          1    1    6    6  503    0 -0.12335053200E+03 -0.47780511513E+02  0.20831819147E+03  0.24676871747E+03  0.00000000000E+00 0. -1.
         -1    1    6    6    0  503 -0.29912389529E+02  0.15225094787E+02  0.15927400138E+03  0.16277211700E+03  0.00000000000E+00 0.  1.
<mgrwt>
<rscale>  0 0.21748267E+04</rscale>
<asrwt>0</asrwt>
<pdfrwt beam="1">  1        3 0.12249309E+00 0.21748267E+04</pdfrwt>
<pdfrwt beam="2">  1       -4 0.22848150E+00 0.21748267E+04</pdfrwt>
<totfact> 0.97028557E-02</totfact>
</mgrwt>
</event>
<event>
12    4  0.4398275E-008  0.1854247E+04  0.7818608E-02  0.8677972E-01
         -2   -1    0    0    0  501 -0.00000000000E+00  0.00000000000E+00  0.84737235559E+03  0.84737235559E+03  0.00000000000E+00 0.  1.
          1   -1    0    0  501    0  0.00000000000E+00 -0.00000000000E+00 -0.10143799751E+04  0.10143799751E+04  0.00000000000E+00 0. -1.
        -24    2    1    2    0    0 -0.30603497952E+03 -0.62322181211E+03 -0.14951829217E+03  0.71471269512E+03  0.79973002226E+02 0.  0.
        254    2    1    2    0    0  0.30603497952E+03  0.62322181211E+03 -0.17489327333E+02  0.11470396356E+04  0.91286976793E+03 0.  0.
         23    2    4    4    0    0  0.30494941076E+03  0.74809894890E+03  0.23870789017E+03  0.84714136718E+03  0.89559246803E+02 0.  0.
         23    2    4    4    0    0  0.10855687637E+01 -0.12487713679E+03 -0.25619721751E+03  0.29989826838E+03  0.93308517141E+02 0.  0.
          1    1    3    3  502    0 -0.30782332260E+03 -0.62336129366E+03 -0.15200552761E+03  0.71164610643E+03  0.00000000000E+00 0. -1.
         -2    1    3    3    0  502  0.17883430773E+01  0.13948154942E+00  0.24872354376E+01  0.30665886888E+01  0.00000000000E+00 0.  1.
         11    1    5    5    0    0  0.22554076007E+03  0.52409489824E+03  0.12696773373E+03  0.58452108792E+03  0.00000000000E+00 0. -1.
        -11    1    5    5    0    0  0.79408650687E+02  0.22400405066E+03  0.11174015644E+03  0.26262027926E+03  0.00000000000E+00 0.  1.
          4    1    6    6  503    0  0.24090742235E+02 -0.45456293037E+02 -0.31148486827E+02  0.60140391333E+02  0.00000000000E+00 0. -1.
         -4    1    6    6    0  503 -0.23005173471E+02 -0.79420843749E+02 -0.22504873068E+03  0.23975787705E+03  0.00000000000E+00 0.  1.
<mgrwt>
<rscale>  0 0.18542465E+04</rscale>
<asrwt>0</asrwt>
<pdfrwt beam="1">  1        1 0.15605846E+00 0.18542465E+04</pdfrwt>
<pdfrwt beam="2">  1       -2 0.13036498E+00 0.18542465E+04</pdfrwt>
<totfact> 0.52354124E+00</totfact>
</mgrwt>
</event>
<event>
12    4  0.4398275E-008  0.1350999E+04  0.7818608E-02  0.8990072E-01
          1   -1    0    0  501    0  0.00000000000E+00  0.00000000000E+00  0.65034744792E+03  0.65034744792E+03  0.00000000000E+00 0. -1.
         -2   -1    0    0    0  501 -0.00000000000E+00 -0.00000000000E+00 -0.70162447088E+03  0.70162447088E+03  0.00000000000E+00 0.  1.
        -24    2    1    2    0    0  0.57174352238E+02  0.13589412228E+03  0.32105986257E+03  0.36242977137E+03  0.80868935943E+02 0.  0.
        254    2    1    2    0    0 -0.57174352238E+02 -0.13589412228E+03 -0.37233688553E+03  0.98954214743E+03  0.90488827276E+03 0.  0.
         23    2    4    4    0    0 -0.37323176932E+03 -0.17237987184E+03  0.80678236311E+02  0.42882633083E+03  0.91467318491E+02 0.  0.
         23    2    4    4    0    0  0.31605741709E+03  0.36485749565E+02 -0.45301512185E+03  0.56071581659E+03  0.89196555656E+02 0.  0.
          3    1    3    3  502    0  0.72375601357E+02  0.13427401581E+03  0.29785038641E+03  0.33463800095E+03  0.00000000000E+00 0. -1.
         -4    1    3    3    0  502 -0.15201249118E+02  0.16201064647E+01  0.23209476160E+02  0.27791770425E+02  0.00000000000E+00 0.  1.
         11    1    5    5    0    0  0.25130073331E+01  0.49110394020E+01 -0.34958045737E+00  0.55277228911E+01  0.00000000000E+00 0.  1.
        -11    1    5    5    0    0 -0.37574477666E+03 -0.17729091124E+03  0.81027816769E+02  0.42329860794E+03  0.00000000000E+00 0. -1.
          1    1    6    6  503    0  0.28140697987E+03  0.15351413288E+02 -0.42979901331E+03  0.51395792245E+03  0.00000000000E+00 0. -1.
         -1    1    6    6    0  503  0.34650437211E+02  0.21134336277E+02 -0.23216108539E+02  0.46757894141E+02  0.00000000000E+00 0.  1.
<mgrwt>
<rscale>  0 0.13509992E+04</rscale>
<asrwt>0</asrwt>
<pdfrwt beam="1">  1        1 0.10005345E+00 0.13509992E+04</pdfrwt>
<pdfrwt beam="2">  1       -2 0.10794223E+00 0.13509992E+04</pdfrwt>
<totfact> 0.17931412E+01</totfact>
</mgrwt>
</event>
<event>
12    4  0.4398275E-008  0.1316310E+04  0.7818608E-02  0.9016730E-01
          1   -1    0    0  501    0  0.00000000000E+00  0.00000000000E+00  0.13938717317E+04  0.13938717317E+04  0.00000000000E+00 0. -1.
         -2   -1    0    0    0  501 -0.00000000000E+00 -0.00000000000E+00 -0.31076592194E+03  0.31076592194E+03  0.00000000000E+00 0.  1.
        -24    2    1    2    0    0 -0.29731493430E+03 -0.59449462712E+02  0.46712358964E+03  0.56380475368E+03  0.87982631841E+02 0.  0.
        254    2    1    2    0    0  0.29731493430E+03  0.59449462712E+02  0.61598222014E+03  0.11408329000E+04  0.91111755629E+03 0.  0.
         23    2    4    4    0    0 -0.20709990762E+03 -0.14578906579E+03  0.51256451355E+03  0.57891968591E+03  0.90998894185E+02 0.  0.
         23    2    4    4    0    0  0.50441484191E+03  0.20523852850E+03  0.10341770659E+03  0.56191321407E+03  0.92163180222E+02 0.  0.
          1    1    3    3  502    0 -0.95605661270E+02 -0.33378446330E+02  0.23062987263E+03  0.25188231636E+03  0.00000000000E+00 0. -1.
         -2    1    3    3    0  502 -0.20170927303E+03 -0.26071016382E+02  0.23649371701E+03  0.31192243732E+03  0.00000000000E+00 0.  1.
         11    1    5    5    0    0 -0.16892782549E+03 -0.85398023019E+02  0.42947735854E+03  0.46934021142E+03  0.00000000000E+00 0.  1.
        -11    1    5    5    0    0 -0.38172082132E+02 -0.60391042768E+02  0.83087155006E+02  0.10957947448E+03  0.00000000000E+00 0. -1.
          3    1    6    6  503    0  0.10042493827E+02  0.23333398276E+02  0.73880230032E+01  0.26455283806E+02  0.00000000000E+00 0. -1.
         -3    1    6    6    0  503  0.49437234809E+03  0.18190513022E+03  0.96029683591E+02  0.53545793027E+03  0.00000000000E+00 0.  1.
<mgrwt>
<rscale>  0 0.13163097E+04</rscale>
<asrwt>0</asrwt>
<pdfrwt beam="1">  1        1 0.21444180E+00 0.13163097E+04</pdfrwt>
<pdfrwt beam="2">  1       -2 0.47810143E-01 0.13163097E+04</pdfrwt>
<totfact> 0.27689486E+01</totfact>
</mgrwt>
</event>
<event>
12    4  0.4398275E-008  0.3123064E+04  0.7818608E-02  0.8209437E-01
          1   -1    0    0  501    0  0.00000000000E+00  0.00000000000E+00  0.97440222945E+03  0.97440222945E+03  0.00000000000E+00 0. -1.
         -2   -1    0    0    0  501 -0.00000000000E+00 -0.00000000000E+00 -0.25024384685E+04  0.25024384685E+04  0.00000000000E+00 0.  1.
        -24    2    1    2    0    0 -0.47706273853E+03  0.12370049340E+04 -0.10134799681E+03  0.13317867247E+04  0.74929302358E+02 0.  0.
        254    2    1    2    0    0  0.47706273853E+03 -0.12370049340E+04 -0.14266882423E+04  0.21450539733E+04  0.89891442544E+03 0.  0.
         23    2    4    4    0    0  0.46827782400E+03 -0.44196719005E+03 -0.11046747375E+04  0.12823340878E+04  0.97238467876E+02 0.  0.
         23    2    4    4    0    0  0.87849145245E+01 -0.79503774399E+03 -0.32201350477E+03  0.86271988542E+03  0.91818921610E+02 0.  0.
          1    1    3    3  502    0 -0.30631101767E+03  0.71498037061E+03 -0.82875292030E+02  0.78223505670E+03  0.00000000000E+00 0. -1.
         -2    1    3    3    0  502 -0.17075172086E+03  0.52202456343E+03 -0.18472704782E+02  0.54955166801E+03  0.00000000000E+00 0.  1.
         11    1    5    5    0    0  0.10334235262E+03 -0.14407236515E+03 -0.25101422981E+03  0.30731845342E+03  0.00000000000E+00 0. -1.
        -11    1    5    5    0    0  0.36493547138E+03 -0.29789482489E+03 -0.85366050769E+03  0.97501563441E+03  0.00000000000E+00 0.  1.
          4    1    6    6  503    0 -0.18477132847E+02 -0.21881518426E+03 -0.12759187801E+03  0.25397081847E+03  0.00000000000E+00 0. -1.
         -4    1    6    6    0  503  0.27262047372E+02 -0.57622255972E+03 -0.19442162676E+03  0.60874906695E+03  0.00000000000E+00 0.  1.
<mgrwt>
<rscale>  0 0.31230636E+04</rscale>
<asrwt>0</asrwt>
<pdfrwt beam="1">  1        1 0.14990804E+00 0.31230636E+04</pdfrwt>
<pdfrwt beam="2">  1       -2 0.38499053E+00 0.31230636E+04</pdfrwt>
<totfact> 0.10879971E-01</totfact>
</mgrwt>
</event>
<event>
12    4  0.4398275E-008  0.2388859E+04  0.7818608E-02  0.8443686E-01
          1   -1    0    0  501    0  0.00000000000E+00  0.00000000000E+00  0.24239645368E+04  0.24239645368E+04  0.00000000000E+00 0. -1.
         -2   -1    0    0    0  501 -0.00000000000E+00 -0.00000000000E+00 -0.58856534556E+03  0.58856534556E+03  0.00000000000E+00 0.  1.
        -24    2    1    2    0    0  0.22883937923E+03 -0.45056956905E+03 -0.33554332279E+03  0.61198479365E+03  0.80967080645E+02 0.  0.
        254    2    1    2    0    0 -0.22883937923E+03  0.45056956905E+03  0.21709425141E+04  0.24005450888E+04  0.89120419978E+03 0.  0.
         23    2    4    4    0    0 -0.94846014267E+02  0.21579057021E+03  0.20887997330E+04  0.21040353543E+04  0.91209159577E+02 0.  0.
         23    2    4    4    0    0 -0.13399336496E+03  0.23477899884E+03  0.82142781057E+02  0.29650973448E+03  0.89973251634E+02 0.  0.
          1    1    3    3  502    0  0.20533770345E+01 -0.79060008227E+01  0.46461265244E+01  0.93972175634E+01  0.00000000000E+00 0. -1.
         -2    1    3    3    0  502  0.22678600219E+03 -0.44266356823E+03 -0.34018944931E+03  0.60258757608E+03  0.00000000000E+00 0.  1.
         11    1    5    5    0    0 -0.85143929853E+02  0.93496445796E+02  0.12369770599E+04  0.12434240310E+04  0.00000000000E+00 0. -1.
        -11    1    5    5    0    0 -0.97020844144E+01  0.12229412441E+03  0.85182267314E+03  0.86061132330E+03  0.00000000000E+00 0.  1.
          1    1    6    6  503    0 -0.28112997637E+02  0.13614308951E+03  0.26757610589E+02  0.14156712606E+03  0.00000000000E+00 0. -1.
         -1    1    6    6    0  503 -0.10588036732E+03  0.98635909330E+02  0.55385170468E+02  0.15494260841E+03  0.00000000000E+00 0.  1.
<mgrwt>
<rscale>  0 0.23888587E+04</rscale>
<asrwt>0</asrwt>
<pdfrwt beam="1">  1        1 0.37291762E+00 0.23888587E+04</pdfrwt>
<pdfrwt beam="2">  1       -2 0.90548516E-01 0.23888587E+04</pdfrwt>
<totfact> 0.12562748E+00</totfact>
</mgrwt>
</event>
<event>
12    4  0.4398275E-008  0.2262254E+04  0.7818608E-02  0.8492954E-01
         -2   -1    0    0    0  501 -0.00000000000E+00  0.00000000000E+00  0.41203045247E+03  0.41203045247E+03  0.00000000000E+00 0.  1.
          1   -1    0    0  501    0  0.00000000000E+00 -0.00000000000E+00 -0.31052276430E+04  0.31052276430E+04  0.00000000000E+00 0. -1.
        -24    2    1    2    0    0 -0.26971033284E+03  0.35881149343E+02  0.27952552052E+03  0.39815936724E+03  0.79782482928E+02 0.  0.
        254    2    1    2    0    0  0.26971033284E+03 -0.35881149343E+02 -0.29727227111E+04  0.31190987283E+04  0.90424854941E+03 0.  0.
         23    2    4    4    0    0  0.33020744498E+03 -0.18597760890E+03 -0.28888458046E+04  0.29150766486E+04  0.92828642950E+02 0.  0.
         23    2    4    4    0    0 -0.60497112147E+02  0.15009645956E+03 -0.83876906512E+02  0.20402207965E+03  0.91656018823E+02 0.  0.
          3    1    3    3  502    0 -0.32462195441E+02  0.11630144668E+02  0.80366768994E+02  0.87452112361E+02  0.00000000000E+00 0. -1.
         -4    1    3    3    0  502 -0.23724813740E+03  0.24251004675E+02  0.19915875153E+03  0.31070725488E+03  0.00000000000E+00 0.  1.
         11    1    5    5    0    0 -0.30864402472E+01  0.32354177533E+01 -0.11853548702E+02  0.12668885439E+02  0.00000000000E+00 0.  1.
        -11    1    5    5    0    0  0.33329388523E+03 -0.18921302666E+03 -0.28769922559E+04  0.29024077632E+04  0.00000000000E+00 0. -1.
          2    1    6    6  503    0 -0.14919876448E+02  0.11969689758E+03 -0.24228742118E+02  0.12303244267E+03  0.00000000000E+00 0. -1.
         -2    1    6    6    0  503 -0.45577235699E+02  0.30399561978E+02 -0.59648164395E+02  0.80989636979E+02  0.00000000000E+00 0.  1.
<mgrwt>
<rscale>  0 0.22622541E+04</rscale>
<asrwt>0</asrwt>
<pdfrwt beam="1">  1        1 0.47772735E+00 0.22622541E+04</pdfrwt>
<pdfrwt beam="2">  1       -2 0.63389298E-01 0.22622541E+04</pdfrwt>
<totfact> 0.91938912E-01</totfact>
</mgrwt>
</event>
<event>
12    4  0.4398275E-008  0.2101255E+04  0.7818608E-02  0.8560691E-01
         -4   -1    0    0    0  501 -0.00000000000E+00  0.00000000000E+00  0.26507446735E+04  0.26507446735E+04  0.00000000000E+00 0.  1.
          3   -1    0    0  501    0  0.00000000000E+00 -0.00000000000E+00 -0.41641796679E+03  0.41641796679E+03  0.00000000000E+00 0. -1.
        -24    2    1    2    0    0 -0.43941760332E+03  0.71401956399E+03  0.11508256145E+04  0.14261434563E+04  0.81078943425E+02 0.  0.
        254    2    1    2    0    0  0.43941760332E+03 -0.71401956399E+03  0.10835010923E+04  0.16410191840E+04  0.90335905241E+03 0.  0.
         23    2    4    4    0    0  0.49679954609E+03 -0.39667234238E+03  0.16452448948E+03  0.66303670631E+03  0.91600382491E+02 0.  0.
         23    2    4    4    0    0 -0.57381942765E+02 -0.31734722161E+03  0.91897660277E+03  0.97798247772E+03  0.89049333836E+02 0.  0.
          1    1    3    3  502    0 -0.13370345235E+03  0.16421943753E+03  0.25431724622E+03  0.33094092911E+03  0.00000000000E+00 0. -1.
         -2    1    3    3    0  502 -0.30571415098E+03  0.54980012646E+03  0.89650836827E+03  0.10952025272E+04  0.00000000000E+00 0.  1.
         11    1    5    5    0    0  0.47588621303E+03 -0.36815395519E+03  0.13420560381E+03  0.61645451297E+03  0.00000000000E+00 0.  1.
        -11    1    5    5    0    0  0.20913333061E+02 -0.28518387194E+02  0.30318885672E+02  0.46582193339E+02  0.00000000000E+00 0. -1.
          4    1    6    6  503    0 -0.14667460394E+02 -0.27845534190E+02  0.36210301949E+02  0.47975974570E+02  0.00000000000E+00 0. -1.
         -4    1    6    6    0  503 -0.42714482371E+02 -0.28950168742E+03  0.88276630082E+03  0.93000650315E+03  0.00000000000E+00 0.  1.
<mgrwt>
<rscale>  0 0.21012546E+04</rscale>
<asrwt>0</asrwt>
<pdfrwt beam="1">  1        3 0.64064304E-01 0.21012546E+04</pdfrwt>
<pdfrwt beam="2">  1       -4 0.40780686E+00 0.21012546E+04</pdfrwt>
<totfact> 0.29942608E-02</totfact>
</mgrwt>
</event>
<event>
12    4  0.4398275E-008  0.3171934E+04  0.7818608E-02  0.8196269E-01
          1   -1    0    0  501    0  0.00000000000E+00  0.00000000000E+00  0.13740395398E+04  0.13740395398E+04  0.00000000000E+00 0. -1.
         -2   -1    0    0    0  501 -0.00000000000E+00 -0.00000000000E+00 -0.18305817543E+04  0.18305817543E+04  0.00000000000E+00 0.  1.
        -24    2    1    2    0    0 -0.40909402196E+03 -0.19387265887E+03 -0.16080297668E+04  0.16724564034E+04  0.80038512995E+02 0.  0.
        254    2    1    2    0    0  0.40909402196E+03  0.19387265887E+03  0.11514875523E+04  0.15321648907E+04  0.90369305767E+03 0.  0.
         23    2    4    4    0    0  0.67743289753E+03  0.11935791307E+03  0.65063786555E+03  0.95110780075E+03  0.90082043156E+02 0.  0.
         23    2    4    4    0    0 -0.26833887557E+03  0.74514745794E+02  0.50084968675E+03  0.58105708993E+03  0.96014236214E+02 0.  0.
          3    1    3    3  502    0 -0.24090336994E+03 -0.10582981380E+03 -0.78920724006E+03  0.83191493008E+03  0.00000000000E+00 0. -1.
         -4    1    3    3    0  502 -0.16819065202E+03 -0.88042845065E+02 -0.81882252677E+03  0.84054147330E+03  0.00000000000E+00 0.  1.
         11    1    5    5    0    0  0.43040670161E+03  0.31663593175E+02  0.39976438411E+03  0.58827210942E+03  0.00000000000E+00 0. -1.
        -11    1    5    5    0    0  0.24702619592E+03  0.87694319898E+02  0.25087348144E+03  0.36283569133E+03  0.00000000000E+00 0.  1.
          2    1    6    6  503    0 -0.28137838479E+02 -0.20477340692E+02  0.80302699941E+02  0.87519043950E+02  0.00000000000E+00 0.  1.
         -2    1    6    6    0  503 -0.24020103709E+03  0.94992086485E+02  0.42054698681E+03  0.49353804598E+03  0.00000000000E+00 0. -1.
<mgrwt>
<rscale>  0 0.31719342E+04</rscale>
<asrwt>0</asrwt>
<pdfrwt beam="1">  1        1 0.21139070E+00 0.31719342E+04</pdfrwt>
<pdfrwt beam="2">  1       -2 0.28162796E+00 0.31719342E+04</pdfrwt>
<totfact> 0.24288571E-01</totfact>
</mgrwt>
</event>
<event>
12    4  0.4398275E-008  0.2208358E+04  0.7818608E-02  0.8514957E-01
         -2   -1    0    0    0  501 -0.00000000000E+00  0.00000000000E+00  0.88728437311E+03  0.88728437311E+03  0.00000000000E+00 0.  1.
          1   -1    0    0  501    0  0.00000000000E+00 -0.00000000000E+00 -0.13740935627E+04  0.13740935627E+04  0.00000000000E+00 0. -1.
        -24    2    1    2    0    0  0.36693075906E+03 -0.85253877598E+03 -0.13460196863E+03  0.94129130984E+03  0.80318699772E+02 0.  0.
        254    2    1    2    0    0 -0.36693075906E+03  0.85253877598E+03 -0.35220722093E+03  0.13200866259E+04  0.87012540880E+03 0.  0.
         23    2    4    4    0    0  0.63604862430E+02  0.82374964528E+03 -0.23960862534E+03  0.86503997675E+03  0.90954996644E+02 0.  0.
         23    2    4    4    0    0 -0.43053562149E+03  0.28789130694E+02 -0.11259859559E+03  0.45504664919E+03  0.90549841487E+02 0.  0.
          1    1    3    3  502    0  0.35750652366E+03 -0.81717487670E+03 -0.14400141192E+03  0.90350545112E+03  0.00000000000E+00 0. -1.
         -2    1    3    3    0  502  0.94242353995E+01 -0.35363899277E+02  0.93994432929E+01  0.37785858719E+02  0.00000000000E+00 0.  1.
         11    1    5    5    0    0  0.70687494377E+02  0.33665125259E+03 -0.10387878633E+03  0.35933492730E+03  0.00000000000E+00 0.  1.
        -11    1    5    5    0    0 -0.70826319475E+01  0.48709839269E+03 -0.13572983901E+03  0.50570504945E+03  0.00000000000E+00 0. -1.
          3    1    6    6  503    0 -0.16332942364E+02 -0.17576478622E+02 -0.38223245555E+01  0.24296250164E+02  0.00000000000E+00 0. -1.
         -3    1    6    6    0  503 -0.41420267913E+03  0.46365609316E+02 -0.10877627104E+03  0.43075039903E+03  0.00000000000E+00 0.  1.
<mgrwt>
<rscale>  0 0.22083584E+04</rscale>
<asrwt>0</asrwt>
<pdfrwt beam="1">  1        1 0.21139901E+00 0.22083584E+04</pdfrwt>
<pdfrwt beam="2">  1       -2 0.13650529E+00 0.22083584E+04</pdfrwt>
<totfact> 0.24569686E+00</totfact>
</mgrwt>
</event>
<event>
12    4  0.4398275E-008  0.2195783E+04  0.7818608E-02  0.8520185E-01
         -2   -1    0    0    0  501 -0.00000000000E+00  0.00000000000E+00  0.34907337054E+03  0.34907337054E+03  0.00000000000E+00 0.  1.
          1   -1    0    0  501    0  0.00000000000E+00 -0.00000000000E+00 -0.34530451340E+04  0.34530451340E+04  0.00000000000E+00 0. -1.
        -24    2    1    2    0    0  0.51497239006E+03 -0.13959174215E+03 -0.81290435596E+01  0.53909824663E+03  0.76670862600E+02 0.  0.
        254    2    1    2    0    0 -0.51497239006E+03  0.13959174215E+03 -0.30958427199E+04  0.32630202579E+04  0.88225656143E+03 0.  0.
         23    2    4    4    0    0  0.91913781193E+02  0.15789857204E+03 -0.19627932246E+04  0.19734976556E+04  0.93571640631E+02 0.  0.
         23    2    4    4    0    0 -0.60688617125E+03 -0.18306829893E+02 -0.11330494953E+04  0.12895226023E+04  0.10208534754E+03 0.  0.
          1    1    3    3  502    0  0.14234380205E+03 -0.69862656589E+02 -0.19971178985E+02  0.15981675994E+03  0.00000000000E+00 0. -1.
         -2    1    3    3    0  502  0.37262858801E+03 -0.69729085559E+02  0.11842135425E+02  0.37928148669E+03  0.00000000000E+00 0.  1.
         11    1    5    5    0    0  0.49156332025E+02  0.14916516781E+03 -0.13389068237E+04  0.13480868202E+04  0.00000000000E+00 0. -1.
        -11    1    5    5    0    0  0.42757449168E+02  0.87334042267E+01 -0.62388640088E+03  0.62541083538E+03  0.00000000000E+00 0.  1.
          3    1    6    6  503    0 -0.51565679366E+03  0.96805161974E+01 -0.89352505401E+03  0.10316892281E+04  0.00000000000E+00 0. -1.
         -3    1    6    6    0  503 -0.91229377590E+02 -0.27987346091E+02 -0.23952444131E+03  0.25783337422E+03  0.00000000000E+00 0.  1.
<mgrwt>
<rscale>  0 0.21957833E+04</rscale>
<asrwt>0</asrwt>
<pdfrwt beam="1">  1        1 0.53123771E+00 0.21957833E+04</pdfrwt>
<pdfrwt beam="2">  1       -2 0.53703596E-01 0.21957833E+04</pdfrwt>
<totfact> 0.71418994E-01</totfact>
</mgrwt>
</event>
<event>
12    4  0.4398275E-008  0.1543584E+04  0.7818608E-02  0.8855976E-01
         -4   -1    0    0    0  501 -0.00000000000E+00  0.00000000000E+00  0.15489722505E+04  0.15489722505E+04  0.00000000000E+00 0.  1.
          3   -1    0    0  501    0  0.00000000000E+00 -0.00000000000E+00 -0.38455352608E+03  0.38455352608E+03  0.00000000000E+00 0. -1.
        -24    2    1    2    0    0 -0.48194429935E+03  0.11982946044E+03  0.26141443506E+03  0.56744334502E+03  0.83815485988E+02 0.  0.
        254    2    1    2    0    0  0.48194429935E+03 -0.11982946044E+03  0.90300428939E+03  0.13660824316E+04  0.89673577823E+03 0.  0.
         23    2    4    4    0    0  0.25230878288E+03  0.13886261035E+02 -0.12822682173E+03  0.29693598423E+03  0.88748581697E+02 0.  0.
         23    2    4    4    0    0  0.22963551647E+03 -0.13371572147E+03  0.10312311111E+04  0.10691464474E+04  0.94995561819E+02 0.  0.
          1    1    3    3  502    0 -0.46451327303E+03  0.11529345300E+03  0.22947819763E+03  0.53077811213E+03  0.00000000000E+00 0. -1.
         -2    1    3    3    0  502 -0.17431026311E+02  0.45360074360E+01  0.31936237430E+02  0.36665232891E+02  0.00000000000E+00 0.  1.
         11    1    5    5    0    0  0.24095294272E+03 -0.81782748095E+01 -0.12597146923E+03  0.27201841085E+03  0.00000000000E+00 0.  1.
        -11    1    5    5    0    0  0.11355840160E+02  0.22064535845E+02 -0.22553525009E+01  0.24917573371E+02  0.00000000000E+00 0. -1.
          1    1    6    6  503    0  0.18828052504E+03 -0.70302943121E+02  0.64578686313E+03  0.67633773553E+03  0.00000000000E+00 0. -1.
         -1    1    6    6    0  503  0.41354991430E+02 -0.63412778352E+02  0.38544424799E+03  0.39280871182E+03  0.00000000000E+00 0.  1.
<mgrwt>
<rscale>  0 0.15435838E+04</rscale>
<asrwt>0</asrwt>
<pdfrwt beam="1">  1        3 0.59162082E-01 0.15435838E+04</pdfrwt>
<pdfrwt beam="2">  1       -4 0.23830342E+00 0.15435838E+04</pdfrwt>
<totfact> 0.46093562E-01</totfact>
</mgrwt>
</event>
<event>
12    4  0.4398275E-008  0.1699943E+04  0.7818608E-02  0.8761397E-01
         -2   -1    0    0    0  501 -0.00000000000E+00  0.00000000000E+00  0.20997293637E+03  0.20997293637E+03  0.00000000000E+00 0.  1.
          1   -1    0    0  501    0  0.00000000000E+00 -0.00000000000E+00 -0.34406885679E+04  0.34406885679E+04  0.00000000000E+00 0. -1.
        -24    2    1    2    0    0 -0.48480581294E+03 -0.34887945046E+03 -0.17987116930E+04  0.18969347533E+04  0.79019975384E+02 0.  0.
        254    2    1    2    0    0  0.48480581294E+03  0.34887945046E+03 -0.14320039385E+04  0.17537267510E+04  0.81741586105E+03 0.  0.
         23    2    4    4    0    0  0.51398993920E+03 -0.69933031676E+02 -0.10684047643E+04  0.11911837348E+04  0.91398376020E+02 0.  0.
         23    2    4    4    0    0 -0.29184126259E+02  0.41881248214E+03 -0.36359917424E+03  0.56254301619E+03  0.89412958441E+02 0.  0.
          3    1    3    3  502    0 -0.45309285830E+03 -0.32068435525E+03 -0.17221336116E+04  0.18093854675E+04  0.00000000000E+00 0. -1.
         -4    1    3    3    0  502 -0.31712954633E+02 -0.28195095208E+02 -0.76578081440E+02  0.87549285790E+02  0.00000000000E+00 0.  1.
         11    1    5    5    0    0  0.33307832060E+03 -0.33376023305E+01 -0.70872351453E+03  0.78309726554E+03  0.00000000000E+00 0. -1.
        -11    1    5    5    0    0  0.18091161859E+03 -0.66595429345E+02 -0.35968124975E+03  0.40808646923E+03  0.00000000000E+00 0.  1.
          2    1    6    6  503    0 -0.37734944712E+02  0.67185266593E+02 -0.75545667540E+02  0.10791169531E+03  0.00000000000E+00 0. -1.
         -2    1    6    6    0  503  0.85508184533E+01  0.35162721554E+03 -0.28805350670E+03  0.45463132088E+03  0.00000000000E+00 0.  1.
<mgrwt>
<rscale>  0 0.16999429E+04</rscale>
<asrwt>0</asrwt>
<pdfrwt beam="1">  1        1 0.52933670E+00 0.16999429E+04</pdfrwt>
<pdfrwt beam="2">  1       -2 0.32303529E-01 0.16999429E+04</pdfrwt>
<totfact> 0.20901890E+00</totfact>
</mgrwt>
</event>
<event>
12    4  0.4398275E-008  0.1377972E+04  0.7818608E-02  0.8969919E-01
         -2   -1    0    0    0  501 -0.00000000000E+00  0.00000000000E+00  0.29813497926E+03  0.29813497926E+03  0.00000000000E+00 0.  1.
          1   -1    0    0  501    0  0.00000000000E+00 -0.00000000000E+00 -0.15922385144E+04  0.15922385144E+04  0.00000000000E+00 0. -1.
        -24    2    1    2    0    0  0.21627060325E+03 -0.29985778870E+03 -0.19730192144E+03  0.42670718959E+03  0.80394714779E+02 0.  0.
        254    2    1    2    0    0 -0.21627060325E+03  0.29985778870E+03 -0.10968016137E+04  0.14636663041E+04  0.89591160422E+03 0.  0.
         23    2    4    4    0    0  0.15046623159E+03  0.49610041710E+03 -0.73645832155E+03  0.90587857603E+03  0.97413676761E+02 0.  0.
         23    2    4    4    0    0 -0.36673683485E+03 -0.19624262840E+03 -0.36034329214E+03  0.55778772803E+03  0.90954857603E+02 0.  0.
          1    1    3    3  502    0  0.12711833378E+03 -0.13816796942E+03 -0.61713867471E+02  0.19763112102E+03  0.00000000000E+00 0. -1.
         -4    1    3    3    0  502  0.89152269475E+02 -0.16168981927E+03 -0.13558805397E+03  0.22907606857E+03  0.00000000000E+00 0.  1.
         11    1    5    5    0    0  0.14028991399E+03  0.48395461566E+03 -0.73328392270E+03  0.88971829321E+03  0.00000000000E+00 0. -1.
        -11    1    5    5    0    0  0.10176317606E+02  0.12145801442E+02 -0.31743988588E+01  0.16160282820E+02  0.00000000000E+00 0.  1.
          1    1    6    6  503    0 -0.31621200868E+03 -0.14585849181E+03 -0.25965190146E+03  0.43437753625E+03  0.00000000000E+00 0. -1.
         -1    1    6    6    0  503 -0.50524826163E+02 -0.50384136593E+02 -0.10069139068E+03  0.12341019178E+03  0.00000000000E+00 0.  1.
<mgrwt>
<rscale>  0 0.13779724E+04</rscale>
<asrwt>0</asrwt>
<pdfrwt beam="1">  1        1 0.24495977E+00 0.13779724E+04</pdfrwt>
<pdfrwt beam="2">  1       -2 0.45866921E-01 0.13779724E+04</pdfrwt>
<totfact> 0.21825202E+01</totfact>
</mgrwt>
</event>
<event>
12    4  0.4398275E-008  0.1254418E+04  0.7818608E-02  0.9066514E-01
         -2   -1    0    0    0  501 -0.00000000000E+00  0.00000000000E+00  0.66733420982E+03  0.66733420982E+03  0.00000000000E+00 0.  1.
          1   -1    0    0  501    0  0.00000000000E+00 -0.00000000000E+00 -0.58949611321E+03  0.58949611321E+03  0.00000000000E+00 0. -1.
        -24    2    1    2    0    0 -0.63207748514E+02 -0.19925928543E+03  0.22773184135E+03  0.32119211583E+03  0.87195764847E+02 0.  0.
        254    2    1    2    0    0  0.63207748514E+02  0.19925928543E+03 -0.14989374474E+03  0.93563820720E+03  0.89958392480E+03 0.  0.
         23    2    4    4    0    0 -0.19085058994E+03  0.45320516393E+03  0.68602844294E+02  0.50514924531E+03  0.93008287259E+02 0.  0.
         23    2    4    4    0    0  0.25405833846E+03 -0.25394587850E+03 -0.21849658903E+03  0.43048896189E+03  0.92443703642E+02 0.  0.
          3    1    3    3  502    0 -0.22254550644E+01 -0.62098850915E+02  0.12409984748E+03  0.13878757898E+03  0.00000000000E+00 0. -1.
         -4    1    3    3    0  502 -0.60982293450E+02 -0.13716043451E+03  0.10363199387E+03  0.18240453685E+03  0.00000000000E+00 0.  1.
         11    1    5    5    0    0 -0.29740123344E+02  0.74168387363E+02 -0.23153942002E+02  0.83195730965E+02  0.00000000000E+00 0. -1.
        -11    1    5    5    0    0 -0.16111046660E+03  0.37903677656E+03  0.91756786295E+02  0.42195351434E+03  0.00000000000E+00 0.  1.
          1    1    6    6  503    0 -0.54330021043E+01 -0.11883300451E+02  0.11981932425E+01  0.13121204537E+02  0.00000000000E+00 0. -1.
         -1    1    6    6    0  503  0.25949134056E+03 -0.24206257805E+03 -0.21969478228E+03  0.41736775735E+03  0.00000000000E+00 0.  1.
<mgrwt>
<rscale>  0 0.12544177E+04</rscale>
<asrwt>0</asrwt>
<pdfrwt beam="1">  1        1 0.90691710E-01 0.12544177E+04</pdfrwt>
<pdfrwt beam="2">  1       -2 0.10266680E+00 0.12544177E+04</pdfrwt>
<totfact> 0.23514366E+01</totfact>
</mgrwt>
</event>
<event>
12    4  0.4398275E-008  0.1835273E+04  0.7818608E-02  0.8687763E-01
          1   -1    0    0  501    0  0.00000000000E+00  0.00000000000E+00  0.89100298029E+03  0.89100298029E+03  0.00000000000E+00 0. -1.
         -2   -1    0    0    0  501 -0.00000000000E+00 -0.00000000000E+00 -0.94506608166E+03  0.94506608166E+03  0.00000000000E+00 0.  1.
        -24    2    1    2    0    0 -0.19706568422E+03 -0.65055064406E+03 -0.97106075962E+02  0.69161940949E+03  0.82805755937E+02 0.  0.
        254    2    1    2    0    0  0.19706568422E+03  0.65055064406E+03  0.43042974591E+02  0.11444496525E+04  0.91970717349E+03 0.  0.
         23    2    4    4    0    0 -0.18002295321E+03  0.43090191934E+03 -0.31708982553E+03  0.57147180144E+03  0.89159041111E+02 0.  0.
         23    2    4    4    0    0  0.37708863744E+03  0.21964872472E+03  0.36013280012E+03  0.57297785102E+03  0.90369138980E+02 0.  0.
          3    1    3    3  502    0 -0.30458875375E+02 -0.75084872492E+02  0.14218702779E+02  0.82265744237E+02  0.00000000000E+00 0. -1.
         -4    1    3    3    0  502 -0.16660680885E+03 -0.57546577157E+03 -0.11132477874E+03  0.60935366526E+03  0.00000000000E+00 0.  1.
         11    1    5    5    0    0 -0.10634468103E+03  0.19042098986E+03 -0.10310825435E+03  0.24124812264E+03  0.00000000000E+00 0. -1.
        -11    1    5    5    0    0 -0.73678272188E+02  0.24048092948E+03 -0.21398157118E+03  0.33022367880E+03  0.00000000000E+00 0.  1.
          2    1    6    6  503    0  0.30298191942E+02  0.82676582893E+01  0.60868982222E+02  0.68493558859E+02  0.00000000000E+00 0. -1.
         -2    1    6    6    0  503  0.34679044549E+03  0.21138106643E+03  0.29926381790E+03  0.50448429216E+03  0.00000000000E+00 0.  1.
<mgrwt>
<rscale>  0 0.18352729E+04</rscale>
<asrwt>0</asrwt>
<pdfrwt beam="1">  1        1 0.13707738E+00 0.18352729E+04</pdfrwt>
<pdfrwt beam="2">  1       -2 0.14539478E+00 0.18352729E+04</pdfrwt>
<totfact> 0.49635795E+00</totfact>
</mgrwt>
</event>
<event>
12    4  0.4398275E-008  0.1263449E+04  0.7818608E-02  0.9059063E-01
         -2   -1    0    0    0  501 -0.00000000000E+00  0.00000000000E+00  0.17526344952E+04  0.17526344952E+04  0.00000000000E+00 0.  1.
          1   -1    0    0  501    0  0.00000000000E+00 -0.00000000000E+00 -0.22770050984E+03  0.22770050984E+03  0.00000000000E+00 0. -1.
        -24    2    1    2    0    0 -0.30140973831E+03  0.14826063246E+02  0.45893278951E+03  0.55649209979E+03  0.89423203582E+02 0.  0.
        254    2    1    2    0    0  0.30140973831E+03 -0.14826063246E+02  0.10660011958E+04  0.14238429052E+04  0.89437264424E+03 0.  0.
         23    2    4    4    0    0  0.23131303324E+03  0.22589936348E+03  0.11562544373E+02  0.33610516161E+03  0.91086472449E+02 0.  0.
         23    2    4    4    0    0  0.70096705067E+02 -0.24072542672E+03  0.10544386515E+04  0.10877377436E+04  0.92033961499E+02 0.  0.
          3    1    3    3  502    0 -0.12295226281E+03 -0.13575771526E+02  0.11970303365E+03  0.17213476339E+03  0.00000000000E+00 0. -1.
         -4    1    3    3    0  502 -0.17845747550E+03  0.28401834773E+02  0.33922975586E+03  0.38435733639E+03  0.00000000000E+00 0.  1.
         11    1    5    5    0    0  0.14921792470E+03  0.87245483873E+02  0.23910040998E+02  0.17449771794E+03  0.00000000000E+00 0. -1.
        -11    1    5    5    0    0  0.82095108547E+02  0.13865387960E+03 -0.12347496625E+02  0.16160744367E+03  0.00000000000E+00 0.  1.
          1    1    6    6  503    0 -0.67971615588E+01  0.57222503645E+01  0.32202284906E+02  0.33405578990E+02  0.00000000000E+00 0. -1.
         -1    1    6    6    0  503  0.76893866626E+02 -0.24644767709E+03  0.10222363666E+04  0.10543321646E+04  0.00000000000E+00 0.  1.
<mgrwt>
<rscale>  0 0.12634489E+04</rscale>
<asrwt>0</asrwt>
<pdfrwt beam="1">  1        1 0.35030849E-01 0.12634489E+04</pdfrwt>
<pdfrwt beam="2">  1       -2 0.26963607E+00 0.12634489E+04</pdfrwt>
<totfact> 0.52776009E+00</totfact>
</mgrwt>
</event>
<event>
12    4  0.4398275E-008  0.3611314E+04  0.7818608E-02  0.8087905E-01
         -2   -1    0    0    0  501 -0.00000000000E+00  0.00000000000E+00  0.94649736277E+03  0.94649736277E+03  0.00000000000E+00 0.  1.
          1   -1    0    0  501    0  0.00000000000E+00 -0.00000000000E+00 -0.34446973126E+04  0.34446973126E+04  0.00000000000E+00 0. -1.
        -24    2    1    2    0    0 -0.76446403972E+03  0.15091630720E+04 -0.10527758140E+04  0.19941582591E+04  0.79698192012E+02 0.  0.
        254    2    1    2    0    0  0.76446403972E+03 -0.15091630720E+04 -0.14454241358E+04  0.23970364163E+04  0.89137769935E+03 0.  0.
         23    2    4    4    0    0  0.43103726677E+03 -0.25096706359E+03 -0.89464249412E+02  0.51523226537E+03  0.93181773968E+02 0.  0.
         23    2    4    4    0    0  0.33342677295E+03 -0.12581960084E+04 -0.13559598864E+04  0.18818041510E+04  0.91263577293E+02 0.  0.
          3    1    3    3  502    0 -0.33044407347E+03  0.62169640571E+03 -0.39496296718E+03  0.80727656476E+03  0.00000000000E+00 0. -1.
         -4    1    3    3    0  502 -0.43401996625E+03  0.88746666626E+03 -0.65781284683E+03  0.11868816943E+04  0.00000000000E+00 0.  1.
         11    1    5    5    0    0  0.13328973407E+03 -0.93987734201E+02 -0.71727602760E+02  0.17817041389E+03  0.00000000000E+00 0. -1.
        -11    1    5    5    0    0  0.29774753271E+03 -0.15697932939E+03 -0.17736646652E+02  0.33706185148E+03  0.00000000000E+00 0.  1.
          3    1    6    6  503    0  0.59161852246E+02 -0.12867985570E+03 -0.12674515655E+03  0.19006042390E+03  0.00000000000E+00 0. -1.
         -3    1    6    6    0  503  0.27426492070E+03 -0.11295161527E+04 -0.12292147299E+04  0.16917437270E+04  0.00000000000E+00 0.  1.
<mgrwt>
<rscale>  0 0.36113138E+04</rscale>
<asrwt>0</asrwt>
<pdfrwt beam="1">  1        1 0.52995343E+00 0.36113138E+04</pdfrwt>
<pdfrwt beam="2">  1       -2 0.14561498E+00 0.36113138E+04</pdfrwt>
<totfact> 0.63633356E-02</totfact>
</mgrwt>
</event>
<event>
12    4  0.4398275E-008  0.2385714E+04  0.7818608E-02  0.8444871E-01
         -2   -1    0    0    0  501 -0.00000000000E+00  0.00000000000E+00  0.42628154217E+03  0.42628154217E+03  0.00000000000E+00 0.  1.
          1   -1    0    0  501    0  0.00000000000E+00 -0.00000000000E+00 -0.33379529057E+04  0.33379529057E+04  0.00000000000E+00 0. -1.
        -24    2    1    2    0    0  0.23647244196E+02 -0.98880184264E+03 -0.82500574373E+03  0.12902790063E+04  0.76792972557E+02 0.  0.
        254    2    1    2    0    0 -0.23647244196E+02  0.98880184264E+03 -0.20866656198E+04  0.24739554416E+04  0.88769017235E+03 0.  0.
         23    2    4    4    0    0  0.12276038319E+03  0.42559511515E+03 -0.19595435281E+03  0.49322824851E+03  0.93137978386E+02 0.  0.
         23    2    4    4    0    0 -0.14640762738E+03  0.56320672748E+03 -0.18907112670E+04  0.19807271931E+04  0.99267855562E+02 0.  0.
          3    1    3    3  502    0 -0.22021728508E+02 -0.13283038907E+03 -0.12162946850E+03  0.18144584976E+03  0.00000000000E+00 0. -1.
         -4    1    3    3    0  502  0.45668972704E+02 -0.85597145356E+03 -0.70337627523E+03  0.11088331565E+04  0.00000000000E+00 0.  1.
         11    1    5    5    0    0  0.11195492461E+03  0.42627561578E+03 -0.18550340994E+03  0.47818021797E+03  0.00000000000E+00 0. -1.
        -11    1    5    5    0    0  0.10805458580E+02 -0.68050063045E+00 -0.10450942875E+02  0.15048030542E+02  0.00000000000E+00 0.  1.
          1    1    6    6  503    0 -0.13661869148E+03  0.40777204805E+03 -0.14897931927E+04  0.15506213165E+04  0.00000000000E+00 0. -1.
         -1    1    6    6    0  503 -0.97889359006E+01  0.15543467943E+03 -0.40091807430E+03  0.43010587666E+03  0.00000000000E+00 0.  1.
<mgrwt>
<rscale>  0 0.23857139E+04</rscale>
<asrwt>0</asrwt>
<pdfrwt beam="1">  1        1 0.51353122E+00 0.23857139E+04</pdfrwt>
<pdfrwt beam="2">  1       -2 0.65581775E-01 0.23857139E+04</pdfrwt>
<totfact> 0.56488206E-01</totfact>
</mgrwt>
</event>
<event>
12    4  0.4398275E-008  0.3617422E+04  0.7818608E-02  0.8086513E-01
         -2   -1    0    0    0  501 -0.00000000000E+00  0.00000000000E+00  0.94306262191E+03  0.94306262191E+03  0.00000000000E+00 0.  1.
          1   -1    0    0  501    0  0.00000000000E+00 -0.00000000000E+00 -0.34689475549E+04  0.34689475549E+04  0.00000000000E+00 0. -1.
        -24    2    1    2    0    0  0.10940359835E+03 -0.16485978833E+04 -0.70100545675E+03  0.17965499931E+04  0.79618460034E+02 0.  0.
        254    2    1    2    0    0 -0.10940359835E+03  0.16485978833E+04 -0.18248794762E+04  0.26154601837E+04  0.88351725613E+03 0.  0.
         23    2    4    4    0    0  0.30759436088E+03  0.75583766813E+03 -0.49829325231E+03  0.96041421151E+03  0.90523040984E+02 0.  0.
         23    2    4    4    0    0 -0.41699795922E+03  0.89276021514E+03 -0.13265862239E+04  0.16550459722E+04  0.91858918854E+02 0.  0.
          1    1    3    3  502    0  0.45945242765E+02 -0.26008374324E+03 -0.10603005649E+03  0.28459952865E+03  0.00000000000E+00 0. -1.
         -2    1    3    3    0  502  0.63458355580E+02 -0.13885141400E+04 -0.59497540026E+03  0.15119504644E+04  0.00000000000E+00 0.  1.
         11    1    5    5    0    0  0.56714647927E+02  0.19354277950E+03 -0.16301007946E+03  0.25932150854E+03  0.00000000000E+00 0. -1.
        -11    1    5    5    0    0  0.25087971295E+03  0.56229488863E+03 -0.33528317285E+03  0.70109270297E+03  0.00000000000E+00 0.  1.
          1    1    6    6  503    0 -0.20201182884E+03  0.36423944016E+03 -0.50178800833E+03  0.65212755965E+03  0.00000000000E+00 0. -1.
         -1    1    6    6    0  503 -0.21498613039E+03  0.52852077498E+03 -0.82479821559E+03  0.10029184126E+04  0.00000000000E+00 0.  1.
<mgrwt>
<rscale>  0 0.36174216E+04</rscale>
<asrwt>0</asrwt>
<pdfrwt beam="1">  1        1 0.53368425E+00 0.36174216E+04</pdfrwt>
<pdfrwt beam="2">  1       -2 0.14508655E+00 0.36174216E+04</pdfrwt>
<totfact> 0.61463726E-02</totfact>
</mgrwt>
</event>
<event>
12    4  0.4398275E-008  0.1884737E+04  0.7818608E-02  0.8662491E-01
          1   -1    0    0  501    0  0.00000000000E+00  0.00000000000E+00  0.47951886040E+03  0.47951886040E+03  0.00000000000E+00 0. -1.
         -2   -1    0    0    0  501 -0.00000000000E+00 -0.00000000000E+00 -0.18519774939E+04  0.18519774939E+04  0.00000000000E+00 0.  1.
        -24    2    1    2    0    0 -0.42563753009E+03 -0.28046511044E+03  0.10493007507E+03  0.52657960550E+03  0.80298039101E+02 0.  0.
        254    2    1    2    0    0  0.42563753009E+03  0.28046511044E+03 -0.14773887086E+04  0.18049167488E+04  0.90289483812E+03 0.  0.
         23    2    4    4    0    0  0.54057708751E+03  0.44353070541E+03 -0.14094166619E+04  0.15758935997E+04  0.89678516867E+02 0.  0.
         23    2    4    4    0    0 -0.11493955742E+03 -0.16306559497E+03 -0.67972046662E+02  0.22902314915E+03  0.89609785149E+02 0.  0.
          3    1    3    3  502    0 -0.37088746937E+03 -0.20871372222E+03  0.91892873997E+02  0.43538860007E+03  0.00000000000E+00 0. -1.
         -4    1    3    3    0  502 -0.54750060715E+02 -0.71751388218E+02  0.13037201073E+02  0.91191005430E+02  0.00000000000E+00 0.  1.
         11    1    5    5    0    0  0.20228022601E+03  0.15312303802E+03 -0.42026259727E+03  0.49090182855E+03  0.00000000000E+00 0. -1.
        -11    1    5    5    0    0  0.33829686150E+03  0.29040766739E+03 -0.98915406467E+03  0.10849917711E+04  0.00000000000E+00 0.  1.
          3    1    6    6  503    0  0.11248582391E+02 -0.60953486370E+01  0.64275905529E+01  0.14317744275E+02  0.00000000000E+00 0. -1.
         -3    1    6    6    0  503 -0.12618813981E+03 -0.15697024633E+03 -0.74399637215E+02  0.21470540487E+03  0.00000000000E+00 0.  1.
<mgrwt>
<rscale>  0 0.18847367E+04</rscale>
<asrwt>0</asrwt>
<pdfrwt beam="1">  1        1 0.73772133E-01 0.18847367E+04</pdfrwt>
<pdfrwt beam="2">  1       -2 0.28491961E+00 0.18847367E+04</pdfrwt>
<totfact> 0.15140581E+00</totfact>
</mgrwt>
</event>
<event>
12    4  0.4398275E-008  0.1286732E+04  0.7818608E-02  0.9040153E-01
         -2   -1    0    0    0  501 -0.00000000000E+00  0.00000000000E+00  0.33222549209E+03  0.33222549209E+03  0.00000000000E+00 0.  1.
          1   -1    0    0  501    0  0.00000000000E+00 -0.00000000000E+00 -0.12459002558E+04  0.12459002558E+04  0.00000000000E+00 0. -1.
        -24    2    1    2    0    0 -0.19457108759E+03 -0.16648038289E+03 -0.48409088450E+03  0.55464583760E+03  0.87831627021E+02 0.  0.
        254    2    1    2    0    0  0.19457108759E+03  0.16648038289E+03 -0.42958387922E+03  0.10234799103E+04  0.89296987154E+03 0.  0.
         23    2    4    4    0    0  0.26944405926E+03 -0.19687127307E+03 -0.52747677687E+03  0.62930595279E+03  0.80223642656E+02 0.  0.
         23    2    4    4    0    0 -0.74872971671E+02  0.36335165597E+03  0.97892897650E+02  0.39417395751E+03  0.90331066578E+02 0.  0.
          3    1    3    3  502    0 -0.11015637267E+03 -0.12821413531E+03 -0.24001591926E+03  0.29356589113E+03  0.00000000000E+00 0. -1.
         -4    1    3    3    0  502 -0.84414714916E+02 -0.38266247583E+02 -0.24407496523E+03  0.26107994648E+03  0.00000000000E+00 0.  1.
         11    1    5    5    0    0  0.12861074214E+03 -0.13882636555E+03 -0.32252732605E+03  0.37394833710E+03  0.00000000000E+00 0.  1.
        -11    1    5    5    0    0  0.14083331712E+03 -0.58044907519E+02 -0.20494945082E+03  0.25535761569E+03  0.00000000000E+00 0. -1.
          2    1    6    6  503    0 -0.75279249316E+02  0.29728825727E+03  0.45864864201E+02  0.31008201989E+03  0.00000000000E+00 0. -1.
         -2    1    6    6    0  503  0.40627764544E+00  0.66063398691E+02  0.52028033449E+02  0.84091937620E+02  0.00000000000E+00 0.  1.
<mgrwt>
<rscale>  0 0.12867320E+04</rscale>
<asrwt>0</asrwt>
<pdfrwt beam="1">  1        1 0.19167697E+00 0.12867320E+04</pdfrwt>
<pdfrwt beam="2">  1       -2 0.51111613E-01 0.12867320E+04</pdfrwt>
<totfact> 0.30873832E+01</totfact>
</mgrwt>
</event>
<event>
12    4  0.4398275E-008  0.1713610E+04  0.7818608E-02  0.8753640E-01
          1   -1    0    0  501    0  0.00000000000E+00  0.00000000000E+00  0.40870309995E+03  0.40870309995E+03  0.00000000000E+00 0. -1.
         -2   -1    0    0    0  501 -0.00000000000E+00 -0.00000000000E+00 -0.17962063641E+04  0.17962063641E+04  0.00000000000E+00 0.  1.
        -24    2    1    2    0    0  0.52591518057E+03 -0.20418352857E+03 -0.82655665862E+03  0.10037267219E+04  0.77419195315E+02 0.  0.
        254    2    1    2    0    0 -0.52591518057E+03  0.20418352857E+03 -0.56094660554E+03  0.12011827422E+04  0.89994510685E+03 0.  0.
         23    2    4    4    0    0 -0.55640084986E+03 -0.22223745636E+03 -0.43618772873E+03  0.74667780073E+03  0.91085732543E+02 0.  0.
         23    2    4    4    0    0  0.30485669296E+02  0.42642098492E+03 -0.12475887681E+03  0.45450494145E+03  0.90806013265E+02 0.  0.
          3    1    3    3  502    0  0.27902450720E+03 -0.11232588820E+03 -0.37237680687E+03  0.47868180149E+03  0.00000000000E+00 0. -1.
         -4    1    3    3    0  502  0.24689067337E+03 -0.91857640363E+02 -0.45417985175E+03  0.52504492039E+03  0.00000000000E+00 0.  1.
         11    1    5    5    0    0 -0.44088789962E+03 -0.20639071619E+03 -0.37823461681E+03  0.61647440589E+03  0.00000000000E+00 0.  1.
        -11    1    5    5    0    0 -0.11551295024E+03 -0.15846740169E+02 -0.57953111921E+02  0.13020339484E+03  0.00000000000E+00 0. -1.
          3    1    6    6  503    0  0.31181354622E+02  0.17181866849E+03 -0.93238509149E+02  0.19795795338E+03  0.00000000000E+00 0. -1.
         -3    1    6    6    0  503 -0.69568532694E+00  0.25460231643E+03 -0.31520367663E+02  0.25654698807E+03  0.00000000000E+00 0.  1.
<mgrwt>
<rscale>  0 0.17136104E+04</rscale>
<asrwt>0</asrwt>
<pdfrwt beam="1">  1        1 0.62877399E-01 0.17136104E+04</pdfrwt>
<pdfrwt beam="2">  1       -2 0.27633945E+00 0.17136104E+04</pdfrwt>
<totfact> 0.21505906E+00</totfact>
</mgrwt>
</event>
<event>
12    4  0.4398275E-008  0.1852199E+04  0.7818608E-02  0.8679023E-01
         -2   -1    0    0    0  501 -0.00000000000E+00  0.00000000000E+00  0.10598862492E+04  0.10598862492E+04  0.00000000000E+00 0.  1.
          1   -1    0    0  501    0  0.00000000000E+00 -0.00000000000E+00 -0.80920017261E+03  0.80920017261E+03  0.00000000000E+00 0. -1.
        -24    2    1    2    0    0 -0.16343585621E+03  0.35508759812E+02 -0.59211195946E+03  0.62030639693E+03  0.78811816494E+02 0.  0.
        254    2    1    2    0    0  0.16343585621E+03 -0.35508759812E+02  0.84279803601E+03  0.12487800248E+04  0.90618478790E+03 0.  0.
         23    2    4    4    0    0 -0.24449071031E+03  0.27264753399E+03  0.49947318456E+03  0.62608471299E+03  0.91630892879E+02 0.  0.
         23    2    4    4    0    0  0.40792656652E+03 -0.30815629380E+03  0.34332485145E+03  0.62269531185E+03  0.92266530751E+02 0.  0.
          3    1    3    3  502    0 -0.11059201848E+03  0.19470573417E+02 -0.25401253204E+03  0.27772659976E+03  0.00000000000E+00 0. -1.
         -4    1    3    3    0  502 -0.52843837735E+02  0.16038186395E+02 -0.33809942742E+03  0.34257979717E+03  0.00000000000E+00 0.  1.
         11    1    5    5    0    0 -0.56998305387E+01  0.31017649228E+02  0.16471918533E+02  0.35579583078E+02  0.00000000000E+00 0. -1.
        -11    1    5    5    0    0 -0.23879087977E+03  0.24162988476E+03  0.48300126603E+03  0.59050512991E+03  0.00000000000E+00 0.  1.
          1    1    6    6  503    0  0.16779621307E+03 -0.13693514073E+03  0.19996408345E+03  0.29477523057E+03  0.00000000000E+00 0. -1.
         -1    1    6    6    0  503  0.24013035345E+03 -0.17122115307E+03  0.14336076800E+03  0.32792008128E+03  0.00000000000E+00 0.  1.
<mgrwt>
<rscale>  0 0.18521988E+04</rscale>
<asrwt>0</asrwt>
<pdfrwt beam="1">  1        1 0.12449234E+00 0.18521988E+04</pdfrwt>
<pdfrwt beam="2">  1       -2 0.16305942E+00 0.18521988E+04</pdfrwt>
<totfact> 0.42708347E+00</totfact>
</mgrwt>
</event>
<event>
12    4  0.4398275E-008  0.2228053E+04  0.7818608E-02  0.8506842E-01
          1   -1    0    0  501    0  0.00000000000E+00  0.00000000000E+00  0.90171564209E+03  0.90171564209E+03  0.00000000000E+00 0. -1.
         -2   -1    0    0    0  501 -0.00000000000E+00 -0.00000000000E+00 -0.13763258293E+04  0.13763258293E+04  0.00000000000E+00 0.  1.
        -24    2    1    2    0    0  0.60818660044E+03  0.15482299262E+03  0.50608036173E+03  0.81006814984E+03  0.78942858209E+02 0.  0.
        254    2    1    2    0    0 -0.60818660044E+03 -0.15482299262E+03 -0.98069054897E+03  0.14679733216E+04  0.89405291793E+03 0.  0.
         23    2    4    4    0    0 -0.64008497592E+03  0.10942680514E+03 -0.27923251076E+03  0.71233429760E+03  0.88126922076E+02 0.  0.
         23    2    4    4    0    0  0.31898375480E+02 -0.26424979776E+03 -0.70145803821E+03  0.75563902399E+03  0.90008295310E+02 0.  0.
          1    1    3    3  502    0  0.50635738000E+03  0.98819490718E+02  0.42407485033E+03  0.66783423595E+03  0.00000000000E+00 0. -1.
         -2    1    3    3    0  502  0.10182922044E+03  0.56003501906E+02  0.82005511404E+02  0.14223391389E+03  0.00000000000E+00 0.  1.
         11    1    5    5    0    0 -0.28970349877E+03  0.76074712720E+02 -0.16685262445E+03  0.34286335092E+03  0.00000000000E+00 0.  1.
        -11    1    5    5    0    0 -0.35038147715E+03  0.33352092421E+02 -0.11237988630E+03  0.36947094668E+03  0.00000000000E+00 0. -1.
          4    1    6    6  503    0 -0.11164084051E+02 -0.21575318354E+03 -0.54686103414E+03  0.58798899959E+03  0.00000000000E+00 0. -1.
         -4    1    6    6    0  503  0.43062459531E+02 -0.48496614226E+02 -0.15459700407E+03  0.16765002439E+03  0.00000000000E+00 0.  1.
<mgrwt>
<rscale>  0 0.22280525E+04</rscale>
<asrwt>0</asrwt>
<pdfrwt beam="1">  1        1 0.13872548E+00 0.22280525E+04</pdfrwt>
<pdfrwt beam="2">  1       -2 0.21174243E+00 0.22280525E+04</pdfrwt>
<totfact> 0.16132840E+00</totfact>
</mgrwt>
</event>
<event>
12    4  0.4398275E-008  0.1172443E+04  0.7818608E-02  0.9137325E-01
         -2   -1    0    0    0  501 -0.00000000000E+00  0.00000000000E+00  0.50309008756E+03  0.50309008756E+03  0.00000000000E+00 0.  1.
          1   -1    0    0  501    0  0.00000000000E+00 -0.00000000000E+00 -0.68309006535E+03  0.68309006535E+03  0.00000000000E+00 0. -1.
        -24    2    1    2    0    0  0.15325221965E+02 -0.17699764379E+03 -0.18684804343E+03  0.27185817729E+03  0.86207011829E+02 0.  0.
        254    2    1    2    0    0 -0.15325221965E+02  0.17699764379E+03  0.68480656489E+01  0.91432197562E+03  0.89686941678E+03 0.  0.
         23    2    4    4    0    0  0.21405394233E+03 -0.68880147645E+01 -0.36432135804E+03  0.43204280482E+03  0.89801994950E+02 0.  0.
         23    2    4    4    0    0 -0.22937916429E+03  0.18388565856E+03  0.37116942369E+03  0.48227917080E+03  0.91639080494E+02 0.  0.
          3    1    3    3  502    0 -0.13910969349E+01 -0.14880236331E+03 -0.18712193598E+03  0.23907885185E+03  0.00000000000E+00 0. -1.
         -4    1    3    3    0  502  0.16716318900E+02 -0.28195280484E+02  0.27389254863E+00  0.32779325439E+02  0.00000000000E+00 0.  1.
         11    1    5    5    0    0  0.14618845217E+03 -0.25566990565E+02 -0.30801634441E+03  0.34190466943E+03  0.00000000000E+00 0.  1.
        -11    1    5    5    0    0  0.67865490154E+02  0.18678975801E+02 -0.56305013627E+02  0.90138135383E+02  0.00000000000E+00 0. -1.
          3    1    6    6  503    0 -0.76448289929E+02  0.47990854326E+02  0.55026573725E+02  0.10571370274E+03  0.00000000000E+00 0. -1.
         -3    1    6    6    0  503 -0.15293087436E+03  0.13589480423E+03  0.31614284996E+03  0.37656546806E+03  0.00000000000E+00 0.  1.
<mgrwt>
<rscale>  0 0.11724433E+04</rscale>
<asrwt>0</asrwt>
<pdfrwt beam="1">  1        1 0.10509078E+00 0.11724433E+04</pdfrwt>
<pdfrwt beam="2">  1       -2 0.77398476E-01 0.11724433E+04</pdfrwt>
<totfact> 0.36560124E+01</totfact>
</mgrwt>
</event>
<event>
12    4  0.4398275E-008  0.2191357E+04  0.7818608E-02  0.8522034E-01
          1   -1    0    0  501    0  0.00000000000E+00  0.00000000000E+00  0.68841443444E+03  0.68841443444E+03  0.00000000000E+00 0. -1.
         -2   -1    0    0    0  501 -0.00000000000E+00 -0.00000000000E+00 -0.17438787902E+04  0.17438787902E+04  0.00000000000E+00 0.  1.
        -24    2    1    2    0    0  0.57933328912E+03  0.67617915411E+03 -0.61749306949E+03  0.10865275941E+04  0.79995084408E+02 0.  0.
        254    2    1    2    0    0 -0.57933328912E+03 -0.67617915411E+03 -0.43797128622E+03  0.13457656305E+04  0.90907699143E+03 0.  0.
         23    2    4    4    0    0  0.75271699400E+02  0.58386292635E+02 -0.32703188229E+03  0.35138971614E+03  0.86313919389E+02 0.  0.
         23    2    4    4    0    0 -0.65460498852E+03 -0.73456544675E+03 -0.11093940393E+03  0.99437591436E+03  0.91552286465E+02 0.  0.
          1    1    3    3  502    0  0.31388193287E+03  0.39530102525E+03 -0.30707496787E+03  0.59082975909E+03  0.00000000000E+00 0. -1.
         -2    1    3    3    0  502  0.26545135626E+03  0.28087812887E+03 -0.31041810162E+03  0.49569783501E+03  0.00000000000E+00 0.  1.
         11    1    5    5    0    0 -0.13655211374E+02 -0.45187796665E+00 -0.10070195862E+02  0.16972855860E+02  0.00000000000E+00 0. -1.
        -11    1    5    5    0    0  0.88926910774E+02  0.58838170601E+02 -0.31696168643E+03  0.33441686028E+03  0.00000000000E+00 0.  1.
          3    1    6    6  503    0 -0.10701577721E+03 -0.17182621987E+03 -0.94135382626E+01  0.20264560472E+03  0.00000000000E+00 0. -1.
         -3    1    6    6    0  503 -0.54758921131E+03 -0.56273922688E+03 -0.10152586567E+03  0.79173030964E+03  0.00000000000E+00 0.  1.
<mgrwt>
<rscale>  0 0.21913570E+04</rscale>
<asrwt>0</asrwt>
<pdfrwt beam="1">  1        1 0.10590992E+00 0.21913570E+04</pdfrwt>
<pdfrwt beam="2">  1       -2 0.26828904E+00 0.21913570E+04</pdfrwt>
<totfact> 0.11091228E+00</totfact>
</mgrwt>
</event>
<event>
12    4  0.4398275E-008  0.1677720E+04  0.7818608E-02  0.8774174E-01
         -2   -1    0    0    0  501 -0.00000000000E+00  0.00000000000E+00  0.86169183368E+03  0.86169183368E+03  0.00000000000E+00 0.  1.
          3   -1    0    0  501    0  0.00000000000E+00 -0.00000000000E+00 -0.81663305347E+03  0.81663305347E+03  0.00000000000E+00 0. -1.
        -24    2    1    2    0    0  0.19610831036E+03 -0.56085883000E+03  0.13937283010E+03  0.61564062376E+03  0.81040084365E+02 0.  0.
        254    2    1    2    0    0 -0.19610831036E+03  0.56085883000E+03 -0.94314049888E+02  0.10626842634E+04  0.87600320038E+03 0.  0.
         23    2    4    4    0    0  0.30334023999E+03  0.19609150016E+03 -0.20759207527E+03  0.42748388797E+03  0.95816632832E+02 0.  0.
         23    2    4    4    0    0 -0.49944855035E+03  0.36476732983E+03  0.11327802538E+03  0.63520037543E+03  0.90241601010E+02 0.  0.
          3    1    3    3  502    0  0.18610081900E+02 -0.11724150328E+03  0.29857102279E+01  0.11874687241E+03  0.00000000000E+00 0. -1.
         -4    1    3    3    0  502  0.17749822846E+03 -0.44361732671E+03  0.13638711987E+03  0.49689375135E+03  0.00000000000E+00 0.  1.
         11    1    5    5    0    0  0.25880636506E+03  0.18899118538E+03 -0.14863573051E+03  0.35325767243E+03  0.00000000000E+00 0. -1.
        -11    1    5    5    0    0  0.44533874929E+02  0.71003147867E+01 -0.58956344760E+02  0.74226215542E+02  0.00000000000E+00 0.  1.
          1    1    6    6  503    0 -0.28383318044E+03  0.15389765172E+03  0.71973393363E+02  0.33079590517E+03  0.00000000000E+00 0. -1.
         -1    1    6    6    0  503 -0.21561536991E+03  0.21086967812E+03  0.41304632014E+02  0.30440447026E+03  0.00000000000E+00 0.  1.
<mgrwt>
<rscale>  0 0.16777199E+04</rscale>
<asrwt>0</asrwt>
<pdfrwt beam="1">  1        3 0.12563585E+00 0.16777199E+04</pdfrwt>
<pdfrwt beam="2">  1       -2 0.13256797E+00 0.16777199E+04</pdfrwt>
<totfact> 0.82673033E-01</totfact>
</mgrwt>
</event>
<event>
12    4  0.4398275E-008  0.1562366E+04  0.7818608E-02  0.8844008E-01
         -2   -1    0    0    0  501 -0.00000000000E+00  0.00000000000E+00  0.47969211192E+03  0.47969211192E+03  0.00000000000E+00 0.  1.
          1   -1    0    0  501    0  0.00000000000E+00 -0.00000000000E+00 -0.12721636386E+04  0.12721636386E+04  0.00000000000E+00 0. -1.
        -24    2    1    2    0    0  0.30241508994E+03  0.28857891170E+03 -0.57903669166E+03  0.71854350415E+03  0.79300707219E+02 0.  0.
        254    2    1    2    0    0 -0.30241508994E+03 -0.28857891170E+03 -0.21343483500E+03  0.10333122463E+04  0.92056889734E+03 0.  0.
         23    2    4    4    0    0 -0.51698502975E+03 -0.47727257362E+03 -0.16265815176E+03  0.72810551542E+03  0.92829611280E+02 0.  0.
         23    2    4    4    0    0  0.21456993982E+03  0.18869366191E+03 -0.50776683246E+02  0.30520673093E+03  0.94484495677E+02 0.  0.
          1    1    3    3  502    0  0.22436285267E+03  0.16981340377E+03 -0.41645438469E+03  0.50260276191E+03  0.00000000000E+00 0. -1.
         -2    1    3    3    0  502  0.78052237267E+02  0.11876550793E+03 -0.16258230698E+03  0.21594074224E+03  0.00000000000E+00 0.  1.
         11    1    5    5    0    0 -0.16428671722E+01  0.38637501355E+01 -0.31668146931E+01  0.52589250761E+01  0.00000000000E+00 0. -1.
        -11    1    5    5    0    0 -0.51534216258E+03 -0.48113632375E+03 -0.15949133706E+03  0.72284659034E+03  0.00000000000E+00 0.  1.
          3    1    6    6  503    0  0.99725037130E+02  0.14815903960E+03 -0.20953427955E+02  0.17981999385E+03  0.00000000000E+00 0. -1.
         -3    1    6    6    0  503  0.11484490269E+03  0.40534622319E+02 -0.29823255291E+02  0.12538673708E+03  0.00000000000E+00 0.  1.
<mgrwt>
<rscale>  0 0.15623660E+04</rscale>
<asrwt>0</asrwt>
<pdfrwt beam="1">  1        1 0.19571748E+00 0.15623660E+04</pdfrwt>
<pdfrwt beam="2">  1       -2 0.73798786E-01 0.15623660E+04</pdfrwt>
<totfact> 0.13233911E+01</totfact>
</mgrwt>
</event>
<event>
12    4  0.4398275E-008  0.1506647E+04  0.7818608E-02  0.8880045E-01
         -2   -1    0    0    0  501 -0.00000000000E+00  0.00000000000E+00  0.40291237352E+03  0.40291237352E+03  0.00000000000E+00 0.  1.
          1   -1    0    0  501    0  0.00000000000E+00 -0.00000000000E+00 -0.14084858962E+04  0.14084858962E+04  0.00000000000E+00 0. -1.
        -24    2    1    2    0    0 -0.11394818424E+03  0.38277788983E+03 -0.17535794506E+01  0.40692138179E+03  0.77966879395E+02 0.  0.
        254    2    1    2    0    0  0.11394818424E+03 -0.38277788983E+03 -0.10038199432E+04  0.14044768879E+04  0.89743955155E+03 0.  0.
         23    2    4    4    0    0 -0.11655010214E+03  0.19914269269E+03 -0.38464329554E+02  0.25035051509E+03  0.89185970845E+02 0.  0.
         23    2    4    4    0    0  0.23049828638E+03 -0.58192058252E+03 -0.96535561367E+03  0.11541263728E+04  0.91297312526E+02 0.  0.
          3    1    3    3  502    0 -0.49669453734E+02  0.10929432603E+03  0.31254357512E+02  0.12405296934E+03  0.00000000000E+00 0. -1.
         -4    1    3    3    0  502 -0.64278730505E+02  0.27348356379E+03 -0.33007936962E+02  0.28286841245E+03  0.00000000000E+00 0.  1.
         11    1    5    5    0    0 -0.10257807463E+03  0.20719685359E+03 -0.37219389677E+02  0.23417532001E+03  0.00000000000E+00 0. -1.
        -11    1    5    5    0    0 -0.13972027513E+02 -0.80541609000E+01 -0.12449398775E+01  0.16175195081E+02  0.00000000000E+00 0.  1.
          1    1    6    6  503    0  0.14466199430E+03 -0.45585408815E+03 -0.76743152006E+03  0.90425725336E+03  0.00000000000E+00 0. -1.
         -1    1    6    6    0  503  0.85836292081E+02 -0.12606649437E+03 -0.19792409361E+03  0.24986911948E+03  0.00000000000E+00 0.  1.
<mgrwt>
<rscale>  0 0.15066471E+04</rscale>
<asrwt>0</asrwt>
<pdfrwt beam="1">  1        1 0.21669014E+00 0.15066471E+04</pdfrwt>
<pdfrwt beam="2">  1       -2 0.61986519E-01 0.15066471E+04</pdfrwt>
<totfact> 0.15535111E+01</totfact>
</mgrwt>
</event>
<event>
12    4  0.4398275E-008  0.1089867E+04  0.7818608E-02  0.9215125E-01
         -2   -1    0    0    0  501 -0.00000000000E+00  0.00000000000E+00  0.21140518484E+04  0.21140518484E+04  0.00000000000E+00 0.  1.
          1   -1    0    0  501    0  0.00000000000E+00 -0.00000000000E+00 -0.14046609617E+03  0.14046609617E+03  0.00000000000E+00 0. -1.
        -24    2    1    2    0    0 -0.85644734531E+01 -0.39584029287E+02  0.67133194786E+03  0.67733694680E+03  0.80364853661E+02 0.  0.
        254    2    1    2    0    0  0.85644734531E+01  0.39584029287E+02  0.13022538043E+04  0.15771809977E+04  0.88881645075E+03 0.  0.
         23    2    4    4    0    0  0.23184556665E+03  0.22060319909E+03  0.12184044807E+04  0.12637332339E+04  0.10046924752E+03 0.  0.
         23    2    4    4    0    0 -0.22328109320E+03 -0.18101916980E+03  0.83849323650E+02  0.31344776383E+03  0.92716800828E+02 0.  0.
          1    1    3    3  502    0 -0.25902680779E+02 -0.29470223329E+02  0.13389560487E+03  0.13952589701E+03  0.00000000000E+00 0. -1.
         -2    1    3    3    0  502  0.17338207326E+02 -0.10113805958E+02  0.53743634299E+03  0.53781104979E+03  0.00000000000E+00 0.  1.
         11    1    5    5    0    0  0.23729924808E+03  0.20170896104E+03  0.10824497536E+04  0.11263635768E+04  0.00000000000E+00 0. -1.
        -11    1    5    5    0    0 -0.54536814269E+01  0.18894238053E+02  0.13595472709E+03  0.13736965710E+03  0.00000000000E+00 0.  1.
          2    1    6    6  503    0  0.71487565259E+00 -0.63069353439E+01 -0.12052414535E+02  0.13621643688E+02  0.00000000000E+00 0.  1.
         -2    1    6    6    0  503 -0.22399596885E+03 -0.17471223446E+03  0.95901738185E+02  0.29982612014E+03  0.00000000000E+00 0. -1.
<mgrwt>
<rscale>  0 0.10898672E+04</rscale>
<asrwt>0</asrwt>
<pdfrwt beam="1">  1        1 0.21610170E-01 0.10898672E+04</pdfrwt>
<pdfrwt beam="2">  1       -2 0.32523872E+00 0.10898672E+04</pdfrwt>
<totfact> 0.46363921E+00</totfact>
</mgrwt>
</event>
<event>
12    4  0.4398275E-008  0.1368477E+04  0.7818608E-02  0.8976958E-01
          1   -1    0    0  501    0  0.00000000000E+00  0.00000000000E+00  0.24906374891E+04  0.24906374891E+04  0.00000000000E+00 0. -1.
         -2   -1    0    0    0  501 -0.00000000000E+00 -0.00000000000E+00 -0.18797692376E+03  0.18797692376E+03  0.00000000000E+00 0.  1.
        -24    2    1    2    0    0 -0.73506946741E+02  0.29987987654E+03  0.20888680247E+03  0.38164727421E+03  0.81790794662E+02 0.  0.
        254    2    1    2    0    0  0.73506946741E+02 -0.29987987654E+03  0.20937737629E+04  0.22969671387E+04  0.89265797169E+03 0.  0.
         23    2    4    4    0    0  0.10584494427E+03  0.17474580421E+03  0.99886732924E+02  0.24511700232E+03  0.91464403422E+02 0.  0.
         23    2    4    4    0    0 -0.32337997531E+02 -0.47462568074E+03  0.19938870300E+04  0.20518501364E+04  0.90488733680E+02 0.  0.
          1    1    3    3  502    0 -0.83435408055E+02  0.20369797825E+03  0.16684771193E+03  0.27621095677E+03  0.00000000000E+00 0. -1.
         -2    1    3    3    0  502  0.99284613134E+01  0.96181898285E+02  0.42039090538E+02  0.10543631744E+03  0.00000000000E+00 0.  1.
         11    1    5    5    0    0  0.12849424979E+02  0.81087204931E+02  0.44077268335E+01  0.82217215847E+02  0.00000000000E+00 0.  1.
        -11    1    5    5    0    0  0.92995519294E+02  0.93658599277E+02  0.95479006091E+02  0.16289978647E+03  0.00000000000E+00 0. -1.
          3    1    6    6  503    0 -0.33396749729E+02 -0.60022525578E+02  0.33147401209E+03  0.33851597770E+03  0.00000000000E+00 0. -1.
         -3    1    6    6    0  503  0.10587521982E+01 -0.41460315517E+03  0.16624130179E+04  0.17133341587E+04  0.00000000000E+00 0.  1.
<mgrwt>
<rscale>  0 0.13684771E+04</rscale>
<asrwt>0</asrwt>
<pdfrwt beam="1">  1        1 0.38317498E+00 0.13684771E+04</pdfrwt>
<pdfrwt beam="2">  1       -2 0.28919528E-01 0.13684771E+04</pdfrwt>
<totfact> 0.13006955E+01</totfact>
</mgrwt>
</event>
<event>
12    4  0.4398275E-008  0.1507202E+04  0.7818608E-02  0.8879678E-01
         -2   -1    0    0    0  501 -0.00000000000E+00  0.00000000000E+00  0.17575810440E+03  0.17575810440E+03  0.00000000000E+00 0.  1.
          1   -1    0    0  501    0  0.00000000000E+00 -0.00000000000E+00 -0.32312281929E+04  0.32312281929E+04  0.00000000000E+00 0. -1.
        -24    2    1    2    0    0 -0.28004270129E+03  0.24600746366E+03 -0.16845741344E+04  0.17271553693E+04  0.79574297633E+02 0.  0.
        254    2    1    2    0    0  0.28004270129E+03 -0.24600746366E+03 -0.13708959541E+04  0.16798309280E+04  0.89639982309E+03 0.  0.
         23    2    4    4    0    0 -0.41435579637E+02  0.18680159851E+03 -0.95731379514E+01  0.21283368859E+03  0.92708087903E+02 0.  0.
         23    2    4    4    0    0  0.32147828093E+03 -0.43280906217E+03 -0.13613228162E+04  0.14669972394E+04  0.90604200555E+02 0.  0.
          3    1    3    3  502    0 -0.27996501302E+03  0.22527236004E+03 -0.15587555654E+04  0.15996396336E+04  0.00000000000E+00 0. -1.
         -4    1    3    3    0  502 -0.77688268698E-01  0.20735103623E+02 -0.12581856900E+03  0.12751573574E+03  0.00000000000E+00 0.  1.
         11    1    5    5    0    0 -0.32312765319E+02  0.12813296420E+03  0.37164905735E+02  0.13727126989E+03  0.00000000000E+00 0.  1.
        -11    1    5    5    0    0 -0.91228143174E+01  0.58668634304E+02 -0.46738043687E+02  0.75562418701E+02  0.00000000000E+00 0. -1.
          4    1    6    6  503    0 -0.30968822774E+01 -0.76200693833E+01 -0.67815072818E+01  0.10660439872E+02  0.00000000000E+00 0. -1.
         -4    1    6    6    0  503  0.32457516320E+03 -0.42518899278E+03 -0.13545413089E+04  0.14563367995E+04  0.00000000000E+00 0.  1.
<mgrwt>
<rscale>  0 0.15072021E+04</rscale>
<asrwt>0</asrwt>
<pdfrwt beam="1">  1        1 0.49711202E+00 0.15072021E+04</pdfrwt>
<pdfrwt beam="2">  1       -2 0.27039709E-01 0.15072021E+04</pdfrwt>
<totfact> 0.42858938E+00</totfact>
</mgrwt>
</event>
<event>
12    4  0.4398275E-008  0.1654486E+04  0.7818608E-02  0.8787757E-01
         -2   -1    0    0    0  501 -0.00000000000E+00  0.00000000000E+00  0.12975287140E+04  0.12975287140E+04  0.00000000000E+00 0.  1.
          1   -1    0    0  501    0  0.00000000000E+00 -0.00000000000E+00 -0.52741093049E+03  0.52741093049E+03  0.00000000000E+00 0. -1.
        -24    2    1    2    0    0  0.34488348181E+03 -0.39322712718E+03  0.53963937768E+03  0.75575326264E+03  0.79875819103E+02 0.  0.
        254    2    1    2    0    0 -0.34488348181E+03  0.39322712718E+03  0.23047840580E+03  0.10691863818E+04  0.90358565390E+03 0.  0.
         23    2    4    4    0    0  0.43179085380E+02 -0.22928040624E+03  0.21195776100E+03  0.32957766048E+03  0.96236187257E+02 0.  0.
         23    2    4    4    0    0 -0.38806256719E+03  0.62250753342E+03  0.18520644797E+02  0.73960872133E+03  0.92573544640E+02 0.  0.
          1    1    3    3  502    0  0.20007902710E+03 -0.18947174901E+03  0.23894781479E+03  0.36472896643E+03  0.00000000000E+00 0. -1.
         -2    1    3    3    0  502  0.14480445470E+03 -0.20375537818E+03  0.30069156289E+03  0.39102429621E+03  0.00000000000E+00 0.  1.
         11    1    5    5    0    0  0.51113404810E+02 -0.23361645417E+03  0.18870551959E+03  0.30462928444E+03  0.00000000000E+00 0.  1.
        -11    1    5    5    0    0 -0.79343194297E+01  0.43360479347E+01  0.23252241410E+02  0.24948376041E+02  0.00000000000E+00 0. -1.
          1    1    6    6  503    0 -0.17472491268E+02  0.21514580543E+02 -0.17235271829E+02  0.32637703995E+02  0.00000000000E+00 0. -1.
         -1    1    6    6    0  503 -0.37059007592E+03  0.60099295288E+03  0.35755916626E+02  0.70697101733E+03  0.00000000000E+00 0.  1.
<mgrwt>
<rscale>  0 0.16544858E+04</rscale>
<asrwt>0</asrwt>
<pdfrwt beam="1">  1        1 0.81140144E-01 0.16544858E+04</pdfrwt>
<pdfrwt beam="2">  1       -2 0.19961980E+00 0.16544858E+04</pdfrwt>
<totfact> 0.45963205E+00</totfact>
</mgrwt>
</event>
<event>
12    4  0.4398275E-008  0.1603013E+04  0.7818608E-02  0.8818699E-01
         -2   -1    0    0    0  501 -0.00000000000E+00  0.00000000000E+00  0.14435171387E+04  0.14435171387E+04  0.00000000000E+00 0.  1.
          1   -1    0    0  501    0  0.00000000000E+00 -0.00000000000E+00 -0.44503277684E+03  0.44503277684E+03  0.00000000000E+00 0. -1.
        -24    2    1    2    0    0  0.37069558821E+03 -0.30617710856E+03  0.63207600271E+03  0.79788406166E+03  0.77066605717E+02 0.  0.
        254    2    1    2    0    0 -0.37069558821E+03  0.30617710856E+03  0.36640835919E+03  0.10906658539E+04  0.90782006935E+03 0.  0.
         23    2    4    4    0    0 -0.38023452507E+03  0.18767909818E+03 -0.22010801095E+03  0.48530941309E+03  0.85299191088E+02 0.  0.
         23    2    4    4    0    0  0.95389368590E+01  0.11849801038E+03  0.58651637014E+03  0.60535644084E+03  0.91226083117E+02 0.  0.
          3    1    3    3  502    0  0.10291139199E+03 -0.64830209172E+02  0.21124337897E+03  0.24375700150E+03  0.00000000000E+00 0. -1.
         -4    1    3    3    0  502  0.26778419623E+03 -0.24134689939E+03  0.42083262374E+03  0.55412706016E+03  0.00000000000E+00 0.  1.
         11    1    5    5    0    0 -0.36770918542E+02  0.48891310506E+02 -0.42490822481E+02  0.74484432525E+02  0.00000000000E+00 0. -1.
        -11    1    5    5    0    0 -0.34346360653E+03  0.13878778768E+03 -0.17761718847E+03  0.41082498057E+03  0.00000000000E+00 0.  1.
          3    1    6    6  503    0  0.15914121097E+01  0.89442312589E+02  0.21841394841E+03  0.23602354275E+03  0.00000000000E+00 0. -1.
         -3    1    6    6    0  503  0.79475247493E+01  0.29055697788E+02  0.36810242173E+03  0.36933289808E+03  0.00000000000E+00 0.  1.
<mgrwt>
<rscale>  0 0.16030127E+04</rscale>
<asrwt>0</asrwt>
<pdfrwt beam="1">  1        1 0.68466582E-01 0.16030127E+04</pdfrwt>
<pdfrwt beam="2">  1       -2 0.22207956E+00 0.16030127E+04</pdfrwt>
<totfact> 0.41786096E+00</totfact>
</mgrwt>
</event>
<event>
12    4  0.4398275E-008  0.1366244E+04  0.7818608E-02  0.8978622E-01
          1   -1    0    0  501    0  0.00000000000E+00  0.00000000000E+00  0.89621438345E+03  0.89621438345E+03  0.00000000000E+00 0. -1.
         -2   -1    0    0    0  501 -0.00000000000E+00 -0.00000000000E+00 -0.52069632788E+03  0.52069632788E+03  0.00000000000E+00 0.  1.
        -24    2    1    2    0    0  0.88906643709E+02  0.33176804643E+03  0.27658089498E+03  0.44815271450E+03  0.79808747116E+02 0.  0.
        254    2    1    2    0    0 -0.88906643709E+02 -0.33176804643E+03  0.98937160582E+02  0.96875799683E+03  0.90040494599E+03 0.  0.
         23    2    4    4    0    0  0.18016942096E+02  0.39286571797E+02  0.43548347340E+03  0.44865292691E+03  0.98871372473E+02 0.  0.
         23    2    4    4    0    0 -0.10692358581E+03 -0.37105461822E+03 -0.33654631282E+03  0.52010506992E+03  0.90175829261E+02 0.  0.
          1    1    3    3  502    0  0.84884384683E+02  0.30235308916E+03  0.27656714979E+03  0.41846402190E+03  0.00000000000E+00 0. -1.
         -2    1    3    3    0  502  0.40222590259E+01  0.29414957272E+02  0.13745192151E-01  0.29688692593E+02  0.00000000000E+00 0.  1.
         11    1    5    5    0    0 -0.20970445012E+02  0.29837740191E+02  0.37045706435E+03  0.37224788358E+03  0.00000000000E+00 0. -1.
        -11    1    5    5    0    0  0.38987387108E+02  0.94488316061E+01  0.65026409052E+02  0.76405043331E+02  0.00000000000E+00 0.  1.
          3    1    6    6  503    0 -0.11469838214E+03 -0.25976427529E+03 -0.25803641708E+03  0.38368735987E+03  0.00000000000E+00 0. -1.
         -3    1    6    6    0  503  0.77747963357E+01 -0.11129034293E+03 -0.78509895735E+02  0.13641771005E+03  0.00000000000E+00 0.  1.
<mgrwt>
<rscale>  0 0.13662438E+04</rscale>
<asrwt>0</asrwt>
<pdfrwt beam="1">  1        1 0.13787914E+00 0.13662438E+04</pdfrwt>
<pdfrwt beam="2">  1       -2 0.80107127E-01 0.13662438E+04</pdfrwt>
<totfact> 0.21642692E+01</totfact>
</mgrwt>
</event>
<event>
12    4  0.4398275E-008  0.1290167E+04  0.7818608E-02  0.9037399E-01
          1   -1    0    0  501    0  0.00000000000E+00  0.00000000000E+00  0.11856640159E+04  0.11856640159E+04  0.00000000000E+00 0. -1.
         -2   -1    0    0    0  501 -0.00000000000E+00 -0.00000000000E+00 -0.35097038335E+03  0.35097038335E+03  0.00000000000E+00 0.  1.
        -24    2    1    2    0    0 -0.30953629318E+03  0.39527413966E+01  0.20131842560E+03  0.37787753662E+03  0.80212114026E+02 0.  0.
        254    2    1    2    0    0  0.30953629318E+03 -0.39527413966E+01  0.63337520690E+03  0.11587568626E+04  0.91963306427E+03 0.  0.
         23    2    4    4    0    0  0.45566404747E+03 -0.21162368188E+03  0.71347883264E+03  0.87764615502E+03  0.93789241984E+02 0.  0.
         23    2    4    4    0    0 -0.14612775429E+03  0.20767094048E+03 -0.80103625735E+02  0.28111070756E+03  0.90144877578E+02 0.  0.
          1    1    3    3  502    0 -0.19152294563E+03 -0.79458034186E+01  0.16744696036E+03  0.25452437806E+03  0.00000000000E+00 0. -1.
         -2    1    3    3    0  502 -0.11801334756E+03  0.11898544815E+02  0.33871465243E+02  0.12335315856E+03  0.00000000000E+00 0.  1.
         11    1    5    5    0    0  0.41688575883E+03 -0.16280101028E+03  0.64466786362E+03  0.78478949996E+03  0.00000000000E+00 0.  1.
        -11    1    5    5    0    0  0.38778288643E+02 -0.48822671600E+02  0.68810969018E+02  0.92856655063E+02  0.00000000000E+00 0. -1.
          1    1    6    6  503    0 -0.12299158900E+03  0.10706433363E+03 -0.69767987940E+02  0.17736198759E+03  0.00000000000E+00 0. -1.
         -1    1    6    6    0  503 -0.23136165290E+02  0.10060660685E+03 -0.10335637795E+02  0.10374871997E+03  0.00000000000E+00 0.  1.
<mgrwt>
<rscale>  0 0.12901674E+04</rscale>
<asrwt>0</asrwt>
<pdfrwt beam="1">  1        1 0.18240985E+00 0.12901674E+04</pdfrwt>
<pdfrwt beam="2">  1       -2 0.53995444E-01 0.12901674E+04</pdfrwt>
<totfact> 0.30493927E+01</totfact>
</mgrwt>
</event>
<event>
12    4  0.4398275E-008  0.1523333E+04  0.7818608E-02  0.8869083E-01
         -2   -1    0    0    0  501 -0.00000000000E+00  0.00000000000E+00  0.32208624041E+03  0.32208624041E+03  0.00000000000E+00 0.  1.
          1   -1    0    0  501    0  0.00000000000E+00 -0.00000000000E+00 -0.18011824698E+04  0.18011824698E+04  0.00000000000E+00 0. -1.
        -24    2    1    2    0    0 -0.40305587725E+03 -0.61487100409E+01 -0.83710353080E+02  0.41932815511E+03  0.79604218690E+02 0.  0.
        254    2    1    2    0    0  0.40305587725E+03  0.61487100409E+01 -0.13953858763E+04  0.17039405551E+04  0.89096566978E+03 0.  0.
         23    2    4    4    0    0  0.61321471021E+03  0.10674888991E+03 -0.12843850514E+04  0.14299985929E+04  0.88450038329E+02 0.  0.
         23    2    4    4    0    0 -0.21015883297E+03 -0.10060017987E+03 -0.11100082494E+03  0.27394196218E+03  0.91847069849E+02 0.  0.
          3    1    3    3  502    0 -0.46983930288E+02  0.19218059328E+02 -0.28182201938E+02  0.58060830305E+02  0.00000000000E+00 0. -1.
         -4    1    3    3    0  502 -0.35607194696E+03 -0.25366769369E+02 -0.55528151142E+02  0.36126732480E+03  0.00000000000E+00 0.  1.
         11    1    5    5    0    0  0.33188093630E+03  0.20972989903E+02 -0.62404438327E+03  0.70711824646E+03  0.00000000000E+00 0.  1.
        -11    1    5    5    0    0  0.28133377391E+03  0.85775900010E+02 -0.66034066812E+03  0.72288034649E+03  0.00000000000E+00 0. -1.
          2    1    6    6  503    0 -0.16128681829E+03 -0.11277301253E+03 -0.10544637506E+03  0.22327142254E+03  0.00000000000E+00 0. -1.
         -2    1    6    6    0  503 -0.48872014673E+02  0.12172832661E+02 -0.55544498767E+01  0.50670539632E+02  0.00000000000E+00 0.  1.
<mgrwt>
<rscale>  0 0.15233333E+04</rscale>
<asrwt>0</asrwt>
<pdfrwt beam="1">  1        1 0.27710500E+00 0.15233333E+04</pdfrwt>
<pdfrwt beam="2">  1       -2 0.49551729E-01 0.15233333E+04</pdfrwt>
<totfact> 0.13286496E+01</totfact>
</mgrwt>
</event>
<event>
12    4  0.4398275E-008  0.1248441E+04  0.7818608E-02  0.9071482E-01
          1   -1    0    0  501    0  0.00000000000E+00  0.00000000000E+00  0.23878643705E+04  0.23878643705E+04  0.00000000000E+00 0. -1.
         -2   -1    0    0    0  501 -0.00000000000E+00 -0.00000000000E+00 -0.16317974180E+03  0.16317974180E+03  0.00000000000E+00 0.  1.
        -24    2    1    2    0    0  0.15165331816E+02 -0.46133006915E+02  0.11860099643E+04  0.11896684043E+04  0.79580368839E+02 0.  0.
        254    2    1    2    0    0 -0.15165331816E+02  0.46133006915E+02  0.10386746644E+04  0.13613757080E+04  0.87871526577E+03 0.  0.
         23    2    4    4    0    0  0.62347815650E+02 -0.37623481306E+03  0.71951128104E+03  0.81930209578E+03  0.90108578535E+02 0.  0.
         23    2    4    4    0    0 -0.77513147466E+02  0.42236781997E+03  0.31916338336E+03  0.54207361224E+03  0.87038338881E+02 0.  0.
          3    1    3    3  502    0  0.30743815900E+02 -0.41822254457E+02  0.11343890755E+04  0.11355760027E+04  0.00000000000E+00 0. -1.
         -4    1    3    3    0  502 -0.15578484084E+02 -0.43107524575E+01  0.51620888751E+02  0.54092401579E+02  0.00000000000E+00 0.  1.
         11    1    5    5    0    0  0.78079406538E+02 -0.24722157113E+03  0.43284333785E+03  0.50454757365E+03  0.00000000000E+00 0. -1.
        -11    1    5    5    0    0 -0.15731590888E+02 -0.12901324193E+03  0.28666794319E+03  0.31475452212E+03  0.00000000000E+00 0.  1.
          3    1    6    6  503    0 -0.23040580775E+02  0.14485146951E+03  0.16197217317E+03  0.21851270321E+03  0.00000000000E+00 0. -1.
         -3    1    6    6    0  503 -0.54472566691E+02  0.27751635046E+03  0.15719121019E+03  0.32356090903E+03  0.00000000000E+00 0.  1.
<mgrwt>
<rscale>  0 0.12484408E+04</rscale>
<asrwt>0</asrwt>
<pdfrwt beam="1">  1        1 0.36736372E+00 0.12484408E+04</pdfrwt>
<pdfrwt beam="2">  1       -2 0.25104577E-01 0.12484408E+04</pdfrwt>
<totfact> 0.20054536E+01</totfact>
</mgrwt>
</event>
<event>
12    4  0.4398275E-008  0.1344339E+04  0.7818608E-02  0.8995124E-01
          1   -1    0    0  501    0  0.00000000000E+00  0.00000000000E+00  0.10593728286E+04  0.10593728286E+04  0.00000000000E+00 0. -1.
         -2   -1    0    0    0  501 -0.00000000000E+00 -0.00000000000E+00 -0.42649023441E+03  0.42649023441E+03  0.00000000000E+00 0.  1.
        -24    2    1    2    0    0  0.16632676414E+02 -0.11217653750E+03 -0.20347713256E+03  0.24675174364E+03  0.81383401409E+02 0.  0.
        254    2    1    2    0    0 -0.16632676414E+02  0.11217653750E+03  0.83635972680E+03  0.12391113194E+04  0.90721499534E+03 0.  0.
         23    2    4    4    0    0  0.39562922518E+02 -0.34302634257E+03  0.63775098453E+03  0.73111035025E+03  0.92540420578E+02 0.  0.
         23    2    4    4    0    0 -0.56195598931E+02  0.45520288007E+03  0.19860874227E+03  0.50800096916E+03  0.90840215735E+02 0.  0.
          1    1    3    3  502    0 -0.25421072979E+02 -0.93944356783E+01 -0.27106160922E+02  0.38330540474E+02  0.00000000000E+00 0. -1.
         -2    1    3    3    0  502  0.42053749393E+02 -0.10278210183E+03 -0.17637097164E+03  0.20842120317E+03  0.00000000000E+00 0.  1.
         11    1    5    5    0    0  0.45093275761E+02 -0.25241946463E+03  0.53955240686E+03  0.59738244818E+03  0.00000000000E+00 0. -1.
        -11    1    5    5    0    0 -0.55303532435E+01 -0.90606877932E+02  0.98198577670E+02  0.13372790207E+03  0.00000000000E+00 0.  1.
          2    1    6    6  503    0 -0.91430814073E+01  0.19223969081E+01 -0.28114342174E+01  0.97568288830E+01  0.00000000000E+00 0. -1.
         -2    1    6    6    0  503 -0.47052517524E+02  0.45328048316E+03  0.20142017649E+03  0.49824414027E+03  0.00000000000E+00 0.  1.
<mgrwt>
<rscale>  0 0.13443395E+04</rscale>
<asrwt>0</asrwt>
<pdfrwt beam="1">  1        1 0.16298043E+00 0.13443395E+04</pdfrwt>
<pdfrwt beam="2">  1       -2 0.65613882E-01 0.13443395E+04</pdfrwt>
<totfact> 0.25005062E+01</totfact>
</mgrwt>
</event>
<event>
12    4  0.4398275E-008  0.2353785E+04  0.7818608E-02  0.8457011E-01
          1   -1    0    0  501    0  0.00000000000E+00  0.00000000000E+00  0.36877341840E+04  0.36877341840E+04  0.00000000000E+00 0. -1.
         -2   -1    0    0    0  501 -0.00000000000E+00 -0.00000000000E+00 -0.37558988013E+03  0.37558988013E+03  0.00000000000E+00 0.  1.
        -24    2    1    2    0    0  0.24424119834E+03 -0.22716929070E+03  0.30497756486E+04  0.30690109520E+04  0.80231332708E+02 0.  0.
        254    2    1    2    0    0 -0.24424119834E+03  0.22716929070E+03  0.26236865526E+03  0.99431311218E+03  0.89920053613E+03 0.  0.
         23    2    4    4    0    0 -0.62922083755E+02 -0.27071867334E+02 -0.31376242278E+03  0.33349126526E+03  0.89874865403E+02 0.  0.
         23    2    4    4    0    0 -0.18131911458E+03  0.25424115804E+03  0.57613107805E+03  0.66082184691E+03  0.85107617230E+02 0.  0.
          1    1    3    3  502    0  0.25062671772E+03 -0.22066090508E+03  0.29621503850E+04  0.29809125935E+04  0.00000000000E+00 0. -1.
         -2    1    3    3    0  502 -0.63855193857E+01 -0.65083856240E+01  0.87625263645E+02  0.88098358498E+02  0.00000000000E+00 0.  1.
         11    1    5    5    0    0 -0.49337001424E+02  0.25098918215E+02 -0.20134687948E+03  0.20881729163E+03  0.00000000000E+00 0.  1.
        -11    1    5    5    0    0 -0.13585082331E+02 -0.52170785549E+02 -0.11241554330E+03  0.12467397364E+03  0.00000000000E+00 0. -1.
          1    1    6    6  503    0 -0.13074761474E+03  0.16424891654E+03  0.45876808951E+03  0.50452037154E+03  0.00000000000E+00 0. -1.
         -1    1    6    6    0  503 -0.50571499842E+02  0.89992241492E+02  0.11736298854E+03  0.15630147538E+03  0.00000000000E+00 0.  1.
<mgrwt>
<rscale>  0 0.23537847E+04</rscale>
<asrwt>0</asrwt>
<pdfrwt beam="1">  1        1 0.56734370E+00 0.23537847E+04</pdfrwt>
<pdfrwt beam="2">  1       -2 0.57783061E-01 0.23537847E+04</pdfrwt>
<totfact> 0.39254344E-01</totfact>
</mgrwt>
</event>
<event>
12    4  0.4398275E-008  0.1370716E+04  0.7818608E-02  0.8975293E-01
          1   -1    0    0  501    0  0.00000000000E+00  0.00000000000E+00  0.24837046347E+04  0.24837046347E+04  0.00000000000E+00 0. -1.
         -2   -1    0    0    0  501 -0.00000000000E+00 -0.00000000000E+00 -0.18911882188E+03  0.18911882188E+03  0.00000000000E+00 0.  1.
        -24    2    1    2    0    0 -0.32148525584E+03 -0.17506543539E+03  0.90719501263E+03  0.98148120909E+03  0.79384484990E+02 0.  0.
        254    2    1    2    0    0  0.32148525584E+03  0.17506543539E+03  0.13873908002E+04  0.16913422475E+04  0.89542430687E+03 0.  0.
         23    2    4    4    0    0  0.13217032062E+03  0.30403353176E+03  0.14028036638E+04  0.14441842208E+04  0.88907605261E+02 0.  0.
         23    2    4    4    0    0  0.18931493522E+03 -0.12896809637E+03 -0.15412863617E+02  0.24715802672E+03  0.91523872440E+02 0.  0.
          1    1    3    3  502    0 -0.32528802377E+03 -0.17692093922E+03  0.89511991061E+03  0.96868620900E+03  0.00000000000E+00 0. -1.
         -2    1    3    3    0  502  0.38027679293E+01  0.18555038225E+01  0.12075102020E+02  0.12795000084E+02  0.00000000000E+00 0.  1.
         11    1    5    5    0    0  0.12580568683E+03  0.30142423557E+03  0.12742094000E+04  0.13154061105E+04  0.00000000000E+00 0.  1.
        -11    1    5    5    0    0  0.63646337878E+01  0.26092961939E+01  0.12859426385E+03  0.12877811027E+03  0.00000000000E+00 0. -1.
          3    1    6    6  503    0  0.66091483555E+02 -0.82578707348E+02  0.26394448775E+02  0.10901373323E+03  0.00000000000E+00 0. -1.
         -3    1    6    6    0  503  0.12322345167E+03 -0.46389389022E+02 -0.41807312393E+02  0.13814429349E+03  0.00000000000E+00 0.  1.
<mgrwt>
<rscale>  0 0.13707156E+04</rscale>
<asrwt>0</asrwt>
<pdfrwt beam="1">  1        1 0.38210838E+00 0.13707156E+04</pdfrwt>
<pdfrwt beam="2">  1       -2 0.29095205E-01 0.13707156E+04</pdfrwt>
<totfact> 0.13001388E+01</totfact>
</mgrwt>
</event>
<event>
12    4  0.4398275E-008  0.1204331E+04  0.7818608E-02  0.9109074E-01
          1   -1    0    0  501    0  0.00000000000E+00  0.00000000000E+00  0.11802992599E+04  0.11802992599E+04  0.00000000000E+00 0. -1.
         -2   -1    0    0    0  501 -0.00000000000E+00 -0.00000000000E+00 -0.30721307739E+03  0.30721307739E+03  0.00000000000E+00 0.  1.
        -24    2    1    2    0    0  0.22358291596E+03 -0.43024196866E+02  0.41690790313E+03  0.48232210398E+03  0.83558425528E+02 0.  0.
        254    2    1    2    0    0 -0.22358291596E+03  0.43024196866E+02  0.45617827937E+03  0.10051902333E+04  0.86629578130E+03 0.  0.
         23    2    4    4    0    0 -0.43667195559E+03  0.65275304097E+02 -0.45156839712E+02  0.45235569124E+03  0.87425791947E+02 0.  0.
         23    2    4    4    0    0  0.21308903963E+03 -0.22251107231E+02  0.50133511908E+03  0.55283454205E+03  0.91580995155E+02 0.  0.
          1    1    3    3  502    0  0.19930456680E+03 -0.50861820415E+02  0.40484457674E+03  0.45410171376E+03  0.00000000000E+00 0. -1.
         -4    1    3    3    0  502  0.24278349158E+02  0.78376235494E+01  0.12063326382E+02  0.28220390219E+02  0.00000000000E+00 0.  1.
         11    1    5    5    0    0 -0.18761066544E+03 -0.28633202278E+01 -0.49695139086E+02  0.19410195063E+03  0.00000000000E+00 0.  1.
        -11    1    5    5    0    0 -0.24906129015E+03  0.68138624325E+02  0.45382993740E+01  0.25825374061E+03  0.00000000000E+00 0. -1.
          4    1    6    6  503    0  0.16689239111E+03 -0.44121948618E+02  0.31036327665E+03  0.35514107063E+03  0.00000000000E+00 0. -1.
         -4    1    6    6    0  503  0.46196648527E+02  0.21870841387E+02  0.19097184243E+03  0.19769347141E+03  0.00000000000E+00 0.  1.
<mgrwt>
<rscale>  0 0.12043311E+04</rscale>
<asrwt>0</asrwt>
<pdfrwt beam="1">  1        1 0.18158450E+00 0.12043311E+04</pdfrwt>
<pdfrwt beam="2">  1       -2 0.47263551E-01 0.12043311E+04</pdfrwt>
<totfact> 0.40665371E+01</totfact>
</mgrwt>
</event>
<event>
12    4  0.4398275E-008  0.1550318E+04  0.7818608E-02  0.8851665E-01
         -2   -1    0    0    0  501 -0.00000000000E+00  0.00000000000E+00  0.47618186549E+03  0.47618186549E+03  0.00000000000E+00 0.  1.
          1   -1    0    0  501    0  0.00000000000E+00 -0.00000000000E+00 -0.12618521222E+04  0.12618521222E+04  0.00000000000E+00 0. -1.
        -24    2    1    2    0    0  0.46293221041E+03 -0.16182573318E+03 -0.32999789331E+03  0.59583790256E+03  0.75035972582E+02 0.  0.
        254    2    1    2    0    0 -0.46293221041E+03  0.16182573318E+03 -0.45567236339E+03  0.11421960851E+04  0.92546247614E+03 0.  0.
         23    2    4    4    0    0 -0.27401072925E+03 -0.12808977822E+03 -0.65923207633E+03  0.73093804036E+03  0.90524125766E+02 0.  0.
         23    2    4    4    0    0 -0.18892148116E+03  0.28991551141E+03  0.20355971295E+03  0.41125804476E+03  0.89186842343E+02 0.  0.
          3    1    3    3  502    0  0.36408679558E+03 -0.14860223087E+03 -0.28897265913E+03  0.48800308960E+03  0.00000000000E+00 0. -1.
         -4    1    3    3    0  502  0.98845414828E+02 -0.13223502312E+02 -0.41025234183E+02  0.10783481296E+03  0.00000000000E+00 0.  1.
         11    1    5    5    0    0 -0.11604149800E+03 -0.37302541839E+02 -0.17247247199E+03  0.21119626531E+03  0.00000000000E+00 0. -1.
        -11    1    5    5    0    0 -0.15796923125E+03 -0.90787236386E+02 -0.48675960434E+03  0.51974177505E+03  0.00000000000E+00 0.  1.
          3    1    6    6  503    0 -0.41670722601E+01  0.48051591959E+02  0.53126423230E+02  0.71754698984E+02  0.00000000000E+00 0. -1.
         -3    1    6    6    0  503 -0.18475440890E+03  0.24186391945E+03  0.15043328972E+03  0.33950334578E+03  0.00000000000E+00 0.  1.
<mgrwt>
<rscale>  0 0.15503175E+04</rscale>
<asrwt>0</asrwt>
<pdfrwt beam="1">  1        1 0.19413109E+00 0.15503175E+04</pdfrwt>
<pdfrwt beam="2">  1       -2 0.73258750E-01 0.15503175E+04</pdfrwt>
<totfact> 0.13695710E+01</totfact>
</mgrwt>
</event>
<event>
12    4  0.4398275E-008  0.3020513E+04  0.7818608E-02  0.8237898E-01
          1   -1    0    0  501    0  0.00000000000E+00  0.00000000000E+00  0.14534663341E+04  0.14534663341E+04  0.00000000000E+00 0. -1.
         -2   -1    0    0    0  501 -0.00000000000E+00 -0.00000000000E+00 -0.15692651906E+04  0.15692651906E+04  0.00000000000E+00 0.  1.
        -24    2    1    2    0    0 -0.11454342906E+04  0.13539266620E+03 -0.79358352418E+03  0.14022841933E+04  0.79216543789E+02 0.  0.
        254    2    1    2    0    0  0.11454342906E+04 -0.13539266620E+03  0.67778466765E+03  0.16204473314E+04  0.91438865371E+03 0.  0.
         23    2    4    4    0    0  0.87741660544E+03 -0.23039475742E+03  0.87400314339E+03  0.12631041789E+04  0.92784849786E+02 0.  0.
         23    2    4    4    0    0  0.26801768512E+03  0.95002091220E+02 -0.19621847574E+03  0.35734315247E+03  0.91288342775E+02 0.  0.
          3    1    3    3  502    0 -0.58618980879E+03  0.47746626761E+02 -0.44477117348E+03  0.73737346647E+03  0.00000000000E+00 0. -1.
         -4    1    3    3    0  502 -0.55924448177E+03  0.87646039444E+02 -0.34881235070E+03  0.66491072681E+03  0.00000000000E+00 0.  1.
         11    1    5    5    0    0  0.43970264234E+02 -0.21782422590E+02  0.24371701540E+02  0.54789030897E+02  0.00000000000E+00 0. -1.
        -11    1    5    5    0    0  0.83344634121E+03 -0.20861233484E+03  0.84963144185E+03  0.12083151480E+04  0.00000000000E+00 0.  1.
          3    1    6    6  503    0  0.66600186897E+02  0.15766096997E+01 -0.87920898599E+02  0.11030936045E+03  0.00000000000E+00 0. -1.
         -3    1    6    6    0  503  0.20141749822E+03  0.93425481520E+02 -0.10829757715E+03  0.24703379202E+03  0.00000000000E+00 0.  1.
<mgrwt>
<rscale>  0 0.30205126E+04</rscale>
<asrwt>0</asrwt>
<pdfrwt beam="1">  1        1 0.22361021E+00 0.30205126E+04</pdfrwt>
<pdfrwt beam="2">  1       -2 0.24142541E+00 0.30205126E+04</pdfrwt>
<totfact> 0.38169459E-01</totfact>
</mgrwt>
</event>
<event>
12    4  0.4398275E-008  0.1690010E+04  0.7818608E-02  0.8767083E-01
          1   -1    0    0  501    0  0.00000000000E+00  0.00000000000E+00  0.91326461042E+03  0.91326461042E+03  0.00000000000E+00 0. -1.
         -2   -1    0    0    0  501 -0.00000000000E+00 -0.00000000000E+00 -0.78184694158E+03  0.78184694158E+03  0.00000000000E+00 0.  1.
        -24    2    1    2    0    0  0.22471481580E+03 -0.38077396306E+03  0.44805886252E+03  0.63593815706E+03  0.90415905335E+02 0.  0.
        254    2    1    2    0    0 -0.22471481580E+03  0.38077396306E+03 -0.31664119368E+03  0.10591733949E+04  0.90890102632E+03 0.  0.
         23    2    4    4    0    0 -0.42983865620E+03  0.28248623324E+02  0.11885150144E+03  0.45587671050E+03  0.90214415180E+02 0.  0.
         23    2    4    4    0    0  0.20512384039E+03  0.35252533973E+03 -0.43549269512E+03  0.60329668444E+03  0.89236186050E+02 0.  0.
          1    1    3    3  502    0  0.21136252037E+03 -0.30570580868E+03  0.39895574765E+03  0.54524842509E+03  0.00000000000E+00 0. -1.
         -2    1    3    3    0  502  0.13352295434E+02 -0.75068154378E+02  0.49103114864E+02  0.90689731967E+02  0.00000000000E+00 0.  1.
         11    1    5    5    0    0 -0.18208339337E+03  0.39511293157E+02  0.14751607856E+02  0.18690402447E+03  0.00000000000E+00 0.  1.
        -11    1    5    5    0    0 -0.24775526283E+03 -0.11262669833E+02  0.10409989358E+03  0.26897268604E+03  0.00000000000E+00 0. -1.
          1    1    6    6  503    0  0.59281068395E+02  0.18941898357E+03 -0.21712150279E+03  0.29416924276E+03  0.00000000000E+00 0. -1.
         -1    1    6    6    0  503  0.14584277200E+03  0.16310635616E+03 -0.21837119233E+03  0.30912744168E+03  0.00000000000E+00 0.  1.
<mgrwt>
<rscale>  0 0.16900096E+04</rscale>
<asrwt>0</asrwt>
<pdfrwt beam="1">  1        1 0.14050225E+00 0.16900096E+04</pdfrwt>
<pdfrwt beam="2">  1       -2 0.12028415E+00 0.16900096E+04</pdfrwt>
<totfact> 0.78189404E+00</totfact>
</mgrwt>
</event>
<event>
12    4  0.4398275E-008  0.3422549E+04  0.7818608E-02  0.8132394E-01
         -2   -1    0    0    0  501 -0.00000000000E+00  0.00000000000E+00  0.10815813272E+04  0.10815813272E+04  0.00000000000E+00 0.  1.
          1   -1    0    0  501    0  0.00000000000E+00 -0.00000000000E+00 -0.27075728046E+04  0.27075728046E+04  0.00000000000E+00 0. -1.
        -24    2    1    2    0    0  0.24770793112E+03 -0.14274086819E+04 -0.14917606173E+04  0.20802610912E+04  0.57286161080E+02 0.  0.
        254    2    1    2    0    0 -0.24770793112E+03  0.14274086819E+04 -0.13423086022E+03  0.17088930406E+04  0.89634967288E+03 0.  0.
         23    2    4    4    0    0 -0.84962072062E+02  0.13762956154E+04 -0.34311547700E+03  0.14241093828E+04  0.94610406321E+02 0.  0.
         23    2    4    4    0    0 -0.16274585905E+03  0.51113066484E+02  0.20888461679E+03  0.28478365778E+03  0.91488733748E+02 0.  0.
          3    1    3    3  502    0  0.72807959916E+02 -0.44918005304E+03 -0.43150233968E+03  0.62710285299E+03  0.00000000000E+00 0. -1.
         -4    1    3    3    0  502  0.17489997120E+03 -0.97822862885E+03 -0.10602582776E+04  0.14531582382E+04  0.00000000000E+00 0.  1.
         11    1    5    5    0    0  0.59083705782E+00  0.23450349355E+03 -0.91986091078E+02  0.25190013602E+03  0.00000000000E+00 0. -1.
        -11    1    5    5    0    0 -0.85552909120E+02  0.11417921219E+04 -0.25112938593E+03  0.11722092468E+04  0.00000000000E+00 0.  1.
          3    1    6    6  503    0 -0.14993712225E+03  0.66674964129E+02  0.14917985301E+03  0.22176861819E+03  0.00000000000E+00 0. -1.
         -3    1    6    6    0  503 -0.12808736807E+02 -0.15561897645E+02  0.59704763776E+02  0.63015039589E+02  0.00000000000E+00 0.  1.
<mgrwt>
<rscale>  0 0.34225489E+04</rscale>
<asrwt>0</asrwt>
<pdfrwt beam="1">  1        1 0.41654966E+00 0.34225489E+04</pdfrwt>
<pdfrwt beam="2">  1       -2 0.16639713E+00 0.34225489E+04</pdfrwt>
<totfact> 0.15841582E-01</totfact>
</mgrwt>
</event>
<event>
12    4  0.4398275E-008  0.3184390E+04  0.7818608E-02  0.8192952E-01
          1   -1    0    0  501    0  0.00000000000E+00  0.00000000000E+00  0.27370642840E+04  0.27370642840E+04  0.00000000000E+00 0. -1.
         -2   -1    0    0    0  501 -0.00000000000E+00 -0.00000000000E+00 -0.92620602643E+03  0.92620602643E+03  0.00000000000E+00 0.  1.
        -24    2    1    2    0    0  0.79961362933E+03 -0.12058658598E+04  0.56799160791E+03  0.15563968940E+04  0.79135308361E+02 0.  0.
        254    2    1    2    0    0 -0.79961362933E+03  0.12058658598E+04  0.12428666496E+04  0.21068734164E+04  0.89482046026E+03 0.  0.
         23    2    4    4    0    0 -0.93936644543E+03  0.11793822771E+04  0.10068472519E+04  0.18153474813E+04  0.91614490033E+02 0.  0.
         23    2    4    4    0    0  0.13975281610E+03  0.26483582621E+02  0.23601939773E+03  0.29152593512E+03  0.95131409034E+02 0.  0.
          1    1    3    3  502    0  0.28433961492E+03 -0.48098066542E+03  0.24667530056E+03  0.61077010489E+03  0.00000000000E+00 0. -1.
         -2    1    3    3    0  502  0.51527401441E+03 -0.72488519433E+03  0.32131630735E+03  0.94562678910E+03  0.00000000000E+00 0.  1.
         11    1    5    5    0    0 -0.48309577844E+03  0.58513199274E+03  0.55927668250E+03  0.94263003753E+03  0.00000000000E+00 0.  1.
        -11    1    5    5    0    0 -0.45627066699E+03  0.59425028440E+03  0.44757056940E+03  0.87271744377E+03  0.00000000000E+00 0. -1.
          4    1    6    6  503    0 -0.11832016942E+02 -0.31134839164E+01  0.41352920024E+01  0.12914760817E+02  0.00000000000E+00 0. -1.
         -4    1    6    6    0  503  0.15158483304E+03  0.29597066537E+02  0.23188410573E+03  0.27861117430E+03  0.00000000000E+00 0.  1.
<mgrwt>
<rscale>  0 0.31843903E+04</rscale>
<asrwt>0</asrwt>
<pdfrwt beam="1">  1        1 0.42108681E+00 0.31843903E+04</pdfrwt>
<pdfrwt beam="2">  1       -2 0.14249324E+00 0.31843903E+04</pdfrwt>
<totfact> 0.23353365E-01</totfact>
</mgrwt>
</event>
<event>
12    4  0.4398275E-008  0.2280335E+04  0.7818608E-02  0.8485715E-01
          1   -1    0    0  501    0  0.00000000000E+00  0.00000000000E+00  0.23989215222E+04  0.23989215222E+04  0.00000000000E+00 0. -1.
         -2   -1    0    0    0  501 -0.00000000000E+00 -0.00000000000E+00 -0.54190260732E+03  0.54190260732E+03  0.00000000000E+00 0.  1.
        -24    2    1    2    0    0 -0.55548888951E+03 -0.74655651799E+03  0.10852866587E+04  0.14318377825E+04  0.79986017157E+02 0.  0.
        254    2    1    2    0    0  0.55548888951E+03  0.74655651799E+03  0.77173225617E+03  0.15089863470E+04  0.90308060511E+03 0.  0.
         23    2    4    4    0    0  0.18508617851E+03  0.10614318347E+03 -0.18409035791E+03  0.29679396944E+03  0.93135017849E+02 0.  0.
         23    2    4    4    0    0  0.37040271099E+03  0.64041333452E+03  0.95582261408E+03  0.12121923776E+04  0.92119939795E+02 0.  0.
          1    1    3    3  502    0 -0.51757150054E+03 -0.67156427623E+03  0.10129020379E+04  0.13209274672E+04  0.00000000000E+00 0. -1.
         -2    1    3    3    0  502 -0.37917388967E+02 -0.74992241753E+02  0.72384620880E+02  0.11091031534E+03  0.00000000000E+00 0.  1.
         11    1    5    5    0    0  0.14134547918E+03  0.34982751185E+02 -0.90928329960E+02  0.17166915435E+03  0.00000000000E+00 0. -1.
        -11    1    5    5    0    0  0.43740699330E+02  0.71160432285E+02 -0.93162027947E+02  0.12512481509E+03  0.00000000000E+00 0.  1.
          1    1    6    6  503    0  0.18832183249E+03  0.41513941421E+03  0.58086897203E+03  0.73838648992E+03  0.00000000000E+00 0. -1.
         -1    1    6    6    0  503  0.18208087850E+03  0.22527392030E+03  0.37495364205E+03  0.47380588765E+03  0.00000000000E+00 0.  1.
<mgrwt>
<rscale>  0 0.22803349E+04</rscale>
<asrwt>0</asrwt>
<pdfrwt beam="1">  1        1 0.36906484E+00 0.22803349E+04</pdfrwt>
<pdfrwt beam="2">  1       -2 0.83369633E-01 0.22803349E+04</pdfrwt>
<totfact> 0.15943004E+00</totfact>
</mgrwt>
</event>
<event>
12    4  0.4398275E-008  0.2340453E+04  0.7818608E-02  0.8462140E-01
          1   -1    0    0  501    0  0.00000000000E+00  0.00000000000E+00  0.10077800248E+04  0.10077800248E+04  0.00000000000E+00 0. -1.
         -2   -1    0    0    0  501 -0.00000000000E+00 -0.00000000000E+00 -0.13588580466E+04  0.13588580466E+04  0.00000000000E+00 0.  1.
        -24    2    1    2    0    0 -0.74637640190E+02 -0.10464606127E+03  0.85317330641E+03  0.86658048770E+03  0.80842287291E+02 0.  0.
        254    2    1    2    0    0  0.74637640190E+02  0.10464606127E+03 -0.12042513282E+04  0.15000575838E+04  0.88511576511E+03 0.  0.
         23    2    4    4    0    0  0.47413750444E+02 -0.26477320847E+03 -0.10490409761E+04  0.10867760372E+04  0.90786947657E+02 0.  0.
         23    2    4    4    0    0  0.27223889747E+02  0.36941926974E+03 -0.15521035206E+03  0.41328154651E+03  0.97466128823E+02 0.  0.
          1    1    3    3  502    0 -0.58977638066E+02 -0.49811346338E+02  0.67747462644E+03  0.68185878412E+03  0.00000000000E+00 0. -1.
         -2    1    3    3    0  502 -0.15660002125E+02 -0.54834714931E+02  0.17569867997E+03  0.18472170358E+03  0.00000000000E+00 0.  1.
         11    1    5    5    0    0  0.37428802002E+02 -0.11731821702E+03 -0.64272820363E+03  0.65441884371E+03  0.00000000000E+00 0. -1.
        -11    1    5    5    0    0  0.99849484416E+01 -0.14745499145E+03 -0.40631277250E+03  0.43235719353E+03  0.00000000000E+00 0.  1.
          4    1    6    6  503    0 -0.18726199974E+02  0.19752518490E+03 -0.43288870059E+02  0.20307829895E+03  0.00000000000E+00 0. -1.
         -4    1    6    6    0  503  0.45950089720E+02  0.17189408485E+03 -0.11192148200E+03  0.21020324756E+03  0.00000000000E+00 0.  1.
<mgrwt>
<rscale>  0 0.23404529E+04</rscale>
<asrwt>0</asrwt>
<pdfrwt beam="1">  1        1 0.15504308E+00 0.23404529E+04</pdfrwt>
<pdfrwt beam="2">  1       -2 0.20905508E+00 0.23404529E+04</pdfrwt>
<totfact> 0.13684019E+00</totfact>
</mgrwt>
</event>
<event>
12    4  0.4398275E-008  0.2770958E+04  0.7818608E-02  0.8312342E-01
          1   -1    0    0  501    0  0.00000000000E+00  0.00000000000E+00  0.10908024085E+04  0.10908024085E+04  0.00000000000E+00 0. -1.
         -2   -1    0    0    0  501 -0.00000000000E+00 -0.00000000000E+00 -0.17597616284E+04  0.17597616284E+04  0.00000000000E+00 0.  1.
        -24    2    1    2    0    0 -0.57194176777E+03 -0.15443913023E+03 -0.14101824277E+04  0.15314796470E+04  0.76463056590E+02 0.  0.
        254    2    1    2    0    0  0.57194176777E+03  0.15443913023E+03  0.74122320782E+03  0.13190843899E+04  0.91629850663E+03 0.  0.
         23    2    4    4    0    0  0.40953799069E+03  0.51199142148E+03  0.59456112908E+03  0.88978733932E+03  0.91443925563E+02 0.  0.
         23    2    4    4    0    0  0.16240377708E+03 -0.35755229125E+03  0.14666207875E+03  0.42929705060E+03  0.92561139380E+02 0.  0.
          3    1    3    3  502    0 -0.21514056756E+03 -0.50887342988E+02 -0.62208020032E+03  0.66019600205E+03  0.00000000000E+00 0. -1.
         -4    1    3    3    0  502 -0.35680120021E+03 -0.10355178724E+03 -0.78810222739E+03  0.87128364493E+03  0.00000000000E+00 0.  1.
         11    1    5    5    0    0  0.23305626518E+03  0.21905463026E+03  0.29667391888E+03  0.43625172541E+03  0.00000000000E+00 0. -1.
        -11    1    5    5    0    0  0.17648172551E+03  0.29293679123E+03  0.29788721020E+03  0.45353561392E+03  0.00000000000E+00 0.  1.
          2    1    6    6  503    0  0.73867689129E+02 -0.16668935910E+03  0.19272816970E+02  0.18333908314E+03  0.00000000000E+00 0. -1.
         -2    1    6    6    0  503  0.88536087955E+02 -0.19086293215E+03  0.12738926178E+03  0.24595796746E+03  0.00000000000E+00 0.  1.
<mgrwt>
<rscale>  0 0.27709581E+04</rscale>
<asrwt>0</asrwt>
<pdfrwt beam="1">  1        1 0.16781576E+00 0.27709581E+04</pdfrwt>
<pdfrwt beam="2">  1       -2 0.27073256E+00 0.27709581E+04</pdfrwt>
<totfact> 0.47061129E-01</totfact>
</mgrwt>
</event>
<event>
12    4  0.4398275E-008  0.2050003E+04  0.7818608E-02  0.8583593E-01
          1   -1    0    0  501    0  0.00000000000E+00  0.00000000000E+00  0.86026636743E+03  0.86026636743E+03  0.00000000000E+00 0. -1.
         -2   -1    0    0    0  501 -0.00000000000E+00 -0.00000000000E+00 -0.12212820181E+04  0.12212820181E+04  0.00000000000E+00 0.  1.
        -24    2    1    2    0    0 -0.29009021847E+03  0.72204424159E+03 -0.43827300517E+03  0.89675187983E+03  0.81120190189E+02 0.  0.
        254    2    1    2    0    0  0.29009021847E+03 -0.72204424159E+03  0.77257354497E+02  0.11847965057E+04  0.89009765726E+03 0.  0.
         23    2    4    4    0    0 -0.29653407704E+03 -0.19088534139E+03  0.13084831921E+03  0.38715526489E+03  0.91641934125E+02 0.  0.
         23    2    4    4    0    0  0.58662429551E+03 -0.53115890020E+03 -0.53590964714E+02  0.79764124082E+03  0.84271680958E+02 0.  0.
          3    1    3    3  502    0 -0.13055364693E+03  0.29762280755E+03 -0.13900033486E+03  0.35347515244E+03  0.00000000000E+00 0. -1.
         -4    1    3    3    0  502 -0.15953657154E+03  0.42442143404E+03 -0.29927267031E+03  0.54327672739E+03  0.00000000000E+00 0.  1.
         11    1    5    5    0    0 -0.16718402769E+03 -0.65212005183E+02  0.34691124083E+02  0.18277466681E+03  0.00000000000E+00 0. -1.
        -11    1    5    5    0    0 -0.12935004935E+03 -0.12567333621E+03  0.96157195128E+02  0.20438059809E+03  0.00000000000E+00 0.  1.
          1    1    6    6  503    0  0.38551564016E+03 -0.39922763584E+03 -0.26741832315E+02  0.55562589898E+03  0.00000000000E+00 0. -1.
         -1    1    6    6    0  503  0.20110865535E+03 -0.13193126436E+03 -0.26849132399E+02  0.24201534183E+03  0.00000000000E+00 0.  1.
<mgrwt>
<rscale>  0 0.20500028E+04</rscale>
<asrwt>0</asrwt>
<pdfrwt beam="1">  1        1 0.13234867E+00 0.20500028E+04</pdfrwt>
<pdfrwt beam="2">  1       -2 0.18788954E+00 0.20500028E+04</pdfrwt>
<totfact> 0.25443114E+00</totfact>
</mgrwt>
</event>
<event>
12    4  0.4398275E-008  0.1634518E+04  0.7818608E-02  0.8799618E-01
          1   -1    0    0  501    0  0.00000000000E+00  0.00000000000E+00  0.35776514163E+03  0.35776514163E+03  0.00000000000E+00 0. -1.
         -2   -1    0    0    0  501 -0.00000000000E+00 -0.00000000000E+00 -0.18669016963E+04  0.18669016963E+04  0.00000000000E+00 0.  1.
        -24    2    1    2    0    0  0.21820846703E+03 -0.31962880025E+03  0.34971713785E+02  0.39665740799E+03  0.79602597440E+02 0.  0.
        254    2    1    2    0    0 -0.21820846703E+03  0.31962880025E+03 -0.15441082684E+04  0.18280094299E+04  0.89864933437E+03 0.  0.
         23    2    4    4    0    0 -0.44478428671E+03  0.19625014706E+03 -0.35749946170E+03  0.61008263473E+03  0.89709387256E+02 0.  0.
         23    2    4    4    0    0  0.22657581968E+03  0.12337865319E+03 -0.11866088067E+04  0.12179267952E+04  0.93521783970E+02 0.  0.
          3    1    3    3  502    0  0.17513763894E+03 -0.30027249154E+03  0.35590100061E+02  0.34943299354E+03  0.00000000000E+00 0. -1.
         -4    1    3    3    0  502  0.43070828090E+02 -0.19356308706E+02 -0.61838627562E+00  0.47224414456E+02  0.00000000000E+00 0.  1.
         11    1    5    5    0    0 -0.18416563247E+03  0.71155130638E+02 -0.92952666472E+02  0.21822060170E+03  0.00000000000E+00 0. -1.
        -11    1    5    5    0    0 -0.26061865423E+03  0.12509501642E+03 -0.26454679523E+03  0.39186203303E+03  0.00000000000E+00 0.  1.
          4    1    6    6  503    0  0.90590970361E+02  0.99849235882E+02 -0.65195158091E+03  0.66574579057E+03  0.00000000000E+00 0. -1.
         -4    1    6    6    0  503  0.13598484931E+03  0.23529417307E+02 -0.53465722580E+03  0.55218100459E+03  0.00000000000E+00 0.  1.
<mgrwt>
<rscale>  0 0.16345181E+04</rscale>
<asrwt>0</asrwt>
<pdfrwt beam="1">  1        1 0.55040791E-01 0.16345181E+04</pdfrwt>
<pdfrwt beam="2">  1       -2 0.28721565E+00 0.16345181E+04</pdfrwt>
<totfact> 0.22183229E+00</totfact>
</mgrwt>
</event>
<event>
12    4  0.4398275E-008  0.2430886E+04  0.7818608E-02  0.8428030E-01
          1   -1    0    0  501    0  0.00000000000E+00  0.00000000000E+00  0.12700035105E+04  0.12700035105E+04  0.00000000000E+00 0. -1.
         -2   -1    0    0    0  501 -0.00000000000E+00 -0.00000000000E+00 -0.11632266170E+04  0.11632266170E+04  0.00000000000E+00 0.  1.
        -24    2    1    2    0    0  0.93128561974E+03 -0.15226393911E+03 -0.42489557697E+03  0.10378027526E+04  0.77595678040E+02 0.  0.
        254    2    1    2    0    0 -0.93128561974E+03  0.15226393911E+03  0.53167247051E+03  0.13954273749E+04  0.87980948515E+03 0.  0.
         23    2    4    4    0    0 -0.27229727490E+03 -0.50820452909E+02  0.62859655239E+03  0.69310814041E+03  0.92394503482E+02 0.  0.
         23    2    4    4    0    0 -0.65898834484E+03  0.20308439202E+03 -0.96924081875E+02  0.70231923454E+03  0.91373522608E+02 0.  0.
          3    1    3    3  502    0  0.10753457941E+03 -0.12384376640E+02 -0.23148618013E+02  0.11069289530E+03  0.00000000000E+00 0. -1.
         -4    1    3    3    0  502  0.82375104033E+03 -0.13987956247E+03 -0.40174695895E+03  0.92710985728E+03  0.00000000000E+00 0.  1.
         11    1    5    5    0    0 -0.54144212041E+02 -0.35741494727E+02  0.83187807977E+02  0.10549531525E+03  0.00000000000E+00 0.  1.
        -11    1    5    5    0    0 -0.21815306286E+03 -0.15078958182E+02  0.54540874441E+03  0.58761282516E+03  0.00000000000E+00 0. -1.
          1    1    6    6  503    0 -0.42621142119E+03  0.16680114722E+03 -0.36711310541E+02  0.45915848961E+03  0.00000000000E+00 0. -1.
         -1    1    6    6    0  503 -0.23277692366E+03  0.36283244801E+02 -0.60212771334E+02  0.24316074492E+03  0.00000000000E+00 0.  1.
<mgrwt>
<rscale>  0 0.24308862E+04</rscale>
<asrwt>0</asrwt>
<pdfrwt beam="1">  1        1 0.19538516E+00 0.24308862E+04</pdfrwt>
<pdfrwt beam="2">  1       -2 0.17895794E+00 0.24308862E+04</pdfrwt>
<totfact> 0.13744957E+00</totfact>
</mgrwt>
</event>
<event>
12    4  0.4398275E-008  0.1339153E+04  0.7818608E-02  0.8999080E-01
         -2   -1    0    0    0  501 -0.00000000000E+00  0.00000000000E+00  0.11176250819E+04  0.11176250819E+04  0.00000000000E+00 0.  1.
          1   -1    0    0  501    0  0.00000000000E+00 -0.00000000000E+00 -0.40114787823E+03  0.40114787823E+03  0.00000000000E+00 0. -1.
        -24    2    1    2    0    0  0.10068484969E+03 -0.24152930869E+03 -0.73432113457E+02  0.28419113262E+03  0.83057080734E+02 0.  0.
        254    2    1    2    0    0 -0.10068484969E+03  0.24152930869E+03  0.78990931712E+03  0.12345818275E+04  0.91200971137E+03 0.  0.
         23    2    4    4    0    0  0.20176657170E+02  0.45974712345E+03  0.84210089559E+03  0.96402107091E+03  0.91805183823E+02 0.  0.
         23    2    4    4    0    0 -0.12086150686E+03 -0.21821781476E+03 -0.52191578474E+02  0.27056075660E+03  0.90844062153E+02 0.  0.
          3    1    3    3  502    0  0.79420211619E+02 -0.19334863324E+03 -0.91964441901E+02  0.22836094799E+03  0.00000000000E+00 0. -1.
         -4    1    3    3    0  502  0.21264638072E+02 -0.48180675445E+02  0.18532328445E+02  0.55830184634E+02  0.00000000000E+00 0.  1.
         11    1    5    5    0    0  0.13691410698E+02  0.43842271794E+03  0.74627805137E+03  0.86564014711E+03  0.00000000000E+00 0. -1.
        -11    1    5    5    0    0  0.64852464724E+01  0.21324405517E+02  0.95822844227E+02  0.98380923802E+02  0.00000000000E+00 0.  1.
          1    1    6    6  503    0 -0.25247341479E+02 -0.13833684333E+03 -0.33710539717E+02  0.14460605438E+03  0.00000000000E+00 0. -1.
         -1    1    6    6    0  503 -0.95614165383E+02 -0.79880971431E+02 -0.18481038757E+02  0.12595470222E+03  0.00000000000E+00 0.  1.
<mgrwt>
<rscale>  0 0.13391534E+04</rscale>
<asrwt>0</asrwt>
<pdfrwt beam="1">  1        1 0.61715058E-01 0.13391534E+04</pdfrwt>
<pdfrwt beam="2">  1       -2 0.17194232E+00 0.13391534E+04</pdfrwt>
<totfact> 0.10551681E+01</totfact>
</mgrwt>
</event>
<event>
12    4  0.4398275E-008  0.1640010E+04  0.7818608E-02  0.8796338E-01
         -2   -1    0    0    0  501 -0.00000000000E+00  0.00000000000E+00  0.11947445861E+04  0.11947445861E+04  0.00000000000E+00 0.  1.
          1   -1    0    0  501    0  0.00000000000E+00 -0.00000000000E+00 -0.56280528452E+03  0.56280528452E+03  0.00000000000E+00 0. -1.
        -24    2    1    2    0    0  0.33954537655E+03 -0.19397121301E+03 -0.21221858392E+03  0.45272356036E+03  0.83701855037E+02 0.  0.
        254    2    1    2    0    0 -0.33954537655E+03  0.19397121301E+03  0.84415788546E+03  0.13048263102E+04  0.91490615368E+03 0.  0.
         23    2    4    4    0    0  0.10651492072E+03 -0.24649035411E+03  0.51347879802E+02  0.28958017215E+03  0.95483759542E+02 0.  0.
         23    2    4    4    0    0 -0.44606029727E+03  0.44046156712E+03  0.79281000566E+03  0.10152461381E+04  0.95920982456E+02 0.  0.
          1    1    3    3  502    0  0.25284363292E+03 -0.99611362680E+02 -0.14440698495E+03  0.30774291801E+03  0.00000000000E+00 0. -1.
         -2    1    3    3    0  502  0.86701743627E+02 -0.94359850332E+02 -0.67811598974E+02  0.14498064236E+03  0.00000000000E+00 0.  1.
         11    1    5    5    0    0  0.82108162414E+02 -0.88630343170E+02 -0.29897437553E+01  0.12085539555E+03  0.00000000000E+00 0. -1.
        -11    1    5    5    0    0  0.24406758308E+02 -0.15786001094E+03  0.54337623557E+02  0.16872477660E+03  0.00000000000E+00 0.  1.
          3    1    6    6  503    0 -0.21499025868E+03  0.15313402388E+03  0.36557395276E+03  0.45090481871E+03  0.00000000000E+00 0. -1.
         -3    1    6    6    0  503 -0.23107003859E+03  0.28732754325E+03  0.42723605289E+03  0.56434131936E+03  0.00000000000E+00 0.  1.
<mgrwt>
<rscale>  0 0.16400104E+04</rscale>
<asrwt>0</asrwt>
<pdfrwt beam="1">  1        1 0.86585429E-01 0.16400104E+04</pdfrwt>
<pdfrwt beam="2">  1       -2 0.18380686E+00 0.16400104E+04</pdfrwt>
<totfact> 0.53592483E+00</totfact>
</mgrwt>
</event>
<event>
12    4  0.4398275E-008  0.1542156E+04  0.7818608E-02  0.8856894E-01
          1   -1    0    0  501    0  0.00000000000E+00  0.00000000000E+00  0.32261427184E+04  0.32261427184E+04  0.00000000000E+00 0. -1.
         -2   -1    0    0    0  501 -0.00000000000E+00 -0.00000000000E+00 -0.18429471972E+03  0.18429471972E+03  0.00000000000E+00 0.  1.
        -24    2    1    2    0    0 -0.46495277399E+03 -0.81610751463E+02  0.59493573944E+03  0.76485479965E+03  0.90625237625E+02 0.  0.
        254    2    1    2    0    0  0.46495277399E+03  0.81610751463E+02  0.24469122592E+04  0.26455826384E+04  0.88819282574E+03 0.  0.
         23    2    4    4    0    0  0.12256757442E+02  0.23089687395E+03  0.18902526404E+04  0.19069850498E+04  0.10036603603E+03 0.  0.
         23    2    4    4    0    0  0.45269601655E+03 -0.14928612248E+03  0.55665961882E+03  0.73859758863E+03  0.91850078558E+02 0.  0.
          1    1    3    3  502    0 -0.78979475892E+02  0.16973729679E+02  0.12447515493E+03  0.14839113621E+03  0.00000000000E+00 0. -1.
         -2    1    3    3    0  502 -0.38597329810E+03 -0.98584481142E+02  0.47046058451E+03  0.61646366344E+03  0.00000000000E+00 0.  1.
         11    1    5    5    0    0  0.62066068985E+01 -0.88095049303E+01  0.13508163801E+03  0.13551080500E+03  0.00000000000E+00 0. -1.
        -11    1    5    5    0    0  0.60501505432E+01  0.23970637888E+03  0.17551710024E+04  0.17714742448E+04  0.00000000000E+00 0.  1.
          1    1    6    6  503    0  0.25158393956E+03 -0.88998904682E+02  0.24153570030E+03  0.35993718646E+03  0.00000000000E+00 0. -1.
         -1    1    6    6    0  503  0.20111207699E+03 -0.60287217801E+02  0.31512391853E+03  0.37866040216E+03  0.00000000000E+00 0.  1.
<mgrwt>
<rscale>  0 0.15421557E+04</rscale>
<asrwt>0</asrwt>
<pdfrwt beam="1">  1        1 0.49632961E+00 0.15421557E+04</pdfrwt>
<pdfrwt beam="2">  1       -2 0.28353036E-01 0.15421557E+04</pdfrwt>
<totfact> 0.39479716E+00</totfact>
</mgrwt>
</event>
<event>
12    4  0.4398275E-008  0.2368669E+04  0.7818608E-02  0.8451328E-01
          1   -1    0    0  501    0  0.00000000000E+00  0.00000000000E+00  0.19352991756E+04  0.19352991756E+04  0.00000000000E+00 0. -1.
         -2   -1    0    0    0  501 -0.00000000000E+00 -0.00000000000E+00 -0.72477050746E+03  0.72477050746E+03  0.00000000000E+00 0.  1.
        -24    2    1    2    0    0 -0.45692801512E+03  0.75439629981E+03  0.10744831385E+04  0.13924002858E+04  0.79796946961E+02 0.  0.
        254    2    1    2    0    0  0.45692801512E+03 -0.75439629981E+03  0.13604552962E+03  0.12676693973E+04  0.90032234588E+03 0.  0.
         23    2    4    4    0    0  0.34503960706E+02  0.13598115205E+03  0.21656484385E+03  0.27475155868E+03  0.94375263644E+02 0.  0.
         23    2    4    4    0    0  0.42242405442E+03 -0.89037745187E+03 -0.80519314228E+02  0.99291783859E+03  0.90489699389E+02 0.  0.
          3    1    3    3  502    0 -0.41838145837E+03  0.72185696790E+03  0.10261609740E+04  0.13225456027E+04  0.00000000000E+00 0. -1.
         -4    1    3    3    0  502 -0.38546556757E+02  0.32539331914E+02  0.48322164568E+02  0.69854683077E+02  0.00000000000E+00 0.  1.
         11    1    5    5    0    0 -0.18880410585E+02  0.83958285606E+02  0.15815824876E+03  0.18005414541E+03  0.00000000000E+00 0.  1.
        -11    1    5    5    0    0  0.53384371291E+02  0.52022866448E+02  0.58406595087E+02  0.94697413276E+02  0.00000000000E+00 0. -1.
          1    1    6    6  503    0  0.84927508043E+02 -0.20778063249E+03 -0.54554781787E+02  0.23100150881E+03  0.00000000000E+00 0. -1.
         -1    1    6    6    0  503  0.33749654637E+03 -0.68259681938E+03 -0.25964532442E+02  0.76191632978E+03  0.00000000000E+00 0.  1.
<mgrwt>
<rscale>  0 0.23686686E+04</rscale>
<asrwt>0</asrwt>
<pdfrwt beam="1">  1        1 0.29773833E+00 0.23686686E+04</pdfrwt>
<pdfrwt beam="2">  1       -2 0.11150316E+00 0.23686686E+04</pdfrwt>
<totfact> 0.16546267E+00</totfact>
</mgrwt>
</event>
<event>
12    4  0.4398275E-008  0.1574890E+04  0.7818608E-02  0.8836124E-01
         -2   -1    0    0    0  501 -0.00000000000E+00  0.00000000000E+00  0.24172847259E+03  0.24172847259E+03  0.00000000000E+00 0.  1.
          1   -1    0    0  501    0  0.00000000000E+00 -0.00000000000E+00 -0.25651497409E+04  0.25651497409E+04  0.00000000000E+00 0. -1.
        -24    2    1    2    0    0 -0.43863015510E+03  0.18776044972E+02 -0.28453810690E+03  0.52956054880E+03  0.81996876411E+02 0.  0.
        254    2    1    2    0    0  0.43863015510E+03 -0.18776044972E+02 -0.20388831614E+04  0.22773176647E+04  0.91453936340E+03 0.  0.
         23    2    4    4    0    0 -0.82749818384E+02 -0.25290100843E+03 -0.18912387869E+03  0.33909636761E+03  0.91717242272E+02 0.  0.
         23    2    4    4    0    0  0.52137997348E+03  0.23412496346E+03 -0.18497592827E+04  0.19382212971E+04  0.91873919848E+02 0.  0.
          1    1    3    3  502    0 -0.18337902262E+03  0.13826073608E+02 -0.16736422419E+03  0.24865600694E+03  0.00000000000E+00 0. -1.
         -2    1    3    3    0  502 -0.25525113248E+03  0.49499713638E+01 -0.11717388271E+03  0.28090454186E+03  0.00000000000E+00 0.  1.
         11    1    5    5    0    0 -0.18230553317E+02 -0.89512534280E+02 -0.16537197519E+02  0.92834938300E+02  0.00000000000E+00 0.  1.
        -11    1    5    5    0    0 -0.64519265067E+02 -0.16338847415E+03 -0.17258668117E+03  0.24626142931E+03  0.00000000000E+00 0. -1.
          3    1    6    6  503    0  0.16776888930E+03  0.82571940824E+02 -0.47001523451E+03  0.50584468594E+03  0.00000000000E+00 0. -1.
         -3    1    6    6    0  503  0.35361108418E+03  0.15155302264E+03 -0.13797440482E+04  0.14323766111E+04  0.00000000000E+00 0.  1.
<mgrwt>
<rscale>  0 0.15748901E+04</rscale>
<asrwt>0</asrwt>
<pdfrwt beam="1">  1        1 0.39463842E+00 0.15748901E+04</pdfrwt>
<pdfrwt beam="2">  1       -2 0.37188996E-01 0.15748901E+04</pdfrwt>
<totfact> 0.70409675E+00</totfact>
</mgrwt>
</event>
<event>
12    4  0.4398275E-008  0.3975901E+04  0.7818608E-02  0.8009426E-01
          1   -1    0    0  501    0  0.00000000000E+00  0.00000000000E+00  0.35211102686E+04  0.35211102686E+04  0.00000000000E+00 0. -1.
         -2   -1    0    0    0  501 -0.00000000000E+00 -0.00000000000E+00 -0.11223582006E+04  0.11223582006E+04  0.00000000000E+00 0.  1.
        -24    2    1    2    0    0 -0.16528563213E+04 -0.60170806691E+03  0.33781534632E+03  0.17929010424E+04  0.79926986730E+02 0.  0.
        254    2    1    2    0    0  0.16528563213E+04  0.60170806691E+03  0.20609367217E+04  0.28505674267E+04  0.88560028620E+03 0.  0.
         23    2    4    4    0    0  0.14816570538E+04  0.62060729592E+03  0.13094900939E+04  0.20743396475E+04  0.87519292055E+02 0.  0.
         23    2    4    4    0    0  0.17119926752E+03 -0.18899229008E+02  0.75144662771E+03  0.77622777917E+03  0.90505031879E+02 0.  0.
          3    1    3    3  502    0 -0.40833120462E+03 -0.11705600313E+03  0.64287770319E+02  0.42961540702E+03  0.00000000000E+00 0. -1.
         -4    1    3    3    0  502 -0.12445251167E+04 -0.48465206378E+03  0.27352757600E+03  0.13632856354E+04  0.00000000000E+00 0.  1.
         11    1    5    5    0    0  0.65364336707E+03  0.30941805952E+03  0.62592710986E+03  0.95643814945E+03  0.00000000000E+00 0.  1.
        -11    1    5    5    0    0  0.82801368670E+03  0.31118923640E+03  0.68356298408E+03  0.11179014981E+04  0.00000000000E+00 0. -1.
          1    1    6    6  503    0  0.35489417303E+01  0.13968608414E+02  0.17554378819E+02  0.22712842714E+02  0.00000000000E+00 0. -1.
         -1    1    6    6    0  503  0.16765032579E+03 -0.32867837422E+02  0.73389224889E+03  0.75351493645E+03  0.00000000000E+00 0.  1.
<mgrwt>
<rscale>  0 0.39759009E+04</rscale>
<asrwt>0</asrwt>
<pdfrwt beam="1">  1        1 0.54170927E+00 0.39759009E+04</pdfrwt>
<pdfrwt beam="2">  1       -2 0.17267049E+00 0.39759009E+04</pdfrwt>
<totfact> 0.33849936E-02</totfact>
</mgrwt>
</event>
<event>
12    4  0.4398275E-008  0.1938038E+04  0.7818608E-02  0.8636151E-01
          1   -1    0    0  501    0  0.00000000000E+00  0.00000000000E+00  0.23450071538E+04  0.23450071538E+04  0.00000000000E+00 0. -1.
         -2   -1    0    0    0  501 -0.00000000000E+00 -0.00000000000E+00 -0.40042444804E+03  0.40042444804E+03  0.00000000000E+00 0.  1.
        -24    2    1    2    0    0 -0.23285108820E+02  0.40844017750E+02 -0.30650178607E+03  0.31993952005E+03  0.78787826159E+02 0.  0.
        254    2    1    2    0    0  0.23285108820E+02 -0.40844017750E+02  0.22510844918E+04  0.24254920818E+04  0.90189800943E+03 0.  0.
         23    2    4    4    0    0 -0.15245071129E+03 -0.31375533663E+03  0.37755817444E+03  0.52196635794E+03  0.90637040443E+02 0.  0.
         23    2    4    4    0    0  0.17573582011E+03  0.27291131888E+03  0.18735263173E+04  0.19035257238E+04  0.89138392323E+02 0.  0.
          1    1    3    3  502    0  0.13653161832E+02  0.51282797969E+02 -0.19035836997E+03  0.19761741627E+03  0.00000000000E+00 0. -1.
         -2    1    3    3    0  502 -0.36938270653E+02 -0.10438780219E+02 -0.11614341609E+03  0.12232210378E+03  0.00000000000E+00 0.  1.
         11    1    5    5    0    0 -0.93071574673E+02 -0.26710486574E+03  0.31948114708E+03  0.42670309426E+03  0.00000000000E+00 0.  1.
        -11    1    5    5    0    0 -0.59379136621E+02 -0.46650470888E+02  0.58077027365E+02  0.95263263683E+02  0.00000000000E+00 0. -1.
          1    1    6    6  503    0  0.13980745886E+03  0.22768472459E+03  0.16938687136E+04  0.17148112661E+04  0.00000000000E+00 0. -1.
         -1    1    6    6    0  503  0.35928361257E+02  0.45226594285E+02  0.17965760374E+03  0.18871445773E+03  0.00000000000E+00 0.  1.
<mgrwt>
<rscale>  0 0.19380384E+04</rscale>
<asrwt>0</asrwt>
<pdfrwt beam="1">  1        1 0.36077032E+00 0.19380384E+04</pdfrwt>
<pdfrwt beam="2">  1       -2 0.61603763E-01 0.19380384E+04</pdfrwt>
<totfact> 0.34784185E+00</totfact>
</mgrwt>
</event>
<event>
12    4  0.4398275E-008  0.1135417E+04  0.7818608E-02  0.9171343E-01
         -2   -1    0    0    0  501 -0.00000000000E+00  0.00000000000E+00  0.21769445745E+03  0.21769445745E+03  0.00000000000E+00 0.  1.
          1   -1    0    0  501    0  0.00000000000E+00 -0.00000000000E+00 -0.14804841546E+04  0.14804841546E+04  0.00000000000E+00 0. -1.
        -24    2    1    2    0    0  0.12931495547E+03 -0.97293389023E+02 -0.46433660041E+02  0.18635184522E+03  0.79890951771E+02 0.  0.
        254    2    1    2    0    0 -0.12931495547E+03  0.97293389023E+02 -0.12163560371E+04  0.15118267668E+04  0.88312502096E+03 0.  0.
         23    2    4    4    0    0  0.37130259912E+03  0.30201354491E+02 -0.56547946797E+03  0.68279907965E+03  0.87577466009E+02 0.  0.
         23    2    4    4    0    0 -0.50061755459E+03  0.67092034531E+02 -0.65087656913E+03  0.82902768718E+03  0.92343493553E+02 0.  0.
          3    1    3    3  502    0 -0.24078474839E+01 -0.30131918128E+02 -0.19746524387E+02  0.36106169071E+02  0.00000000000E+00 0. -1.
         -2    1    3    3    0  502  0.13172280296E+03 -0.67161470894E+02 -0.26687135655E+02  0.15024567615E+03  0.00000000000E+00 0.  1.
         11    1    5    5    0    0  0.30562544620E+03  0.57840927382E+02 -0.44791096319E+03  0.54532258085E+03  0.00000000000E+00 0.  1.
        -11    1    5    5    0    0  0.65677152917E+02 -0.27639572890E+02 -0.11756850478E+03  0.13747649880E+03  0.00000000000E+00 0. -1.
          1    1    6    6  503    0 -0.22467788694E+02  0.10602325875E+02 -0.71565595215E+02  0.75755166565E+02  0.00000000000E+00 0. -1.
         -1    1    6    6    0  503 -0.47814976590E+03  0.56489708656E+02 -0.57931097391E+03  0.75327252061E+03  0.00000000000E+00 0.  1.
<mgrwt>
<rscale>  0 0.11354174E+04</rscale>
<asrwt>0</asrwt>
<pdfrwt beam="1">  1        1 0.22776680E+00 0.11354174E+04</pdfrwt>
<pdfrwt beam="2">  1       -2 0.33491455E-01 0.11354174E+04</pdfrwt>
<totfact> 0.49051389E+01</totfact>
</mgrwt>
</event>
<event>
12    4  0.4398275E-008  0.1550126E+04  0.7818608E-02  0.8851787E-01
          1   -1    0    0  501    0  0.00000000000E+00  0.00000000000E+00  0.19219084305E+04  0.19219084305E+04  0.00000000000E+00 0. -1.
         -2   -1    0    0    0  501 -0.00000000000E+00 -0.00000000000E+00 -0.31256583238E+03  0.31256583238E+03  0.00000000000E+00 0.  1.
        -24    2    1    2    0    0  0.11136379952E+03  0.85923951809E+02  0.12505796660E+04  0.12609693367E+04  0.79431390741E+02 0.  0.
        254    2    1    2    0    0 -0.11136379952E+03 -0.85923951809E+02  0.35876293212E+03  0.97350492615E+03  0.89398891405E+03 0.  0.
         23    2    4    4    0    0 -0.46808733214E+03  0.21253810130E+02  0.34641739364E+03  0.58970703784E+03  0.90509142657E+02 0.  0.
         23    2    4    4    0    0  0.35672353262E+03 -0.10717776194E+03  0.12345538477E+02  0.38379788831E+03  0.91704173136E+02 0.  0.
          3    1    3    3  502    0  0.20309161777E+02  0.61738493031E+02  0.40883914723E+03  0.41397288786E+03  0.00000000000E+00 0. -1.
         -4    1    3    3    0  502  0.91054637746E+02  0.24185458779E+02  0.84174051874E+03  0.84699644885E+03  0.00000000000E+00 0.  1.
         11    1    5    5    0    0 -0.31126553015E+03 -0.20157945398E+02  0.19525358820E+03  0.36798985955E+03  0.00000000000E+00 0.  1.
        -11    1    5    5    0    0 -0.15682180199E+03  0.41411755529E+02  0.15116380545E+03  0.22171717830E+03  0.00000000000E+00 0. -1.
          1    1    6    6  503    0  0.32349079959E+03 -0.10848405802E+03  0.35846220188E+02  0.34307439392E+03  0.00000000000E+00 0. -1.
         -1    1    6    6    0  503  0.33232733030E+02  0.13062960803E+01 -0.23500681711E+02  0.40723494386E+02  0.00000000000E+00 0.  1.
<mgrwt>
<rscale>  0 0.15501263E+04</rscale>
<asrwt>0</asrwt>
<pdfrwt beam="1">  1        1 0.29567821E+00 0.15501263E+04</pdfrwt>
<pdfrwt beam="2">  1       -2 0.48087052E-01 0.15501263E+04</pdfrwt>
<totfact> 0.11670605E+01</totfact>
</mgrwt>
</event>
<event>
12    4  0.4398275E-008  0.2217433E+04  0.7818608E-02  0.8511207E-01
          1   -1    0    0  501    0  0.00000000000E+00  0.00000000000E+00  0.12504737647E+04  0.12504737647E+04  0.00000000000E+00 0. -1.
         -2   -1    0    0    0  501 -0.00000000000E+00 -0.00000000000E+00 -0.98302907652E+03  0.98302907652E+03  0.00000000000E+00 0.  1.
        -24    2    1    2    0    0  0.73243157834E+03 -0.31298975720E+03  0.57846579119E+03  0.98771794492E+03  0.80904030083E+02 0.  0.
        254    2    1    2    0    0 -0.73243157834E+03  0.31298975720E+03 -0.31102110301E+03  0.12457848963E+04  0.90599518557E+03 0.  0.
         23    2    4    4    0    0 -0.61518371066E+03  0.25387244847E+03 -0.60962027640E+03  0.90703795840E+03  0.90436489527E+02 0.  0.
         23    2    4    4    0    0 -0.11724786768E+03  0.59117308724E+02  0.29859917338E+03  0.33874693790E+03  0.91357008065E+02 0.  0.
          1    1    3    3  502    0  0.37398081083E+03 -0.17099238744E+03  0.34670227723E+03  0.53786848994E+03  0.00000000000E+00 0. -1.
         -2    1    3    3    0  502  0.35845076750E+03 -0.14199736976E+03  0.23176351396E+03  0.44984945498E+03  0.00000000000E+00 0.  1.
         11    1    5    5    0    0 -0.31319035543E+03  0.12266574289E+03 -0.24749035075E+03  0.41759616489E+03  0.00000000000E+00 0. -1.
        -11    1    5    5    0    0 -0.30199335522E+03  0.13120670558E+03 -0.36212992565E+03  0.48944179351E+03  0.00000000000E+00 0.  1.
          2    1    6    6  503    0  0.11996485931E+02 -0.32319448463E+01  0.51738454620E+02  0.53209292691E+02  0.00000000000E+00 0. -1.
         -2    1    6    6    0  503 -0.12924435361E+03  0.62349253571E+02  0.24686071876E+03  0.28553764521E+03  0.00000000000E+00 0.  1.
<mgrwt>
<rscale>  0 0.22174328E+04</rscale>
<asrwt>0</asrwt>
<pdfrwt beam="1">  1        1 0.19238058E+00 0.22174328E+04</pdfrwt>
<pdfrwt beam="2">  1       -2 0.15123524E+00 0.22174328E+04</pdfrwt>
<totfact> 0.22992665E+00</totfact>
</mgrwt>
</event>
<event>
12    4  0.4398275E-008  0.1656197E+04  0.7818608E-02  0.8786749E-01
          1   -1    0    0  501    0  0.00000000000E+00  0.00000000000E+00  0.54188161368E+03  0.54188161368E+03  0.00000000000E+00 0. -1.
         -2   -1    0    0    0  501 -0.00000000000E+00 -0.00000000000E+00 -0.12654921212E+04  0.12654921212E+04  0.00000000000E+00 0.  1.
        -24    2    1    2    0    0  0.17971705150E+02 -0.33773073127E+03  0.25722904980E+03  0.43278403887E+03  0.82159668977E+02 0.  0.
        254    2    1    2    0    0 -0.17971705150E+02  0.33773073127E+03 -0.98083955735E+03  0.13745896960E+04  0.90170148395E+03 0.  0.
         23    2    4    4    0    0 -0.11504293030E+02 -0.36979732598E+02  0.14805574746E+03  0.18166788849E+03  0.97892124161E+02 0.  0.
         23    2    4    4    0    0 -0.64674121199E+01  0.37471046387E+03 -0.11288953048E+04  0.11929218076E+04  0.90598402609E+02 0.  0.
          1    1    3    3  502    0  0.37376979924E+01 -0.32808749556E+03  0.25478884522E+03  0.41541874148E+03  0.00000000000E+00 0. -1.
         -2    1    3    3    0  502  0.14234007158E+02 -0.96432357167E+01  0.24402045766E+01  0.17365297384E+02  0.00000000000E+00 0.  1.
         11    1    5    5    0    0 -0.33065505917E+02 -0.46841371674E+02  0.37296359907E+02  0.68399270787E+02  0.00000000000E+00 0. -1.
        -11    1    5    5    0    0  0.21561212887E+02  0.98616390752E+01  0.11075938755E+03  0.11326861770E+03  0.00000000000E+00 0.  1.
          2    1    6    6  503    0  0.62280618974E+01  0.24652017730E+03 -0.86176877367E+03  0.89635729809E+03  0.00000000000E+00 0.  1.
         -2    1    6    6    0  503 -0.12695474017E+02  0.12819028657E+03 -0.26712653114E+03  0.29656450946E+03  0.00000000000E+00 0. -1.
<mgrwt>
<rscale>  0 0.16561967E+04</rscale>
<asrwt>0</asrwt>
<pdfrwt beam="1">  1        1 0.83366403E-01 0.16561967E+04</pdfrwt>
<pdfrwt beam="2">  1       -2 0.19469109E+00 0.16561967E+04</pdfrwt>
<totfact> 0.47694863E+00</totfact>
</mgrwt>
</event>
<event>
12    4  0.4398275E-008  0.2361163E+04  0.7818608E-02  0.8454188E-01
          3   -1    0    0  501    0  0.00000000000E+00  0.00000000000E+00  0.43917454104E+04  0.43917454104E+04  0.00000000000E+00 0. -1.
         -4   -1    0    0    0  501 -0.00000000000E+00 -0.00000000000E+00 -0.31736193674E+03  0.31736193674E+03  0.00000000000E+00 0.  1.
        -24    2    1    2    0    0  0.90846189344E+03 -0.31215029187E+03  0.11537320896E+04  0.15034135592E+04  0.80086071634E+02 0.  0.
        254    2    1    2    0    0 -0.90846189344E+03  0.31215029187E+03  0.29206513840E+04  0.32056937879E+04  0.90748407052E+03 0.  0.
         23    2    4    4    0    0 -0.26953434442E+02  0.41448539640E+03  0.10509280897E+04  0.11337810038E+04  0.92113426196E+02 0.  0.
         23    2    4    4    0    0 -0.88150845900E+03 -0.10233510453E+03  0.18697232943E+04  0.20719127841E+04  0.97096605983E+02 0.  0.
          3    1    3    3  502    0  0.62539596301E+03 -0.19336027483E+03  0.83322315901E+03  0.10596080120E+04  0.00000000000E+00 0. -1.
         -4    1    3    3    0  502  0.28306593043E+03 -0.11879001704E+03  0.32050893059E+03  0.44380554718E+03  0.00000000000E+00 0.  1.
         11    1    5    5    0    0 -0.71102895747E+01  0.39930381843E+03  0.10060134247E+04  0.10823849159E+04  0.00000000000E+00 0.  1.
        -11    1    5    5    0    0 -0.19843144868E+02  0.15181577970E+02  0.44914665062E+02  0.51396087842E+02  0.00000000000E+00 0. -1.
          3    1    6    6  503    0 -0.39860194624E+03 -0.53169223612E+02  0.95921946452E+03  0.10401021387E+04  0.00000000000E+00 0. -1.
         -3    1    6    6    0  503 -0.48290651276E+03 -0.49165880914E+02  0.91050382980E+03  0.10318106454E+04  0.00000000000E+00 0.  1.
<mgrwt>
<rscale>  0 0.23611631E+04</rscale>
<asrwt>0</asrwt>
<pdfrwt beam="1">  1        3 0.67565310E+00 0.23611631E+04</pdfrwt>
<pdfrwt beam="2">  1       -4 0.48824917E-01 0.23611631E+04</pdfrwt>
<totfact> 0.38592514E-03</totfact>
</mgrwt>
</event>
<event>
12    4  0.4398275E-008  0.1551519E+04  0.7818608E-02  0.8850898E-01
          1   -1    0    0  501    0  0.00000000000E+00  0.00000000000E+00  0.54924209247E+03  0.54924209247E+03  0.00000000000E+00 0. -1.
         -2   -1    0    0    0  501 -0.00000000000E+00 -0.00000000000E+00 -0.10956965185E+04  0.10956965185E+04  0.00000000000E+00 0.  1.
        -24    2    1    2    0    0  0.30603271227E+03  0.37541799954E+03 -0.11071941989E+02  0.49080529384E+03  0.78565598102E+02 0.  0.
        254    2    1    2    0    0 -0.30603271227E+03 -0.37541799954E+03 -0.53538248403E+03  0.11541333171E+04  0.90044134409E+03 0.  0.
         23    2    4    4    0    0 -0.43282342601E+03 -0.55426891293E+03 -0.57552179474E+03  0.91328035843E+03  0.91134685652E+02 0.  0.
         23    2    4    4    0    0  0.12679071374E+03  0.17885091339E+03  0.40139310710E+02  0.24085295870E+03  0.91298680934E+02 0.  0.
          1    1    3    3  502    0  0.19975211987E+03  0.25918210293E+03  0.28336068170E+02  0.32844969879E+03  0.00000000000E+00 0. -1.
         -2    1    3    3    0  502  0.10628059240E+03  0.11623589660E+03 -0.39408010159E+02  0.16235559505E+03  0.00000000000E+00 0.  1.
         11    1    5    5    0    0 -0.39401253346E+03 -0.53785495799E+03 -0.53538565792E+03  0.85508574720E+03  0.00000000000E+00 0.  1.
        -11    1    5    5    0    0 -0.38810892554E+02 -0.16413954941E+02 -0.40136136819E+02  0.58194611232E+02  0.00000000000E+00 0. -1.
          1    1    6    6  503    0  0.98460708353E+01  0.31386663907E+02  0.41101144877E+02  0.52643821026E+02  0.00000000000E+00 0. -1.
         -1    1    6    6    0  503  0.11694464290E+03  0.14746424948E+03 -0.96183416699E+00  0.18820913767E+03  0.00000000000E+00 0.  1.
<mgrwt>
<rscale>  0 0.15515188E+04</rscale>
<asrwt>0</asrwt>
<pdfrwt beam="1">  1        1 0.84498783E-01 0.15515188E+04</pdfrwt>
<pdfrwt beam="2">  1       -2 0.16856870E+00 0.15515188E+04</pdfrwt>
<totfact> 0.71414861E+00</totfact>
</mgrwt>
</event>
<event>
12    4  0.4398275E-008  0.2389203E+04  0.7818608E-02  0.8443557E-01
          1   -1    0    0  501    0  0.00000000000E+00  0.00000000000E+00  0.17903465492E+04  0.17903465492E+04  0.00000000000E+00 0. -1.
         -2   -1    0    0    0  501 -0.00000000000E+00 -0.00000000000E+00 -0.79709332819E+03  0.79709332819E+03  0.00000000000E+00 0.  1.
        -24    2    1    2    0    0 -0.77400289908E+03 -0.11644877955E+03  0.11393726226E+04  0.13845797818E+04  0.79059426655E+02 0.  0.
        254    2    1    2    0    0  0.77400289908E+03  0.11644877955E+03 -0.14611940159E+03  0.12028600956E+04  0.90159898185E+03 0.  0.
         23    2    4    4    0    0  0.62930145369E+03 -0.19921811204E+03 -0.38524151009E+03  0.76985793944E+03  0.92531346228E+02 0.  0.
         23    2    4    4    0    0  0.14470144539E+03  0.31566689159E+03  0.23912210850E+03  0.43300215618E+03  0.98627530341E+02 0.  0.
          1    1    3    3  502    0 -0.64615077303E+03 -0.80533233712E+02  0.98720740335E+03  0.11826135804E+04  0.00000000000E+00 0. -1.
         -2    1    3    3    0  502 -0.12785212604E+03 -0.35915545835E+02  0.15216521927E+03  0.20196620143E+03  0.00000000000E+00 0.  1.
         11    1    5    5    0    0  0.31175339863E+02 -0.31739724744E+02 -0.16092512972E+02  0.47310473641E+02  0.00000000000E+00 0. -1.
        -11    1    5    5    0    0  0.59812611383E+03 -0.16747838729E+03 -0.36914899712E+03  0.72254746580E+03  0.00000000000E+00 0.  1.
          4    1    6    6  503    0  0.27606575357E+02  0.17512333315E+03  0.13182712130E+03  0.22092689906E+03  0.00000000000E+00 0. -1.
         -4    1    6    6    0  503  0.11709487003E+03  0.14054355843E+03  0.10729498721E+03  0.21207525712E+03  0.00000000000E+00 0.  1.
<mgrwt>
<rscale>  0 0.23892035E+04</rscale>
<asrwt>0</asrwt>
<pdfrwt beam="1">  1        1 0.27543793E+00 0.23892035E+04</pdfrwt>
<pdfrwt beam="2">  1       -2 0.12262974E+00 0.23892035E+04</pdfrwt>
<totfact> 0.16393858E+00</totfact>
</mgrwt>
</event>
<event>
12    4  0.4398275E-008  0.2501119E+04  0.7818608E-02  0.8402587E-01
         -4   -1    0    0    0  501 -0.00000000000E+00  0.00000000000E+00  0.17555915786E+04  0.17555915786E+04  0.00000000000E+00 0.  1.
          1   -1    0    0  501    0  0.00000000000E+00 -0.00000000000E+00 -0.89081064476E+03  0.89081064476E+03  0.00000000000E+00 0. -1.
        -24    2    1    2    0    0  0.41513600595E+03  0.98541760629E+03  0.57159167233E+03  0.12154452508E+04  0.84878475560E+02 0.  0.
        254    2    1    2    0    0 -0.41513600595E+03 -0.98541760629E+03  0.29318926147E+03  0.14309569725E+04  0.90459502095E+03 0.  0.
         23    2    4    4    0    0  0.80618719839E+02  0.12003209081E+03 -0.29891699908E+02  0.17377853291E+03  0.91642697276E+02 0.  0.
         23    2    4    4    0    0 -0.49575472579E+03 -0.11054496971E+04  0.32308096138E+03  0.12571784396E+04  0.91238919565E+02 0.  0.
          1    1    3    3  502    0  0.77528533528E+02  0.18733117002E+03  0.14722983456E+03  0.25055990294E+03  0.00000000000E+00 0. -1.
         -2    1    3    3    0  502  0.33760747242E+03  0.79808643627E+03  0.42436183777E+03  0.96488534788E+03  0.00000000000E+00 0.  1.
         11    1    5    5    0    0  0.86018120069E+01 -0.10901963554E+02 -0.19560958009E+02  0.23989061203E+02  0.00000000000E+00 0. -1.
        -11    1    5    5    0    0  0.72016907832E+02  0.13093405436E+03 -0.10330741899E+02  0.14978947171E+03  0.00000000000E+00 0.  1.
          4    1    6    6  503    0 -0.28150733697E+02 -0.47101328100E+02 -0.33272335894E+01  0.54973351724E+02  0.00000000000E+00 0. -1.
         -4    1    6    6    0  503 -0.46760399210E+03 -0.10583483690E+04  0.32640819496E+03  0.12022050879E+04  0.00000000000E+00 0.  1.
<mgrwt>
<rscale>  0 0.25011195E+04</rscale>
<asrwt>0</asrwt>
<pdfrwt beam="1">  1        1 0.13704779E+00 0.25011195E+04</pdfrwt>
<pdfrwt beam="2">  1       -4 0.27009101E+00 0.25011195E+04</pdfrwt>
<totfact> 0.37428895E-01</totfact>
</mgrwt>
</event>
<event>
12    4  0.4398275E-008  0.1392450E+04  0.7818608E-02  0.8959302E-01
         -2   -1    0    0    0  501 -0.00000000000E+00  0.00000000000E+00  0.52549512941E+03  0.52549512941E+03  0.00000000000E+00 0.  1.
          1   -1    0    0  501    0  0.00000000000E+00 -0.00000000000E+00 -0.92242344541E+03  0.92242344541E+03  0.00000000000E+00 0. -1.
        -24    2    1    2    0    0  0.72572946462E+02 -0.37185642133E+03 -0.26761913089E+03  0.47090276087E+03  0.81150356359E+02 0.  0.
        254    2    1    2    0    0 -0.72572946462E+02  0.37185642133E+03 -0.12930918511E+03  0.97701581395E+03  0.89123229560E+03 0.  0.
         23    2    4    4    0    0  0.47490850280E+02 -0.81161454035E+02  0.30350686495E+03  0.33247498417E+03  0.97880721016E+02 0.  0.
         23    2    4    4    0    0 -0.12006379674E+03  0.45301787537E+03 -0.43281605006E+03  0.64454082978E+03  0.91992594154E+02 0.  0.
          3    1    3    3  502    0  0.31794753536E+02 -0.31774450661E+03 -0.22850737296E+03  0.39266792246E+03  0.00000000000E+00 0. -1.
         -4    1    3    3    0  502  0.40778192925E+02 -0.54111914724E+02 -0.39111757926E+02  0.78234838412E+02  0.00000000000E+00 0.  1.
         11    1    5    5    0    0  0.15305965506E+02  0.16160287061E+02  0.12208329534E+03  0.12409576326E+03  0.00000000000E+00 0. -1.
        -11    1    5    5    0    0  0.32184884773E+02 -0.97321741096E+02  0.18142356961E+03  0.20837922091E+03  0.00000000000E+00 0.  1.
          3    1    6    6  503    0 -0.73049129671E+02  0.11440996757E+03 -0.12190550180E+03  0.18244661519E+03  0.00000000000E+00 0. -1.
         -3    1    6    6    0  503 -0.47014667070E+02  0.33860790779E+03 -0.31091054826E+03  0.46209421459E+03  0.00000000000E+00 0.  1.
<mgrwt>
<rscale>  0 0.13924497E+04</rscale>
<asrwt>0</asrwt>
<pdfrwt beam="1">  1        1 0.14191130E+00 0.13924497E+04</pdfrwt>
<pdfrwt beam="2">  1       -2 0.80845405E-01 0.13924497E+04</pdfrwt>
<totfact> 0.20139779E+01</totfact>
</mgrwt>
</event>
<event>
12    4  0.4398275E-008  0.1391924E+04  0.7818608E-02  0.8959685E-01
          1   -1    0    0  501    0  0.00000000000E+00  0.00000000000E+00  0.31184940964E+04  0.31184940964E+04  0.00000000000E+00 0. -1.
         -2   -1    0    0    0  501 -0.00000000000E+00 -0.00000000000E+00 -0.15531958197E+03  0.15531958197E+03  0.00000000000E+00 0.  1.
        -24    2    1    2    0    0  0.28398183879E+03  0.12880817413E+03  0.27736413475E+03  0.42494885448E+03  0.80083925923E+02 0.  0.
        254    2    1    2    0    0 -0.28398183879E+03 -0.12880817413E+03  0.26858103796E+04  0.28488648238E+04  0.89733837469E+03 0.  0.
         23    2    4    4    0    0  0.10884924123E+03 -0.35855097260E+03  0.18753979020E+04  0.19148644149E+04  0.95820034806E+02 0.  0.
         23    2    4    4    0    0 -0.39283108002E+03  0.22974279847E+03  0.81041247759E+03  0.93400040897E+03  0.92143199702E+02 0.  0.
          3    1    3    3  502    0  0.45277937363E+02  0.19241509145E+00  0.15134546123E+02  0.47740790963E+02  0.00000000000E+00 0. -1.
         -4    1    3    3    0  502  0.23870390143E+03  0.12861575904E+03  0.26222958863E+03  0.37720806352E+03  0.00000000000E+00 0.  1.
         11    1    5    5    0    0  0.12591312531E+02 -0.10179431214E+03  0.33857940651E+03  0.35377484033E+03  0.00000000000E+00 0.  1.
        -11    1    5    5    0    0  0.96257928695E+02 -0.25675666046E+03  0.15368184955E+04  0.15610895745E+04  0.00000000000E+00 0. -1.
          3    1    6    6  503    0 -0.23090317276E+03  0.85372722026E+02  0.39725961203E+03  0.46735422990E+03  0.00000000000E+00 0. -1.
         -3    1    6    6    0  503 -0.16192790726E+03  0.14437007644E+03  0.41315286556E+03  0.46664617907E+03  0.00000000000E+00 0.  1.
<mgrwt>
<rscale>  0 0.13919241E+04</rscale>
<asrwt>0</asrwt>
<pdfrwt beam="1">  1        1 0.47976827E+00 0.13919241E+04</pdfrwt>
<pdfrwt beam="2">  1       -2 0.23895323E-01 0.13919241E+04</pdfrwt>
<totfact> 0.65841514E+00</totfact>
</mgrwt>
</event>
<event>
12    4  0.4398275E-008  0.1146782E+04  0.7818608E-02  0.9160757E-01
          1   -1    0    0  501    0  0.00000000000E+00  0.00000000000E+00  0.93368426898E+03  0.93368426898E+03  0.00000000000E+00 0. -1.
         -2   -1    0    0    0  501 -0.00000000000E+00 -0.00000000000E+00 -0.35212922131E+03  0.35212922131E+03  0.00000000000E+00 0.  1.
        -24    2    1    2    0    0 -0.10229073449E+03  0.16475815869E+03  0.20145282161E+03  0.28994261128E+03  0.76647461020E+02 0.  0.
        254    2    1    2    0    0  0.10229073449E+03 -0.16475815869E+03  0.38010222606E+03  0.99587087902E+03  0.89981801505E+03 0.  0.
         23    2    4    4    0    0  0.12845566773E+02 -0.29651830392E+03 -0.21215139185E+03  0.37586171579E+03  0.90419595148E+02 0.  0.
         23    2    4    4    0    0  0.89445167712E+02  0.13176014522E+03  0.59225361791E+03  0.62000916323E+03  0.91026593169E+02 0.  0.
          1    1    3    3  502    0 -0.10810785570E+03  0.14600668368E+03  0.15248452444E+03  0.23718513937E+03  0.00000000000E+00 0. -1.
         -2    1    3    3    0  502  0.58171212154E+01  0.18751475016E+02  0.48968297167E+02  0.52757471907E+02  0.00000000000E+00 0.  1.
         11    1    5    5    0    0 -0.26721688113E+02 -0.79983619114E+02 -0.27959580539E+02  0.88843492086E+02  0.00000000000E+00 0. -1.
        -11    1    5    5    0    0  0.39567254886E+02 -0.21653468480E+03 -0.18419181132E+03  0.28701822370E+03  0.00000000000E+00 0.  1.
          3    1    6    6  503    0  0.59393156843E+02  0.15625545354E+02  0.15879593822E+03  0.17025820022E+03  0.00000000000E+00 0. -1.
         -3    1    6    6    0  503  0.30052010869E+02  0.11613459987E+03  0.43345767970E+03  0.44975096301E+03  0.00000000000E+00 0.  1.
<mgrwt>
<rscale>  0 0.11467825E+04</rscale>
<asrwt>0</asrwt>
<pdfrwt beam="1">  1        1 0.14364373E+00 0.11467825E+04</pdfrwt>
<pdfrwt beam="2">  1       -2 0.54173727E-01 0.11467825E+04</pdfrwt>
<totfact> 0.47723244E+01</totfact>
</mgrwt>
</event>
<event>
12    4  0.4909570E-008  0.1914918E+04  0.7818608E-02  0.8647466E-01
         -2   -1    0    0    0  501 -0.00000000000E+00  0.00000000000E+00  0.52388179032E+03  0.52388179032E+03  0.00000000000E+00 0.  1.
          1   -1    0    0  501    0  0.00000000000E+00 -0.00000000000E+00 -0.17498752243E+04  0.17498752243E+04  0.00000000000E+00 0. -1.
        -24    2    1    2    0    0 -0.25815508972E+03 -0.59372912986E+03 -0.90230074856E+03  0.11134369630E+04  0.80230292390E+02 0.  0.
        254    2    1    2    0    0  0.25815508972E+03  0.59372912986E+03 -0.32369268545E+03  0.11603200516E+04  0.90686676948E+03 0.  0.
         23    2    4    4    0    0 -0.43258073324E+02  0.65332511450E+03 -0.46713572053E+03  0.80918803426E+03  0.88682169879E+02 0.  0.
         23    2    4    4    0    0  0.30141316304E+03 -0.59595984646E+02  0.14344303508E+03  0.35113201735E+03  0.91193273085E+02 0.  0.
          1    1    3    3  502    0 -0.18648781866E+03 -0.47854057313E+03 -0.66693751802E+03  0.84177457765E+03  0.00000000000E+00 0. -1.
         -2    1    3    3    0  502 -0.71667271052E+02 -0.11518855672E+03 -0.23536323055E+03  0.27166238539E+03  0.00000000000E+00 0.  1.
         11    1    5    5    0    0  0.46227153301E+01  0.35933339781E+03 -0.29663395353E+03  0.46597592499E+03  0.00000000000E+00 0.  1.
        -11    1    5    5    0    0 -0.47880788654E+02  0.29399171669E+03 -0.17050176700E+03  0.34321210928E+03  0.00000000000E+00 0. -1.
          4    1    6    6  503    0  0.18984308218E+03 -0.41073716065E+02  0.13731020982E+03  0.23786874474E+03  0.00000000000E+00 0.  1.
         -4    1    6    6    0  503  0.11157008086E+03 -0.18522268581E+02  0.61328252576E+01  0.11326327261E+03  0.00000000000E+00 0. -1.
<mgrwt>
<rscale>  0 0.19149180E+04</rscale>
<asrwt>0</asrwt>
<pdfrwt beam="1">  1        1 0.26921157E+00 0.19149180E+04</pdfrwt>
<pdfrwt beam="2">  1       -2 0.80597200E-01 0.19149180E+04</pdfrwt>
<totfact> 0.49142672E+00</totfact>
</mgrwt>
</event>
<event>
12    4  0.4398275E-008  0.1889736E+04  0.7818608E-02  0.8659982E-01
          1   -1    0    0  501    0  0.00000000000E+00  0.00000000000E+00  0.20759966858E+04  0.20759966858E+04  0.00000000000E+00 0. -1.
         -2   -1    0    0    0  501 -0.00000000000E+00 -0.00000000000E+00 -0.43004665046E+03  0.43004665046E+03  0.00000000000E+00 0.  1.
        -24    2    1    2    0    0  0.56030496088E+03 -0.43096325323E+03  0.42957363655E+03  0.83110669652E+03  0.80832276813E+02 0.  0.
        254    2    1    2    0    0 -0.56030496088E+03  0.43096325323E+03  0.12163763988E+04  0.16749366397E+04  0.90893906766E+03 0.  0.
         23    2    4    4    0    0 -0.41079116774E+03 -0.17528105031E+03  0.24562804497E+03  0.51774352917E+03  0.90842696098E+02 0.  0.
         23    2    4    4    0    0 -0.14951379314E+03  0.60624430353E+03  0.97074835380E+03  0.11571931105E+04  0.82806996988E+02 0.  0.
          3    1    3    3  502    0  0.39268024014E+03 -0.28394278334E+03  0.33390561798E+03  0.58848469558E+03  0.00000000000E+00 0. -1.
         -4    1    3    3    0  502  0.16762472073E+03 -0.14702046989E+03  0.95668018566E+02  0.24262200095E+03  0.00000000000E+00 0.  1.
         11    1    5    5    0    0 -0.78164015263E+02 -0.87494493388E+01  0.74305533982E+02  0.10820110224E+03  0.00000000000E+00 0. -1.
        -11    1    5    5    0    0 -0.33262715247E+03 -0.16653160097E+03  0.17132251098E+03  0.40954242693E+03  0.00000000000E+00 0.  1.
          3    1    6    6  503    0 -0.14460733037E+03  0.44213433063E+03  0.73759579621E+03  0.87203302971E+03  0.00000000000E+00 0. -1.
         -3    1    6    6    0  503 -0.49064627677E+01  0.16410997290E+03  0.23315255758E+03  0.28516008081E+03  0.00000000000E+00 0.  1.
<mgrwt>
<rscale>  0 0.18897359E+04</rscale>
<asrwt>0</asrwt>
<pdfrwt beam="1">  1        1 0.31938410E+00 0.18897359E+04</pdfrwt>
<pdfrwt beam="2">  1       -2 0.66161024E-01 0.18897359E+04</pdfrwt>
<totfact> 0.45730097E+00</totfact>
</mgrwt>
</event>
<event>
12    4  0.4398275E-008  0.1187793E+04  0.7818608E-02  0.9123609E-01
          1   -1    0    0  501    0  0.00000000000E+00  0.00000000000E+00  0.21380896349E+03  0.21380896349E+03  0.00000000000E+00 0. -1.
         -2   -1    0    0    0  501 -0.00000000000E+00 -0.00000000000E+00 -0.16496653313E+04  0.16496653313E+04  0.00000000000E+00 0.  1.
        -24    2    1    2    0    0 -0.28012849486E+01  0.20593636877E+03 -0.49908588236E+03  0.54560447017E+03  0.78612242846E+02 0.  0.
        254    2    1    2    0    0  0.28012849486E+01 -0.20593636877E+03 -0.93677048547E+03  0.13178698246E+04  0.90378332417E+03 0.  0.
         23    2    4    4    0    0  0.59475859041E+02  0.11411951804E+03  0.12787196856E+03  0.20097815646E+03  0.86488940469E+02 0.  0.
         23    2    4    4    0    0 -0.56674574093E+02 -0.32005588682E+03 -0.10646424540E+04  0.11168916682E+04  0.91299865640E+02 0.  0.
          3    1    3    3  502    0  0.25961658976E+02  0.12682460972E+03 -0.23333524166E+03  0.26684044740E+03  0.00000000000E+00 0. -1.
         -4    1    3    3    0  502 -0.28762943925E+02  0.79111759056E+02 -0.26575064069E+03  0.27876402277E+03  0.00000000000E+00 0.  1.
         11    1    5    5    0    0 -0.15184961331E+02  0.12435039671E+02  0.47512491448E+02  0.51406712654E+02  0.00000000000E+00 0.  1.
        -11    1    5    5    0    0  0.74660820373E+02  0.10168447837E+03  0.80359477113E+02  0.14957144381E+03  0.00000000000E+00 0. -1.
          3    1    6    6  503    0 -0.50302234350E+02 -0.32168762383E+03 -0.99453992524E+03  0.10464812015E+04  0.00000000000E+00 0. -1.
         -3    1    6    6    0  503 -0.63723397428E+01  0.16317370192E+01 -0.70102528793E+02  0.70410466713E+02  0.00000000000E+00 0.  1.
<mgrwt>
<rscale>  0 0.11877933E+04</rscale>
<asrwt>0</asrwt>
<pdfrwt beam="1">  1        1 0.32893686E-01 0.11877933E+04</pdfrwt>
<pdfrwt beam="2">  1       -2 0.25379467E+00 0.11877933E+04</pdfrwt>
<totfact> 0.71948756E+00</totfact>
</mgrwt>
</event>
<event>
12    4  0.4398275E-008  0.1789603E+04  0.7818608E-02  0.8711848E-01
          1   -1    0    0  501    0  0.00000000000E+00  0.00000000000E+00  0.28937901838E+03  0.28937901838E+03  0.00000000000E+00 0. -1.
         -2   -1    0    0    0  501 -0.00000000000E+00 -0.00000000000E+00 -0.27668559291E+04  0.27668559291E+04  0.00000000000E+00 0.  1.
        -24    2    1    2    0    0  0.64588442400E+03  0.80670098078E+02 -0.12054102316E+04  0.13722733034E+04  0.80285981433E+02 0.  0.
        254    2    1    2    0    0 -0.64588442400E+03 -0.80670098078E+02 -0.12720666791E+04  0.16839616441E+04  0.89101000488E+03 0.  0.
         23    2    4    4    0    0 -0.84392175629E+03 -0.16277639845E+03 -0.92669397590E+03  0.12672337116E+04  0.91757660569E+02 0.  0.
         23    2    4    4    0    0  0.19803733229E+03  0.82106300373E+02 -0.34537270316E+03  0.41672793243E+03  0.91758574765E+02 0.  0.
          3    1    3    3  502    0  0.60837392950E+03  0.82066770437E+02 -0.10908697108E+04  0.12517389979E+04  0.00000000000E+00 0. -1.
         -4    1    3    3    0  502  0.37510494499E+02 -0.13966723599E+01 -0.11454052086E+03  0.12053430553E+03  0.00000000000E+00 0.  1.
         11    1    5    5    0    0 -0.13146215539E+03 -0.23481750114E+02 -0.98667056849E+02  0.16603878762E+03  0.00000000000E+00 0. -1.
        -11    1    5    5    0    0 -0.71245960090E+03 -0.13929464834E+03 -0.82802691905E+03  0.11011949240E+04  0.00000000000E+00 0.  1.
          3    1    6    6  503    0 -0.67512998065E+01 -0.46378646955E+01 -0.35615367332E+01  0.89316505705E+01  0.00000000000E+00 0. -1.
         -3    1    6    6    0  503  0.20478863210E+03  0.86744165069E+02 -0.34181116642E+03  0.40779628186E+03  0.00000000000E+00 0.  1.
<mgrwt>
<rscale>  0 0.17896034E+04</rscale>
<asrwt>0</asrwt>
<pdfrwt beam="1">  1        1 0.44519850E-01 0.17896034E+04</pdfrwt>
<pdfrwt beam="2">  1       -2 0.42567013E+00 0.17896034E+04</pdfrwt>
<totfact> 0.38326440E-01</totfact>
</mgrwt>
</event>
<event>
12    4  0.4398275E-008  0.1378109E+04  0.7818608E-02  0.8969819E-01
          1   -1    0    0  501    0  0.00000000000E+00  0.00000000000E+00  0.60846725450E+03  0.60846725450E+03  0.00000000000E+00 0. -1.
         -2   -1    0    0    0  501 -0.00000000000E+00 -0.00000000000E+00 -0.78031476851E+03  0.78031476851E+03  0.00000000000E+00 0.  1.
        -24    2    1    2    0    0  0.17021583379E+03 -0.35564940620E+03 -0.20345434913E+02  0.40287290985E+03  0.80204205400E+02 0.  0.
        254    2    1    2    0    0 -0.17021583379E+03  0.35564940620E+03 -0.15150207910E+03  0.98590911316E+03  0.89084452585E+03 0.  0.
         23    2    4    4    0    0  0.55707976619E+02  0.49394492375E+03  0.19386208802E+03  0.54121893564E+03  0.90832047031E+02 0.  0.
         23    2    4    4    0    0 -0.22592381041E+03 -0.13829551754E+03 -0.34536416712E+03  0.44469017752E+03  0.91135765564E+02 0.  0.
          3    1    3    3  502    0  0.73097623395E+02 -0.17501084288E+03 -0.48740759114E+02  0.19582573699E+03  0.00000000000E+00 0. -1.
         -4    1    3    3    0  502  0.97118210399E+02 -0.18063856333E+03  0.28395324201E+02  0.20704717286E+03  0.00000000000E+00 0.  1.
         11    1    5    5    0    0  0.33102469459E+02  0.43527237412E+03  0.19553086133E+03  0.47832011341E+03  0.00000000000E+00 0. -1.
        -11    1    5    5    0    0  0.22605507160E+02  0.58672549625E+02 -0.16687733132E+01  0.62898822229E+02  0.00000000000E+00 0.  1.
          1    1    6    6  503    0 -0.18411356748E+03 -0.64834259221E+02 -0.25183227767E+03  0.31862326182E+03  0.00000000000E+00 0. -1.
         -1    1    6    6    0  503 -0.41810242939E+02 -0.73461258323E+02 -0.93531889455E+02  0.12606691570E+03  0.00000000000E+00 0.  1.
<mgrwt>
<rscale>  0 0.13781088E+04</rscale>
<asrwt>0</asrwt>
<pdfrwt beam="1">  1        1 0.93610347E-01 0.13781088E+04</pdfrwt>
<pdfrwt beam="2">  1       -2 0.12004843E+00 0.13781088E+04</pdfrwt>
<totfact> 0.15212581E+01</totfact>
</mgrwt>
</event>
<event>
12    4  0.4398275E-008  0.9167017E+03  0.7818608E-02  0.9404941E-01
          1   -1    0    0  501    0  0.00000000000E+00  0.00000000000E+00  0.19806849932E+04  0.19806849932E+04  0.00000000000E+00 0. -1.
         -2   -1    0    0    0  501 -0.00000000000E+00 -0.00000000000E+00 -0.10606710029E+03  0.10606710029E+03  0.00000000000E+00 0.  1.
        -24    2    1    2    0    0  0.39233237591E+02 -0.78258783843E+02  0.14157642433E+03  0.18444948881E+03  0.79460970391E+02 0.  0.
        254    2    1    2    0    0 -0.39233237591E+02  0.78258783843E+02  0.17330414686E+04  0.19023026047E+04  0.77952471658E+03 0.  0.
         23    2    4    4    0    0 -0.49519646634E+02 -0.33086215159E+03  0.98268780309E+03  0.10423912487E+04  0.94774671381E+02 0.  0.
         23    2    4    4    0    0  0.10286409044E+02  0.40912093543E+03  0.75035366551E+03  0.85991135596E+03  0.94504850388E+02 0.  0.
          1    1    3    3  502    0  0.42618921081E+02 -0.42511982457E+02  0.13518021506E+03  0.14797747001E+03  0.00000000000E+00 0. -1.
         -2    1    3    3    0  502 -0.33856834906E+01 -0.35746801386E+02  0.63962092640E+01  0.36472018795E+02  0.00000000000E+00 0.  1.
         11    1    5    5    0    0 -0.67611693302E+02 -0.15111707351E+03  0.42167568600E+03  0.45301003868E+03  0.00000000000E+00 0.  1.
        -11    1    5    5    0    0  0.18092046667E+02 -0.17974507808E+03  0.56101211709E+03  0.58938121006E+03  0.00000000000E+00 0. -1.
          1    1    6    6  503    0 -0.58264070833E+01  0.38523797127E+03  0.65102714037E+03  0.75649096427E+03  0.00000000000E+00 0. -1.
         -1    1    6    6    0  503  0.16112816127E+02  0.23882964164E+02  0.99326525141E+02  0.10342039169E+03  0.00000000000E+00 0.  1.
<mgrwt>
<rscale>  0 0.91670173E+03</rscale>
<asrwt>0</asrwt>
<pdfrwt beam="1">  1        1 0.30472074E+00 0.91670173E+03</pdfrwt>
<pdfrwt beam="2">  1       -2 0.16318017E-01 0.91670173E+03</pdfrwt>
<totfact> 0.83180437E+01</totfact>
</mgrwt>
</event>
<event>
12    4  0.4398275E-008  0.1881232E+04  0.7818608E-02  0.8664255E-01
         -2   -1    0    0    0  501 -0.00000000000E+00  0.00000000000E+00  0.58835767791E+03  0.58835767791E+03  0.00000000000E+00 0.  1.
          1   -1    0    0  501    0  0.00000000000E+00 -0.00000000000E+00 -0.15037767826E+04  0.15037767826E+04  0.00000000000E+00 0. -1.
        -24    2    1    2    0    0 -0.31042045845E+03 -0.85785440325E+02  0.36058680471E+03  0.48980523686E+03  0.78525941720E+02 0.  0.
        254    2    1    2    0    0  0.31042045845E+03  0.85785440325E+02 -0.12760059094E+04  0.16023292237E+04  0.91408306919E+03 0.  0.
         23    2    4    4    0    0  0.51983784275E+03  0.29319307251E+03 -0.56413343050E+03  0.82624247655E+03  0.90755397238E+02 0.  0.
         23    2    4    4    0    0 -0.20941738430E+03 -0.20740763218E+03 -0.71187247894E+03  0.77608674714E+03  0.93137780139E+02 0.  0.
          3    1    3    3  502    0 -0.17284415301E+03 -0.70734585286E+01  0.18857620596E+03  0.25590256055E+03  0.00000000000E+00 0. -1.
         -4    1    3    3    0  502 -0.13757630544E+03 -0.78711981797E+02  0.17201059876E+03  0.23390267630E+03  0.00000000000E+00 0.  1.
         11    1    5    5    0    0  0.11509085452E+03  0.10148171020E+03 -0.17707030302E+03  0.23430393618E+03  0.00000000000E+00 0. -1.
        -11    1    5    5    0    0  0.40474698823E+03  0.19171136231E+03 -0.38706312748E+03  0.59193854036E+03  0.00000000000E+00 0.  1.
          3    1    6    6  503    0 -0.75943384957E+02 -0.13915832095E+03 -0.34039843535E+03  0.37550436855E+03  0.00000000000E+00 0. -1.
         -3    1    6    6    0  503 -0.13347399934E+03 -0.68249311233E+02 -0.37147404359E+03  0.40058237860E+03  0.00000000000E+00 0.  1.
<mgrwt>
<rscale>  0 0.18812322E+04</rscale>
<asrwt>0</asrwt>
<pdfrwt beam="1">  1        1 0.23135027E+00 0.18812322E+04</pdfrwt>
<pdfrwt beam="2">  1       -2 0.90516567E-01 0.18812322E+04</pdfrwt>
<totfact> 0.55773324E+00</totfact>
</mgrwt>
</event>
<event>
12    4  0.4398275E-008  0.1195134E+04  0.7818608E-02  0.9117126E-01
         -2   -1    0    0    0  501 -0.00000000000E+00  0.00000000000E+00  0.20820238057E+03  0.20820238057E+03  0.00000000000E+00 0.  1.
          1   -1    0    0  501    0  0.00000000000E+00 -0.00000000000E+00 -0.17150935142E+04  0.17150935142E+04  0.00000000000E+00 0. -1.
        -24    2    1    2    0    0 -0.55395368497E+02 -0.20915135753E+03 -0.36585286369E+03  0.43684969254E+03  0.10087813831E+03 0.  0.
        254    2    1    2    0    0  0.55395368497E+02  0.20915135753E+03 -0.11410382699E+04  0.14864462022E+04  0.92776130630E+03 0.  0.
         23    2    4    4    0    0  0.45476955919E+03 -0.44619884181E+02 -0.61297081362E+03  0.76991144561E+03  0.90686987468E+02 0.  0.
         23    2    4    4    0    0 -0.39937419069E+03  0.25377124171E+03 -0.52806745628E+03  0.71653475660E+03  0.10328229141E+03 0.  0.
          1    1    3    3  502    0 -0.29893479726E-01 -0.13185260810E+02 -0.10548314928E+03  0.10630402992E+03  0.00000000000E+00 0. -1.
         -2    1    3    3    0  502 -0.55365475017E+02 -0.19596609672E+03 -0.26036971442E+03  0.33054566261E+03  0.00000000000E+00 0.  1.
         11    1    5    5    0    0  0.40050185614E+00 -0.10142160657E+02 -0.14878860345E+02  0.18011227324E+02  0.00000000000E+00 0. -1.
        -11    1    5    5    0    0  0.45436905734E+03 -0.34477723523E+02 -0.59809195328E+03  0.75190021829E+03  0.00000000000E+00 0.  1.
          3    1    6    6  503    0 -0.55272346103E+02  0.11768918302E+02 -0.10880476281E+03  0.12260512261E+03  0.00000000000E+00 0. -1.
         -3    1    6    6    0  503 -0.34410184459E+03  0.24200232341E+03 -0.41926269347E+03  0.59392963398E+03  0.00000000000E+00 0.  1.
<mgrwt>
<rscale>  0 0.11951344E+04</rscale>
<asrwt>0</asrwt>
<pdfrwt beam="1">  1        1 0.26386054E+00 0.11951344E+04</pdfrwt>
<pdfrwt beam="2">  1       -2 0.32031135E-01 0.11951344E+04</pdfrwt>
<totfact> 0.36688743E+01</totfact>
</mgrwt>
</event>
<event>
12    4  0.4398275E-008  0.1183522E+04  0.7818608E-02  0.9127403E-01
          1   -1    0    0  501    0  0.00000000000E+00  0.00000000000E+00  0.20622074228E+04  0.20622074228E+04  0.00000000000E+00 0. -1.
         -2   -1    0    0    0  501 -0.00000000000E+00 -0.00000000000E+00 -0.16980879996E+03  0.16980879996E+03  0.00000000000E+00 0.  1.
        -24    2    1    2    0    0  0.88187828556E+02  0.21388887712E+02  0.95709110124E+02  0.15292492904E+03  0.77402987922E+02 0.  0.
        254    2    1    2    0    0 -0.88187828556E+02 -0.21388887712E+02  0.17966895127E+04  0.20790912937E+04  0.10422537239E+04 0.  0.
         23    2    4    4    0    0  0.31779724816E+03  0.25531770647E+02  0.12382223415E+03  0.35469155325E+03  0.93953126745E+02 0.  0.
         23    2    4    4    0    0 -0.40598507671E+03 -0.46920658359E+02  0.16728672786E+04  0.17243997405E+04  0.89688921137E+02 0.  0.
          1    1    3    3  502    0  0.87308236854E+02  0.38097777160E+02  0.57636679545E+02  0.11133802439E+03  0.00000000000E+00 0. -1.
         -2    1    3    3    0  502  0.87959170224E+00 -0.16708889448E+02  0.38072430579E+02  0.41586904649E+02  0.00000000000E+00 0.  1.
         11    1    5    5    0    0  0.23292194574E+03 -0.68517844992E+01  0.12375900225E+03  0.26384819574E+03  0.00000000000E+00 0. -1.
        -11    1    5    5    0    0  0.84875302418E+02  0.32383555146E+02  0.63231900425E-01  0.90843357505E+02  0.00000000000E+00 0.  1.
          4    1    6    6  503    0 -0.19961089679E+03 -0.11862639974E+02  0.63913200240E+03  0.66968272251E+03  0.00000000000E+00 0. -1.
         -4    1    6    6    0  503 -0.20637417992E+03 -0.35058018386E+02  0.10337352762E+04  0.10547170180E+04  0.00000000000E+00 0.  1.
<mgrwt>
<rscale>  0 0.11835218E+04</rscale>
<asrwt>0</asrwt>
<pdfrwt beam="1">  1        1 0.31726266E+00 0.11835218E+04</pdfrwt>
<pdfrwt beam="2">  1       -2 0.26124432E-01 0.11835218E+04</pdfrwt>
<totfact> 0.31219085E+01</totfact>
</mgrwt>
</event>
<event>
12    4  0.4398275E-008  0.1259363E+04  0.7818608E-02  0.9062426E-01
         -2   -1    0    0    0  501 -0.00000000000E+00  0.00000000000E+00  0.17055477297E+03  0.17055477297E+03  0.00000000000E+00 0.  1.
          1   -1    0    0  501    0  0.00000000000E+00 -0.00000000000E+00 -0.23247601508E+04  0.23247601508E+04  0.00000000000E+00 0. -1.
        -24    2    1    2    0    0  0.23016580002E+03 -0.18130949700E+03 -0.39576268094E+03  0.49914024137E+03  0.81629968324E+02 0.  0.
        254    2    1    2    0    0 -0.23016580002E+03  0.18130949700E+03 -0.17584426969E+04  0.19961746824E+04  0.89818885277E+03 0.  0.
         23    2    4    4    0    0  0.22898208349E+03  0.30520811777E+03 -0.11653598092E+04  0.12297026728E+04  0.92305953454E+02 0.  0.
         23    2    4    4    0    0 -0.45914788350E+03 -0.12389862078E+03 -0.59308288770E+03  0.76647200956E+03  0.97797661475E+02 0.  0.
          3    1    3    3  502    0  0.62174895993E+02 -0.33679344665E+02 -0.15593340546E+03  0.17121694685E+03  0.00000000000E+00 0. -1.
         -4    1    3    3    0  502  0.16799090402E+03 -0.14763015233E+03 -0.23982927548E+03  0.32792329452E+03  0.00000000000E+00 0.  1.
         11    1    5    5    0    0  0.30402039499E+02  0.73513545451E+02 -0.35472029291E+03  0.36353130755E+03  0.00000000000E+00 0. -1.
        -11    1    5    5    0    0  0.19858004399E+03  0.23169457232E+03 -0.81063951626E+03  0.86617136528E+03  0.00000000000E+00 0.  1.
          1    1    6    6  503    0 -0.56723798431E+02 -0.39419995691E+02 -0.49961887734E+02  0.85250897911E+02  0.00000000000E+00 0. -1.
         -1    1    6    6    0  503 -0.40242408507E+03 -0.84478625087E+02 -0.54312099997E+03  0.68122111164E+03  0.00000000000E+00 0.  1.
<mgrwt>
<rscale>  0 0.12593632E+04</rscale>
<asrwt>0</asrwt>
<pdfrwt beam="1">  1        1 0.35765540E+00 0.12593632E+04</pdfrwt>
<pdfrwt beam="2">  1       -2 0.26239197E-01 0.12593632E+04</pdfrwt>
<totfact> 0.20415484E+01</totfact>
</mgrwt>
</event>
<event>
12    4  0.4398275E-008  0.1754905E+04  0.7818608E-02  0.8730655E-01
         -2   -1    0    0    0  501 -0.00000000000E+00  0.00000000000E+00  0.39527111212E+03  0.39527111212E+03  0.00000000000E+00 0.  1.
          1   -1    0    0  501    0  0.00000000000E+00 -0.00000000000E+00 -0.19478359885E+04  0.19478359885E+04  0.00000000000E+00 0. -1.
        -24    2    1    2    0    0  0.55049910721E+02  0.20078359297E+03 -0.13764144084E+04  0.13945440759E+04  0.83018142416E+02 0.  0.
        254    2    1    2    0    0 -0.55049910721E+02 -0.20078359297E+03 -0.17615046795E+03  0.94856302473E+03  0.90851432606E+03 0.  0.
         23    2    4    4    0    0  0.20103793235E+03 -0.26001062643E+02  0.30012702240E+03  0.37357529268E+03  0.91596747856E+02 0.  0.
         23    2    4    4    0    0 -0.25608784307E+03 -0.17478253032E+03 -0.47627749035E+03  0.57498773206E+03  0.87411257427E+02 0.  0.
          1    1    3    3  502    0  0.67006161895E+02  0.19738544752E+03 -0.12239078406E+04  0.12415318131E+04  0.00000000000E+00 0. -1.
         -2    1    3    3    0  502 -0.11956251174E+02  0.33981454451E+01 -0.15250656779E+03  0.15301226275E+03  0.00000000000E+00 0.  1.
         11    1    5    5    0    0  0.30894876509E+02 -0.15838098550E+02  0.84240773588E+01  0.35725394883E+02  0.00000000000E+00 0.  1.
        -11    1    5    5    0    0  0.17014305584E+03 -0.10162964093E+02  0.29170294504E+03  0.33784989779E+03  0.00000000000E+00 0. -1.
          4    1    6    6  503    0 -0.16708755434E+03 -0.14925739680E+03 -0.28535806130E+03  0.36280193558E+03  0.00000000000E+00 0. -1.
         -4    1    6    6    0  503 -0.89000288738E+02 -0.25525133525E+02 -0.19091942905E+03  0.21218579647E+03  0.00000000000E+00 0.  1.
<mgrwt>
<rscale>  0 0.17549055E+04</rscale>
<asrwt>0</asrwt>
<pdfrwt beam="1">  1        1 0.29966708E+00 0.17549055E+04</pdfrwt>
<pdfrwt beam="2">  1       -2 0.60810939E-01 0.17549055E+04</pdfrwt>
<totfact> 0.67694467E+00</totfact>
</mgrwt>
</event>
<event>
12    4  0.4398275E-008  0.3226472E+04  0.7818608E-02  0.8181861E-01
         -2   -1    0    0    0  501 -0.00000000000E+00  0.00000000000E+00  0.71303428726E+03  0.71303428726E+03  0.00000000000E+00 0.  1.
          1   -1    0    0  501    0  0.00000000000E+00 -0.00000000000E+00 -0.36499374787E+04  0.36499374787E+04  0.00000000000E+00 0. -1.
        -24    2    1    2    0    0  0.96594932481E+02 -0.10270131108E+04  0.92440021241E+02  0.10385271401E+04  0.76856701485E+02 0.  0.
        254    2    1    2    0    0 -0.96594932481E+02  0.10270131108E+04 -0.30293432127E+04  0.33244446258E+04  0.90051388633E+03 0.  0.
         23    2    4    4    0    0 -0.15132672747E+02 -0.15225191874E+03 -0.30339329195E+03  0.35182336814E+03  0.91228001334E+02 0.  0.
         23    2    4    4    0    0 -0.81462259733E+02  0.11792650295E+04 -0.27259499207E+04  0.29726212577E+04  0.91498971987E+02 0.  0.
          3    1    3    3  502    0  0.27649209159E+02 -0.13719132729E+03 -0.92978690813E+01  0.14025829537E+03  0.00000000000E+00 0. -1.
         -4    1    3    3    0  502  0.68945723322E+02 -0.88982178347E+03  0.10173789032E+03  0.89826884474E+03  0.00000000000E+00 0.  1.
         11    1    5    5    0    0 -0.32922045111E+02 -0.95563460466E+02 -0.10944209627E+03  0.14897586538E+03  0.00000000000E+00 0.  1.
        -11    1    5    5    0    0  0.17789372363E+02 -0.56688458271E+02 -0.19395119568E+03  0.20284750276E+03  0.00000000000E+00 0. -1.
          2    1    6    6  503    0 -0.20952239118E+02  0.43827760127E+03 -0.90534753674E+03  0.10060717740E+04  0.00000000000E+00 0. -1.
         -2    1    6    6    0  503 -0.60510020616E+02  0.74098742823E+03 -0.18206023840E+04  0.19665494837E+04  0.00000000000E+00 0.  1.
<mgrwt>
<rscale>  0 0.32264721E+04</rscale>
<asrwt>0</asrwt>
<pdfrwt beam="1">  1        1 0.56152884E+00 0.32264721E+04</pdfrwt>
<pdfrwt beam="2">  1       -2 0.10969758E+00 0.32264721E+04</pdfrwt>
<totfact> 0.92035276E-02</totfact>
</mgrwt>
</event>
<event>
12    4  0.4398275E-008  0.1403233E+04  0.7818608E-02  0.8951481E-01
         -2   -1    0    0    0  501 -0.00000000000E+00  0.00000000000E+00  0.49614987283E+03  0.49614987283E+03  0.00000000000E+00 0.  1.
          1   -1    0    0  501    0  0.00000000000E+00 -0.00000000000E+00 -0.99217210192E+03  0.99217210192E+03  0.00000000000E+00 0. -1.
        -24    2    1    2    0    0  0.28273346177E+03 -0.22694664561E+03 -0.35334887557E+03  0.51247178029E+03  0.79554430246E+02 0.  0.
        254    2    1    2    0    0 -0.28273346177E+03  0.22694664561E+03 -0.14267335352E+03  0.97585019447E+03  0.89469823174E+03 0.  0.
         23    2    4    4    0    0 -0.39723666850E+03  0.54490972454E+02 -0.44075528829E+03  0.60264978460E+03  0.90306709833E+02 0.  0.
         23    2    4    4    0    0  0.11450320673E+03  0.17245567315E+03  0.29808193477E+03  0.37320040987E+03  0.87027366592E+02 0.  0.
          1    1    3    3  502    0  0.10416368733E+03 -0.89245457596E+02 -0.82600752578E+02  0.16011779972E+03  0.00000000000E+00 0. -1.
         -2    1    3    3    0  502  0.17856977444E+03 -0.13770118801E+03 -0.27074812299E+03  0.35235398057E+03  0.00000000000E+00 0.  1.
         11    1    5    5    0    0 -0.51427389588E+02 -0.18884073278E+02 -0.37541137678E+02  0.66413264048E+02  0.00000000000E+00 0.  1.
        -11    1    5    5    0    0 -0.34580927891E+03  0.73375045732E+02 -0.40321415061E+03  0.53623652055E+03  0.00000000000E+00 0. -1.
          2    1    6    6  503    0  0.73664482184E+02  0.12544931559E+03  0.26592800005E+03  0.30311992334E+03  0.00000000000E+00 0. -1.
         -2    1    6    6    0  503  0.40838724543E+02  0.47006357559E+02  0.32153934720E+02  0.70080486523E+02  0.00000000000E+00 0.  1.
<mgrwt>
<rscale>  0 0.14032335E+04</rscale>
<asrwt>0</asrwt>
<pdfrwt beam="1">  1        1 0.15264186E+00 0.14032335E+04</pdfrwt>
<pdfrwt beam="2">  1       -2 0.76330749E-01 0.14032335E+04</pdfrwt>
<totfact> 0.20139611E+01</totfact>
</mgrwt>
</event>
<event>
12    4  0.4398275E-008  0.2309623E+04  0.7818608E-02  0.8474137E-01
          1   -1    0    0  501    0  0.00000000000E+00  0.00000000000E+00  0.21218981718E+04  0.21218981718E+04  0.00000000000E+00 0. -1.
         -2   -1    0    0    0  501 -0.00000000000E+00 -0.00000000000E+00 -0.62848872142E+03  0.62848872142E+03  0.00000000000E+00 0.  1.
        -24    2    1    2    0    0 -0.10928546110E+03 -0.27733363198E+03  0.17475173087E+04  0.17739494770E+04  0.64982668860E+02 0.  0.
        254    2    1    2    0    0  0.10928546110E+03  0.27733363198E+03 -0.25410785832E+03  0.97643741623E+03  0.89442829155E+03 0.  0.
         23    2    4    4    0    0  0.18771022186E+03  0.32589320095E+03  0.24692047047E+03  0.45891768919E+03  0.90521935973E+02 0.  0.
         23    2    4    4    0    0 -0.78424760757E+02 -0.48559568972E+02 -0.50102832879E+03  0.51751972705E+03  0.91042884360E+02 0.  0.
          3    1    3    3  502    0 -0.97126867821E+02 -0.25530337414E+03  0.14599690892E+04  0.14853023876E+04  0.00000000000E+00 0. -1.
         -4    1    3    3    0  502 -0.12158593283E+02 -0.22030257837E+02  0.28754821951E+03  0.28864708936E+03  0.00000000000E+00 0.  1.
         11    1    5    5    0    0  0.48827982357E+02  0.94596184355E+02  0.12107741576E+03  0.16122143332E+03  0.00000000000E+00 0.  1.
        -11    1    5    5    0    0  0.13888223950E+03  0.23129701660E+03  0.12584305471E+03  0.29769625587E+03  0.00000000000E+00 0. -1.
          1    1    6    6  503    0 -0.51817143375E+02 -0.25152192894E+02 -0.10377013429E+03  0.11868399186E+03  0.00000000000E+00 0. -1.
         -1    1    6    6    0  503 -0.26607617382E+02 -0.23407376077E+02 -0.39725819450E+03  0.39883573518E+03  0.00000000000E+00 0.  1.
<mgrwt>
<rscale>  0 0.23096225E+04</rscale>
<asrwt>0</asrwt>
<pdfrwt beam="1">  1        1 0.32644587E+00 0.23096225E+04</pdfrwt>
<pdfrwt beam="2">  1       -2 0.96690574E-01 0.23096225E+04</pdfrwt>
<totfact> 0.17473275E+00</totfact>
</mgrwt>
</event>
<event>
12    4  0.4398275E-008  0.1624496E+04  0.7818608E-02  0.8805639E-01
          1   -1    0    0  501    0  0.00000000000E+00  0.00000000000E+00  0.98651874112E+03  0.98651874112E+03  0.00000000000E+00 0. -1.
         -2   -1    0    0    0  501 -0.00000000000E+00 -0.00000000000E+00 -0.66876257293E+03  0.66876257293E+03  0.00000000000E+00 0.  1.
        -24    2    1    2    0    0 -0.24308766762E+03  0.16069869017E+03 -0.37634066885E+03  0.48271988491E+03  0.80439449847E+02 0.  0.
        254    2    1    2    0    0  0.24308766762E+03 -0.16069869017E+03  0.69409683703E+03  0.11725614291E+04  0.89900734299E+03 0.  0.
         23    2    4    4    0    0 -0.32226180734E+03 -0.14537638794E+03  0.34073139775E+03  0.49920295204E+03  0.90104024756E+02 0.  0.
         23    2    4    4    0    0  0.56534947496E+03 -0.15322302236E+02  0.35336543928E+03  0.67335847710E+03  0.93218577611E+02 0.  0.
          3    1    3    3  502    0 -0.51528457856E+02  0.60434438263E+00 -0.80980989089E+02  0.95986810526E+02  0.00000000000E+00 0. -1.
         -4    1    3    3    0  502 -0.19155920977E+03  0.16009434579E+03 -0.29535967976E+03  0.38673307439E+03  0.00000000000E+00 0.  1.
         11    1    5    5    0    0 -0.13442848402E+03 -0.96367093123E+02  0.19946120376E+03  0.25911851682E+03  0.00000000000E+00 0. -1.
        -11    1    5    5    0    0 -0.18783332332E+03 -0.49009294813E+02  0.14127019398E+03  0.24008443522E+03  0.00000000000E+00 0.  1.
          3    1    6    6  503    0  0.10033323142E+03  0.30143566214E+02  0.48381253218E+02  0.11539557000E+03  0.00000000000E+00 0. -1.
         -3    1    6    6    0  503  0.46501624354E+03 -0.45465868450E+02  0.30498418606E+03  0.55796290710E+03  0.00000000000E+00 0.  1.
<mgrwt>
<rscale>  0 0.16244960E+04</rscale>
<asrwt>0</asrwt>
<pdfrwt beam="1">  1        1 0.15177211E+00 0.16244960E+04</pdfrwt>
<pdfrwt beam="2">  1       -2 0.10288655E+00 0.16244960E+04</pdfrwt>
<totfact> 0.10045153E+01</totfact>
</mgrwt>
</event>
<event>
12    4  0.4398275E-008  0.1790287E+04  0.7818608E-02  0.8711482E-01
         -2   -1    0    0    0  501 -0.00000000000E+00  0.00000000000E+00  0.88678403818E+03  0.88678403818E+03  0.00000000000E+00 0.  1.
          1   -1    0    0  501    0  0.00000000000E+00 -0.00000000000E+00 -0.90358171406E+03  0.90358171406E+03  0.00000000000E+00 0. -1.
        -24    2    1    2    0    0 -0.39189235838E+03  0.16362239808E+03  0.51735241739E+03  0.67397074069E+03  0.78937480503E+02 0.  0.
        254    2    1    2    0    0  0.39189235838E+03 -0.16362239808E+03 -0.53415009326E+03  0.11163950115E+04  0.88355508597E+03 0.  0.
         23    2    4    4    0    0 -0.13316932305E+03  0.18747427366E+03  0.46973472055E+02  0.25344994603E+03  0.95654044230E+02 0.  0.
         23    2    4    4    0    0  0.52506168143E+03 -0.35109667174E+03 -0.58112356532E+03  0.86294506551E+03  0.89503886543E+02 0.  0.
          1    1    3    3  502    0 -0.18784396603E+03  0.40652774829E+02  0.25930293638E+03  0.32276309654E+03  0.00000000000E+00 0. -1.
         -2    1    3    3    0  502 -0.20404839235E+03  0.12296962325E+03  0.25804948101E+03  0.35120764415E+03  0.00000000000E+00 0.  1.
         11    1    5    5    0    0 -0.10743866799E+03  0.71346226231E+02  0.12304782783E+02  0.12955600741E+03  0.00000000000E+00 0.  1.
        -11    1    5    5    0    0 -0.25730655061E+02  0.11612804743E+03  0.34668689272E+02  0.12389393862E+03  0.00000000000E+00 0. -1.
          1    1    6    6  503    0  0.51421337196E+03 -0.34692523774E+03 -0.54747591617E+03  0.82734659682E+03  0.00000000000E+00 0. -1.
         -1    1    6    6    0  503  0.10848309476E+02 -0.41714340029E+01 -0.33647649151E+02  0.35598468697E+02  0.00000000000E+00 0.  1.
<mgrwt>
<rscale>  0 0.17902870E+04</rscale>
<asrwt>0</asrwt>
<pdfrwt beam="1">  1        1 0.13901257E+00 0.17902870E+04</pdfrwt>
<pdfrwt beam="2">  1       -2 0.13642831E+00 0.17902870E+04</pdfrwt>
<totfact> 0.57432854E+00</totfact>
</mgrwt>
</event>
<event>
12    4  0.4398275E-008  0.1264435E+04  0.7818608E-02  0.9058254E-01
          1   -1    0    0  501    0  0.00000000000E+00  0.00000000000E+00  0.68356931875E+03  0.68356931875E+03  0.00000000000E+00 0. -1.
         -2   -1    0    0    0  501 -0.00000000000E+00 -0.00000000000E+00 -0.58472377793E+03  0.58472377793E+03  0.00000000000E+00 0.  1.
        -24    2    1    2    0    0  0.89509602130E+02 -0.14753115956E+03  0.26841278179E+03  0.32865631288E+03  0.78690143310E+02 0.  0.
        254    2    1    2    0    0 -0.89509602130E+02  0.14753115956E+03 -0.16956724097E+03  0.93963678380E+03  0.90795750140E+03 0.  0.
         23    2    4    4    0    0 -0.41581796890E+02 -0.33879646125E+03  0.10935830082E+03  0.36955225792E+03  0.89986362217E+02 0.  0.
         23    2    4    4    0    0 -0.47927805240E+02  0.48632762081E+03 -0.27892554179E+03  0.57008452588E+03  0.91571171797E+02 0.  0.
          3    1    3    3  502    0  0.96421498124E+02 -0.11836769016E+03  0.18405400603E+03  0.23913153809E+03  0.00000000000E+00 0. -1.
         -4    1    3    3    0  502 -0.69118959941E+01 -0.29163469403E+02  0.84358775760E+02  0.89524774792E+02  0.00000000000E+00 0.  1.
         11    1    5    5    0    0 -0.56466644336E+02 -0.14889851311E+03  0.74897147247E+02  0.17597963460E+03  0.00000000000E+00 0.  1.
        -11    1    5    5    0    0  0.14884847446E+02 -0.18989794815E+03  0.34461153573E+02  0.19357262332E+03  0.00000000000E+00 0. -1.
          3    1    6    6  503    0 -0.10297137460E+02  0.12290112334E+03 -0.26919138630E+02  0.12623532462E+03  0.00000000000E+00 0. -1.
         -3    1    6    6    0  503 -0.37630667781E+02  0.36342649748E+03 -0.25200640316E+03  0.44384920126E+03  0.00000000000E+00 0.  1.
<mgrwt>
<rscale>  0 0.12644354E+04</rscale>
<asrwt>0</asrwt>
<pdfrwt beam="1">  1        1 0.10516451E+00 0.12644354E+04</pdfrwt>
<pdfrwt beam="2">  1       -2 0.89957504E-01 0.12644354E+04</pdfrwt>
<totfact> 0.25779310E+01</totfact>
</mgrwt>
</event>
<event>
12    4  0.4398275E-008  0.1157220E+04  0.7818608E-02  0.9151149E-01
         -2   -1    0    0    0  501 -0.00000000000E+00  0.00000000000E+00  0.45130249542E+03  0.45130249542E+03  0.00000000000E+00 0.  1.
          1   -1    0    0  501    0  0.00000000000E+00 -0.00000000000E+00 -0.74182934262E+03  0.74182934262E+03  0.00000000000E+00 0. -1.
        -24    2    1    2    0    0  0.13192102369E+03 -0.13664535303E+03 -0.25821189826E+03  0.33046950014E+03  0.80384060138E+02 0.  0.
        254    2    1    2    0    0 -0.13192102369E+03  0.13664535303E+03 -0.32314948941E+02  0.86266233790E+03  0.84087272777E+03 0.  0.
         23    2    4    4    0    0 -0.69436104902E+02 -0.34458987311E+03  0.28194786318E+02  0.36530289200E+03  0.95329447799E+02 0.  0.
         23    2    4    4    0    0 -0.62484918788E+02  0.48123522613E+03 -0.60509735258E+02  0.49735944589E+03  0.90627161547E+02 0.  0.
          3    1    3    3  502    0  0.44604889744E+02 -0.10320891231E+03 -0.14995776087E+03  0.18742733476E+03  0.00000000000E+00 0. -1.
         -4    1    3    3    0  502  0.87316133947E+02 -0.33436440718E+02 -0.10825413739E+03  0.14304216538E+03  0.00000000000E+00 0.  1.
         11    1    5    5    0    0 -0.68211866784E+02 -0.35090524629E+03  0.25676224538E+02  0.35839450212E+03  0.00000000000E+00 0. -1.
        -11    1    5    5    0    0 -0.12242381186E+01  0.63153731791E+01  0.25185617797E+01  0.69083898848E+01  0.00000000000E+00 0.  1.
          2    1    6    6  503    0 -0.22434578634E+02  0.30600253173E+03 -0.78509970357E+02  0.31670913342E+03  0.00000000000E+00 0. -1.
         -2    1    6    6    0  503 -0.40050340153E+02  0.17523269440E+03  0.18000235099E+02  0.18065031247E+03  0.00000000000E+00 0.  1.
<mgrwt>
<rscale>  0 0.11572198E+04</rscale>
<asrwt>0</asrwt>
<pdfrwt beam="1">  1        1 0.11412759E+00 0.11572198E+04</pdfrwt>
<pdfrwt beam="2">  1       -2 0.69431153E-01 0.11572198E+04</pdfrwt>
<totfact> 0.41007099E+01</totfact>
</mgrwt>
</event>
<event>
12    4  0.4398275E-008  0.2260282E+04  0.7818608E-02  0.8493748E-01
          1   -1    0    0  501    0  0.00000000000E+00  0.00000000000E+00  0.20401723405E+04  0.20401723405E+04  0.00000000000E+00 0. -1.
         -2   -1    0    0    0  501 -0.00000000000E+00 -0.00000000000E+00 -0.62603473154E+03  0.62603473154E+03  0.00000000000E+00 0.  1.
        -24    2    1    2    0    0 -0.43150313249E+03  0.79389756110E+03  0.25952053834E+03  0.94353315906E+03  0.80222325716E+02 0.  0.
        254    2    1    2    0    0  0.43150313249E+03 -0.79389756110E+03  0.11546170707E+04  0.17226739130E+04  0.90443161152E+03 0.  0.
         23    2    4    4    0    0  0.30658386956E+03 -0.14563953464E+03  0.96965816822E+03  0.10309979060E+04  0.86690113345E+02 0.  0.
         23    2    4    4    0    0  0.12491926293E+03 -0.64825802647E+03  0.18495890244E+03  0.69167600708E+03  0.91447318462E+02 0.  0.
          1    1    3    3  502    0 -0.21386363765E+03  0.43012291858E+03  0.17525905947E+03  0.51133073301E+03  0.00000000000E+00 0. -1.
         -2    1    3    3    0  502 -0.21763949484E+03  0.36377464253E+03  0.84261478876E+02  0.43220242605E+03  0.00000000000E+00 0.  1.
         11    1    5    5    0    0  0.25043761473E+03 -0.14172605914E+03  0.72656235940E+03  0.78147177608E+03  0.00000000000E+00 0.  1.
        -11    1    5    5    0    0  0.56146254828E+02 -0.39134754973E+01  0.24309580883E+03  0.24952612987E+03  0.00000000000E+00 0. -1.
          1    1    6    6  503    0  0.74049835381E+01 -0.70850501924E+01  0.14761187772E+02  0.17970096880E+02  0.00000000000E+00 0. -1.
         -1    1    6    6    0  503  0.11751427939E+03 -0.64117297627E+03  0.17019771467E+03  0.67370591020E+03  0.00000000000E+00 0.  1.
<mgrwt>
<rscale>  0 0.22602821E+04</rscale>
<asrwt>0</asrwt>
<pdfrwt beam="1">  1        1 0.31387267E+00 0.22602821E+04</pdfrwt>
<pdfrwt beam="2">  1       -2 0.96313036E-01 0.22602821E+04</pdfrwt>
<totfact> 0.20124073E+00</totfact>
</mgrwt>
</event>
<event>
12    4  0.4398275E-008  0.1394784E+04  0.7818608E-02  0.8957603E-01
         -2   -1    0    0    0  501 -0.00000000000E+00  0.00000000000E+00  0.10333849718E+04  0.10333849718E+04  0.00000000000E+00 0.  1.
          1   -1    0    0  501    0  0.00000000000E+00 -0.00000000000E+00 -0.47064341939E+03  0.47064341939E+03  0.00000000000E+00 0. -1.
        -24    2    1    2    0    0  0.12397332100E+02  0.20057685503E+03 -0.21029181721E+03  0.30285011867E+03  0.84325425438E+02 0.  0.
        254    2    1    2    0    0 -0.12397332100E+02 -0.20057685503E+03  0.77303336966E+03  0.12011782725E+04  0.89714206411E+03 0.  0.
         23    2    4    4    0    0  0.30087061480E+02  0.29275042720E+03  0.35214318246E+02  0.30797502254E+03  0.83669124564E+02 0.  0.
         23    2    4    4    0    0 -0.42484393580E+02 -0.49332728224E+03  0.73781905141E+03  0.89320325000E+03  0.90875530712E+02 0.  0.
          1    1    3    3  502    0 -0.21215670916E+02  0.16513945203E+03 -0.18084516757E+03  0.24581724501E+03  0.00000000000E+00 0. -1.
         -4    1    3    3    0  502  0.33613003016E+02  0.35437403004E+02 -0.29446649639E+02  0.57032873664E+02  0.00000000000E+00 0.  1.
         11    1    5    5    0    0  0.51268360614E+02  0.25732962697E+03  0.17218725358E+02  0.26295145221E+03  0.00000000000E+00 0. -1.
        -11    1    5    5    0    0 -0.21181299134E+02  0.35420800232E+02  0.17995592888E+02  0.45023570332E+02  0.00000000000E+00 0.  1.
          1    1    6    6  503    0  0.19131622945E+01 -0.39862264805E+03  0.59453749960E+03  0.71580619874E+03  0.00000000000E+00 0. -1.
         -1    1    6    6    0  503 -0.44397555874E+02 -0.94704634191E+02  0.14328155181E+03  0.17739705125E+03  0.00000000000E+00 0.  1.
<mgrwt>
<rscale>  0 0.13947843E+04</rscale>
<asrwt>0</asrwt>
<pdfrwt beam="1">  1        1 0.72406680E-01 0.13947843E+04</pdfrwt>
<pdfrwt beam="2">  1       -2 0.15898230E+00 0.13947843E+04</pdfrwt>
<totfact> 0.10519227E+01</totfact>
</mgrwt>
</event>
<event>
12    4  0.4398275E-008  0.1257862E+04  0.7818608E-02  0.9063665E-01
          1   -1    0    0  501    0  0.00000000000E+00  0.00000000000E+00  0.98548988672E+03  0.98548988672E+03  0.00000000000E+00 0. -1.
         -2   -1    0    0    0  501 -0.00000000000E+00 -0.00000000000E+00 -0.40137831124E+03  0.40137831124E+03  0.00000000000E+00 0.  1.
        -24    2    1    2    0    0  0.21711823157E+03  0.13026204569E+03 -0.28790692326E+02  0.26746428730E+03  0.81238623739E+02 0.  0.
        254    2    1    2    0    0 -0.21711823157E+03 -0.13026204569E+03  0.61290226781E+03  0.11194039107E+04  0.90183557166E+03 0.  0.
         23    2    4    4    0    0 -0.26266340579E+03  0.12441331292E+03 -0.12734075271E+03  0.32994868617E+03  0.90441865498E+02 0.  0.
         23    2    4    4    0    0  0.45545174221E+02 -0.25467535861E+03  0.74024302052E+03  0.78945522450E+03  0.91356011764E+02 0.  0.
          1    1    3    3  502    0  0.77155012210E+02  0.28547948439E+02  0.25498616689E+02  0.86128164512E+02  0.00000000000E+00 0. -1.
         -2    1    3    3    0  502  0.13996321936E+03  0.10171409725E+03 -0.54289309015E+02  0.18133612278E+03  0.00000000000E+00 0.  1.
         11    1    5    5    0    0 -0.62815272956E+02 -0.96987888909E+01 -0.22442773705E+02  0.67405512491E+02  0.00000000000E+00 0. -1.
        -11    1    5    5    0    0 -0.19984813283E+03  0.13411210181E+03 -0.10489797900E+03  0.26254317368E+03  0.00000000000E+00 0.  1.
          1    1    6    6  503    0  0.26915745796E+02 -0.17264132785E+02  0.50635434212E+02  0.59887017378E+02  0.00000000000E+00 0. -1.
         -1    1    6    6    0  503  0.18629428424E+02 -0.23741122582E+03  0.68960758630E+03  0.72956820712E+03  0.00000000000E+00 0.  1.
<mgrwt>
<rscale>  0 0.12578621E+04</rscale>
<asrwt>0</asrwt>
<pdfrwt beam="1">  1        1 0.15161383E+00 0.12578621E+04</pdfrwt>
<pdfrwt beam="2">  1       -2 0.61750510E-01 0.12578621E+04</pdfrwt>
<totfact> 0.32702331E+01</totfact>
</mgrwt>
</event>
<event>
12    4  0.4398275E-008  0.1367747E+04  0.7818608E-02  0.8977501E-01
         -2   -1    0    0    0  501 -0.00000000000E+00  0.00000000000E+00  0.49858024453E+03  0.49858024453E+03  0.00000000000E+00 0.  1.
          1   -1    0    0  501    0  0.00000000000E+00 -0.00000000000E+00 -0.93802958471E+03  0.93802958471E+03  0.00000000000E+00 0. -1.
        -24    2    1    2    0    0 -0.76344759378E+02 -0.37750672763E+03 -0.13085567843E+03  0.41454144756E+03  0.79884613527E+02 0.  0.
        254    2    1    2    0    0  0.76344759378E+02  0.37750672763E+03 -0.30859366175E+03  0.10220683817E+04  0.89501613229E+03 0.  0.
         23    2    4    4    0    0 -0.91191903749E+02 -0.22199558778E+03 -0.29994952044E+03  0.39321948740E+03  0.83987178495E+02 0.  0.
         23    2    4    4    0    0  0.16753666313E+03  0.59950231541E+03 -0.86441413040E+01  0.62884889427E+03  0.88908104099E+02 0.  0.
          1    1    3    3  502    0 -0.33354895045E+02 -0.69886165420E+02 -0.54471800542E+02  0.94677358407E+02  0.00000000000E+00 0. -1.
         -2    1    3    3    0  502 -0.42989864333E+02 -0.30762056221E+03 -0.76383877892E+02  0.31986408915E+03  0.00000000000E+00 0.  1.
         11    1    5    5    0    0 -0.34142615292E+02 -0.21243782186E+02 -0.82747613580E+02  0.92001000069E+02  0.00000000000E+00 0.  1.
        -11    1    5    5    0    0 -0.57049288457E+02 -0.20075180560E+03 -0.21720190686E+03  0.30121848733E+03  0.00000000000E+00 0. -1.
          2    1    6    6  503    0  0.14426588580E+03  0.57229869020E+03  0.58396996714E+01  0.59023091981E+03  0.00000000000E+00 0. -1.
         -2    1    6    6    0  503  0.23270777330E+02  0.27203625214E+02 -0.14483840975E+02  0.38617974464E+02  0.00000000000E+00 0.  1.
<mgrwt>
<rscale>  0 0.13677471E+04</rscale>
<asrwt>0</asrwt>
<pdfrwt beam="1">  1        1 0.14431224E+00 0.13677471E+04</pdfrwt>
<pdfrwt beam="2">  1       -2 0.76704653E-01 0.13677471E+04</pdfrwt>
<totfact> 0.22055387E+01</totfact>
</mgrwt>
</event>
<event>
12    4  0.4398275E-008  0.1929264E+04  0.7818608E-02  0.8640425E-01
         -2   -1    0    0    0  501 -0.00000000000E+00  0.00000000000E+00  0.29013150283E+03  0.29013150283E+03  0.00000000000E+00 0.  1.
          1   -1    0    0  501    0  0.00000000000E+00 -0.00000000000E+00 -0.32072187384E+04  0.32072187384E+04  0.00000000000E+00 0. -1.
        -24    2    1    2    0    0  0.51686620871E+03  0.50009850343E+03 -0.15105536439E+04  0.16749250016E+04  0.79701059494E+02 0.  0.
        254    2    1    2    0    0 -0.51686620871E+03 -0.50009850343E+03 -0.14065335916E+04  0.18224252396E+04  0.90865164878E+03 0.  0.
         23    2    4    4    0    0 -0.51116200244E+03 -0.47980930410E+03 -0.40135752999E+03  0.81292435611E+03  0.90854723834E+02 0.  0.
         23    2    4    4    0    0 -0.57042062671E+01 -0.20289199328E+02 -0.10051760616E+04  0.10095008835E+04  0.90933653556E+02 0.  0.
          1    1    3    3  502    0  0.61611288261E+02  0.58461448829E+02 -0.24538669016E+03  0.25966963540E+03  0.00000000000E+00 0. -1.
         -2    1    3    3    0  502  0.45525492045E+03  0.44163705460E+03 -0.12651669538E+04  0.14152553662E+04  0.00000000000E+00 0.  1.
         11    1    5    5    0    0 -0.28878478692E+03 -0.32843246791E+03 -0.23233318936E+03  0.49522040548E+03  0.00000000000E+00 0. -1.
        -11    1    5    5    0    0 -0.22237721553E+03 -0.15137683619E+03 -0.16902434063E+03  0.31770395063E+03  0.00000000000E+00 0.  1.
          3    1    6    6  503    0 -0.20247800734E+01 -0.49839512376E+02 -0.85189202253E+03  0.85335109702E+03  0.00000000000E+00 0. -1.
         -3    1    6    6    0  503 -0.36794261937E+01  0.29550313049E+02 -0.15328403911E+03  0.15614978650E+03  0.00000000000E+00 0.  1.
<mgrwt>
<rscale>  0 0.19292643E+04</rscale>
<asrwt>0</asrwt>
<pdfrwt beam="1">  1        1 0.49341825E+00 0.19292643E+04</pdfrwt>
<pdfrwt beam="2">  1       -2 0.44635618E-01 0.19292643E+04</pdfrwt>
<totfact> 0.16437825E+00</totfact>
</mgrwt>
</event>
<event>
12    4  0.4398275E-008  0.1910897E+04  0.7818608E-02  0.8649451E-01
          1   -1    0    0  501    0  0.00000000000E+00  0.00000000000E+00  0.14045062202E+04  0.14045062202E+04  0.00000000000E+00 0. -1.
         -2   -1    0    0    0  501 -0.00000000000E+00 -0.00000000000E+00 -0.64996670023E+03  0.64996670023E+03  0.00000000000E+00 0.  1.
        -24    2    1    2    0    0  0.70620098233E+03 -0.15539061063E+03  0.46468807199E+03  0.86323687061E+03  0.79855001173E+02 0.  0.
        254    2    1    2    0    0 -0.70620098233E+03  0.15539061063E+03  0.28985144796E+03  0.11912360498E+04  0.90120108474E+03 0.  0.
         23    2    4    4    0    0  0.11937121004E+03  0.22231307423E+03  0.23355041040E+03  0.35608327298E+03  0.92611631764E+02 0.  0.
         23    2    4    4    0    0 -0.82557219237E+03 -0.66922463598E+02  0.56301037561E+02  0.83515277682E+03  0.90897155314E+02 0.  0.
          3    1    3    3  502    0  0.63846496790E+03 -0.12472380835E+03  0.39343348613E+03  0.76025222894E+03  0.00000000000E+00 0. -1.
         -4    1    3    3    0  502  0.67736014433E+02 -0.30666802279E+02  0.71254585861E+02  0.10298464167E+03  0.00000000000E+00 0.  1.
         11    1    5    5    0    0  0.10892730816E+03  0.21710113130E+03  0.18276955926E+03  0.30397824177E+03  0.00000000000E+00 0.  1.
        -11    1    5    5    0    0  0.10443901880E+02  0.52119429320E+01  0.50780851137E+02  0.52105031214E+02  0.00000000000E+00 0. -1.
          2    1    6    6  503    0 -0.20834878988E+03  0.14911980208E+02 -0.92526236229E+01  0.20908657643E+03  0.00000000000E+00 0. -1.
         -2    1    6    6    0  503 -0.61722340249E+03 -0.81834443806E+02  0.65553661184E+02  0.62606620039E+03  0.00000000000E+00 0.  1.
<mgrwt>
<rscale>  0 0.19108975E+04</rscale>
<asrwt>0</asrwt>
<pdfrwt beam="1">  1        1 0.21607788E+00 0.19108975E+04</pdfrwt>
<pdfrwt beam="2">  1       -2 0.99994878E-01 0.19108975E+04</pdfrwt>
<totfact> 0.51684650E+00</totfact>
</mgrwt>
</event>
<event>
12    4  0.4398275E-008  0.2053635E+04  0.7818608E-02  0.8581947E-01
         -2   -1    0    0    0  501 -0.00000000000E+00  0.00000000000E+00  0.87808332992E+03  0.87808332992E+03  0.00000000000E+00 0.  1.
          1   -1    0    0  501    0  0.00000000000E+00 -0.00000000000E+00 -0.12007451803E+04  0.12007451803E+04  0.00000000000E+00 0. -1.
        -24    2    1    2    0    0 -0.76429478691E+03  0.31608313864E+03 -0.16066422655E+03  0.84616420911E+03  0.78267510881E+02 0.  0.
        254    2    1    2    0    0  0.76429478691E+03 -0.31608313864E+03 -0.16199762385E+03  0.12326643011E+04  0.89953486721E+03 0.  0.
         23    2    4    4    0    0  0.40272441816E+03 -0.10757821675E+03 -0.52170014329E+03  0.67389208965E+03  0.90550976169E+02 0.  0.
         23    2    4    4    0    0  0.36157036875E+03 -0.20850492189E+03  0.35970251943E+03  0.55877221149E+03  0.92914196090E+02 0.  0.
          1    1    3    3  502    0 -0.71601921500E+03  0.30882372239E+03 -0.13629269683E+03  0.79160047181E+03  0.00000000000E+00 0. -1.
         -2    1    3    3    0  502 -0.48275571906E+02  0.72594162525E+01 -0.24371529723E+02  0.54563737301E+02  0.00000000000E+00 0.  1.
         11    1    5    5    0    0  0.34714214322E+02 -0.17718556341E+02 -0.98384243415E+02  0.10582288631E+03  0.00000000000E+00 0. -1.
        -11    1    5    5    0    0  0.36801020383E+03 -0.89859660408E+02 -0.42331589987E+03  0.56806920334E+03  0.00000000000E+00 0.  1.
          1    1    6    6  503    0  0.26001371295E+03 -0.13188983455E+03  0.19539100998E+03  0.35096966558E+03  0.00000000000E+00 0. -1.
         -1    1    6    6    0  503  0.10155665580E+03 -0.76615087341E+02  0.16431150946E+03  0.20780254591E+03  0.00000000000E+00 0.  1.
<mgrwt>
<rscale>  0 0.20536351E+04</rscale>
<asrwt>0</asrwt>
<pdfrwt beam="1">  1        1 0.18473003E+00 0.20536351E+04</pdfrwt>
<pdfrwt beam="2">  1       -2 0.13508974E+00 0.20536351E+04</pdfrwt>
<totfact> 0.34046062E+00</totfact>
</mgrwt>
</event>
<event>
12    4  0.4398275E-008  0.2673567E+04  0.7818608E-02  0.8343633E-01
         -2   -1    0    0    0  501 -0.00000000000E+00  0.00000000000E+00  0.16927570255E+04  0.16927570255E+04  0.00000000000E+00 0.  1.
          1   -1    0    0  501    0  0.00000000000E+00 -0.00000000000E+00 -0.10556685846E+04  0.10556685846E+04  0.00000000000E+00 0. -1.
        -24    2    1    2    0    0  0.74295624278E+03  0.10067765132E+03 -0.65730359107E+03  0.10002385358E+04  0.79430155279E+02 0.  0.
        254    2    1    2    0    0 -0.74295624278E+03 -0.10067765132E+03  0.12943920320E+04  0.17481870742E+04  0.90475816983E+03 0.  0.
         23    2    4    4    0    0 -0.88046418913E+03  0.35076009375E+02  0.74141896802E+03  0.11550654199E+04  0.89590866615E+02 0.  0.
         23    2    4    4    0    0  0.13750794635E+03 -0.13575366069E+03  0.55297306393E+03  0.59312165428E+03  0.93148245530E+02 0.  0.
          1    1    3    3  502    0  0.60386039152E+03  0.52435775577E+02 -0.51290387540E+03  0.79401969019E+03  0.00000000000E+00 0. -1.
         -2    1    3    3    0  502  0.13909585126E+03  0.48241875738E+02 -0.14439971567E+03  0.20621884565E+03  0.00000000000E+00 0.  1.
         11    1    5    5    0    0 -0.83836558748E+03  0.41090838689E+02  0.67944081272E+03  0.10799005201E+04  0.00000000000E+00 0.  1.
        -11    1    5    5    0    0 -0.42098601652E+02 -0.60148293139E+01  0.61978155300E+02  0.75164899834E+02  0.00000000000E+00 0. -1.
          3    1    6    6  503    0  0.54728581040E+02 -0.59230793114E+01  0.21136503096E+03  0.21841583451E+03  0.00000000000E+00 0. -1.
         -3    1    6    6    0  503  0.82779365309E+02 -0.12983058138E+03  0.34160803297E+03  0.37470581977E+03  0.00000000000E+00 0.  1.
<mgrwt>
<rscale>  0 0.26735672E+04</rscale>
<asrwt>0</asrwt>
<pdfrwt beam="1">  1        1 0.16241055E+00 0.26735672E+04</pdfrwt>
<pdfrwt beam="2">  1       -2 0.26042416E+00 0.26735672E+04</pdfrwt>
<totfact> 0.58340194E-01</totfact>
</mgrwt>
</event>
<event>
12    4  0.4398275E-008  0.2007805E+04  0.7818608E-02  0.8602980E-01
         -4   -1    0    0    0  501 -0.00000000000E+00  0.00000000000E+00  0.22387214870E+04  0.22387214870E+04  0.00000000000E+00 0.  1.
          3   -1    0    0  501    0  0.00000000000E+00 -0.00000000000E+00 -0.45017688055E+03  0.45017688055E+03  0.00000000000E+00 0. -1.
        -24    2    1    2    0    0  0.58744620320E+03  0.22603018836E+03  0.58139583878E+02  0.63729610064E+03  0.81138283046E+02 0.  0.
        254    2    1    2    0    0 -0.58744620320E+03 -0.22603018836E+03  0.17304050226E+04  0.20516022669E+04  0.90475832783E+03 0.  0.
         23    2    4    4    0    0 -0.67700962166E+03 -0.46568713261E+03  0.13758713892E+04  0.16050698432E+04  0.89557738751E+02 0.  0.
         23    2    4    4    0    0  0.89563418462E+02  0.23965694425E+03  0.35453363340E+03  0.44653242376E+03  0.90774728864E+02 0.  0.
          3    1    3    3  502    0  0.18612905152E+03  0.10365110738E+03  0.43739374437E+02  0.21748726114E+03  0.00000000000E+00 0. -1.
         -4    1    3    3    0  502  0.40131715167E+03  0.12237908098E+03  0.14400209441E+02  0.41980883950E+03  0.00000000000E+00 0.  1.
         11    1    5    5    0    0 -0.32570749887E+03 -0.24783476359E+03  0.76272320708E+03  0.86559467159E+03  0.00000000000E+00 0.  1.
        -11    1    5    5    0    0 -0.35130212279E+03 -0.21785236902E+03  0.61314818212E+03  0.73947517160E+03  0.00000000000E+00 0. -1.
          4    1    6    6  503    0  0.94782168960E+02  0.14986942254E+03  0.27051471479E+03  0.32345434652E+03  0.00000000000E+00 0. -1.
         -4    1    6    6    0  503 -0.52187504977E+01  0.89787521713E+02  0.84018918611E+02  0.12307807724E+03  0.00000000000E+00 0.  1.
<mgrwt>
<rscale>  0 0.20078054E+04</rscale>
<asrwt>0</asrwt>
<pdfrwt beam="1">  1        3 0.69257983E-01 0.20078054E+04</pdfrwt>
<pdfrwt beam="2">  1       -4 0.34441868E+00 0.20078054E+04</pdfrwt>
<totfact> 0.68439755E-02</totfact>
</mgrwt>
</event>
<event>
12    4  0.4398275E-008  0.2922624E+04  0.7818608E-02  0.8266178E-01
          1   -1    0    0  501    0  0.00000000000E+00  0.00000000000E+00  0.25469584414E+04  0.25469584414E+04  0.00000000000E+00 0. -1.
         -2   -1    0    0    0  501 -0.00000000000E+00 -0.00000000000E+00 -0.83842493694E+03  0.83842493694E+03  0.00000000000E+00 0.  1.
        -24    2    1    2    0    0  0.71904514739E+03  0.87258585663E+03  0.15614425014E+04  0.19294328990E+04  0.78591509152E+02 0.  0.
        254    2    1    2    0    0 -0.71904514739E+03 -0.87258585663E+03  0.14709100306E+03  0.14559504794E+04  0.90538612424E+03 0.  0.
         23    2    4    4    0    0 -0.44568841193E+03 -0.76775649144E+03  0.47192427199E+03  0.10095457148E+04  0.91552395898E+02 0.  0.
         23    2    4    4    0    0 -0.27335673546E+03 -0.10482936519E+03 -0.32483326894E+03  0.44640476451E+03  0.89707639234E+02 0.  0.
          1    1    3    3  502    0  0.60984634712E+03  0.77747918514E+03  0.13800157457E+04  0.16973007715E+04  0.00000000000E+00 0. -1.
         -2    1    3    3    0  502  0.10919880027E+03  0.95106671492E+02  0.18142675568E+03  0.23213212750E+03  0.00000000000E+00 0.  1.
         11    1    5    5    0    0 -0.39072946477E+03 -0.69559839243E+03  0.39326580966E+03  0.88948560148E+03  0.00000000000E+00 0. -1.
        -11    1    5    5    0    0 -0.54958947153E+02 -0.72158099008E+02  0.78658462329E+02  0.12006011336E+03  0.00000000000E+00 0.  1.
          4    1    6    6  503    0 -0.71274931342E+02  0.44387797019E+01 -0.11441384584E+03  0.13487159346E+03  0.00000000000E+00 0. -1.
         -4    1    6    6    0  503 -0.20208180412E+03 -0.10926814489E+03 -0.21041942310E+03  0.31153317104E+03  0.00000000000E+00 0.  1.
<mgrwt>
<rscale>  0 0.29226245E+04</rscale>
<asrwt>0</asrwt>
<pdfrwt beam="1">  1        1 0.39183976E+00 0.29226245E+04</pdfrwt>
<pdfrwt beam="2">  1       -2 0.12898845E+00 0.29226245E+04</pdfrwt>
<totfact> 0.41935939E-01</totfact>
</mgrwt>
</event>
<event>
12    4  0.4398275E-008  0.1323356E+04  0.7818608E-02  0.9011246E-01
          1   -1    0    0  501    0  0.00000000000E+00  0.00000000000E+00  0.61300596287E+03  0.61300596287E+03  0.00000000000E+00 0. -1.
         -2   -1    0    0    0  501 -0.00000000000E+00 -0.00000000000E+00 -0.71421456170E+03  0.71421456170E+03  0.00000000000E+00 0.  1.
        -24    2    1    2    0    0 -0.85591215609E+02 -0.33703363746E+03 -0.54785931334E+02  0.36123070646E+03  0.81046875611E+02 0.  0.
        254    2    1    2    0    0  0.85591215609E+02  0.33703363746E+03 -0.46422667497E+02  0.96598981812E+03  0.90003540802E+03 0.  0.
         23    2    4    4    0    0  0.41976675536E+03 -0.51637657296E+02  0.47379179160E+02  0.43598032699E+03  0.94675669260E+02 0.  0.
         23    2    4    4    0    0 -0.33417553975E+03  0.38867129475E+03 -0.93801846657E+02  0.53000949113E+03  0.96812228135E+02 0.  0.
          1    1    3    3  502    0  0.69845424612E+01 -0.26545617081E+01  0.52300985576E+01  0.91205516377E+01  0.00000000000E+00 0. -1.
         -2    1    3    3    0  502 -0.92575758071E+02 -0.33437907575E+03 -0.60016029892E+02  0.35211015482E+03  0.00000000000E+00 0.  1.
         11    1    5    5    0    0  0.20962668590E+03 -0.73398375339E+02  0.26821260954E+02  0.22371868268E+03  0.00000000000E+00 0.  1.
        -11    1    5    5    0    0  0.21014006946E+03  0.21760718043E+02  0.20557918206E+02  0.21226164431E+03  0.00000000000E+00 0. -1.
          3    1    6    6  503    0 -0.25234276079E+03  0.23845206237E+03 -0.91053559622E+02  0.35892479113E+03  0.00000000000E+00 0. -1.
         -3    1    6    6    0  503 -0.81832778964E+02  0.15021923238E+03 -0.27482870351E+01  0.17108470000E+03  0.00000000000E+00 0.  1.
<mgrwt>
<rscale>  0 0.13233560E+04</rscale>
<asrwt>0</asrwt>
<pdfrwt beam="1">  1        1 0.94308610E-01 0.13233560E+04</pdfrwt>
<pdfrwt beam="2">  1       -2 0.10987916E+00 0.13233560E+04</pdfrwt>
<totfact> 0.18771492E+01</totfact>
</mgrwt>
</event>
<event>
12    4  0.4398275E-008  0.2890896E+04  0.7818608E-02  0.8275591E-01
         -2   -1    0    0    0  501 -0.00000000000E+00  0.00000000000E+00  0.16015397445E+04  0.16015397445E+04  0.00000000000E+00 0.  1.
          1   -1    0    0  501    0  0.00000000000E+00 -0.00000000000E+00 -0.13045698300E+04  0.13045698300E+04  0.00000000000E+00 0. -1.
        -24    2    1    2    0    0 -0.10031312131E+04 -0.80446494366E+03  0.37346741225E+03  0.13414070287E+04  0.80366861609E+02 0.  0.
        254    2    1    2    0    0  0.10031312131E+04  0.80446494366E+03 -0.76497497738E+02  0.15647025457E+04  0.88826016063E+03 0.  0.
         23    2    4    4    0    0  0.80680452710E+03  0.61268143780E+03 -0.43370265856E+03  0.11056937263E+04  0.90269215077E+02 0.  0.
         23    2    4    4    0    0  0.19632668601E+03  0.19178350586E+03  0.35720516082E+03  0.45900881936E+03  0.88139029773E+02 0.  0.
          3    1    3    3  502    0 -0.57092513836E+03 -0.41732854168E+03  0.17962976773E+03  0.72964750309E+03  0.00000000000E+00 0. -1.
         -4    1    3    3    0  502 -0.43220607476E+03 -0.38713640198E+03  0.19383764452E+03  0.61175952566E+03  0.00000000000E+00 0.  1.
         11    1    5    5    0    0  0.76054155270E+03  0.59005853052E+03 -0.39170852059E+03  0.10392439983E+04  0.00000000000E+00 0.  1.
        -11    1    5    5    0    0  0.46262974409E+02  0.22622907279E+02 -0.41994137966E+02  0.66449728054E+02  0.00000000000E+00 0. -1.
          1    1    6    6  503    0  0.94789729863E+02  0.12918258403E+03  0.14766265074E+03  0.21789330262E+03  0.00000000000E+00 0. -1.
         -1    1    6    6    0  503  0.10153695615E+03  0.62600921829E+02  0.20954251009E+03  0.24111551674E+03  0.00000000000E+00 0.  1.
<mgrwt>
<rscale>  0 0.28908964E+04</rscale>
<asrwt>0</asrwt>
<pdfrwt beam="1">  1        1 0.20070305E+00 0.28908964E+04</pdfrwt>
<pdfrwt beam="2">  1       -2 0.24639073E+00 0.28908964E+04</pdfrwt>
<totfact> 0.45793123E-01</totfact>
</mgrwt>
</event>
<event>
12    4  0.4398275E-008  0.1622045E+04  0.7818608E-02  0.8807119E-01
         -2   -1    0    0    0  501 -0.00000000000E+00  0.00000000000E+00  0.13922708718E+04  0.13922708718E+04  0.00000000000E+00 0.  1.
          1   -1    0    0  501    0  0.00000000000E+00 -0.00000000000E+00 -0.47243472812E+03  0.47243472812E+03  0.00000000000E+00 0. -1.
        -24    2    1    2    0    0 -0.32739198951E+03 -0.25363621691E+03 -0.10991570810E+03  0.43525864002E+03  0.76496898654E+02 0.  0.
        254    2    1    2    0    0  0.32739198951E+03  0.25363621691E+03  0.10297518517E+04  0.14294469599E+04  0.90078459667E+03 0.  0.
         23    2    4    4    0    0  0.16163781844E+03 -0.31789735185E+03  0.53973260141E+03  0.65317234940E+03  0.90207130114E+02 0.  0.
         23    2    4    4    0    0  0.16575417106E+03  0.57153356876E+03  0.49001925034E+03  0.77627461048E+03  0.91423956024E+02 0.  0.
          1    1    3    3  502    0 -0.32233126817E+03 -0.24825722286E+03 -0.11866904349E+03  0.42380589546E+03  0.00000000000E+00 0. -1.
         -2    1    3    3    0  502 -0.50607213421E+01 -0.53789940441E+01  0.87533353961E+01  0.11452744561E+02  0.00000000000E+00 0.  1.
         11    1    5    5    0    0  0.16554347104E+03 -0.25004859383E+03  0.44263247078E+03  0.53465170370E+03  0.00000000000E+00 0. -1.
        -11    1    5    5    0    0 -0.39056526000E+01 -0.67848758020E+02  0.97100130629E+02  0.11852064569E+03  0.00000000000E+00 0.  1.
          3    1    6    6  503    0  0.11615494793E+03  0.43353242804E+03  0.31706559289E+03  0.54952063500E+03  0.00000000000E+00 0. -1.
         -3    1    6    6    0  503  0.49599223135E+02  0.13800114072E+03  0.17295365744E+03  0.22675397548E+03  0.00000000000E+00 0.  1.
<mgrwt>
<rscale>  0 0.16220445E+04</rscale>
<asrwt>0</asrwt>
<pdfrwt beam="1">  1        1 0.72682267E-01 0.16220445E+04</pdfrwt>
<pdfrwt beam="2">  1       -2 0.21419552E+00 0.16220445E+04</pdfrwt>
<totfact> 0.43169025E+00</totfact>
</mgrwt>
</event>
<event>
12    4  0.4398275E-008  0.2128537E+04  0.7818608E-02  0.8548776E-01
          1   -1    0    0  501    0  0.00000000000E+00  0.00000000000E+00  0.20802540162E+04  0.20802540162E+04  0.00000000000E+00 0. -1.
         -2   -1    0    0    0  501 -0.00000000000E+00 -0.00000000000E+00 -0.54448499417E+03  0.54448499417E+03  0.00000000000E+00 0.  1.
        -24    2    1    2    0    0  0.12254722423E+03 -0.18117186559E+03  0.16342719529E+04  0.16508057227E+04  0.80459002269E+02 0.  0.
        254    2    1    2    0    0 -0.12254722423E+03  0.18117186559E+03 -0.98502930869E+02  0.97393328767E+03  0.94392910454E+03 0.  0.
         23    2    4    4    0    0 -0.10742837412E+03  0.37465690122E+02  0.41118466394E+03  0.43638510984E+03  0.91731143743E+02 0.  0.
         23    2    4    4    0    0 -0.15118850110E+02  0.14370617547E+03 -0.50968759481E+03  0.53754817783E+03  0.91085425210E+02 0.  0.
          3    1    3    3  502    0  0.10438722797E+03 -0.18212831503E+03  0.15712996546E+04  0.15852602376E+04  0.00000000000E+00 0. -1.
         -4    1    3    3    0  502  0.18159996262E+02  0.95644944316E+00  0.62972298334E+02  0.65545485102E+02  0.00000000000E+00 0.  1.
         11    1    5    5    0    0  0.12217551287E+02  0.21249227166E+02  0.89215960547E+02  0.92521812731E+02  0.00000000000E+00 0. -1.
        -11    1    5    5    0    0 -0.11964592541E+03  0.16216462956E+02  0.32196870339E+03  0.34386329711E+03  0.00000000000E+00 0.  1.
          3    1    6    6  503    0 -0.46007711380E+02  0.10007061340E+03 -0.26295149802E+03  0.28508652631E+03  0.00000000000E+00 0. -1.
         -3    1    6    6    0  503  0.30888861271E+02  0.43635562070E+02 -0.24673609679E+03  0.25246165152E+03  0.00000000000E+00 0.  1.
<mgrwt>
<rscale>  0 0.21285367E+04</rscale>
<asrwt>0</asrwt>
<pdfrwt beam="1">  1        1 0.32003907E+00 0.21285367E+04</pdfrwt>
<pdfrwt beam="2">  1       -2 0.83766923E-01 0.21285367E+04</pdfrwt>
<totfact> 0.26383933E+00</totfact>
</mgrwt>
</event>
<event>
12    4  0.4398275E-008  0.1448346E+04  0.7818608E-02  0.8919548E-01
         -2   -1    0    0    0  501 -0.00000000000E+00  0.00000000000E+00  0.42390311511E+03  0.42390311511E+03  0.00000000000E+00 0.  1.
          1   -1    0    0  501    0  0.00000000000E+00 -0.00000000000E+00 -0.12371378412E+04  0.12371378412E+04  0.00000000000E+00 0. -1.
        -24    2    1    2    0    0  0.17084639468E+03 -0.18826650736E+03  0.15417706118E+03  0.30786509887E+03  0.79859780505E+02 0.  0.
        254    2    1    2    0    0 -0.17084639468E+03  0.18826650736E+03 -0.96741178731E+03  0.13531758575E+04  0.91135424870E+03 0.  0.
         23    2    4    4    0    0 -0.88948349652E+02  0.89180945790E+01  0.15973742570E+03  0.20515123731E+03  0.92626366044E+02 0.  0.
         23    2    4    4    0    0 -0.81898045029E+02  0.17934841278E+03 -0.11271492130E+04  0.11480246201E+04  0.92854925226E+02 0.  0.
          3    1    3    3  502    0  0.70322931077E+02 -0.41801809259E+02  0.17330481018E+02  0.83624466904E+02  0.00000000000E+00 0. -1.
         -4    1    3    3    0  502  0.10052346360E+03 -0.14646469810E+03  0.13684658017E+03  0.22424063197E+03  0.00000000000E+00 0.  1.
         11    1    5    5    0    0 -0.10796589697E+03  0.14163494566E+02  0.13819622643E+03  0.17594157123E+03  0.00000000000E+00 0.  1.
        -11    1    5    5    0    0  0.19017547318E+02 -0.52453999873E+01  0.21541199271E+02  0.29209666089E+02  0.00000000000E+00 0. -1.
          4    1    6    6  503    0 -0.88496351228E+01  0.80366911904E+02 -0.26254558500E+03  0.27471319731E+03  0.00000000000E+00 0. -1.
         -4    1    6    6    0  503 -0.73048409906E+02  0.98981500874E+02 -0.86460362800E+03  0.87331142284E+03  0.00000000000E+00 0.  1.
<mgrwt>
<rscale>  0 0.14483461E+04</rscale>
<asrwt>0</asrwt>
<pdfrwt beam="1">  1        1 0.19032890E+00 0.14483461E+04</pdfrwt>
<pdfrwt beam="2">  1       -2 0.65215864E-01 0.14483461E+04</pdfrwt>
<totfact> 0.18541542E+01</totfact>
</mgrwt>
</event>
<event>
12    4  0.4398275E-008  0.2273860E+04  0.7818608E-02  0.8488299E-01
          1   -1    0    0  501    0  0.00000000000E+00  0.00000000000E+00  0.10379915422E+04  0.10379915422E+04  0.00000000000E+00 0. -1.
         -2   -1    0    0    0  501 -0.00000000000E+00 -0.00000000000E+00 -0.12452993973E+04  0.12452993973E+04  0.00000000000E+00 0.  1.
        -24    2    1    2    0    0 -0.10047901081E+03  0.47383238250E+03 -0.92246370807E+03  0.10450184655E+04  0.80691648704E+02 0.  0.
        254    2    1    2    0    0  0.10047901081E+03 -0.47383238250E+03  0.71515585291E+03  0.12382724740E+04  0.88727541810E+03 0.  0.
         23    2    4    4    0    0 -0.12642209786E+03 -0.63056100884E+03  0.68850296841E+03  0.94663957539E+03  0.92197697917E+02 0.  0.
         23    2    4    4    0    0  0.22690110866E+03  0.15672862634E+03  0.26652884500E+02  0.29163289859E+03  0.91057102200E+02 0.  0.
          1    1    3    3  502    0 -0.19447925530E+02  0.26424981536E+02 -0.99916750702E+02  0.10516586199E+03  0.00000000000E+00 0. -1.
         -2    1    3    3    0  502 -0.81031085276E+02  0.44740740096E+03 -0.82254695736E+03  0.93985260349E+03  0.00000000000E+00 0.  1.
         11    1    5    5    0    0 -0.72167184442E+02 -0.52205173611E+03  0.53494306490E+03  0.75093954509E+03  0.00000000000E+00 0. -1.
        -11    1    5    5    0    0 -0.54254913418E+02 -0.10850927272E+03  0.15355990350E+03  0.19570003030E+03  0.00000000000E+00 0.  1.
          3    1    6    6  503    0  0.20860924542E+03  0.16631881078E+03  0.35533307232E+02  0.26915122146E+03  0.00000000000E+00 0. -1.
         -3    1    6    6    0  503  0.18291863250E+02 -0.95901844378E+01 -0.88804227322E+01  0.22481677131E+02  0.00000000000E+00 0.  1.
<mgrwt>
<rscale>  0 0.22738604E+04</rscale>
<asrwt>0</asrwt>
<pdfrwt beam="1">  1        1 0.15969101E+00 0.22738604E+04</pdfrwt>
<pdfrwt beam="2">  1       -2 0.19158452E+00 0.22738604E+04</pdfrwt>
<totfact> 0.16985195E+00</totfact>
</mgrwt>
</event>
<event>
12    4  0.4398275E-008  0.2922206E+04  0.7818608E-02  0.8266301E-01
         -2   -1    0    0    0  501 -0.00000000000E+00  0.00000000000E+00  0.60579555810E+03  0.60579555810E+03  0.00000000000E+00 0.  1.
          1   -1    0    0  501    0  0.00000000000E+00 -0.00000000000E+00 -0.35239977131E+04  0.35239977131E+04  0.00000000000E+00 0. -1.
        -24    2    1    2    0    0  0.96716523569E+03  0.86132583564E+03 -0.96115180962E+03  0.16147678685E+04  0.79822801934E+02 0.  0.
        254    2    1    2    0    0 -0.96716523569E+03 -0.86132583564E+03 -0.19570503453E+04  0.25150254027E+04  0.90444233294E+03 0.  0.
         23    2    4    4    0    0  0.17207687289E+02 -0.30335010537E+03 -0.93593750897E+03  0.98823632410E+03  0.91184541680E+02 0.  0.
         23    2    4    4    0    0 -0.98437292298E+03 -0.55797573027E+03 -0.10211128364E+04  0.15267890786E+04  0.89924961984E+02 0.  0.
          3    1    3    3  502    0  0.20837002471E+03  0.21235830516E+03 -0.25484083801E+03  0.39173711809E+03  0.00000000000E+00 0. -1.
         -4    1    3    3    0  502  0.75879521097E+03  0.64896753049E+03 -0.70631097160E+03  0.12230307504E+04  0.00000000000E+00 0.  1.
         11    1    5    5    0    0 -0.10579407571E+02 -0.28171052247E+03 -0.82408451116E+03  0.87096958838E+03  0.00000000000E+00 0.  1.
        -11    1    5    5    0    0  0.27787094861E+02 -0.21639582898E+02 -0.11185299781E+03  0.11726673572E+03  0.00000000000E+00 0. -1.
          1    1    6    6  503    0 -0.85140970442E+01 -0.50788121804E+01 -0.24303475065E+02  0.26247725270E+02  0.00000000000E+00 0. -1.
         -1    1    6    6    0  503 -0.97585882593E+03 -0.55289691809E+03 -0.99680936131E+03  0.15005413533E+04  0.00000000000E+00 0.  1.
<mgrwt>
<rscale>  0 0.29222061E+04</rscale>
<asrwt>0</asrwt>
<pdfrwt beam="1">  1        1 0.54215350E+00 0.29222061E+04</pdfrwt>
<pdfrwt beam="2">  1       -2 0.93199316E-01 0.29222061E+04</pdfrwt>
<totfact> 0.17566894E-01</totfact>
</mgrwt>
</event>
<event>
12    4  0.4398275E-008  0.2210109E+04  0.7818608E-02  0.8514232E-01
          1   -1    0    0  501    0  0.00000000000E+00  0.00000000000E+00  0.10860097883E+04  0.10860097883E+04  0.00000000000E+00 0. -1.
         -2   -1    0    0    0  501 -0.00000000000E+00 -0.00000000000E+00 -0.11244331659E+04  0.11244331659E+04  0.00000000000E+00 0.  1.
        -24    2    1    2    0    0 -0.81840865074E+03  0.80603175503E+02  0.39503409276E+03  0.91578332236E+03  0.79483127482E+02 0.  0.
        254    2    1    2    0    0  0.81840865074E+03 -0.80603175503E+02 -0.43345747038E+03  0.12946596319E+04  0.90109299868E+03 0.  0.
         23    2    4    4    0    0 -0.13912512325E+03  0.13004027142E+03 -0.17998999978E+03  0.27795464494E+03  0.92715222648E+02 0.  0.
         23    2    4    4    0    0  0.95753377399E+03 -0.21064344692E+03 -0.25346747060E+03  0.10167049869E+04  0.90563136761E+02 0.  0.
          1    1    3    3  502    0 -0.74490151751E+03  0.95502669687E+02  0.35329717500E+03  0.82995055550E+03  0.00000000000E+00 0. -1.
         -2    1    3    3    0  502 -0.73507133234E+02 -0.14899494183E+02  0.41736917758E+02  0.85832766862E+02  0.00000000000E+00 0.  1.
         11    1    5    5    0    0 -0.30572612829E+02  0.21754277706E+02  0.48089603177E+01  0.37829345131E+02  0.00000000000E+00 0.  1.
        -11    1    5    5    0    0 -0.10855251042E+03  0.10828599372E+03 -0.18479896010E+03  0.24012529981E+03  0.00000000000E+00 0. -1.
          1    1    6    6  503    0  0.92153709544E+03 -0.20166777471E+03 -0.22464237381E+03  0.96972403587E+03  0.00000000000E+00 0. -1.
         -1    1    6    6    0  503  0.35996678551E+02 -0.89756722158E+01 -0.28825096784E+02  0.46980951066E+02  0.00000000000E+00 0.  1.
<mgrwt>
<rscale>  0 0.22101090E+04</rscale>
<asrwt>0</asrwt>
<pdfrwt beam="1">  1        1 0.16707843E+00 0.22101090E+04</pdfrwt>
<pdfrwt beam="2">  1       -2 0.17298972E+00 0.22101090E+04</pdfrwt>
<totfact> 0.21065821E+00</totfact>
</mgrwt>
</event>
<event>
12    4  0.4398275E-008  0.1640821E+04  0.7818608E-02  0.8795855E-01
         -2   -1    0    0    0  501 -0.00000000000E+00  0.00000000000E+00  0.36719693202E+03  0.36719693202E+03  0.00000000000E+00 0.  1.
          1   -1    0    0  501    0  0.00000000000E+00 -0.00000000000E+00 -0.18330048818E+04  0.18330048818E+04  0.00000000000E+00 0. -1.
        -24    2    1    2    0    0  0.39919042937E+03 -0.38665821572E+03 -0.59105891558E+03  0.81517689297E+03  0.79404977496E+02 0.  0.
        254    2    1    2    0    0 -0.39919042937E+03  0.38665821572E+03 -0.87474903415E+03  0.13850249208E+04  0.91883109645E+03 0.  0.
         23    2    4    4    0    0 -0.23291941417E+02  0.46484265523E+03 -0.86994634996E+03  0.99050624145E+03  0.87605672718E+02 0.  0.
         23    2    4    4    0    0 -0.37589848795E+03 -0.78184439506E+02 -0.48026841886E+01  0.39451867935E+03  0.90605975274E+02 0.  0.
          3    1    3    3  502    0  0.26180151195E+03 -0.29393127487E+03 -0.44663871237E+03  0.59533332293E+03  0.00000000000E+00 0. -1.
         -4    1    3    3    0  502  0.13738891742E+03 -0.92726940851E+02 -0.14442020322E+03  0.21984357004E+03  0.00000000000E+00 0.  1.
         11    1    5    5    0    0 -0.24680843940E+01  0.16730065421E+03 -0.22957074346E+03  0.28407450888E+03  0.00000000000E+00 0. -1.
        -11    1    5    5    0    0 -0.20823857023E+02  0.29754200101E+03 -0.64037560650E+03  0.70643173258E+03  0.00000000000E+00 0.  1.
          1    1    6    6  503    0 -0.10108451876E+03 -0.61452760227E+02  0.10551219490E+02  0.11876805086E+03  0.00000000000E+00 0. -1.
         -1    1    6    6    0  503 -0.27481396919E+03 -0.16731679278E+02 -0.15353903679E+02  0.27575062848E+03  0.00000000000E+00 0.  1.
<mgrwt>
<rscale>  0 0.16408215E+04</rscale>
<asrwt>0</asrwt>
<pdfrwt beam="1">  1        1 0.28200076E+00 0.16408215E+04</pdfrwt>
<pdfrwt beam="2">  1       -2 0.56491834E-01 0.16408215E+04</pdfrwt>
<totfact> 0.95502970E+00</totfact>
</mgrwt>
</event>
<event>
12    4  0.4398275E-008  0.1161370E+04  0.7818608E-02  0.9147358E-01
          1   -1    0    0  501    0  0.00000000000E+00  0.00000000000E+00  0.23950377405E+03  0.23950377405E+03  0.00000000000E+00 0. -1.
         -2   -1    0    0    0  501 -0.00000000000E+00 -0.00000000000E+00 -0.14078909630E+04  0.14078909630E+04  0.00000000000E+00 0.  1.
        -24    2    1    2    0    0 -0.50264603951E+02  0.10426097307E+03 -0.50367962458E+03  0.52289106895E+03  0.79530024915E+02 0.  0.
        254    2    1    2    0    0  0.50264603951E+02 -0.10426097307E+03 -0.66470756437E+03  0.11245036681E+04  0.89959739467E+03 0.  0.
         23    2    4    4    0    0 -0.34918175864E+03  0.18480887514E+03 -0.29983527933E+03  0.50427386306E+03  0.91152143895E+02 0.  0.
         23    2    4    4    0    0  0.39944636259E+03 -0.28906984822E+03 -0.36487228504E+03  0.62022980503E+03  0.91839277664E+02 0.  0.
          1    1    3    3  502    0 -0.35757237654E+02  0.90910834458E+01 -0.75630257848E+02  0.84149650890E+02  0.00000000000E+00 0. -1.
         -2    1    3    3    0  502 -0.14507366297E+02  0.95169889628E+02 -0.42804936673E+03  0.43874141806E+03  0.00000000000E+00 0.  1.
         11    1    5    5    0    0 -0.26291542653E+03  0.11519531914E+03 -0.17021504319E+03  0.33371791080E+03  0.00000000000E+00 0. -1.
        -11    1    5    5    0    0 -0.86266332105E+02  0.69613556003E+02 -0.12962023614E+03  0.17055595226E+03  0.00000000000E+00 0.  1.
          2    1    6    6  503    0  0.16058360110E+02 -0.28853266300E+02 -0.50338498390E+02  0.60202544180E+02  0.00000000000E+00 0. -1.
         -2    1    6    6    0  503  0.38338800248E+03 -0.26021658192E+03 -0.31453378665E+03  0.56002726085E+03  0.00000000000E+00 0.  1.
<mgrwt>
<rscale>  0 0.11613702E+04</rscale>
<asrwt>0</asrwt>
<pdfrwt beam="1">  1        1 0.36846735E-01 0.11613702E+04</pdfrwt>
<pdfrwt beam="2">  1       -2 0.21659861E+00 0.11613702E+04</pdfrwt>
<totfact> 0.10577201E+01</totfact>
</mgrwt>
</event>
<event>
12    4  0.4398275E-008  0.2808300E+04  0.7818608E-02  0.8300696E-01
          1   -1    0    0  501    0  0.00000000000E+00  0.00000000000E+00  0.18510567359E+04  0.18510567359E+04  0.00000000000E+00 0. -1.
         -2   -1    0    0    0  501 -0.00000000000E+00 -0.00000000000E+00 -0.10651413743E+04  0.10651413743E+04  0.00000000000E+00 0.  1.
        -24    2    1    2    0    0  0.44264665902E+03  0.54128650559E+03 -0.72830277485E+03  0.10127035348E+04  0.78843970155E+02 0.  0.
        254    2    1    2    0    0 -0.44264665902E+03 -0.54128650559E+03  0.15142181364E+04  0.19034945754E+04  0.91733739064E+03 0.  0.
         23    2    4    4    0    0  0.10930006175E+03  0.16856755800E+03  0.15230264775E+03  0.26903326796E+03  0.93921656967E+02 0.  0.
         23    2    4    4    0    0 -0.55194672077E+03 -0.70985406359E+03  0.13619154886E+04  0.16344613075E+04  0.90066604723E+02 0.  0.
          3    1    3    3  502    0  0.29302756277E+02  0.70013033843E+02 -0.63398882030E+02  0.98893350009E+02  0.00000000000E+00 0. -1.
         -4    1    3    3    0  502  0.41334390274E+03  0.47127347175E+03 -0.66490389282E+03  0.91381018477E+03  0.00000000000E+00 0.  1.
         11    1    5    5    0    0  0.10414817425E+03  0.98062756555E+02  0.66191027806E+02  0.15762106009E+03  0.00000000000E+00 0.  1.
        -11    1    5    5    0    0  0.51518874990E+01  0.70504801447E+02  0.86111619945E+02  0.11141220787E+03  0.00000000000E+00 0. -1.
          3    1    6    6  503    0 -0.20315630431E+03 -0.32792480296E+03  0.55006536054E+03  0.67184749850E+03  0.00000000000E+00 0. -1.
         -3    1    6    6    0  503 -0.34879041646E+03 -0.38192926063E+03  0.81185012806E+03  0.96261380895E+03  0.00000000000E+00 0.  1.
<mgrwt>
<rscale>  0 0.28082999E+04</rscale>
<asrwt>0</asrwt>
<pdfrwt beam="1">  1        1 0.28477796E+00 0.28082999E+04</pdfrwt>
<pdfrwt beam="2">  1       -2 0.16386790E+00 0.28082999E+04</pdfrwt>
<totfact> 0.67472515E-01</totfact>
</mgrwt>
</event>
<event>
12    4  0.4398275E-008  0.1519118E+04  0.7818608E-02  0.8871838E-01
         -2   -1    0    0    0  501 -0.00000000000E+00  0.00000000000E+00  0.22376160362E+03  0.22376160362E+03  0.00000000000E+00 0.  1.
          1   -1    0    0  501    0  0.00000000000E+00 -0.00000000000E+00 -0.25783248764E+04  0.25783248764E+04  0.00000000000E+00 0. -1.
        -24    2    1    2    0    0  0.28237021715E+03  0.21648855343E+03 -0.15415965872E+03  0.39790351816E+03  0.89228785078E+02 0.  0.
        254    2    1    2    0    0 -0.28237021715E+03 -0.21648855343E+03 -0.22004036140E+04  0.24041829618E+04  0.90095472473E+03 0.  0.
         23    2    4    4    0    0 -0.30817209113E+03 -0.43558488053E+02 -0.17444912398E+03  0.36862527567E+03  0.92653749918E+02 0.  0.
         23    2    4    4    0    0  0.25801873978E+02 -0.17293006538E+03 -0.20259544901E+04  0.20355576862E+04  0.91831115151E+02 0.  0.
          1    1    3    3  502    0 -0.64789711733E+01  0.81395511335E+01 -0.19188451115E+01  0.10578814994E+02  0.00000000000E+00 0. -1.
         -2    1    3    3    0  502  0.28884918833E+03  0.20834900230E+03 -0.15224081361E+03  0.38732470317E+03  0.00000000000E+00 0.  1.
         11    1    5    5    0    0 -0.79178730652E+02  0.22950642803E+02 -0.21028726330E+02  0.85077674650E+02  0.00000000000E+00 0.  1.
        -11    1    5    5    0    0 -0.22899336048E+03 -0.66509130857E+02 -0.15342039765E+03  0.28354760102E+03  0.00000000000E+00 0. -1.
          1    1    6    6  503    0  0.10479090268E+02 -0.48877741308E+02 -0.11086292797E+04  0.11097557050E+04  0.00000000000E+00 0. -1.
         -1    1    6    6    0  503  0.15322783710E+02 -0.12405232407E+03 -0.91732521033E+03  0.92580198116E+03  0.00000000000E+00 0.  1.
<mgrwt>
<rscale>  0 0.15191183E+04</rscale>
<asrwt>0</asrwt>
<pdfrwt beam="1">  1        1 0.39666538E+00 0.15191183E+04</pdfrwt>
<pdfrwt beam="2">  1       -2 0.34424861E-01 0.15191183E+04</pdfrwt>
<totfact> 0.80366421E+00</totfact>
</mgrwt>
</event>
<event>
12    4  0.4398275E-008  0.1742337E+04  0.7818608E-02  0.8737579E-01
          1   -1    0    0  501    0  0.00000000000E+00  0.00000000000E+00  0.14029840876E+04  0.14029840876E+04  0.00000000000E+00 0. -1.
         -2   -1    0    0    0  501 -0.00000000000E+00 -0.00000000000E+00 -0.54094334126E+03  0.54094334126E+03  0.00000000000E+00 0.  1.
        -24    2    1    2    0    0 -0.12151373233E+03  0.43268096230E+03  0.81138607497E+03  0.93118775071E+03  0.82370274605E+02 0.  0.
        254    2    1    2    0    0  0.12151373233E+03 -0.43268096230E+03  0.50654671379E+02  0.10127396782E+04  0.90614422566E+03 0.  0.
         23    2    4    4    0    0  0.30464595441E+03  0.13250576797E+03  0.19362644516E+03  0.39515589893E+03  0.91049701290E+02 0.  0.
         23    2    4    4    0    0 -0.18313222208E+03 -0.56518673027E+03 -0.14297177378E+03  0.61758377923E+03  0.89416695492E+02 0.  0.
          1    1    3    3  502    0 -0.62100812911E+02  0.31042534072E+03  0.62377143132E+03  0.69950782816E+03  0.00000000000E+00 0. -1.
         -2    1    3    3    0  502 -0.59412919421E+02  0.12225562157E+03  0.18761464365E+03  0.23167992255E+03  0.00000000000E+00 0.  1.
         11    1    5    5    0    0  0.82771781343E+02  0.36056006665E+01  0.19682745041E+02  0.85156201156E+02  0.00000000000E+00 0.  1.
        -11    1    5    5    0    0  0.22187417307E+03  0.12890016731E+03  0.17394370012E+03  0.30999969777E+03  0.00000000000E+00 0. -1.
          3    1    6    6  503    0 -0.84967201117E+02 -0.25582801914E+03 -0.11073452904E+03  0.29142672589E+03  0.00000000000E+00 0. -1.
         -3    1    6    6    0  503 -0.98165020964E+02 -0.30935871113E+03 -0.32237244738E+02  0.32615705334E+03  0.00000000000E+00 0.  1.
<mgrwt>
<rscale>  0 0.17423374E+04</rscale>
<asrwt>0</asrwt>
<pdfrwt beam="1">  1        1 0.21584370E+00 0.17423374E+04</pdfrwt>
<pdfrwt beam="2">  1       -2 0.83222053E-01 0.17423374E+04</pdfrwt>
<totfact> 0.80423050E+00</totfact>
</mgrwt>
</event>
<event>
12    4  0.4398275E-008  0.2411189E+04  0.7818608E-02  0.8435327E-01
         -2   -1    0    0    0  501 -0.00000000000E+00  0.00000000000E+00  0.64200199807E+03  0.64200199807E+03  0.00000000000E+00 0.  1.
          1   -1    0    0  501    0  0.00000000000E+00 -0.00000000000E+00 -0.22639457998E+04  0.22639457998E+04  0.00000000000E+00 0. -1.
        -24    2    1    2    0    0 -0.39373867642E+03  0.38104323326E+02 -0.18502230410E+04  0.18936855603E+04  0.78978572735E+02 0.  0.
        254    2    1    2    0    0  0.39373867642E+03 -0.38104323326E+02  0.22827923923E+03  0.10122622377E+04  0.90337220565E+03 0.  0.
         23    2    4    4    0    0  0.33922746703E+03 -0.32438904180E+03 -0.17106299844E+03  0.50786971551E+03  0.91463510044E+02 0.  0.
         23    2    4    4    0    0  0.54511209394E+02  0.28628471848E+03  0.39934223766E+03  0.50439252214E+03  0.10003590171E+03 0.  0.
          1    1    3    3  502    0 -0.37915227126E+03  0.24362937507E+02 -0.17990034234E+04  0.18386852137E+04  0.00000000000E+00 0. -1.
         -2    1    3    3    0  502 -0.14586405160E+02  0.13741385820E+02 -0.51219617580E+02  0.55000346588E+02  0.00000000000E+00 0.  1.
         11    1    5    5    0    0  0.20171144901E+03 -0.13351238849E+03 -0.10349050383E+03  0.26310330846E+03  0.00000000000E+00 0. -1.
        -11    1    5    5    0    0  0.13751601802E+03 -0.19087665331E+03 -0.67572494609E+02  0.24476640705E+03  0.00000000000E+00 0.  1.
          3    1    6    6  503    0 -0.16290273464E+02  0.59214316640E+02  0.13782318840E+03  0.15088717495E+03  0.00000000000E+00 0. -1.
         -3    1    6    6    0  503  0.70801482857E+02  0.22707040184E+03  0.26151904926E+03  0.35350534719E+03  0.00000000000E+00 0.  1.
<mgrwt>
<rscale>  0 0.24111887E+04</rscale>
<asrwt>0</asrwt>
<pdfrwt beam="1">  1        1 0.34829936E+00 0.24111887E+04</pdfrwt>
<pdfrwt beam="2">  1       -2 0.98769537E-01 0.24111887E+04</pdfrwt>
<totfact> 0.13182381E+00</totfact>
</mgrwt>
</event>
<event>
12    4  0.4398275E-008  0.2839131E+04  0.7818608E-02  0.8291222E-01
          1   -1    0    0  501    0  0.00000000000E+00  0.00000000000E+00  0.32223631292E+04  0.32223631292E+04  0.00000000000E+00 0. -1.
         -2   -1    0    0    0  501 -0.00000000000E+00 -0.00000000000E+00 -0.62536888945E+03  0.62536888945E+03  0.00000000000E+00 0.  1.
        -24    2    1    2    0    0 -0.32627325197E+03  0.30964919175E+02 -0.50175534398E+03  0.60470471435E+03  0.80599659922E+02 0.  0.
        254    2    1    2    0    0  0.32627325197E+03 -0.30964919175E+02  0.30987495837E+04  0.32430273043E+04  0.89864567687E+03 0.  0.
         23    2    4    4    0    0  0.84373880751E+02 -0.35767417725E+03  0.58760130978E+03  0.69759935916E+03  0.79497156020E+02 0.  0.
         23    2    4    4    0    0  0.24189937121E+03  0.32670925808E+03  0.25111482740E+04  0.25454279451E+04  0.89908425651E+02 0.  0.
          1    1    3    3  502    0 -0.89135648671E+02 -0.95132012095E+01 -0.85190460960E+02  0.12366519114E+03  0.00000000000E+00 0. -1.
         -2    1    3    3    0  502 -0.23713760329E+03  0.40478120385E+02 -0.41656488302E+03  0.48103952321E+03  0.00000000000E+00 0.  1.
         11    1    5    5    0    0  0.52666077663E+01 -0.14785173970E+03  0.28326312936E+03  0.31957139194E+03  0.00000000000E+00 0.  1.
        -11    1    5    5    0    0  0.79107272985E+02 -0.20982243755E+03  0.30433818042E+03  0.37802796722E+03  0.00000000000E+00 0. -1.
          2    1    6    6  503    0  0.40415438440E+02  0.28699288587E+02  0.49148930157E+03  0.49398258106E+03  0.00000000000E+00 0. -1.
         -2    1    6    6    0  503  0.20148393277E+03  0.29800996949E+03  0.20196589724E+04  0.20514453641E+04  0.00000000000E+00 0.  1.
<mgrwt>
<rscale>  0 0.28391306E+04</rscale>
<asrwt>0</asrwt>
<pdfrwt beam="1">  1        1 0.49574816E+00 0.28391306E+04</pdfrwt>
<pdfrwt beam="2">  1       -2 0.96210600E-01 0.28391306E+04</pdfrwt>
<totfact> 0.28074604E-01</totfact>
</mgrwt>
</event>
<event>
12    4  0.4398275E-008  0.1678546E+04  0.7818608E-02  0.8773696E-01
          1   -1    0    0  501    0  0.00000000000E+00  0.00000000000E+00  0.13988192945E+04  0.13988192945E+04  0.00000000000E+00 0. -1.
         -2   -1    0    0    0  501 -0.00000000000E+00 -0.00000000000E+00 -0.50355295063E+03  0.50355295063E+03  0.00000000000E+00 0.  1.
        -24    2    1    2    0    0 -0.19179357900E+03 -0.56487955037E+03  0.36167570005E+03  0.70212104998E+03  0.79315657029E+02 0.  0.
        254    2    1    2    0    0  0.19179357900E+03  0.56487955037E+03  0.53359064382E+03  0.12002511952E+04  0.89443293373E+03 0.  0.
         23    2    4    4    0    0 -0.22506372653E+03  0.51481043864E+03  0.51854811285E+03  0.76996618857E+03  0.90952281235E+02 0.  0.
         23    2    4    4    0    0  0.41685730553E+03  0.50069111728E+02  0.15042530966E+02  0.43028500659E+03  0.92962250596E+02 0.  0.
          1    1    3    3  502    0 -0.14634635911E+01 -0.16003912714E+02  0.27699681341E+02  0.32024042441E+02  0.00000000000E+00 0. -1.
         -2    1    3    3    0  502 -0.19033011540E+03 -0.54887563765E+03  0.33397601871E+03  0.67009700754E+03  0.00000000000E+00 0.  1.
         11    1    5    5    0    0 -0.13491007656E+03  0.39529508555E+03  0.35409834179E+03  0.54758065075E+03  0.00000000000E+00 0. -1.
        -11    1    5    5    0    0 -0.90153649975E+02  0.11951535309E+03  0.16444977107E+03  0.22238553782E+03  0.00000000000E+00 0.  1.
          3    1    6    6  503    0  0.63916053953E+02 -0.25953126929E+02  0.19493286674E+01  0.69011786186E+02  0.00000000000E+00 0.  1.
         -3    1    6    6    0  503  0.35294125157E+03  0.76022238657E+02  0.13093202299E+02  0.36127322040E+03  0.00000000000E+00 0. -1.
<mgrwt>
<rscale>  0 0.16785465E+04</rscale>
<asrwt>0</asrwt>
<pdfrwt beam="1">  1        1 0.21520297E+00 0.16785465E+04</pdfrwt>
<pdfrwt beam="2">  1       -2 0.77469685E-01 0.16785465E+04</pdfrwt>
<totfact> 0.95651850E+00</totfact>
</mgrwt>
</event>
<event>
12    4  0.4398275E-008  0.2422072E+04  0.7818608E-02  0.8431286E-01
         -2   -1    0    0    0  501 -0.00000000000E+00  0.00000000000E+00  0.42600011573E+04  0.42600011573E+04  0.00000000000E+00 0.  1.
          1   -1    0    0  501    0  0.00000000000E+00 -0.00000000000E+00 -0.34427413555E+03  0.34427413555E+03  0.00000000000E+00 0. -1.
        -24    2    1    2    0    0 -0.39158244012E+03  0.52716376963E+03  0.15303942888E+03  0.67896694728E+03  0.79602771833E+02 0.  0.
        254    2    1    2    0    0  0.39158244012E+03 -0.52716376963E+03  0.37626875929E+04  0.39253083456E+04  0.90498024219E+03 0.  0.
         23    2    4    4    0    0  0.15228439135E+03 -0.64465707717E+03  0.14643819772E+04  0.16098482957E+04  0.91780592156E+02 0.  0.
         23    2    4    4    0    0  0.23929804877E+03  0.11749330754E+03  0.22983056157E+04  0.23154600499E+04  0.89879396337E+02 0.  0.
          1    1    3    3  502    0 -0.34026111016E+03  0.42782779243E+03  0.15110804444E+03  0.56714009218E+03  0.00000000000E+00 0. -1.
         -2    1    3    3    0  502 -0.51321329963E+02  0.99335977208E+02  0.19313844383E+01  0.11182685511E+03  0.00000000000E+00 0.  1.
         11    1    5    5    0    0 -0.36079598641E+01 -0.97702016727E+01  0.69828539236E+01  0.12539316729E+02  0.00000000000E+00 0. -1.
        -11    1    5    5    0    0  0.15589235121E+03 -0.63488687550E+03  0.14573991232E+04  0.15973089790E+04  0.00000000000E+00 0.  1.
          4    1    6    6  503    0  0.14005991487E+03  0.96404126461E+02  0.11250374411E+04  0.11378135960E+04  0.00000000000E+00 0. -1.
         -4    1    6    6    0  503  0.99238133905E+02  0.21089181079E+02  0.11732681746E+04  0.11776464539E+04  0.00000000000E+00 0.  1.
<mgrwt>
<rscale>  0 0.24220720E+04</rscale>
<asrwt>0</asrwt>
<pdfrwt beam="1">  1        1 0.52965255E-01 0.24220720E+04</pdfrwt>
<pdfrwt beam="2">  1       -2 0.65538476E+00 0.24220720E+04</pdfrwt>
<totfact> 0.18178746E-02</totfact>
</mgrwt>
</event>
<event>
12    4  0.4398275E-008  0.1395208E+04  0.7818608E-02  0.8957295E-01
         -2   -1    0    0    0  501 -0.00000000000E+00  0.00000000000E+00  0.75667101206E+03  0.75667101206E+03  0.00000000000E+00 0.  1.
          1   -1    0    0  501    0  0.00000000000E+00 -0.00000000000E+00 -0.64314780063E+03  0.64314780063E+03  0.00000000000E+00 0. -1.
        -24    2    1    2    0    0 -0.25463590110E+03  0.31040149707E+03  0.64382040873E+01  0.40936297305E+03  0.79674724471E+02 0.  0.
        254    2    1    2    0    0  0.25463590110E+03 -0.31040149707E+03  0.10708500734E+03  0.99045583964E+03  0.89908121989E+03 0.  0.
         23    2    4    4    0    0  0.32147682111E+03 -0.36100852282E+03  0.42529795737E+03  0.65035662796E+03  0.91710909551E+02 0.  0.
         23    2    4    4    0    0 -0.66840920007E+02  0.50607025747E+02 -0.31821295004E+03  0.34009921168E+03  0.85902343221E+02 0.  0.
          1    1    3    3  502    0 -0.17174141543E+03  0.22431517702E+03 -0.30805098194E+02  0.28418544384E+03  0.00000000000E+00 0. -1.
         -2    1    3    3    0  502 -0.82894485674E+02  0.86086320051E+02  0.37243302281E+02  0.12517752921E+03  0.00000000000E+00 0.  1.
         11    1    5    5    0    0  0.25520366883E+03 -0.30797092585E+03  0.30436067148E+03  0.50260364314E+03  0.00000000000E+00 0.  1.
        -11    1    5    5    0    0  0.66273152273E+02 -0.53037596971E+02  0.12093728589E+03  0.14775298482E+03  0.00000000000E+00 0. -1.
          3    1    6    6  503    0 -0.30209235388E+02  0.29949252047E+01 -0.21090133916E+02  0.36964323723E+02  0.00000000000E+00 0. -1.
         -3    1    6    6    0  503 -0.36631684619E+02  0.47612100542E+02 -0.29712281612E+03  0.30313488795E+03  0.00000000000E+00 0.  1.
<mgrwt>
<rscale>  0 0.13952079E+04</rscale>
<asrwt>0</asrwt>
<pdfrwt beam="1">  1        1 0.98945815E-01 0.13952079E+04</pdfrwt>
<pdfrwt beam="2">  1       -2 0.11641093E+00 0.13952079E+04</pdfrwt>
<totfact> 0.15115508E+01</totfact>
</mgrwt>
</event>
<event>
12    4  0.4398275E-008  0.1217758E+04  0.7818608E-02  0.9097454E-01
          1   -1    0    0  501    0  0.00000000000E+00  0.00000000000E+00  0.15245063384E+04  0.15245063384E+04  0.00000000000E+00 0. -1.
         -2   -1    0    0    0  501 -0.00000000000E+00 -0.00000000000E+00 -0.24318263369E+03  0.24318263369E+03  0.00000000000E+00 0.  1.
        -24    2    1    2    0    0 -0.13455221198E+03  0.36698156024E+02 -0.38504847207E+02  0.16361607694E+03  0.76397283795E+02 0.  0.
        254    2    1    2    0    0  0.13455221198E+03 -0.36698156024E+02  0.13198285519E+04  0.16040728951E+04  0.90091697404E+03 0.  0.
         23    2    4    4    0    0 -0.26467813567E+03  0.26786142396E+03  0.71175913906E+03  0.81005784150E+03  0.88251779546E+02 0.  0.
         23    2    4    4    0    0  0.39923034764E+03 -0.30455957999E+03  0.60806941283E+03  0.79401505363E+03  0.92574760768E+02 0.  0.
          1    1    3    3  502    0 -0.10611937563E+02 -0.19468951731E+02  0.96658759197E-01  0.22173467100E+02  0.00000000000E+00 0. -1.
         -2    1    3    3    0  502 -0.12394027441E+03  0.56167107755E+02 -0.38601505966E+02  0.14144260984E+03  0.00000000000E+00 0.  1.
         11    1    5    5    0    0 -0.72149240612E+00 -0.38870434089E+01  0.28735850523E+02  0.29006529662E+02  0.00000000000E+00 0. -1.
        -11    1    5    5    0    0 -0.26395664326E+03  0.27174846737E+03  0.68302328854E+03  0.78105131184E+03  0.00000000000E+00 0.  1.
          1    1    6    6  503    0  0.10986642784E+03 -0.10993854234E+03  0.24860668494E+03  0.29319344954E+03  0.00000000000E+00 0. -1.
         -1    1    6    6    0  503  0.28936391980E+03 -0.19462103764E+03  0.35946272789E+03  0.50082160408E+03  0.00000000000E+00 0.  1.
<mgrwt>
<rscale>  0 0.12177577E+04</rscale>
<asrwt>0</asrwt>
<pdfrwt beam="1">  1        1 0.23453943E+00 0.12177577E+04</pdfrwt>
<pdfrwt beam="2">  1       -2 0.37412714E-01 0.12177577E+04</pdfrwt>
<totfact> 0.36760428E+01</totfact>
</mgrwt>
</event>
<event>
12    4  0.4398275E-008  0.1411886E+04  0.7818608E-02  0.8945259E-01
          1   -1    0    0  501    0  0.00000000000E+00  0.00000000000E+00  0.88757180869E+03  0.88757180869E+03  0.00000000000E+00 0. -1.
         -2   -1    0    0    0  501 -0.00000000000E+00 -0.00000000000E+00 -0.56148213168E+03  0.56148213168E+03  0.00000000000E+00 0.  1.
        -24    2    1    2    0    0 -0.23537293755E+03  0.34240390162E+03 -0.11831700062E-01  0.42291680667E+03  0.78852860749E+02 0.  0.
        254    2    1    2    0    0  0.23537293755E+03 -0.34240390162E+03  0.32610150871E+03  0.10261371337E+04  0.87975813244E+03 0.  0.
         23    2    4    4    0    0 -0.28374770090E+03 -0.30693552158E+03  0.24111455816E+03  0.49102077381E+03  0.90790957593E+02 0.  0.
         23    2    4    4    0    0  0.51912063845E+03 -0.35468380037E+02  0.84986950555E+02  0.53511635989E+03  0.91555958913E+02 0.  0.
          3    1    3    3  502    0 -0.46800837381E+02  0.78850008589E+02 -0.32365633106E+02  0.97237731567E+02  0.00000000000E+00 0. -1.
         -4    1    3    3    0  502 -0.18857210017E+03  0.26355389303E+03  0.32353801406E+02  0.32567907511E+03  0.00000000000E+00 0.  1.
         11    1    5    5    0    0 -0.12079254657E+03 -0.68351561963E+02  0.75498443205E+02  0.15799617165E+03  0.00000000000E+00 0.  1.
        -11    1    5    5    0    0 -0.16295515433E+03 -0.23858395962E+03  0.16561611495E+03  0.33302460216E+03  0.00000000000E+00 0. -1.
          1    1    6    6  503    0  0.24736844841E+03  0.27304766155E+02  0.52216054088E+02  0.25428962981E+03  0.00000000000E+00 0. -1.
         -1    1    6    6    0  503  0.27175219004E+03 -0.62773146191E+02  0.32770896467E+02  0.28082673008E+03  0.00000000000E+00 0.  1.
<mgrwt>
<rscale>  0 0.14118863E+04</rscale>
<asrwt>0</asrwt>
<pdfrwt beam="1">  1        1 0.13654951E+00 0.14118863E+04</pdfrwt>
<pdfrwt beam="2">  1       -2 0.86381866E-01 0.14118863E+04</pdfrwt>
<totfact> 0.18473202E+01</totfact>
</mgrwt>
</event>
<event>
12    4  0.4398275E-008  0.1427966E+04  0.7818608E-02  0.8933821E-01
         -2   -1    0    0    0  501 -0.00000000000E+00  0.00000000000E+00  0.15896053638E+03  0.15896053638E+03  0.00000000000E+00 0.  1.
          1   -1    0    0  501    0  0.00000000000E+00 -0.00000000000E+00 -0.32069060944E+04  0.32069060944E+04  0.00000000000E+00 0. -1.
        -24    2    1    2    0    0  0.55700833122E+02 -0.38438472631E+03 -0.50873234012E+03  0.64555367270E+03  0.84123420174E+02 0.  0.
        254    2    1    2    0    0 -0.55700833122E+02  0.38438472631E+03 -0.25392132179E+04  0.27203129581E+04  0.89534609137E+03 0.  0.
         23    2    4    4    0    0  0.37815079154E+03  0.19858567583E+03 -0.75176598100E+03  0.86935590775E+03  0.90516917581E+02 0.  0.
         23    2    4    4    0    0 -0.43385162467E+03  0.18579905048E+03 -0.17874472369E+04  0.18509570504E+04  0.91246140047E+02 0.  0.
          1    1    3    3  502    0  0.45199983643E+02 -0.14492423531E+03 -0.25301699052E+03  0.29506553508E+03  0.00000000000E+00 0. -1.
         -2    1    3    3    0  502  0.10500849478E+02 -0.23946049101E+03 -0.25571534960E+03  0.35048813762E+03  0.00000000000E+00 0.  1.
         11    1    5    5    0    0  0.28549853055E+03  0.13388446422E+03 -0.62138125224E+03  0.69681354848E+03  0.00000000000E+00 0. -1.
        -11    1    5    5    0    0  0.92652260994E+02  0.64701211613E+02 -0.13038472876E+03  0.17254235928E+03  0.00000000000E+00 0.  1.
          2    1    6    6  503    0 -0.35734978324E+03  0.11244122303E+03 -0.14078839889E+04  0.14568730976E+04  0.00000000000E+00 0. -1.
         -2    1    6    6    0  503 -0.76501841423E+02  0.73357827454E+02 -0.37956324798E+03  0.39408395274E+03  0.00000000000E+00 0.  1.
<mgrwt>
<rscale>  0 0.14279657E+04</rscale>
<asrwt>0</asrwt>
<pdfrwt beam="1">  1        1 0.49337015E+00 0.14279657E+04</pdfrwt>
<pdfrwt beam="2">  1       -2 0.24455468E-01 0.14279657E+04</pdfrwt>
<totfact> 0.54101502E+00</totfact>
</mgrwt>
</event>
<event>
12    4  0.4398275E-008  0.1665116E+04  0.7818608E-02  0.8781514E-01
         -2   -1    0    0    0  501 -0.00000000000E+00  0.00000000000E+00  0.90786008509E+03  0.90786008509E+03  0.00000000000E+00 0.  1.
          1   -1    0    0  501    0  0.00000000000E+00 -0.00000000000E+00 -0.76350185017E+03  0.76350185017E+03  0.00000000000E+00 0. -1.
        -24    2    1    2    0    0 -0.26868656767E+03 -0.77038551095E+02 -0.44986185059E+03  0.53547190318E+03  0.78911751208E+02 0.  0.
        254    2    1    2    0    0  0.26868656767E+03  0.77038551095E+02  0.59422008550E+03  0.11358900321E+04  0.92683398997E+03 0.  0.
         23    2    4    4    0    0  0.15744307647E+03  0.23382885204E+03 -0.17067861069E+03  0.34189082726E+03  0.91070825434E+02 0.  0.
         23    2    4    4    0    0  0.11124349120E+03 -0.15679030094E+03  0.76489869619E+03  0.79399920482E+03  0.91686471278E+02 0.  0.
          1    1    3    3  502    0 -0.24087295934E+03 -0.79106566494E+02 -0.43593314636E+03  0.50429687635E+03  0.00000000000E+00 0. -1.
         -2    1    3    3    0  502 -0.27813608334E+02  0.20680153986E+01 -0.13928704226E+02  0.31175026827E+02  0.00000000000E+00 0.  1.
         11    1    5    5    0    0  0.58287112198E+02  0.43130617318E+02 -0.81778174590E+02  0.10929459016E+03  0.00000000000E+00 0. -1.
        -11    1    5    5    0    0  0.99155964272E+02  0.19069823472E+03 -0.88900436098E+02  0.23259623710E+03  0.00000000000E+00 0.  1.
          1    1    6    6  503    0  0.12082121721E+02 -0.19323380656E+02  0.26838342294E+03  0.26934927587E+03  0.00000000000E+00 0. -1.
         -1    1    6    6    0  503  0.99161369484E+02 -0.13746692029E+03  0.49651527325E+03  0.52464992894E+03  0.00000000000E+00 0.  1.
<mgrwt>
<rscale>  0 0.16651160E+04</rscale>
<asrwt>0</asrwt>
<pdfrwt beam="1">  1        1 0.11746182E+00 0.16651160E+04</pdfrwt>
<pdfrwt beam="2">  1       -2 0.13967078E+00 0.16651160E+04</pdfrwt>
<totfact> 0.71915579E+00</totfact>
</mgrwt>
</event>
<event>
12    4  0.4398275E-008  0.2918408E+04  0.7818608E-02  0.8267422E-01
         -2   -1    0    0    0  501 -0.00000000000E+00  0.00000000000E+00  0.14673256811E+04  0.14673256811E+04  0.00000000000E+00 0.  1.
          1   -1    0    0  501    0  0.00000000000E+00 -0.00000000000E+00 -0.14511269905E+04  0.14511269905E+04  0.00000000000E+00 0. -1.
        -24    2    1    2    0    0  0.22997793096E+03 -0.71836596230E+03 -0.10733244929E+04  0.13140225090E+04  0.75433298817E+02 0.  0.
        254    2    1    2    0    0 -0.22997793096E+03  0.71836596230E+03  0.10895231835E+04  0.16044301627E+04  0.90454180392E+03 0.  0.
         23    2    4    4    0    0  0.27964058391E+03  0.85330244280E+02  0.53412913793E+03  0.61566863399E+03  0.90960563576E+02 0.  0.
         23    2    4    4    0    0 -0.50961851487E+03  0.63303571802E+03  0.55539404554E+03  0.98876152868E+03  0.93496330358E+02 0.  0.
          1    1    3    3  502    0  0.23053437867E+03 -0.65201655356E+03 -0.97261987062E+03  0.11934241068E+04  0.00000000000E+00 0. -1.
         -2    1    3    3    0  502 -0.55644771055E+00 -0.66349408739E+02 -0.10070462223E+03  0.12059840220E+03  0.00000000000E+00 0.  1.
         11    1    5    5    0    0  0.13691401227E+03  0.24863007175E+02  0.16844659362E+03  0.21848997868E+03  0.00000000000E+00 0.  1.
        -11    1    5    5    0    0  0.14272657164E+03  0.60467237104E+02  0.36568254431E+03  0.39717865531E+03  0.00000000000E+00 0. -1.
          3    1    6    6  503    0 -0.50517415211E+03  0.62190099565E+03  0.52993565704E+03  0.96062145144E+03  0.00000000000E+00 0. -1.
         -3    1    6    6    0  503 -0.44443627589E+01  0.11134722372E+02  0.25458388495E+02  0.28140077246E+02  0.00000000000E+00 0.  1.
<mgrwt>
<rscale>  0 0.29184077E+04</rscale>
<asrwt>0</asrwt>
<pdfrwt beam="1">  1        1 0.22325031E+00 0.29184077E+04</pdfrwt>
<pdfrwt beam="2">  1       -2 0.22574241E+00 0.29184077E+04</pdfrwt>
<totfact> 0.48410270E-01</totfact>
</mgrwt>
</event>
<event>
12    4  0.4398275E-008  0.1616965E+04  0.7818608E-02  0.8810193E-01
          3   -1    0    0  501    0  0.00000000000E+00  0.00000000000E+00  0.50968009150E+03  0.50968009150E+03  0.00000000000E+00 0. -1.
         -4   -1    0    0    0  501 -0.00000000000E+00 -0.00000000000E+00 -0.12824589716E+04  0.12824589716E+04  0.00000000000E+00 0.  1.
        -24    2    1    2    0    0 -0.52979627090E+03 -0.99840848228E+02 -0.12450223752E+03  0.55901461804E+03  0.79650815443E+02 0.  0.
        254    2    1    2    0    0  0.52979627090E+03  0.99840848228E+02 -0.64827664263E+03  0.12331244451E+04  0.89982276483E+03 0.  0.
         23    2    4    4    0    0  0.50482214144E+02  0.28146467376E+03  0.10400725684E+03  0.31766822172E+03  0.91240194546E+02 0.  0.
         23    2    4    4    0    0  0.47931405675E+03 -0.18162382553E+03 -0.75228389947E+03  0.91545622338E+03  0.96952836581E+02 0.  0.
          1    1    3    3  502    0 -0.12283721748E+03 -0.45008831757E+02 -0.33007669734E+01  0.13086509083E+03  0.00000000000E+00 0. -1.
         -2    1    3    3    0  502 -0.40695905342E+03 -0.54832016471E+02 -0.12120147055E+03  0.42814952721E+03  0.00000000000E+00 0.  1.
         11    1    5    5    0    0  0.54145090102E+00  0.22291520960E+03  0.71188096713E+02  0.23400689937E+03  0.00000000000E+00 0. -1.
        -11    1    5    5    0    0  0.49940763243E+02  0.58549464154E+02  0.32819160129E+02  0.83661322351E+02  0.00000000000E+00 0.  1.
          1    1    6    6  503    0  0.40094113602E+03 -0.12312980682E+03 -0.65300945797E+03  0.77610314784E+03  0.00000000000E+00 0. -1.
         -1    1    6    6    0  503  0.78372920728E+02 -0.58494018705E+02 -0.99274441500E+02  0.13935307554E+03  0.00000000000E+00 0.  1.
<mgrwt>
<rscale>  0 0.16169648E+04</rscale>
<asrwt>0</asrwt>
<pdfrwt beam="1">  1        3 0.78412323E-01 0.16169648E+04</pdfrwt>
<pdfrwt beam="2">  1       -4 0.19730138E+00 0.16169648E+04</pdfrwt>
<totfact> 0.45693123E-01</totfact>
</mgrwt>
</event>
<event>
12    4  0.4398275E-008  0.1734747E+04  0.7818608E-02  0.8741792E-01
          1   -1    0    0  501    0  0.00000000000E+00  0.00000000000E+00  0.13837954543E+04  0.13837954543E+04  0.00000000000E+00 0. -1.
         -2   -1    0    0    0  501 -0.00000000000E+00 -0.00000000000E+00 -0.54367606333E+03  0.54367606333E+03  0.00000000000E+00 0.  1.
        -24    2    1    2    0    0  0.26797880082E+03 -0.37721741678E+03  0.80194343204E+03  0.92971706100E+03  0.84586808063E+02 0.  0.
        254    2    1    2    0    0 -0.26797880082E+03  0.37721741678E+03  0.38175958910E+02  0.99775445660E+03  0.88314830839E+03 0.  0.
         23    2    4    4    0    0 -0.37417523863E+03 -0.14421669357E+03 -0.13148010972E+03  0.43165218514E+03  0.90725000833E+02 0.  0.
         23    2    4    4    0    0  0.10619643781E+03  0.52143411036E+03  0.16965606863E+03  0.56610227146E+03  0.92289681362E+02 0.  0.
          1    1    3    3  502    0  0.10400889944E+03 -0.16693435133E+03  0.42147011159E+03  0.46510427194E+03  0.00000000000E+00 0. -1.
         -2    1    3    3    0  502  0.16396990138E+03 -0.21028306546E+03  0.38047332046E+03  0.46461278906E+03  0.00000000000E+00 0.  1.
         11    1    5    5    0    0 -0.91131093267E+02 -0.62971785817E+02 -0.69368782416E+02  0.13069946420E+03  0.00000000000E+00 0. -1.
        -11    1    5    5    0    0 -0.28304414537E+03 -0.81244907754E+02 -0.62111327305E+02  0.30095272094E+03  0.00000000000E+00 0.  1.
          2    1    6    6  503    0  0.45908177946E+00  0.22370558587E+03  0.81461970581E+02  0.23807656868E+03  0.00000000000E+00 0. -1.
         -2    1    6    6    0  503  0.10573735603E+03  0.29772852449E+03  0.88194098049E+02  0.32802570278E+03  0.00000000000E+00 0.  1.
<mgrwt>
<rscale>  0 0.17347466E+04</rscale>
<asrwt>0</asrwt>
<pdfrwt beam="1">  1        1 0.21289161E+00 0.17347466E+04</pdfrwt>
<pdfrwt beam="2">  1       -2 0.83642472E-01 0.17347466E+04</pdfrwt>
<totfact> 0.82070017E+00</totfact>
</mgrwt>
</event>
<event>
12    4  0.4398275E-008  0.1354592E+04  0.7818608E-02  0.8987359E-01
          1   -1    0    0  501    0  0.00000000000E+00  0.00000000000E+00  0.85880112034E+03  0.85880112034E+03  0.00000000000E+00 0. -1.
         -2   -1    0    0    0  501 -0.00000000000E+00 -0.00000000000E+00 -0.53415151240E+03  0.53415151240E+03  0.00000000000E+00 0.  1.
        -24    2    1    2    0    0  0.27792234446E+03 -0.23031973859E+03 -0.90932097126E+01  0.36995050592E+03  0.80577160779E+02 0.  0.
        254    2    1    2    0    0 -0.27792234446E+03  0.23031973859E+03  0.33374281765E+03  0.10230021268E+04  0.89714049714E+03 0.  0.
         23    2    4    4    0    0 -0.38427455912E+03  0.42607040342E+03  0.46945914354E+03  0.74701101108E+03  0.91818504512E+02 0.  0.
         23    2    4    4    0    0  0.10635221466E+03 -0.19575066483E+03 -0.13571632590E+03  0.27599111573E+03  0.90128011752E+02 0.  0.
          1    1    3    3  502    0  0.12369070103E+03 -0.86847185137E+02  0.34069872034E+02  0.15492765818E+03  0.00000000000E+00 0. -1.
         -2    1    3    3    0  502  0.15423164343E+03 -0.14347255345E+03 -0.43163081747E+02  0.21502284775E+03  0.00000000000E+00 0.  1.
         11    1    5    5    0    0 -0.20643319270E+02  0.23539961388E+02  0.58899324680E+02  0.66703874403E+02  0.00000000000E+00 0.  1.
        -11    1    5    5    0    0 -0.36363123985E+03  0.40253044203E+03  0.41055981886E+03  0.68030713668E+03  0.00000000000E+00 0. -1.
          3    1    6    6  503    0  0.10725352764E+03 -0.18744206279E+03 -0.97634143853E+02  0.23700268383E+03  0.00000000000E+00 0. -1.
         -3    1    6    6    0  503 -0.90131298469E+00 -0.83086020382E+01 -0.38082182044E+02  0.38988431901E+02  0.00000000000E+00 0.  1.
<mgrwt>
<rscale>  0 0.13545921E+04</rscale>
<asrwt>0</asrwt>
<pdfrwt beam="1">  1        1 0.13212325E+00 0.13545921E+04</pdfrwt>
<pdfrwt beam="2">  1       -2 0.82177156E-01 0.13545921E+04</pdfrwt>
<totfact> 0.21965457E+01</totfact>
</mgrwt>
</event>
<event>
12    4  0.4398275E-008  0.2474035E+04  0.7818608E-02  0.8412295E-01
          1   -1    0    0  501    0  0.00000000000E+00  0.00000000000E+00  0.16654339967E+04  0.16654339967E+04  0.00000000000E+00 0. -1.
         -2   -1    0    0    0  501 -0.00000000000E+00 -0.00000000000E+00 -0.91880662330E+03  0.91880662330E+03  0.00000000000E+00 0.  1.
        -24    2    1    2    0    0  0.27061023256E+03  0.31181103584E+03 -0.70471030395E+03  0.82081661907E+03  0.81653472804E+02 0.  0.
        254    2    1    2    0    0 -0.27061023256E+03 -0.31181103584E+03  0.14513376774E+04  0.17634240010E+04  0.91259362989E+03 0.  0.
         23    2    4    4    0    0 -0.37049398538E+03 -0.57815270572E+03  0.89275475546E+03  0.11299771871E+04  0.91164936690E+02 0.  0.
         23    2    4    4    0    0  0.99883752826E+02  0.26634166988E+03  0.55858292194E+03  0.63344681385E+03  0.91243279767E+02 0.  0.
          1    1    3    3  502    0  0.58407276634E+02  0.89010384763E+02 -0.12245162272E+03  0.16226108118E+03  0.00000000000E+00 0. -1.
         -2    1    3    3    0  502  0.21220295592E+03  0.22280065108E+03 -0.58225868123E+03  0.65855553789E+03  0.00000000000E+00 0.  1.
         11    1    5    5    0    0 -0.15325461126E+02 -0.94766195632E+01  0.49377794133E+02  0.52562749457E+02  0.00000000000E+00 0. -1.
        -11    1    5    5    0    0 -0.35516852426E+03 -0.56867608616E+03  0.84337696132E+03  0.10774144377E+04  0.00000000000E+00 0.  1.
          3    1    6    6  503    0  0.79253606508E+02  0.90061970031E+02  0.25448959822E+03  0.28134897937E+03  0.00000000000E+00 0. -1.
         -3    1    6    6    0  503  0.20630146318E+02  0.17627969984E+03  0.30409332372E+03  0.35209783448E+03  0.00000000000E+00 0.  1.
<mgrwt>
<rscale>  0 0.24740346E+04</rscale>
<asrwt>0</asrwt>
<pdfrwt beam="1">  1        1 0.25622062E+00 0.24740346E+04</pdfrwt>
<pdfrwt beam="2">  1       -2 0.14135486E+00 0.24740346E+04</pdfrwt>
<totfact> 0.13785849E+00</totfact>
</mgrwt>
</event>
<event>
12    4  0.4398275E-008  0.3037795E+04  0.7818608E-02  0.8233020E-01
          1   -1    0    0  501    0  0.00000000000E+00  0.00000000000E+00  0.13450167251E+04  0.13450167251E+04  0.00000000000E+00 0. -1.
         -2   -1    0    0    0  501 -0.00000000000E+00 -0.00000000000E+00 -0.17152570941E+04  0.17152570941E+04  0.00000000000E+00 0.  1.
        -24    2    1    2    0    0  0.10206128707E+04  0.88195735908E+03 -0.48289165286E+03  0.14349508749E+04  0.80001561462E+02 0.  0.
        254    2    1    2    0    0 -0.10206128707E+04 -0.88195735908E+03  0.11265128388E+03  0.16253229443E+04  0.89971381366E+03 0.  0.
         23    2    4    4    0    0 -0.65347349542E+03 -0.10222625753E+04  0.59438406735E+02  0.12181382291E+04  0.90991422942E+02 0.  0.
         23    2    4    4    0    0 -0.36713937533E+03  0.14030521620E+03  0.53212877149E+02  0.40718471521E+03  0.92146119807E+02 0.  0.
          1    1    3    3  502    0  0.21005651492E+03  0.14045922043E+03 -0.92841712036E+02  0.26920645527E+03  0.00000000000E+00 0. -1.
         -2    1    3    3    0  502  0.81055635583E+03  0.74149813865E+03 -0.39004994082E+03  0.11657444196E+04  0.00000000000E+00 0.  1.
         11    1    5    5    0    0 -0.10263798565E+03 -0.22868317391E+03  0.14285582644E+02  0.25106697911E+03  0.00000000000E+00 0. -1.
        -11    1    5    5    0    0 -0.55083550976E+03 -0.79357940138E+03  0.45152824091E+02  0.96707125003E+03  0.00000000000E+00 0.  1.
          1    1    6    6  503    0 -0.15744961687E+03  0.20930270513E+02  0.47664621390E+02  0.16583236779E+03  0.00000000000E+00 0. -1.
         -1    1    6    6    0  503 -0.20968975847E+03  0.11937494569E+03  0.55482557593E+01  0.24135234742E+03  0.00000000000E+00 0.  1.
<mgrwt>
<rscale>  0 0.30377949E+04</rscale>
<asrwt>0</asrwt>
<pdfrwt beam="1">  1        1 0.20692565E+00 0.30377949E+04</pdfrwt>
<pdfrwt beam="2">  1       -2 0.26388571E+00 0.30377949E+04</pdfrwt>
<totfact> 0.33053909E-01</totfact>
</mgrwt>
</event>
<event>
12    4  0.4398275E-008  0.1210307E+04  0.7818608E-02  0.9103882E-01
          1   -1    0    0  501    0  0.00000000000E+00  0.00000000000E+00  0.16507769213E+04  0.16507769213E+04  0.00000000000E+00 0. -1.
         -2   -1    0    0    0  501 -0.00000000000E+00 -0.00000000000E+00 -0.22184142170E+03  0.22184142170E+03  0.00000000000E+00 0.  1.
        -24    2    1    2    0    0 -0.40863868094E+02  0.99998054713E+02 -0.46630347639E+02  0.14242322436E+03  0.80252843282E+02 0.  0.
        254    2    1    2    0    0  0.40863868094E+02 -0.99998054713E+02  0.14755658473E+04  0.17301951187E+04  0.89700117748E+03 0.  0.
         23    2    4    4    0    0  0.13532773844E+03 -0.19349881218E+03  0.77751151077E+01  0.25370910626E+03  0.92479571132E+02 0.  0.
         23    2    4    4    0    0 -0.94463870345E+02  0.93500757470E+02  0.14677907322E+04  0.14764860124E+04  0.89081406571E+02 0.  0.
          3    1    3    3  502    0 -0.34138769621E+02  0.87223426385E+02 -0.59813634198E-01  0.93666350838E+02  0.00000000000E+00 0. -1.
         -4    1    3    3    0  502 -0.67250984734E+01  0.12774628328E+02 -0.46570534005E+02  0.48756873525E+02  0.00000000000E+00 0.  1.
         11    1    5    5    0    0  0.61712795829E+02 -0.15698251649E+03 -0.12278236617E+02  0.16912343051E+03  0.00000000000E+00 0.  1.
        -11    1    5    5    0    0  0.73614942611E+02 -0.36516295690E+02  0.20053351724E+02  0.84585675749E+02  0.00000000000E+00 0. -1.
          4    1    6    6  503    0 -0.85123492906E+02  0.32989303135E+02  0.10845023129E+04  0.10883379851E+04  0.00000000000E+00 0.  1.
         -4    1    6    6    0  503 -0.93403774389E+01  0.60511454334E+02  0.38328841930E+03  0.38814802733E+03  0.00000000000E+00 0. -1.
<mgrwt>
<rscale>  0 0.12103069E+04</rscale>
<asrwt>0</asrwt>
<pdfrwt beam="1">  1        1 0.25396567E+00 0.12103069E+04</pdfrwt>
<pdfrwt beam="2">  1       -2 0.34129450E-01 0.12103069E+04</pdfrwt>
<totfact> 0.35941334E+01</totfact>
</mgrwt>
</event>
<event>
12    4  0.4398275E-008  0.1317857E+04  0.7818608E-02  0.9015523E-01
         -2   -1    0    0    0  501 -0.00000000000E+00  0.00000000000E+00  0.10338165344E+04  0.10338165344E+04  0.00000000000E+00 0.  1.
          1   -1    0    0  501    0  0.00000000000E+00 -0.00000000000E+00 -0.41998437550E+03  0.41998437550E+03  0.00000000000E+00 0. -1.
        -24    2    1    2    0    0  0.29827276461E+03  0.25337708637E+02  0.27966463709E+03  0.41909524559E+03  0.88430051741E+02 0.  0.
        254    2    1    2    0    0 -0.29827276461E+03 -0.25337708637E+02  0.33416752180E+03  0.10347056643E+04  0.93238363217E+03 0.  0.
         23    2    4    4    0    0 -0.59532077597E+03  0.59887171156E+02  0.55300963909E+02  0.60767427429E+03  0.90645063077E+02 0.  0.
         23    2    4    4    0    0  0.29704801136E+03 -0.85224879793E+02  0.27886655789E+03  0.42703139001E+03  0.95333361201E+02 0.  0.
          3    1    3    3  502    0  0.47705304741E+02  0.28292965235E+01  0.73376847752E+01  0.48349174110E+02  0.00000000000E+00 0. -1.
         -4    1    3    3    0  502  0.25056745987E+03  0.22508412113E+02  0.27232695232E+03  0.37074607148E+03  0.00000000000E+00 0.  1.
         11    1    5    5    0    0 -0.54247590438E+03  0.69958681482E+02  0.28854043883E+02  0.54772883783E+03  0.00000000000E+00 0.  1.
        -11    1    5    5    0    0 -0.52844871591E+02 -0.10071510326E+02  0.26446920025E+02  0.59945436461E+02  0.00000000000E+00 0. -1.
          1    1    6    6  503    0  0.29457560897E+02 -0.17009133362E+02  0.79394559461E+02  0.86374501931E+02  0.00000000000E+00 0. -1.
         -1    1    6    6    0  503  0.26759045046E+03 -0.68215746431E+02  0.19947199843E+03  0.34065688808E+03  0.00000000000E+00 0.  1.
<mgrwt>
<rscale>  0 0.13178570E+04</rscale>
<asrwt>0</asrwt>
<pdfrwt beam="1">  1        1 0.64612981E-01 0.13178570E+04</pdfrwt>
<pdfrwt beam="2">  1       -2 0.15904870E+00 0.13178570E+04</pdfrwt>
<totfact> 0.12325929E+01</totfact>
</mgrwt>
</event>
<event>
12    4  0.4398275E-008  0.2142288E+04  0.7818608E-02  0.8542841E-01
         -2   -1    0    0    0  501 -0.00000000000E+00  0.00000000000E+00  0.79490051238E+03  0.79490051238E+03  0.00000000000E+00 0.  1.
          1   -1    0    0  501    0  0.00000000000E+00 -0.00000000000E+00 -0.14433871826E+04  0.14433871826E+04  0.00000000000E+00 0. -1.
        -24    2    1    2    0    0 -0.33236080184E+03 -0.17282255312E+03 -0.10961882191E+04  0.11612748803E+04  0.81236682540E+02 0.  0.
        254    2    1    2    0    0  0.33236080184E+03  0.17282255312E+03  0.44770154886E+03  0.10770128146E+04  0.90509037592E+03 0.  0.
         23    2    4    4    0    0  0.63026793541E+00  0.32305562159E+03  0.58734913374E+03  0.67683270378E+03  0.93585106308E+02 0.  0.
         23    2    4    4    0    0  0.33173053391E+03 -0.15023306846E+03 -0.13964758488E+03  0.40018011087E+03  0.89596602541E+02 0.  0.
          3    1    3    3  502    0 -0.31595030845E+03 -0.14734080956E+03 -0.10468418976E+04  0.11033638883E+04  0.00000000000E+00 0. -1.
         -4    1    3    3    0  502 -0.16410493393E+02 -0.25481743562E+02 -0.49346321488E+02  0.57910991986E+02  0.00000000000E+00 0.  1.
         11    1    5    5    0    0  0.34701940217E+02  0.96909612611E+02  0.13308666431E+03  0.16824909476E+03  0.00000000000E+00 0. -1.
        -11    1    5    5    0    0 -0.34071672281E+02  0.22614600898E+03  0.45426246942E+03  0.50858360901E+03  0.00000000000E+00 0.  1.
          2    1    6    6  503    0  0.25364285350E+01 -0.19696930956E+02 -0.10294381757E+01  0.19886233976E+02  0.00000000000E+00 0. -1.
         -2    1    6    6    0  503  0.32919410537E+03 -0.13053613751E+03 -0.13861814670E+03  0.38029387689E+03  0.00000000000E+00 0.  1.
<mgrwt>
<rscale>  0 0.21422878E+04</rscale>
<asrwt>0</asrwt>
<pdfrwt beam="1">  1        1 0.22205957E+00 0.21422878E+04</pdfrwt>
<pdfrwt beam="2">  1       -2 0.12229239E+00 0.21422878E+04</pdfrwt>
<totfact> 0.29183683E+00</totfact>
</mgrwt>
</event>
<event>
12    4  0.4398275E-008  0.1210207E+04  0.7818608E-02  0.9103969E-01
         -2   -1    0    0    0  501 -0.00000000000E+00  0.00000000000E+00  0.44995561306E+03  0.44995561306E+03  0.00000000000E+00 0.  1.
          1   -1    0    0  501    0  0.00000000000E+00 -0.00000000000E+00 -0.81374773504E+03  0.81374773504E+03  0.00000000000E+00 0. -1.
        -24    2    1    2    0    0 -0.13879628097E+03  0.31369391669E+02 -0.26794174824E+03  0.31375169154E+03  0.79993106898E+02 0.  0.
        254    2    1    2    0    0  0.13879628097E+03 -0.31369391669E+02 -0.95850373743E+02  0.94995165656E+03  0.93432992530E+03 0.  0.
         23    2    4    4    0    0  0.32199945513E+03 -0.92525419864E+01  0.33433084988E+03  0.47360271145E+03  0.93558283850E+02 0.  0.
         23    2    4    4    0    0 -0.18320317417E+03 -0.22116849683E+02 -0.43018122362E+03  0.47634894510E+03  0.88316896924E+02 0.  0.
          3    1    3    3  502    0 -0.14362297620E+03  0.35266747239E+02 -0.26945002405E+03  0.30736723673E+03  0.00000000000E+00 0. -1.
         -4    1    3    3    0  502  0.48266952337E+01 -0.38973555700E+01  0.15082758115E+01  0.63844548117E+01  0.00000000000E+00 0.  1.
         11    1    5    5    0    0  0.10398125787E+03  0.39427864061E+02  0.12729087652E+03  0.16902551789E+03  0.00000000000E+00 0. -1.
        -11    1    5    5    0    0  0.21801819727E+03 -0.48680406047E+02  0.20703997335E+03  0.30457719356E+03  0.00000000000E+00 0.  1.
          4    1    6    6  503    0 -0.16849577937E+03 -0.40857416341E+02 -0.40990998297E+03  0.44506892756E+03  0.00000000000E+00 0. -1.
         -4    1    6    6    0  503 -0.14707394795E+02  0.18740566659E+02 -0.20271240645E+02  0.31280017545E+02  0.00000000000E+00 0.  1.
<mgrwt>
<rscale>  0 0.12102072E+04</rscale>
<asrwt>0</asrwt>
<pdfrwt beam="1">  1        1 0.12519196E+00 0.12102072E+04</pdfrwt>
<pdfrwt beam="2">  1       -2 0.69223941E-01 0.12102072E+04</pdfrwt>
<totfact> 0.35509298E+01</totfact>
</mgrwt>
</event>
<event>
12    4  0.4398275E-008  0.1036506E+04  0.7818608E-02  0.9269387E-01
         -2   -1    0    0    0  501 -0.00000000000E+00  0.00000000000E+00  0.64531144148E+03  0.64531144148E+03  0.00000000000E+00 0.  1.
          1   -1    0    0  501    0  0.00000000000E+00 -0.00000000000E+00 -0.41621200874E+03  0.41621200874E+03  0.00000000000E+00 0. -1.
        -24    2    1    2    0    0  0.87627631450E+01 -0.86318568598E+02  0.10068168335E+03  0.15477363069E+03  0.79312004702E+02 0.  0.
        254    2    1    2    0    0 -0.87627631450E+01  0.86318568598E+02  0.12841774939E+03  0.90674981953E+03  0.89340720590E+03 0.  0.
         23    2    4    4    0    0 -0.76802541365E+02 -0.25843315364E+03 -0.25226099973E+03  0.38038539659E+03  0.91493784987E+02 0.  0.
         23    2    4    4    0    0  0.68039778220E+02  0.34475172224E+03  0.38067874912E+03  0.52636442294E+03  0.93059305252E+02 0.  0.
          3    1    3    3  502    0 -0.20153635876E+02 -0.24800229098E+02 -0.15630764921E+01  0.31994743481E+02  0.00000000000E+00 0. -1.
         -4    1    3    3    0  502  0.28916399020E+02 -0.61518339501E+02  0.10224475985E+03  0.12277888720E+03  0.00000000000E+00 0.  1.
         11    1    5    5    0    0 -0.90810567574E+02 -0.15516406382E+03 -0.14661507262E+03  0.23198798548E+03  0.00000000000E+00 0. -1.
        -11    1    5    5    0    0  0.14008026209E+02 -0.10326908982E+03 -0.10564592711E+03  0.14839741111E+03  0.00000000000E+00 0.  1.
          2    1    6    6  503    0  0.75922735071E+02  0.30203077234E+03  0.36587330874E+03  0.48046865370E+03  0.00000000000E+00 0. -1.
         -2    1    6    6    0  503 -0.78829568512E+01  0.42720949897E+02  0.14805440384E+02  0.45895769236E+02  0.00000000000E+00 0.  1.
<mgrwt>
<rscale>  0 0.10365064E+04</rscale>
<asrwt>0</asrwt>
<pdfrwt beam="1">  1        1 0.64032617E-01 0.10365064E+04</pdfrwt>
<pdfrwt beam="2">  1       -2 0.99278683E-01 0.10365064E+04</pdfrwt>
<totfact> 0.41800738E+01</totfact>
</mgrwt>
</event>
<event>
12    4  0.4398275E-008  0.1454922E+04  0.7818608E-02  0.8914995E-01
          1   -1    0    0  501    0  0.00000000000E+00  0.00000000000E+00  0.46790403840E+03  0.46790403840E+03  0.00000000000E+00 0. -1.
         -2   -1    0    0    0  501 -0.00000000000E+00 -0.00000000000E+00 -0.11310004111E+04  0.11310004111E+04  0.00000000000E+00 0.  1.
        -24    2    1    2    0    0 -0.18013303742E+03 -0.33772573341E+03 -0.10878899849E+03  0.40597027008E+03  0.80437751177E+02 0.  0.
        254    2    1    2    0    0  0.18013303742E+03  0.33772573341E+03 -0.55430737419E+03  0.11929341794E+04  0.98454492490E+03 0.  0.
         23    2    4    4    0    0 -0.22136723070E+02  0.59344115712E+03 -0.73544874286E+02  0.60526704940E+03  0.90977530657E+02 0.  0.
         23    2    4    4    0    0  0.20226976049E+03 -0.25571542371E+03 -0.48076249990E+03  0.58766713001E+03  0.88975504793E+02 0.  0.
          1    1    3    3  502    0 -0.15943230997E+02 -0.47656042443E+02 -0.43189097286E+02  0.66261475386E+02  0.00000000000E+00 0. -1.
         -2    1    3    3    0  502 -0.16418980642E+03 -0.29006969097E+03 -0.65599901207E+02  0.33970879469E+03  0.00000000000E+00 0.  1.
         11    1    5    5    0    0 -0.98562331952E+01  0.57762524080E+03 -0.82059275534E+02  0.58350817376E+03  0.00000000000E+00 0. -1.
        -11    1    5    5    0    0 -0.12280489874E+02  0.15815916322E+02  0.85144012487E+01  0.21758875644E+02  0.00000000000E+00 0.  1.
          1    1    6    6  503    0  0.13581379475E+03 -0.22882156693E+03 -0.37069869108E+03  0.45631372530E+03  0.00000000000E+00 0. -1.
         -1    1    6    6    0  503  0.66455965740E+02 -0.26893856781E+02 -0.11006380882E+03  0.13135340471E+03  0.00000000000E+00 0.  1.
<mgrwt>
<rscale>  0 0.14549222E+04</rscale>
<asrwt>0</asrwt>
<pdfrwt beam="1">  1        1 0.71985237E-01 0.14549222E+04</pdfrwt>
<pdfrwt beam="2">  1       -2 0.17400006E+00 0.14549222E+04</pdfrwt>
<totfact> 0.82219980E+00</totfact>
</mgrwt>
</event>
<event>
12    4  0.4398275E-008  0.2323746E+04  0.7818608E-02  0.8468617E-01
          1   -1    0    0  501    0  0.00000000000E+00  0.00000000000E+00  0.35299600141E+04  0.35299600141E+04  0.00000000000E+00 0. -1.
         -2   -1    0    0    0  501 -0.00000000000E+00 -0.00000000000E+00 -0.38242615420E+03  0.38242615420E+03  0.00000000000E+00 0.  1.
        -24    2    1    2    0    0 -0.69064100967E+03 -0.22627803108E+03  0.20861997342E+03  0.76038660846E+03  0.80490679214E+02 0.  0.
        254    2    1    2    0    0  0.69064100967E+03  0.22627803108E+03  0.29389138864E+04  0.31519995598E+04  0.87732527688E+03 0.  0.
         23    2    4    4    0    0  0.31212301493E+03 -0.98487461189E+02  0.26836297135E+03  0.43376556154E+03  0.94938514485E+02 0.  0.
         23    2    4    4    0    0  0.37851799474E+03  0.32476549227E+03  0.26705509151E+04  0.27182339983E+04  0.90583562670E+02 0.  0.
          3    1    3    3  502    0 -0.17850966192E+03 -0.78751925663E+02  0.87549767823E+02  0.21385164727E+03  0.00000000000E+00 0. -1.
         -4    1    3    3    0  502 -0.51213134775E+03 -0.14752610542E+03  0.12107020559E+03  0.54653496120E+03  0.00000000000E+00 0.  1.
         11    1    5    5    0    0  0.20182112968E+03 -0.68627798326E+02  0.11409155811E+03  0.24178177500E+03  0.00000000000E+00 0.  1.
        -11    1    5    5    0    0  0.11030188525E+03 -0.29859662864E+02  0.15427141323E+03  0.19198378654E+03  0.00000000000E+00 0. -1.
          1    1    6    6  503    0  0.43287558936E+02  0.44972591082E+02  0.52528924359E+03  0.52898500559E+03  0.00000000000E+00 0. -1.
         -1    1    6    6    0  503  0.33523043580E+03  0.27979290119E+03  0.21452616715E+04  0.21892489927E+04  0.00000000000E+00 0.  1.
<mgrwt>
<rscale>  0 0.23237461E+04</rscale>
<asrwt>0</asrwt>
<pdfrwt beam="1">  1        1 0.54307075E+00 0.23237461E+04</pdfrwt>
<pdfrwt beam="2">  1       -2 0.58834795E-01 0.23237461E+04</pdfrwt>
<totfact> 0.50751387E-01</totfact>
</mgrwt>
</event>
<event>
12    4  0.5041171E-008  0.2032484E+04  0.7818608E-02  0.8591582E-01
         -2   -1    0    0    0  501 -0.00000000000E+00  0.00000000000E+00  0.83694152097E+03  0.83694152097E+03  0.00000000000E+00 0.  1.
          1   -1    0    0  501    0  0.00000000000E+00 -0.00000000000E+00 -0.12339542214E+04  0.12339542214E+04  0.00000000000E+00 0. -1.
        -24    2    1    2    0    0 -0.24984038512E+03  0.41638663893E+03  0.50812058016E+03  0.70740223648E+03  0.80208160935E+02 0.  0.
        254    2    1    2    0    0  0.24984038512E+03 -0.41638663893E+03 -0.90513328060E+03  0.13634935059E+04  0.89668848205E+03 0.  0.
         23    2    4    4    0    0 -0.49369948523E+02 -0.30091341263E+03  0.74120943078E+02  0.32912520058E+03  0.99212951451E+02 0.  0.
         23    2    4    4    0    0  0.29921033364E+03 -0.11547322630E+03 -0.97925422368E+03  0.10343683053E+04  0.90100314617E+02 0.  0.
          3    1    3    3  502    0  0.22055426332E+01  0.75743472614E+01  0.24866782663E+02  0.26088158900E+02  0.00000000000E+00 0. -1.
         -4    1    3    3    0  502 -0.25204592775E+03  0.40881229167E+03  0.48325379750E+03  0.68131407758E+03  0.00000000000E+00 0.  1.
         11    1    5    5    0    0 -0.26440127947E+02 -0.14132237121E+02  0.20903932647E+02  0.36548254295E+02  0.00000000000E+00 0. -1.
        -11    1    5    5    0    0 -0.22929820576E+02 -0.28678117550E+03  0.53217010432E+02  0.29257694628E+03  0.00000000000E+00 0.  1.
          4    1    6    6  503    0  0.16271085753E+02 -0.11838854753E+02 -0.18017274848E+02  0.27009792788E+02  0.00000000000E+00 0. -1.
         -4    1    6    6    0  503  0.28293924789E+03 -0.10363437155E+03 -0.96123694883E+03  0.10073585125E+04  0.00000000000E+00 0.  1.
<mgrwt>
<rscale>  0 0.20324837E+04</rscale>
<asrwt>0</asrwt>
<pdfrwt beam="1">  1        1 0.18983911E+00 0.20324837E+04</pdfrwt>
<pdfrwt beam="2">  1       -2 0.12876023E+00 0.20324837E+04</pdfrwt>
<totfact> 0.36449157E+00</totfact>
</mgrwt>
</event>
<event>
12    4  0.4398275E-008  0.1645542E+04  0.7818608E-02  0.8793048E-01
         -2   -1    0    0    0  501 -0.00000000000E+00  0.00000000000E+00  0.43230879802E+03  0.43230879802E+03  0.00000000000E+00 0.  1.
          1   -1    0    0  501    0  0.00000000000E+00 -0.00000000000E+00 -0.15658992546E+04  0.15658992546E+04  0.00000000000E+00 0. -1.
        -24    2    1    2    0    0  0.26899510049E+03 -0.25603498985E+03  0.12008439524E+03  0.39861561326E+03  0.81005339593E+02 0.  0.
        254    2    1    2    0    0 -0.26899510049E+03  0.25603498985E+03 -0.12536748518E+04  0.15995924393E+04  0.92145702984E+03 0.  0.
         23    2    4    4    0    0 -0.20782645230E+03  0.59500864969E+03 -0.83201887833E+03  0.10474861523E+04  0.88003964577E+02 0.  0.
         23    2    4    4    0    0 -0.61168648180E+02 -0.33897365984E+03 -0.42165597346E+03  0.55210628708E+03  0.91557887136E+02 0.  0.
          1    1    3    3  502    0  0.24222683250E+02 -0.55121723934E+02  0.77002418359E+00  0.60214082826E+02  0.00000000000E+00 0. -1.
         -2    1    3    3    0  502  0.24477241724E+03 -0.20091326592E+03  0.11931437106E+03  0.33840153044E+03  0.00000000000E+00 0.  1.
         11    1    5    5    0    0 -0.62263327218E+02  0.30485884490E+03 -0.38437242834E+03  0.49452785654E+03  0.00000000000E+00 0. -1.
        -11    1    5    5    0    0 -0.14556312509E+03  0.29014980479E+03 -0.44764644999E+03  0.55295829571E+03  0.00000000000E+00 0.  1.
          3    1    6    6  503    0 -0.26521809830E+01  0.49065777736E+01 -0.10508645006E+01  0.56756396656E+01  0.00000000000E+00 0. -1.
         -3    1    6    6    0  503 -0.58516467197E+02 -0.34388023761E+03 -0.42060510896E+03  0.54643064742E+03  0.00000000000E+00 0.  1.
<mgrwt>
<rscale>  0 0.16455419E+04</rscale>
<asrwt>0</asrwt>
<pdfrwt beam="1">  1        1 0.24090758E+00 0.16455419E+04</pdfrwt>
<pdfrwt beam="2">  1       -2 0.66509044E-01 0.16455419E+04</pdfrwt>
<totfact> 0.10266026E+01</totfact>
</mgrwt>
</event>
<event>
12    4  0.4398275E-008  0.1868175E+04  0.7818608E-02  0.8670862E-01
          1   -1    0    0  501    0  0.00000000000E+00  0.00000000000E+00  0.18268535906E+04  0.18268535906E+04  0.00000000000E+00 0. -1.
         -2   -1    0    0    0  501 -0.00000000000E+00 -0.00000000000E+00 -0.47760771877E+03  0.47760771877E+03  0.00000000000E+00 0.  1.
        -24    2    1    2    0    0 -0.38069114239E+03  0.12528083221E+03 -0.21111828430E+03  0.45958199109E+03  0.77612136636E+02 0.  0.
        254    2    1    2    0    0  0.38069114239E+03 -0.12528083221E+03  0.15603641561E+04  0.18448793183E+04  0.89901188339E+03 0.  0.
         23    2    4    4    0    0  0.56926892669E+03  0.10703261134E+03  0.61709422417E+03  0.85134365374E+03  0.91965452535E+02 0.  0.
         23    2    4    4    0    0 -0.18857778430E+03 -0.23231344355E+03  0.94326993195E+03  0.99353566454E+03  0.88452447189E+02 0.  0.
          1    1    3    3  502    0 -0.19380674536E+03  0.24356054222E+02 -0.11245828248E+03  0.22539107618E+03  0.00000000000E+00 0. -1.
         -2    1    3    3    0  502 -0.18688439703E+03  0.10092477799E+03 -0.98660001823E+02  0.23419091491E+03  0.00000000000E+00 0.  1.
         11    1    5    5    0    0  0.56279528569E+03  0.11236353939E+03  0.61741631018E+03  0.84295136197E+03  0.00000000000E+00 0.  1.
        -11    1    5    5    0    0  0.64736409973E+01 -0.53309280482E+01 -0.32208600116E+00  0.83922917615E+01  0.00000000000E+00 0. -1.
          3    1    6    6  503    0 -0.72249749708E+02 -0.56944890410E+02  0.18507309122E+03  0.20667558145E+03  0.00000000000E+00 0. -1.
         -3    1    6    6    0  503 -0.11632803459E+03 -0.17536855314E+03  0.75819684073E+03  0.78686008309E+03  0.00000000000E+00 0.  1.
<mgrwt>
<rscale>  0 0.18681749E+04</rscale>
<asrwt>0</asrwt>
<pdfrwt beam="1">  1        1 0.28105440E+00 0.18681749E+04</pdfrwt>
<pdfrwt beam="2">  1       -2 0.73478111E-01 0.18681749E+04</pdfrwt>
<totfact> 0.53762691E+00</totfact>
</mgrwt>
</event>
<event>
12    4  0.4398275E-008  0.2984415E+04  0.7818608E-02  0.8248195E-01
          1   -1    0    0  501    0  0.00000000000E+00  0.00000000000E+00  0.11234350503E+04  0.11234350503E+04  0.00000000000E+00 0. -1.
         -2   -1    0    0    0  501 -0.00000000000E+00 -0.00000000000E+00 -0.19820313044E+04  0.19820313044E+04  0.00000000000E+00 0.  1.
        -24    2    1    2    0    0 -0.10801425228E+03  0.25504373899E+03  0.99073174086E+03  0.10318783744E+04  0.80679673462E+02 0.  0.
        254    2    1    2    0    0  0.10801425228E+03 -0.25504373899E+03 -0.18493279950E+04  0.20735879804E+04  0.89612426137E+03 0.  0.
         23    2    4    4    0    0 -0.29787455385E+03 -0.38626615263E+03 -0.10933153268E+04  0.12007174527E+04  0.91941323110E+02 0.  0.
         23    2    4    4    0    0  0.40588880613E+03  0.13122241364E+03 -0.75601266816E+03  0.87287052765E+03  0.91557407353E+02 0.  0.
          1    1    3    3  502    0 -0.74091009147E+02  0.19919022058E+03  0.61953092428E+03  0.65496930291E+03  0.00000000000E+00 0. -1.
         -2    1    3    3    0  502 -0.33923243136E+02  0.55853518413E+02  0.37120081657E+03  0.37690907149E+03  0.00000000000E+00 0.  1.
         11    1    5    5    0    0 -0.25372562114E+03 -0.36593211384E+03 -0.10173397880E+04  0.11105238615E+04  0.00000000000E+00 0.  1.
        -11    1    5    5    0    0 -0.44148932712E+02 -0.20334038786E+02 -0.75975538814E+02  0.90193591186E+02  0.00000000000E+00 0. -1.
          1    1    6    6  503    0  0.14516524346E+03  0.64582776757E+01 -0.21519510952E+03  0.25966053305E+03  0.00000000000E+00 0. -1.
         -1    1    6    6    0  503  0.26072356268E+03  0.12476413596E+03 -0.54081755863E+03  0.61320999460E+03  0.00000000000E+00 0.  1.
<mgrwt>
<rscale>  0 0.29844151E+04</rscale>
<asrwt>0</asrwt>
<pdfrwt beam="1">  1        1 0.17283616E+00 0.29844151E+04</pdfrwt>
<pdfrwt beam="2">  1       -2 0.30492789E+00 0.29844151E+04</pdfrwt>
<totfact> 0.26994657E-01</totfact>
</mgrwt>
</event>
<event>
12    4  0.4398275E-008  0.1787721E+04  0.7818608E-02  0.8712857E-01
          1   -1    0    0  501    0  0.00000000000E+00  0.00000000000E+00  0.34859995639E+04  0.34859995639E+04  0.00000000000E+00 0. -1.
         -2   -1    0    0    0  501 -0.00000000000E+00 -0.00000000000E+00 -0.22919867819E+03  0.22919867819E+03  0.00000000000E+00 0.  1.
        -24    2    1    2    0    0  0.58138397697E+03  0.20511377525E+02  0.53361005065E+03  0.79460448447E+03  0.90711384596E+02 0.  0.
        254    2    1    2    0    0 -0.58138397697E+03 -0.20511377525E+02  0.27231908351E+04  0.29205937576E+04  0.88072216260E+03 0.  0.
         23    2    4    4    0    0 -0.59687600584E+03  0.33198153387E+03  0.16968708826E+04  0.18314652475E+04  0.91768488174E+02 0.  0.
         23    2    4    4    0    0  0.15492028871E+02 -0.35249291140E+03  0.10263199525E+04  0.10891285102E+04  0.91526013863E+02 0.  0.
          3    1    3    3  502    0  0.14395440247E+03  0.90338328858E+01  0.82644661078E+02  0.16623663896E+03  0.00000000000E+00 0. -1.
         -4    1    3    3    0  502  0.43742957450E+03  0.11477544639E+02  0.45096538957E+03  0.62836784551E+03  0.00000000000E+00 0.  1.
         11    1    5    5    0    0 -0.30132655775E+03  0.21365094032E+03  0.96898277527E+03  0.10370014645E+04  0.00000000000E+00 0.  1.
        -11    1    5    5    0    0 -0.29554944809E+03  0.11833059355E+03  0.72788810731E+03  0.79446378294E+03  0.00000000000E+00 0. -1.
          3    1    6    6  503    0  0.23757463601E+02 -0.81550819725E+02  0.35777703833E+03  0.36772185471E+03  0.00000000000E+00 0. -1.
         -3    1    6    6    0  503 -0.82654347295E+01 -0.27094209167E+03  0.66854291416E+03  0.72140665545E+03  0.00000000000E+00 0.  1.
<mgrwt>
<rscale>  0 0.17877209E+04</rscale>
<asrwt>0</asrwt>
<pdfrwt beam="1">  1        1 0.53630759E+00 0.17877209E+04</pdfrwt>
<pdfrwt beam="2">  1       -2 0.35261338E-01 0.17877209E+04</pdfrwt>
<totfact> 0.16168815E+00</totfact>
</mgrwt>
</event>
<event>
12    4  0.4398275E-008  0.1284064E+04  0.7818608E-02  0.9042299E-01
         -2   -1    0    0    0  501 -0.00000000000E+00  0.00000000000E+00  0.10021959224E+04  0.10021959224E+04  0.00000000000E+00 0.  1.
          1   -1    0    0  501    0  0.00000000000E+00 -0.00000000000E+00 -0.41130190967E+03  0.41130190967E+03  0.00000000000E+00 0. -1.
        -24    2    1    2    0    0  0.54163899890E+02 -0.11268852736E+03 -0.18228183103E+03  0.23500622081E+03  0.79804922465E+02 0.  0.
        254    2    1    2    0    0 -0.54163899890E+02  0.11268852736E+03  0.77317584377E+03  0.11784916113E+04  0.88057319980E+03 0.  0.
         23    2    4    4    0    0 -0.27608993994E+03  0.24752603028E+03  0.81450088358E+03  0.89931175671E+03  0.88629316849E+02 0.  0.
         23    2    4    4    0    0  0.22192604005E+03 -0.13483750292E+03 -0.41325039813E+02  0.27917985456E+03  0.93815312359E+02 0.  0.
          1    1    3    3  502    0  0.91794803218E+01 -0.42314506828E+02 -0.12866386760E+03  0.13575408345E+03  0.00000000000E+00 0. -1.
         -2    1    3    3    0  502  0.44984419568E+02 -0.70374020529E+02 -0.53617963422E+02  0.99252137361E+02  0.00000000000E+00 0.  1.
         11    1    5    5    0    0 -0.26845835671E+02  0.25530049919E+02  0.33375512356E+02  0.49863886399E+02  0.00000000000E+00 0.  1.
        -11    1    5    5    0    0 -0.24924410426E+03  0.22199598036E+03  0.78112537123E+03  0.84944787031E+03  0.00000000000E+00 0. -1.
          3    1    6    6  503    0  0.15496978434E+03 -0.71986490654E+02 -0.67447702003E+02  0.18370324276E+03  0.00000000000E+00 0. -1.
         -3    1    6    6    0  503  0.66956255706E+02 -0.62851012270E+02  0.26122662190E+02  0.95476611803E+02  0.00000000000E+00 0.  1.
<mgrwt>
<rscale>  0 0.12840640E+04</rscale>
<asrwt>0</asrwt>
<pdfrwt beam="1">  1        1 0.63277217E-01 0.12840640E+04</pdfrwt>
<pdfrwt beam="2">  1       -2 0.15418399E+00 0.12840640E+04</pdfrwt>
<totfact> 0.13819989E+01</totfact>
</mgrwt>
</event>
<event>
12    4  0.4398275E-008  0.1498625E+04  0.7818608E-02  0.8885368E-01
          1   -1    0    0  501    0  0.00000000000E+00  0.00000000000E+00  0.11071697066E+04  0.11071697066E+04  0.00000000000E+00 0. -1.
         -2   -1    0    0    0  501 -0.00000000000E+00 -0.00000000000E+00 -0.50712098776E+03  0.50712098776E+03  0.00000000000E+00 0.  1.
        -24    2    1    2    0    0 -0.73386774391E+02  0.46195470779E+03  0.25470300384E+03  0.53857774752E+03  0.80028740226E+02 0.  0.
        254    2    1    2    0    0  0.73386774391E+02 -0.46195470779E+03  0.34534571499E+03  0.10757129468E+04  0.90504525324E+03 0.  0.
         23    2    4    4    0    0 -0.97553262690E+02  0.17129991853E+03 -0.13546076551E+03  0.25723872099E+03  0.94666992312E+02 0.  0.
         23    2    4    4    0    0  0.17094003708E+03 -0.63325462632E+03  0.48080648050E+03  0.81847422583E+03  0.92158931389E+02 0.  0.
          1    1    3    3  502    0 -0.27386164235E+02  0.36250640210E+02  0.14876099897E+02  0.47805954182E+02  0.00000000000E+00 0. -1.
         -2    1    3    3    0  502 -0.46000610157E+02  0.42570406758E+03  0.23982690394E+03  0.49077179334E+03  0.00000000000E+00 0.  1.
         11    1    5    5    0    0 -0.35975411638E+02  0.16130645739E+02 -0.65031046327E+02  0.76049095726E+02  0.00000000000E+00 0.  1.
        -11    1    5    5    0    0 -0.61577851052E+02  0.15516927279E+03 -0.70429719188E+02  0.18118962526E+03  0.00000000000E+00 0. -1.
          3    1    6    6  503    0  0.14723524791E+03 -0.58589018009E+03  0.41020860886E+03  0.73021683364E+03  0.00000000000E+00 0. -1.
         -3    1    6    6    0  503  0.23704789172E+02 -0.47364446224E+02  0.70597871642E+02  0.88257392190E+02  0.00000000000E+00 0.  1.
<mgrwt>
<rscale>  0 0.14986247E+04</rscale>
<asrwt>0</asrwt>
<pdfrwt beam="1">  1        1 0.17033380E+00 0.14986247E+04</pdfrwt>
<pdfrwt beam="2">  1       -2 0.78018614E-01 0.14986247E+04</pdfrwt>
<totfact> 0.15535343E+01</totfact>
</mgrwt>
</event>
<event>
12    4  0.4398275E-008  0.1949015E+04  0.7818608E-02  0.8630836E-01
         -2   -1    0    0    0  501 -0.00000000000E+00  0.00000000000E+00  0.77714248285E+03  0.77714248285E+03  0.00000000000E+00 0.  1.
          1   -1    0    0  501    0  0.00000000000E+00 -0.00000000000E+00 -0.12219962815E+04  0.12219962815E+04  0.00000000000E+00 0. -1.
        -24    2    1    2    0    0  0.66569018343E+03 -0.19508936469E+03 -0.49212826430E+03  0.85430496706E+03  0.80271213389E+02 0.  0.
        254    2    1    2    0    0 -0.66569018343E+03  0.19508936469E+03  0.47274465608E+02  0.11448337973E+04  0.90950880584E+03 0.  0.
         23    2    4    4    0    0 -0.57619409137E+03  0.32916005584E+03 -0.31326367152E+03  0.73953186534E+03  0.91800210575E+02 0.  0.
         23    2    4    4    0    0 -0.89496092062E+02 -0.13407069115E+03  0.36053813713E+03  0.40530193200E+03  0.91090103936E+02 0.  0.
          1    1    3    3  502    0  0.51462370576E+03 -0.11505673890E+03 -0.36815349372E+03  0.64312720875E+03  0.00000000000E+00 0. -1.
         -2    1    3    3    0  502  0.15106647766E+03 -0.80032625789E+02 -0.12397477058E+03  0.21117775831E+03  0.00000000000E+00 0.  1.
         11    1    5    5    0    0 -0.48063209386E+03  0.30905828944E+03 -0.28026974512E+03  0.63645531340E+03  0.00000000000E+00 0.  1.
        -11    1    5    5    0    0 -0.95561997509E+02  0.20101766402E+02 -0.32993926400E+02  0.10307655194E+03  0.00000000000E+00 0. -1.
          3    1    6    6  503    0  0.10445920449E+02 -0.69491521932E+00  0.31022576706E+01  0.10918981814E+02  0.00000000000E+00 0. -1.
         -3    1    6    6    0  503 -0.99942012511E+02 -0.13337577593E+03  0.35743587946E+03  0.39438295019E+03  0.00000000000E+00 0.  1.
<mgrwt>
<rscale>  0 0.19490154E+04</rscale>
<asrwt>0</asrwt>
<pdfrwt beam="1">  1        1 0.18799943E+00 0.19490154E+04</pdfrwt>
<pdfrwt beam="2">  1       -2 0.11956038E+00 0.19490154E+04</pdfrwt>
<totfact> 0.45102320E+00</totfact>
</mgrwt>
</event>
<event>
12    4  0.4398275E-008  0.1247162E+04  0.7818608E-02  0.9072549E-01
         -2   -1    0    0    0  501 -0.00000000000E+00  0.00000000000E+00  0.33669740073E+03  0.33669740073E+03  0.00000000000E+00 0.  1.
          1   -1    0    0  501    0  0.00000000000E+00 -0.00000000000E+00 -0.11549041563E+04  0.11549041563E+04  0.00000000000E+00 0. -1.
        -24    2    1    2    0    0 -0.14716235444E+02  0.14386626437E+03 -0.50440767626E+03  0.53076463013E+03  0.79811773049E+02 0.  0.
        254    2    1    2    0    0  0.14716235444E+02 -0.14386626437E+03 -0.31379907933E+03  0.96083692693E+03  0.89656213859E+03 0.  0.
         23    2    4    4    0    0 -0.63394532566E+02 -0.28002289410E+03  0.23565437090E+03  0.38231255645E+03  0.90544024177E+02 0.  0.
         23    2    4    4    0    0  0.78110768010E+02  0.13615662973E+03 -0.54945345023E+03  0.57852437048E+03  0.90285288789E+02 0.  0.
          3    1    3    3  502    0 -0.15540137252E+02  0.11129209119E+03 -0.47052037119E+03  0.48375287610E+03  0.00000000000E+00 0. -1.
         -4    1    3    3    0  502  0.82390180798E+00  0.32574173174E+02 -0.33887305069E+02  0.47011754030E+02  0.00000000000E+00 0.  1.
         11    1    5    5    0    0 -0.44150729414E+02 -0.21102600622E+03  0.12129978035E+03  0.24737602738E+03  0.00000000000E+00 0.  1.
        -11    1    5    5    0    0 -0.19243803152E+02 -0.68996887877E+02  0.11435459055E+03  0.13493652907E+03  0.00000000000E+00 0. -1.
          3    1    6    6  503    0  0.38554059394E+02  0.24201432863E+00 -0.14396190758E+03  0.14903524718E+03  0.00000000000E+00 0. -1.
         -3    1    6    6    0  503  0.39556708616E+02  0.13591461540E+03 -0.40549154265E+03  0.42948912330E+03  0.00000000000E+00 0.  1.
<mgrwt>
<rscale>  0 0.12471619E+04</rscale>
<asrwt>0</asrwt>
<pdfrwt beam="1">  1        1 0.17767756E+00 0.12471619E+04</pdfrwt>
<pdfrwt beam="2">  1       -2 0.51799600E-01 0.12471619E+04</pdfrwt>
<totfact> 0.35115752E+01</totfact>
</mgrwt>
</event>
<event>
12    4  0.4398275E-008  0.2151179E+04  0.7818608E-02  0.8539028E-01
          1   -1    0    0  501    0  0.00000000000E+00  0.00000000000E+00  0.89295769763E+03  0.89295769763E+03  0.00000000000E+00 0. -1.
         -2   -1    0    0    0  501 -0.00000000000E+00 -0.00000000000E+00 -0.12955739012E+04  0.12955739012E+04  0.00000000000E+00 0.  1.
        -24    2    1    2    0    0 -0.47747951844E+03 -0.31487969925E+03 -0.86556176325E+03  0.10406816501E+04  0.81763166308E+02 0.  0.
        254    2    1    2    0    0  0.47747951844E+03  0.31487969925E+03  0.46294555966E+03  0.11478499487E+04  0.88096821625E+03 0.  0.
         23    2    4    4    0    0 -0.16067977425E+03 -0.72819851651E+02  0.32848045082E+03  0.38388177677E+03  0.91351471371E+02 0.  0.
         23    2    4    4    0    0  0.63815929270E+03  0.38769955090E+03  0.13446510885E+03  0.76396817195E+03  0.89488980515E+02 0.  0.
          1    1    3    3  502    0 -0.12490969799E+03 -0.10847778801E+03 -0.19789030023E+03  0.25793494155E+03  0.00000000000E+00 0. -1.
         -2    1    3    3    0  502 -0.35256982046E+03 -0.20640191124E+03 -0.66767146301E+03  0.78274670857E+03  0.00000000000E+00 0.  1.
         11    1    5    5    0    0 -0.13070639887E+03 -0.18002575528E+02  0.18347501351E+03  0.22598968121E+03  0.00000000000E+00 0. -1.
        -11    1    5    5    0    0 -0.29973375388E+02 -0.54817276123E+02  0.14500543730E+03  0.15789209556E+03  0.00000000000E+00 0.  1.
          2    1    6    6  503    0  0.46082929429E+03  0.24526903978E+03  0.12244819590E+03  0.53620341386E+03  0.00000000000E+00 0. -1.
         -2    1    6    6    0  503  0.17732999840E+03  0.14243051113E+03  0.12016912941E+02  0.22776475809E+03  0.00000000000E+00 0.  1.
<mgrwt>
<rscale>  0 0.21511789E+04</rscale>
<asrwt>0</asrwt>
<pdfrwt beam="1">  1        1 0.13737811E+00 0.21511789E+04</pdfrwt>
<pdfrwt beam="2">  1       -2 0.19931906E+00 0.21511789E+04</pdfrwt>
<totfact> 0.19881969E+00</totfact>
</mgrwt>
</event>
<event>
12    4  0.4398275E-008  0.1193751E+04  0.7818608E-02  0.9118344E-01
         -2   -1    0    0    0  501 -0.00000000000E+00  0.00000000000E+00  0.15372876248E+03  0.15372876248E+03  0.00000000000E+00 0.  1.
          1   -1    0    0  501    0  0.00000000000E+00 -0.00000000000E+00 -0.23174623094E+04  0.23174623094E+04  0.00000000000E+00 0. -1.
        -24    2    1    2    0    0  0.13337223507E+02  0.23189664366E+03 -0.38952586031E+03  0.46090006796E+03  0.82125160117E+02 0.  0.
        254    2    1    2    0    0 -0.13337223507E+02 -0.23189664366E+03 -0.17742076866E+04  0.20102910039E+04  0.91624400151E+03 0.  0.
         23    2    4    4    0    0 -0.30811981119E+03 -0.14717322633E+03 -0.16149676707E+04  0.16531609423E+04  0.90679365029E+02 0.  0.
         23    2    4    4    0    0  0.29478258768E+03 -0.84723417335E+02 -0.15924001594E+03  0.35713006161E+03  0.90053688346E+02 0.  0.
          3    1    3    3  502    0  0.40297207347E+02  0.13896860577E+03 -0.27683737296E+03  0.31237008400E+03  0.00000000000E+00 0. -1.
         -4    1    3    3    0  502 -0.26959983839E+02  0.92928037891E+02 -0.11268848735E+03  0.14852998396E+03  0.00000000000E+00 0.  1.
         11    1    5    5    0    0 -0.28518174766E+02 -0.45019160243E+02 -0.32103742876E+03  0.32543054827E+03  0.00000000000E+00 0. -1.
        -11    1    5    5    0    0 -0.27960163642E+03 -0.10215406609E+03 -0.12939302419E+04  0.13277303940E+04  0.00000000000E+00 0.  1.
          1    1    6    6  503    0  0.97219478545E+01  0.14780242782E+02 -0.74772585683E+01  0.19206281329E+02  0.00000000000E+00 0. -1.
         -1    1    6    6    0  503  0.28506063983E+03 -0.99503660117E+02 -0.15176275738E+03  0.33792378028E+03  0.00000000000E+00 0.  1.
<mgrwt>
<rscale>  0 0.11937514E+04</rscale>
<asrwt>0</asrwt>
<pdfrwt beam="1">  1        1 0.35653266E+00 0.11937514E+04</pdfrwt>
<pdfrwt beam="2">  1       -2 0.23650579E-01 0.11937514E+04</pdfrwt>
<totfact> 0.25076249E+01</totfact>
</mgrwt>
</event>
<event>
12    4  0.4398275E-008  0.1164826E+04  0.7818608E-02  0.9144214E-01
         -2   -1    0    0    0  501 -0.00000000000E+00  0.00000000000E+00  0.16372848540E+04  0.16372848540E+04  0.00000000000E+00 0.  1.
          1   -1    0    0  501    0  0.00000000000E+00 -0.00000000000E+00 -0.20717508524E+03  0.20717508524E+03  0.00000000000E+00 0. -1.
        -24    2    1    2    0    0  0.12292897572E+03  0.16354476429E+03  0.15446077676E+03  0.26845530308E+03  0.79697523151E+02 0.  0.
        254    2    1    2    0    0 -0.12292897572E+03 -0.16354476429E+03  0.12756489920E+04  0.15760046361E+04  0.90258065534E+03 0.  0.
         23    2    4    4    0    0 -0.33538310283E+03 -0.71708110140E+02  0.12785066463E+04  0.13269823404E+04  0.93161195623E+02 0.  0.
         23    2    4    4    0    0  0.21245412711E+03 -0.91836654152E+02 -0.28576543155E+01  0.24902229575E+03  0.91832512872E+02 0.  0.
          3    1    3    3  502    0  0.10957879812E+03  0.14756354688E+03  0.98037299281E+02  0.20831184656E+03  0.00000000000E+00 0. -1.
         -4    1    3    3    0  502  0.13350177596E+02  0.15981217411E+02  0.56423477478E+02  0.60143456523E+02  0.00000000000E+00 0.  1.
         11    1    5    5    0    0 -0.88717727760E+02 -0.59296032648E+02  0.44779373577E+03  0.46033258032E+03  0.00000000000E+00 0. -1.
        -11    1    5    5    0    0 -0.24666537507E+03 -0.12412077493E+02  0.83071291052E+03  0.86664976007E+03  0.00000000000E+00 0.  1.
          4    1    6    6  503    0  0.21510227347E+03 -0.98126759347E+02  0.75830869067E+01  0.23654883673E+03  0.00000000000E+00 0.  1.
         -4    1    6    6    0  503 -0.26481463639E+01  0.62901051952E+01 -0.10440741222E+02  0.12473459015E+02  0.00000000000E+00 0. -1.
<mgrwt>
<rscale>  0 0.11648255E+04</rscale>
<asrwt>0</asrwt>
<pdfrwt beam="1">  1        1 0.31873091E-01 0.11648255E+04</pdfrwt>
<pdfrwt beam="2">  1       -2 0.25188997E+00 0.11648255E+04</pdfrwt>
<totfact> 0.77139656E+00</totfact>
</mgrwt>
</event>
<event>
12    4  0.4398275E-008  0.1587547E+04  0.7818608E-02  0.8828235E-01
          1   -1    0    0  501    0  0.00000000000E+00  0.00000000000E+00  0.21485062281E+03  0.21485062281E+03  0.00000000000E+00 0. -1.
         -2   -1    0    0    0  501 -0.00000000000E+00 -0.00000000000E+00 -0.29326267808E+04  0.29326267808E+04  0.00000000000E+00 0.  1.
        -24    2    1    2    0    0 -0.14907559336E+03  0.24978206983E+03 -0.16761362563E+04  0.17030382625E+04  0.79321870292E+02 0.  0.
        254    2    1    2    0    0  0.14907559336E+03 -0.24978206983E+03 -0.10416399017E+04  0.14444391410E+04  0.95748427270E+03 0.  0.
         23    2    4    4    0    0  0.26065098977E+03 -0.27250526176E+03 -0.11807090626E+04  0.12428053418E+04  0.91066848900E+02 0.  0.
         23    2    4    4    0    0 -0.11157539641E+03  0.22723191931E+02  0.13906916087E+03  0.20163379928E+03  0.91381316306E+02 0.  0.
          3    1    3    3  502    0 -0.28519012850E+01  0.67947025310E+02 -0.35521534932E+03  0.36166680244E+03  0.00000000000E+00 0. -1.
         -4    1    3    3    0  502 -0.14622369208E+03  0.18183504452E+03 -0.13209209069E+04  0.13413714601E+04  0.00000000000E+00 0.  1.
         11    1    5    5    0    0  0.53160251243E+01 -0.14194238955E+02 -0.13431963959E+03  0.13517212036E+03  0.00000000000E+00 0. -1.
        -11    1    5    5    0    0  0.25533496465E+03 -0.25831102280E+03 -0.10463894230E+04  0.11076332214E+04  0.00000000000E+00 0.  1.
          2    1    6    6  503    0 -0.37230417967E+02  0.46430837839E+02  0.27693171795E+02  0.65641743491E+02  0.00000000000E+00 0. -1.
         -2    1    6    6    0  503 -0.74344978448E+02 -0.23707645908E+02  0.11137598908E+03  0.13599205579E+03  0.00000000000E+00 0.  1.
<mgrwt>
<rscale>  0 0.15875474E+04</rscale>
<asrwt>0</asrwt>
<pdfrwt beam="1">  1        1 0.33053942E-01 0.15875474E+04</pdfrwt>
<pdfrwt beam="2">  1       -2 0.45117335E+00 0.15875474E+04</pdfrwt>
<totfact> 0.38989659E-01</totfact>
</mgrwt>
</event>
<event>
12    4  0.4398275E-008  0.1493920E+04  0.7818608E-02  0.8888506E-01
         -2   -1    0    0    0  501 -0.00000000000E+00  0.00000000000E+00  0.34081389766E+03  0.34081389766E+03  0.00000000000E+00 0.  1.
          1   -1    0    0  501    0  0.00000000000E+00 -0.00000000000E+00 -0.16371073256E+04  0.16371073256E+04  0.00000000000E+00 0. -1.
        -24    2    1    2    0    0  0.15210859777E+03  0.42040793084E+03 -0.20533250074E+03  0.49842304797E+03  0.79901470946E+02 0.  0.
        254    2    1    2    0    0 -0.15210859777E+03 -0.42040793084E+03 -0.10909609272E+04  0.14794981753E+04  0.89377807768E+03 0.  0.
         23    2    4    4    0    0  0.24260561725E+03  0.58338168490E+02 -0.60135870614E+02  0.27278215121E+03  0.92373977175E+02 0.  0.
         23    2    4    4    0    0 -0.39471421502E+03 -0.47874609933E+03 -0.10308250565E+04  0.12067160240E+04  0.92553370080E+02 0.  0.
          1    1    3    3  502    0  0.44856266642E+02  0.60629444192E+02 -0.57924058981E+02  0.95095797851E+02  0.00000000000E+00 0. -1.
         -2    1    3    3    0  502  0.10725233113E+03  0.35977848664E+03 -0.14740844176E+03  0.40332725012E+03  0.00000000000E+00 0.  1.
         11    1    5    5    0    0  0.27263882357E+02  0.34522825504E+01  0.22674293594E+02  0.35628094616E+02  0.00000000000E+00 0. -1.
        -11    1    5    5    0    0  0.21534173489E+03  0.54885885940E+02 -0.82810164207E+02  0.23715405659E+03  0.00000000000E+00 0.  1.
          4    1    6    6  503    0 -0.26175810155E+03 -0.28480306107E+03 -0.56241551820E+03  0.68259893234E+03  0.00000000000E+00 0. -1.
         -4    1    6    6    0  503 -0.13295611347E+03 -0.19394303826E+03 -0.46840953835E+03  0.52411709170E+03  0.00000000000E+00 0.  1.
<mgrwt>
<rscale>  0 0.14939196E+04</rscale>
<asrwt>0</asrwt>
<pdfrwt beam="1">  1        1 0.25186266E+00 0.14939196E+04</pdfrwt>
<pdfrwt beam="2">  1       -2 0.52432908E-01 0.14939196E+04</pdfrwt>
<totfact> 0.15343385E+01</totfact>
</mgrwt>
</event>
<event>
12    4  0.4398275E-008  0.2131226E+04  0.7818608E-02  0.8547612E-01
         -2   -1    0    0    0  501 -0.00000000000E+00  0.00000000000E+00  0.10629932047E+04  0.10629932047E+04  0.00000000000E+00 0.  1.
          1   -1    0    0  501    0  0.00000000000E+00 -0.00000000000E+00 -0.10682387620E+04  0.10682387620E+04  0.00000000000E+00 0. -1.
        -24    2    1    2    0    0 -0.98024749927E+02  0.61416017113E+03  0.61807279414E+03  0.88031743132E+03  0.78378783053E+02 0.  0.
        254    2    1    2    0    0  0.98024749927E+02 -0.61416017113E+03 -0.62331835152E+03  0.12509145354E+04  0.88851552607E+03 0.  0.
         23    2    4    4    0    0  0.46396004151E+02 -0.82021777383E+03 -0.36439104712E+03  0.90367250865E+03  0.94516569843E+02 0.  0.
         23    2    4    4    0    0  0.51628745777E+02  0.20605760270E+03 -0.25892730440E+03  0.34724202672E+03  0.91697399832E+02 0.  0.
          3    1    3    3  502    0 -0.41513452670E+02  0.30219983866E+03  0.24893532175E+03  0.39372186078E+03  0.00000000000E+00 0. -1.
         -4    1    3    3    0  502 -0.56511297257E+02  0.31196033247E+03  0.36913747238E+03  0.48659557054E+03  0.00000000000E+00 0.  1.
         11    1    5    5    0    0  0.27623951376E+02 -0.56410141225E+02 -0.31425319165E+02  0.70233449347E+02  0.00000000000E+00 0. -1.
        -11    1    5    5    0    0  0.18772052774E+02 -0.76380763260E+03 -0.33296572796E+03  0.83343905931E+03  0.00000000000E+00 0.  1.
          2    1    6    6  503    0 -0.19166734168E+02  0.37530832344E+02 -0.20657306943E+02  0.46932413162E+02  0.00000000000E+00 0. -1.
         -2    1    6    6    0  503  0.70795479944E+02  0.16852677035E+03 -0.23826999746E+03  0.30030961356E+03  0.00000000000E+00 0.  1.
<mgrwt>
<rscale>  0 0.21312255E+04</rscale>
<asrwt>0</asrwt>
<pdfrwt beam="1">  1        1 0.16434443E+00 0.21312255E+04</pdfrwt>
<pdfrwt beam="2">  1       -2 0.16353741E+00 0.21312255E+04</pdfrwt>
<totfact> 0.25572186E+00</totfact>
</mgrwt>
</event>
<event>
12    4  0.4398275E-008  0.2158326E+04  0.7818608E-02  0.8535977E-01
         -2   -1    0    0    0  501 -0.00000000000E+00  0.00000000000E+00  0.12452883992E+04  0.12452883992E+04  0.00000000000E+00 0.  1.
          1   -1    0    0  501    0  0.00000000000E+00 -0.00000000000E+00 -0.93519923093E+03  0.93519923093E+03  0.00000000000E+00 0. -1.
        -24    2    1    2    0    0 -0.70171804332E+03 -0.52083959918E+02  0.69128235652E+03  0.98943550366E+03  0.77397469368E+02 0.  0.
        254    2    1    2    0    0  0.70171804332E+03  0.52083959918E+02 -0.38119318826E+03  0.11910521265E+04  0.88214282855E+03 0.  0.
         23    2    4    4    0    0 -0.11228460194E+03 -0.30379007710E+02 -0.33549055318E+03  0.36650160061E+03  0.90767813853E+02 0.  0.
         23    2    4    4    0    0  0.81400264526E+03  0.82462967628E+02 -0.45702635077E+02  0.82455052585E+03  0.91620910790E+02 0.  0.
          1    1    3    3  502    0 -0.34944820328E+03 -0.28122554996E+02  0.29042112286E+03  0.45524647553E+03  0.00000000000E+00 0. -1.
         -2    1    3    3    0  502 -0.35226984004E+03 -0.23961404922E+02  0.40086123366E+03  0.53418902814E+03  0.00000000000E+00 0.  1.
         11    1    5    5    0    0 -0.49018061132E+02  0.18290736846E+02 -0.21983712428E+03  0.22597717270E+03  0.00000000000E+00 0.  1.
        -11    1    5    5    0    0 -0.63266540813E+02 -0.48669744556E+02 -0.11565342891E+03  0.14052442791E+03  0.00000000000E+00 0. -1.
          3    1    6    6  503    0  0.13563366232E+01 -0.31861358076E+01  0.47141863943E+01  0.58493301993E+01  0.00000000000E+00 0. -1.
         -3    1    6    6    0  503  0.81264630864E+03  0.85649103435E+02 -0.50416821471E+02  0.81870119565E+03  0.00000000000E+00 0.  1.
<mgrwt>
<rscale>  0 0.21583260E+04</rscale>
<asrwt>0</asrwt>
<pdfrwt beam="1">  1        1 0.14387680E+00 0.21583260E+04</pdfrwt>
<pdfrwt beam="2">  1       -2 0.19158283E+00 0.21583260E+04</pdfrwt>
<totfact> 0.20663801E+00</totfact>
</mgrwt>
</event>
<event>
12    4  0.4398275E-008  0.1471813E+04  0.7818608E-02  0.8903417E-01
         -2   -1    0    0    0  501 -0.00000000000E+00  0.00000000000E+00  0.37188178775E+03  0.37188178775E+03  0.00000000000E+00 0.  1.
          1   -1    0    0  501    0  0.00000000000E+00 -0.00000000000E+00 -0.14562642008E+04  0.14562642008E+04  0.00000000000E+00 0. -1.
        -24    2    1    2    0    0  0.30452669800E+03  0.34119622788E+03 -0.27483352425E+03  0.53947517021E+03  0.79678212258E+02 0.  0.
        254    2    1    2    0    0 -0.30452669800E+03 -0.34119622788E+03 -0.80954888878E+03  0.12886708183E+04  0.89227333198E+03 0.  0.
         23    2    4    4    0    0  0.72475646272E+02 -0.43415792774E+02 -0.78964116494E+03  0.79933671640E+03  0.90930558457E+02 0.  0.
         23    2    4    4    0    0 -0.37700234427E+03 -0.29778043510E+03 -0.19907723840E+02  0.48933410192E+03  0.90816246998E+02 0.  0.
          1    1    3    3  502    0 -0.34315017691E+01  0.11048351208E+02 -0.13632165931E+02  0.17879519478E+02  0.00000000000E+00 0. -1.
         -2    1    3    3    0  502  0.30795819977E+03  0.33014787667E+03 -0.26120135832E+03  0.52159565073E+03  0.00000000000E+00 0.  1.
         11    1    5    5    0    0  0.71775970058E+02 -0.26065720494E+02 -0.76705790513E+03  0.77084955827E+03  0.00000000000E+00 0.  1.
        -11    1    5    5    0    0  0.69967621336E+00 -0.17350072280E+02 -0.22583259805E+02  0.28487158130E+02  0.00000000000E+00 0. -1.
          1    1    6    6  503    0 -0.85591947178E+02 -0.10791463195E+03  0.20248349966E+02  0.13921761701E+03  0.00000000000E+00 0. -1.
         -1    1    6    6    0  503 -0.29141039709E+03 -0.18986580315E+03 -0.40156073806E+02  0.35011648491E+03  0.00000000000E+00 0.  1.
<mgrwt>
<rscale>  0 0.14718127E+04</rscale>
<asrwt>0</asrwt>
<pdfrwt beam="1">  1        1 0.22404065E+00 0.14718127E+04</pdfrwt>
<pdfrwt beam="2">  1       -2 0.57212583E-01 0.14718127E+04</pdfrwt>
<totfact> 0.17088217E+01</totfact>
</mgrwt>
</event>
<event>
12    4  0.4398275E-008  0.2591770E+04  0.7818608E-02  0.8371002E-01
          3   -1    0    0  501    0  0.00000000000E+00  0.00000000000E+00  0.82910884309E+03  0.82910884309E+03  0.00000000000E+00 0. -1.
         -4   -1    0    0    0  501 -0.00000000000E+00 -0.00000000000E+00 -0.20254500332E+04  0.20254500332E+04  0.00000000000E+00 0.  1.
        -24    2    1    2    0    0  0.32268537452E+03 -0.62058300000E+02  0.67513436227E+03  0.75492192523E+03  0.78253578518E+02 0.  0.
        254    2    1    2    0    0 -0.32268537452E+03  0.62058300000E+02 -0.18714755524E+04  0.20996369511E+04  0.89335183418E+03 0.  0.
         23    2    4    4    0    0  0.11592393815E+03  0.34447956868E+03 -0.46781129998E+03  0.59945405189E+03  0.91614492669E+02 0.  0.
         23    2    4    4    0    0 -0.43860931267E+03 -0.28242126868E+03 -0.14036642524E+04  0.15001828992E+04  0.90196980884E+02 0.  0.
          3    1    3    3  502    0  0.31086580488E+03 -0.74802972512E+02  0.62855863123E+03  0.70520847005E+03  0.00000000000E+00 0. -1.
         -4    1    3    3    0  502  0.11819569636E+02  0.12744672513E+02  0.46575731038E+02  0.49713455176E+02  0.00000000000E+00 0.  1.
         11    1    5    5    0    0  0.13861543501E+02  0.83105861712E+02 -0.17317749192E+03  0.19258548842E+03  0.00000000000E+00 0. -1.
        -11    1    5    5    0    0  0.10206239465E+03  0.26137370697E+03 -0.29463380805E+03  0.40686856347E+03  0.00000000000E+00 0.  1.
          4    1    6    6  503    0 -0.14098367589E+03 -0.72913281439E+02 -0.32339314435E+03  0.36024418009E+03  0.00000000000E+00 0. -1.
         -4    1    6    6    0  503 -0.29762563678E+03 -0.20950798724E+03 -0.10802711081E+04  0.11399387191E+04  0.00000000000E+00 0.  1.
<mgrwt>
<rscale>  0 0.25917705E+04</rscale>
<asrwt>0</asrwt>
<pdfrwt beam="1">  1        3 0.12755521E+00 0.25917705E+04</pdfrwt>
<pdfrwt beam="2">  1       -4 0.31160769E+00 0.25917705E+04</pdfrwt>
<totfact> 0.25630019E-02</totfact>
</mgrwt>
</event>
<event>
12    4  0.4398275E-008  0.1712390E+04  0.7818608E-02  0.8754329E-01
          1   -1    0    0  501    0  0.00000000000E+00  0.00000000000E+00  0.52490808669E+03  0.52490808669E+03  0.00000000000E+00 0. -1.
         -2   -1    0    0    0  501 -0.00000000000E+00 -0.00000000000E+00 -0.13965688457E+04  0.13965688457E+04  0.00000000000E+00 0.  1.
        -24    2    1    2    0    0  0.20084612274E+03 -0.43639726954E+03 -0.74512440023E+03  0.89008672264E+03  0.79134443271E+02 0.  0.
        254    2    1    2    0    0 -0.20084612274E+03  0.43639726954E+03 -0.12653635878E+03  0.10313902098E+04  0.90386535105E+03 0.  0.
         23    2    4    4    0    0 -0.69250240754E+01  0.22089433801E+03 -0.49751132521E+03  0.55194196191E+03  0.90995308053E+02 0.  0.
         23    2    4    4    0    0 -0.19392109867E+03  0.21550293153E+03  0.37097496643E+03  0.47944824785E+03  0.90560977491E+02 0.  0.
          1    1    3    3  502    0  0.78470988269E+02 -0.18525286786E+03 -0.24300844632E+03  0.31548284586E+03  0.00000000000E+00 0. -1.
         -2    1    3    3    0  502  0.12237513448E+03 -0.25114440168E+03 -0.50211595391E+03  0.57460387677E+03  0.00000000000E+00 0.  1.
         11    1    5    5    0    0  0.25612735874E+02  0.13512756516E+02 -0.66354845365E+02  0.72398703932E+02  0.00000000000E+00 0. -1.
        -11    1    5    5    0    0 -0.32537759949E+02  0.20738158149E+03 -0.43115647984E+03  0.47954325798E+03  0.00000000000E+00 0.  1.
          1    1    6    6  503    0 -0.98416393021E+02  0.10114615561E+03  0.25182309027E+03  0.28867143953E+03  0.00000000000E+00 0. -1.
         -1    1    6    6    0  503 -0.95504705649E+02  0.11435677592E+03  0.11915187616E+03  0.19077680832E+03  0.00000000000E+00 0.  1.
<mgrwt>
<rscale>  0 0.17123905E+04</rscale>
<asrwt>0</asrwt>
<pdfrwt beam="1">  1        1 0.80755091E-01 0.17123905E+04</pdfrwt>
<pdfrwt beam="2">  1       -2 0.21485674E+00 0.17123905E+04</pdfrwt>
<totfact> 0.36695800E+00</totfact>
</mgrwt>
</event>
<event>
12    4  0.4398275E-008  0.1541020E+04  0.7818608E-02  0.8857624E-01
          3   -1    0    0  501    0  0.00000000000E+00  0.00000000000E+00  0.64013301022E+03  0.64013301022E+03  0.00000000000E+00 0. -1.
         -4   -1    0    0    0  501 -0.00000000000E+00 -0.00000000000E+00 -0.92744082458E+03  0.92744082458E+03  0.00000000000E+00 0.  1.
        -24    2    1    2    0    0  0.42600880419E+03 -0.10964666185E+03  0.15457503715E+03  0.47260947944E+03  0.77203537728E+02 0.  0.
        254    2    1    2    0    0 -0.42600880419E+03  0.10964666185E+03 -0.44188285151E+03  0.10949643554E+04  0.90010032406E+03 0.  0.
         23    2    4    4    0    0 -0.42731119039E+03 -0.33001699260E+03 -0.29365246473E+03  0.62209663563E+03  0.96262065118E+02 0.  0.
         23    2    4    4    0    0  0.13023861976E+01  0.43966365446E+03 -0.14823038678E+03  0.47286771974E+03  0.91245863176E+02 0.  0.
          3    1    3    3  502    0  0.19891881981E+03 -0.52110090711E+02  0.11316048753E+03  0.23471142785E+03  0.00000000000E+00 0. -1.
         -4    1    3    3    0  502  0.22708998438E+03 -0.57536571142E+02  0.41414549625E+02  0.23789805158E+03  0.00000000000E+00 0.  1.
         11    1    5    5    0    0 -0.27125039063E+03 -0.24000016974E+03 -0.23859674819E+03  0.43371103760E+03  0.00000000000E+00 0. -1.
        -11    1    5    5    0    0 -0.15606079976E+03 -0.90016822866E+02 -0.55055716539E+02  0.18838559803E+03  0.00000000000E+00 0.  1.
          1    1    6    6  503    0 -0.26975864471E+02  0.27257868620E+03 -0.54733725418E+02  0.27932529089E+03  0.00000000000E+00 0. -1.
         -1    1    6    6    0  503  0.28278250669E+02  0.16708496826E+03 -0.93496661360E+02  0.19354242885E+03  0.00000000000E+00 0.  1.
<mgrwt>
<rscale>  0 0.15410198E+04</rscale>
<asrwt>0</asrwt>
<pdfrwt beam="1">  1        3 0.98482002E-01 0.15410198E+04</pdfrwt>
<pdfrwt beam="2">  1       -4 0.14268320E+00 0.15410198E+04</pdfrwt>
<totfact> 0.67963707E-01</totfact>
</mgrwt>
</event>
<event>
12    4  0.4398275E-008  0.1580094E+04  0.7818608E-02  0.8832871E-01
          1   -1    0    0  501    0  0.00000000000E+00  0.00000000000E+00  0.14809402706E+04  0.14809402706E+04  0.00000000000E+00 0. -1.
         -2   -1    0    0    0  501 -0.00000000000E+00 -0.00000000000E+00 -0.42147158702E+03  0.42147158702E+03  0.00000000000E+00 0.  1.
        -24    2    1    2    0    0  0.13583646151E+02 -0.50358579197E+03  0.62109831455E+03  0.80344954415E+03  0.77362060127E+02 0.  0.
        254    2    1    2    0    0 -0.13583646151E+02  0.50358579197E+03  0.43837036904E+03  0.10989623135E+04  0.87279231244E+03 0.  0.
         23    2    4    4    0    0  0.22766735944E+03  0.27463636580E+03 -0.16556001809E+03  0.40361413421E+03  0.90756210655E+02 0.  0.
         23    2    4    4    0    0 -0.24125100559E+03  0.22894942617E+03  0.60393038713E+03  0.69534817925E+03  0.90317719490E+02 0.  0.
          3    1    3    3  502    0  0.35262592694E+01 -0.44511733764E+03  0.58067751641E+03  0.73166129926E+03  0.00000000000E+00 0. -1.
         -4    1    3    3    0  502  0.10057386882E+02 -0.58468454329E+02  0.40420798143E+02  0.71788244894E+02  0.00000000000E+00 0.  1.
         11    1    5    5    0    0  0.14743352547E+03  0.15503153764E+03 -0.14423200499E+03  0.25801994760E+03  0.00000000000E+00 0.  1.
        -11    1    5    5    0    0  0.80233833971E+02  0.11960482816E+03 -0.21328013097E+02  0.14559418661E+03  0.00000000000E+00 0. -1.
          1    1    6    6  503    0 -0.10281179550E+03  0.39874446269E+02  0.18912206254E+03  0.21892325436E+03  0.00000000000E+00 0. -1.
         -1    1    6    6    0  503 -0.13843921009E+03  0.18907497990E+03  0.41480832459E+03  0.47642492490E+03  0.00000000000E+00 0.  1.
<mgrwt>
<rscale>  0 0.15800940E+04</rscale>
<asrwt>0</asrwt>
<pdfrwt beam="1">  1        1 0.22783696E+00 0.15800940E+04</pdfrwt>
<pdfrwt beam="2">  1       -2 0.64841783E-01 0.15800940E+04</pdfrwt>
<totfact> 0.12481731E+01</totfact>
</mgrwt>
</event>
<event>
12    4  0.4398275E-008  0.1408134E+04  0.7818608E-02  0.8947951E-01
         -2   -1    0    0    0  501 -0.00000000000E+00  0.00000000000E+00  0.50176488687E+03  0.50176488687E+03  0.00000000000E+00 0.  1.
          1   -1    0    0  501    0  0.00000000000E+00 -0.00000000000E+00 -0.98793419626E+03  0.98793419626E+03  0.00000000000E+00 0. -1.
        -24    2    1    2    0    0  0.32881176283E+01 -0.18930855234E+03  0.24086151214E+03  0.31647804411E+03  0.79344468399E+02 0.  0.
        254    2    1    2    0    0 -0.32881176283E+01  0.18930855234E+03 -0.72703082154E+03  0.11732210390E+04  0.90112443716E+03 0.  0.
         23    2    4    4    0    0  0.22254672750E+03  0.37783971067E+03 -0.74030552219E+03  0.86539562809E+03  0.92560434550E+02 0.  0.
         23    2    4    4    0    0 -0.22583484513E+03 -0.18853115834E+03  0.13274700656E+02  0.30782541094E+03  0.89637553532E+02 0.  0.
          3    1    3    3  502    0 -0.28384981115E+02 -0.35823494354E+02  0.34053962607E+02  0.56997388272E+02  0.00000000000E+00 0. -1.
         -4    1    3    3    0  502  0.31673098744E+02 -0.15348505798E+03  0.20680754954E+03  0.25948065584E+03  0.00000000000E+00 0.  1.
         11    1    5    5    0    0  0.21560703962E+03  0.29692928948E+03 -0.60859846486E+03  0.71066552605E+03  0.00000000000E+00 0. -1.
        -11    1    5    5    0    0  0.69396878736E+01  0.80910421194E+02 -0.13170705733E+03  0.15473010204E+03  0.00000000000E+00 0.  1.
          2    1    6    6  503    0 -0.10275091722E+03 -0.14196189362E+03  0.17810436646E+02  0.17614806806E+03  0.00000000000E+00 0. -1.
         -2    1    6    6    0  503 -0.12308392790E+03 -0.46569264721E+02 -0.45357359904E+01  0.13167734287E+03  0.00000000000E+00 0.  1.
<mgrwt>
<rscale>  0 0.14081345E+04</rscale>
<asrwt>0</asrwt>
<pdfrwt beam="1">  1        1 0.15198987E+00 0.14081345E+04</pdfrwt>
<pdfrwt beam="2">  1       -2 0.77194599E-01 0.14081345E+04</pdfrwt>
<totfact> 0.19783761E+01</totfact>
</mgrwt>
</event>
<event>
12    4  0.4398275E-008  0.1448938E+04  0.7818608E-02  0.8919137E-01
          1   -1    0    0  501    0  0.00000000000E+00  0.00000000000E+00  0.20955765851E+04  0.20955765851E+04  0.00000000000E+00 0. -1.
         -2   -1    0    0    0  501 -0.00000000000E+00 -0.00000000000E+00 -0.25045871792E+03  0.25045871792E+03  0.00000000000E+00 0.  1.
        -24    2    1    2    0    0  0.39984827048E+03  0.12637729015E+02  0.88191798334E+03  0.97175878976E+03  0.80606851676E+02 0.  0.
        254    2    1    2    0    0 -0.39984827048E+03 -0.12637729015E+02  0.96319988387E+03  0.13742765133E+04  0.89489863510E+03 0.  0.
         23    2    4    4    0    0 -0.39884635756E+03 -0.13180411133E+03  0.10936682622E+04  0.11751958727E+04  0.92327302353E+02 0.  0.
         23    2    4    4    0    0 -0.10019129183E+01  0.11916638232E+03 -0.13046837832E+03  0.19908064060E+03  0.91703179978E+02 0.  0.
          3    1    3    3  502    0  0.39970682515E+03  0.12359624818E+02  0.88368867781E+03  0.96996081657E+03  0.00000000000E+00 0. -1.
         -4    1    3    3    0  502  0.14144533695E+00  0.27810419654E+00 -0.17706944640E+01  0.17979731956E+01  0.00000000000E+00 0.  1.
         11    1    5    5    0    0 -0.70500263711E+02 -0.25017716398E+02  0.30892000082E+03  0.31784861211E+03  0.00000000000E+00 0. -1.
        -11    1    5    5    0    0 -0.32834609385E+03 -0.10678639493E+03  0.78474826137E+03  0.85734726057E+03  0.00000000000E+00 0.  1.
          1    1    6    6  503    0 -0.41834985710E+02  0.88434550506E+02 -0.98344950654E+02  0.13871757305E+03  0.00000000000E+00 0. -1.
         -1    1    6    6    0  503  0.40833072792E+02  0.30731831810E+02 -0.32123427666E+02  0.60363067558E+02  0.00000000000E+00 0.  1.
<mgrwt>
<rscale>  0 0.14489381E+04</rscale>
<asrwt>0</asrwt>
<pdfrwt beam="1">  1        1 0.32239639E+00 0.14489381E+04</pdfrwt>
<pdfrwt beam="2">  1       -2 0.38532112E-01 0.14489381E+04</pdfrwt>
<totfact> 0.13938103E+01</totfact>
</mgrwt>
</event>
<event>
12    4  0.4398275E-008  0.1793506E+04  0.7818608E-02  0.8709761E-01
          1   -1    0    0  501    0  0.00000000000E+00  0.00000000000E+00  0.12210023318E+04  0.12210023318E+04  0.00000000000E+00 0. -1.
         -2   -1    0    0    0  501 -0.00000000000E+00 -0.00000000000E+00 -0.65861100351E+03  0.65861100351E+03  0.00000000000E+00 0.  1.
        -24    2    1    2    0    0 -0.36308578572E+03  0.93888972164E+01 -0.40227285186E+03  0.54850944134E+03  0.84378437497E+02 0.  0.
        254    2    1    2    0    0  0.36308578572E+03 -0.93888972164E+01  0.96466418016E+03  0.13311038940E+04  0.84222393511E+03 0.  0.
         23    2    4    4    0    0  0.10120605676E+03 -0.25602481909E+03 -0.81299504225E+01  0.28975243521E+03  0.89994464838E+02 0.  0.
         23    2    4    4    0    0  0.26187972896E+03  0.24663592187E+03  0.97279413058E+03  0.10413514588E+04  0.93135223079E+02 0.  0.
          3    1    3    3  502    0 -0.12082538394E+03  0.54610320957E+01 -0.78792614453E+02  0.14434982635E+03  0.00000000000E+00 0. -1.
         -4    1    3    3    0  502 -0.24226040178E+03  0.39278651207E+01 -0.32348023741E+03  0.40415961499E+03  0.00000000000E+00 0.  1.
         11    1    5    5    0    0  0.43316404535E+02 -0.59132068121E+02 -0.37665825829E+02  0.82411326998E+02  0.00000000000E+00 0. -1.
        -11    1    5    5    0    0  0.57889652224E+02 -0.19689275097E+03  0.29535875407E+02  0.20734110821E+03  0.00000000000E+00 0.  1.
          1    1    6    6  503    0  0.16797883979E+01  0.30422088872E+01  0.79469517735E+02  0.79545464817E+02  0.00000000000E+00 0. -1.
         -1    1    6    6    0  503  0.26019994056E+03  0.24359371298E+03  0.89332461284E+03  0.96180599394E+03  0.00000000000E+00 0.  1.
<mgrwt>
<rscale>  0 0.17935056E+04</rscale>
<asrwt>0</asrwt>
<pdfrwt beam="1">  1        1 0.18784651E+00 0.17935056E+04</pdfrwt>
<pdfrwt beam="2">  1       -2 0.10132477E+00 0.17935056E+04</pdfrwt>
<totfact> 0.68385938E+00</totfact>
</mgrwt>
</event>
<event>
12    4  0.4398275E-008  0.3384339E+04  0.7818608E-02  0.8141761E-01
         -4   -1    0    0    0  501 -0.00000000000E+00  0.00000000000E+00  0.15602284809E+04  0.15602284809E+04  0.00000000000E+00 0.  1.
          3   -1    0    0  501    0  0.00000000000E+00 -0.00000000000E+00 -0.18352679934E+04  0.18352679934E+04  0.00000000000E+00 0. -1.
        -24    2    1    2    0    0 -0.92543637465E+03 -0.80133477609E+03 -0.11317952997E+04  0.16693848065E+04  0.85528503034E+02 0.  0.
        254    2    1    2    0    0  0.92543637465E+03  0.80133477609E+03  0.85675578723E+03  0.17261116678E+04  0.86421126117E+03 0.  0.
         23    2    4    4    0    0  0.60370480339E+03  0.68251856522E+02  0.10333190284E+03  0.62318297709E+03  0.92529645141E+02 0.  0.
         23    2    4    4    0    0  0.32173157126E+03  0.73308291957E+03  0.75342388439E+03  0.11029286907E+04  0.88782748101E+02 0.  0.
          1    1    3    3  502    0 -0.70719301055E+03 -0.61885322512E+03 -0.81861497890E+03  0.12462871868E+04  0.00000000000E+00 0. -1.
         -2    1    3    3    0  502 -0.21824336411E+03 -0.18248155096E+03 -0.31318032077E+03  0.42309761963E+03  0.00000000000E+00 0.  1.
         11    1    5    5    0    0  0.18430263643E+03 -0.21519750620E+02  0.36357175698E+02  0.18908306557E+03  0.00000000000E+00 0.  1.
        -11    1    5    5    0    0  0.41940216697E+03  0.89771607141E+02  0.66974727138E+02  0.43409991152E+03  0.00000000000E+00 0. -1.
          2    1    6    6  503    0  0.20042416505E+03  0.54734330180E+03  0.56674963272E+03  0.81299426944E+03  0.00000000000E+00 0. -1.
         -2    1    6    6    0  503  0.12130740621E+03  0.18573961777E+03  0.18667425167E+03  0.28993442129E+03  0.00000000000E+00 0.  1.
<mgrwt>
<rscale>  0 0.33843389E+04</rscale>
<asrwt>0</asrwt>
<pdfrwt beam="1">  1        3 0.28234892E+00 0.33843389E+04</pdfrwt>
<pdfrwt beam="2">  1       -4 0.24003515E+00 0.33843389E+04</pdfrwt>
<totfact> 0.66290292E-03</totfact>
</mgrwt>
</event>
<event>
12    4  0.4398275E-008  0.2150313E+04  0.7818608E-02  0.8539398E-01
         -2   -1    0    0    0  501 -0.00000000000E+00  0.00000000000E+00  0.44418196852E+03  0.44418196852E+03  0.00000000000E+00 0.  1.
          1   -1    0    0  501    0  0.00000000000E+00 -0.00000000000E+00 -0.26024491469E+04  0.26024491469E+04  0.00000000000E+00 0. -1.
        -24    2    1    2    0    0 -0.32143339399E+03 -0.70222861349E+03 -0.22171868053E+03  0.80738165241E+03  0.79129684597E+02 0.  0.
        254    2    1    2    0    0  0.32143339399E+03  0.70222861349E+03 -0.19365484979E+04  0.22392494630E+04  0.81705178580E+03 0.  0.
         23    2    4    4    0    0  0.28426050446E+02  0.68899917529E+03 -0.17389404784E+04  0.18730279835E+04  0.93765322181E+02 0.  0.
         23    2    4    4    0    0  0.29300734354E+03  0.13229438199E+02 -0.19760801943E+03  0.36622147950E+03  0.95083759369E+02 0.  0.
          3    1    3    3  502    0 -0.35875808243E+02 -0.35551613138E+02 -0.22257572604E+02  0.55194115194E+02  0.00000000000E+00 0. -1.
         -4    1    3    3    0  502 -0.28555758574E+03 -0.66667700035E+03 -0.19946110793E+03  0.75218753722E+03  0.00000000000E+00 0.  1.
         11    1    5    5    0    0 -0.31216077081E+02  0.17738309307E+03 -0.41353610957E+03  0.45105578268E+03  0.00000000000E+00 0.  1.
        -11    1    5    5    0    0  0.59642127527E+02  0.51161608221E+03 -0.13254043689E+04  0.14219722008E+04  0.00000000000E+00 0. -1.
          3    1    6    6  503    0  0.11704688056E+03 -0.19796770835E+02 -0.33477382249E+02  0.12333944830E+03  0.00000000000E+00 0. -1.
         -3    1    6    6    0  503  0.17596046298E+03  0.33026209035E+02 -0.16413063719E+03  0.24288203120E+03  0.00000000000E+00 0.  1.
<mgrwt>
<rscale>  0 0.21503125E+04</rscale>
<asrwt>0</asrwt>
<pdfrwt beam="1">  1        1 0.40037679E+00 0.21503125E+04</pdfrwt>
<pdfrwt beam="2">  1       -2 0.68335688E-01 0.21503125E+04</pdfrwt>
<totfact> 0.18121298E+00</totfact>
</mgrwt>
</event>
<event>
12    4  0.4398275E-008  0.1521717E+04  0.7818608E-02  0.8870139E-01
         -2   -1    0    0    0  501 -0.00000000000E+00  0.00000000000E+00  0.24895912227E+03  0.24895912227E+03  0.00000000000E+00 0.  1.
          1   -1    0    0  501    0  0.00000000000E+00 -0.00000000000E+00 -0.23253027524E+04  0.23253027524E+04  0.00000000000E+00 0. -1.
        -24    2    1    2    0    0 -0.19233554147E+03  0.28140075012E+03 -0.10234120294E+04  0.10814788437E+04  0.77749371663E+02 0.  0.
        254    2    1    2    0    0  0.19233554147E+03 -0.28140075012E+03 -0.10529316008E+04  0.14927830310E+04  0.10017768609E+04 0.  0.
         23    2    4    4    0    0  0.59494455364E+03 -0.20949168308E+03 -0.67705687086E+03  0.92966633179E+03  0.89597404570E+02 0.  0.
         23    2    4    4    0    0 -0.40260901217E+03 -0.71909067039E+02 -0.37587472993E+03  0.56311669923E+03  0.92486073263E+02 0.  0.
          3    1    3    3  502    0 -0.12584544076E+03  0.14480573708E+03 -0.66694897708E+03  0.69399331011E+03  0.00000000000E+00 0. -1.
         -4    1    3    3    0  502 -0.66490100705E+02  0.13659501304E+03 -0.35646305230E+03  0.38748553358E+03  0.00000000000E+00 0.  1.
         11    1    5    5    0    0  0.10283310769E+03 -0.72541719800E+01 -0.84442038542E+02  0.13325812892E+03  0.00000000000E+00 0. -1.
        -11    1    5    5    0    0  0.49211144595E+03 -0.20223751110E+03 -0.59261483232E+03  0.79640820288E+03  0.00000000000E+00 0.  1.
          1    1    6    6  503    0 -0.17793321265E+02  0.10602110725E+02 -0.42726373023E+02  0.47482101735E+02  0.00000000000E+00 0. -1.
         -1    1    6    6    0  503 -0.38481569091E+03 -0.82511177764E+02 -0.33314835690E+03  0.51563459749E+03  0.00000000000E+00 0.  1.
<mgrwt>
<rscale>  0 0.15217166E+04</rscale>
<asrwt>0</asrwt>
<pdfrwt beam="1">  1        1 0.35773887E+00 0.15217166E+04</pdfrwt>
<pdfrwt beam="2">  1       -2 0.38301405E-01 0.15217166E+04</pdfrwt>
<totfact> 0.97764496E+00</totfact>
</mgrwt>
</event>
<event>
12    4  0.4398275E-008  0.3201481E+04  0.7818608E-02  0.8188426E-01
          1   -1    0    0  501    0  0.00000000000E+00  0.00000000000E+00  0.13050756932E+04  0.13050756932E+04  0.00000000000E+00 0. -1.
         -2   -1    0    0    0  501 -0.00000000000E+00 -0.00000000000E+00 -0.19633884819E+04  0.19633884819E+04  0.00000000000E+00 0.  1.
        -24    2    1    2    0    0  0.38042839077E+01 -0.13390258798E+04 -0.92038284130E+03  0.16266830100E+04  0.77383857454E+02 0.  0.
        254    2    1    2    0    0 -0.38042839077E+01  0.13390258798E+04  0.26207005262E+03  0.16417811650E+04  0.91310454065E+03 0.  0.
         23    2    4    4    0    0 -0.21343847936E+03  0.12213267224E+04 -0.41462243092E+02  0.12440886972E+04  0.94035214009E+02 0.  0.
         23    2    4    4    0    0  0.20963419545E+03  0.11769915733E+03  0.30353229571E+03  0.39769246786E+03  0.90707535041E+02 0.  0.
          1    1    3    3  502    0  0.12357446473E+02 -0.67302841779E+02 -0.62115015042E+02  0.92415659325E+02  0.00000000000E+00 0. -1.
         -2    1    3    3    0  502 -0.85531625649E+01 -0.12717230380E+04 -0.85826782625E+03  0.15342673507E+04  0.00000000000E+00 0.  1.
         11    1    5    5    0    0 -0.18650595232E+03  0.10106345188E+04 -0.13859793149E+00  0.10276996740E+04  0.00000000000E+00 0.  1.
        -11    1    5    5    0    0 -0.26932527037E+02  0.21069220362E+03 -0.41323645161E+02  0.21638902313E+03  0.00000000000E+00 0. -1.
          4    1    6    6  503    0  0.19187330743E+02  0.28579485773E+02  0.97132168263E+02  0.10305143754E+03  0.00000000000E+00 0. -1.
         -4    1    6    6    0  503  0.19044686470E+03  0.89119671562E+02  0.20640012745E+03  0.29464103032E+03  0.00000000000E+00 0.  1.
<mgrwt>
<rscale>  0 0.32014813E+04</rscale>
<asrwt>0</asrwt>
<pdfrwt beam="1">  1        1 0.20078088E+00 0.32014813E+04</pdfrwt>
<pdfrwt beam="2">  1       -2 0.30205976E+00 0.32014813E+04</pdfrwt>
<totfact> 0.20338791E-01</totfact>
</mgrwt>
</event>
<event>
12    4  0.4398275E-008  0.1341603E+04  0.7818608E-02  0.8997209E-01
          1   -1    0    0  501    0  0.00000000000E+00  0.00000000000E+00  0.10940804640E+04  0.10940804640E+04  0.00000000000E+00 0. -1.
         -2   -1    0    0    0  501 -0.00000000000E+00 -0.00000000000E+00 -0.41128104547E+03  0.41128104547E+03  0.00000000000E+00 0.  1.
        -24    2    1    2    0    0  0.13567796410E+03 -0.19284373274E+03  0.48589680027E+03  0.54739953632E+03  0.89181481566E+02 0.  0.
        254    2    1    2    0    0 -0.13567796410E+03  0.19284373274E+03  0.19690261824E+03  0.95796197314E+03  0.90737163594E+03 0.  0.
         23    2    4    4    0    0 -0.51642771548E+02  0.23908143000E+03  0.53449085145E+03  0.59499626916E+03  0.92266917200E+02 0.  0.
         23    2    4    4    0    0 -0.84035192551E+02 -0.46237697260E+02 -0.33758823321E+03  0.36296570397E+03  0.92619915919E+02 0.  0.
          1    1    3    3  502    0  0.13054423762E+03 -0.20120249456E+03  0.44694750716E+03  0.50723398540E+03  0.00000000000E+00 0. -1.
         -2    1    3    3    0  502  0.51337264842E+01  0.83587618219E+01  0.38949293111E+02  0.40165550919E+02  0.00000000000E+00 0.  1.
         11    1    5    5    0    0 -0.64180560787E+02  0.16909626583E+03  0.30344820833E+03  0.35326124418E+03  0.00000000000E+00 0.  1.
        -11    1    5    5    0    0  0.12537789239E+02  0.69985164163E+02  0.23104264313E+03  0.24173502499E+03  0.00000000000E+00 0. -1.
          3    1    6    6  503    0 -0.79799777769E+02 -0.24791799647E+02 -0.13205148195E+03  0.15626974034E+03  0.00000000000E+00 0. -1.
         -3    1    6    6    0  503 -0.42354147827E+01 -0.21445897613E+02 -0.20553675126E+03  0.20669596363E+03  0.00000000000E+00 0.  1.
<mgrwt>
<rscale>  0 0.13416029E+04</rscale>
<asrwt>0</asrwt>
<pdfrwt beam="1">  1        1 0.16832007E+00 0.13416029E+04</pdfrwt>
<pdfrwt beam="2">  1       -2 0.63274007E-01 0.13416029E+04</pdfrwt>
<totfact> 0.25447268E+01</totfact>
</mgrwt>
</event>
<event>
12    4  0.4398275E-008  0.1574330E+04  0.7818608E-02  0.8836475E-01
          1   -1    0    0  501    0  0.00000000000E+00  0.00000000000E+00  0.27870818391E+04  0.27870818391E+04  0.00000000000E+00 0. -1.
         -2   -1    0    0    0  501 -0.00000000000E+00 -0.00000000000E+00 -0.22232171366E+03  0.22232171366E+03  0.00000000000E+00 0.  1.
        -24    2    1    2    0    0  0.49126631171E+03  0.16747987041E+03  0.96259874902E+03  0.10964911614E+04  0.79400374404E+02 0.  0.
        254    2    1    2    0    0 -0.49126631171E+03 -0.16747987041E+03  0.16021613765E+04  0.19129123914E+04  0.90714973673E+03 0.  0.
         23    2    4    4    0    0 -0.40230616008E+02  0.45250632079E+02  0.13360602601E+04  0.13403820978E+04  0.88887724094E+02 0.  0.
         23    2    4    4    0    0 -0.45103569570E+03 -0.21273050249E+03  0.26610111640E+03  0.57253029355E+03  0.91069574490E+02 0.  0.
          3    1    3    3  502    0  0.34434127431E+03  0.12596436210E+03  0.60152250031E+03  0.70446238515E+03  0.00000000000E+00 0. -1.
         -4    1    3    3    0  502  0.14692503740E+03  0.41515508307E+02  0.36107624871E+03  0.39202877628E+03  0.00000000000E+00 0.  1.
         11    1    5    5    0    0 -0.46816634856E+02  0.30342111837E+02  0.12950602150E+04  0.12962613169E+04  0.00000000000E+00 0. -1.
        -11    1    5    5    0    0  0.65860188477E+01  0.14908520242E+02  0.41000045025E+02  0.44120780955E+02  0.00000000000E+00 0.  1.
          3    1    6    6  503    0 -0.40013111169E+03 -0.20156337086E+03  0.20641811463E+03  0.49329619607E+03  0.00000000000E+00 0. -1.
         -3    1    6    6    0  503 -0.50904584014E+02 -0.11167131624E+02  0.59683001774E+02  0.79234097477E+02  0.00000000000E+00 0.  1.
<mgrwt>
<rscale>  0 0.15743301E+04</rscale>
<asrwt>0</asrwt>
<pdfrwt beam="1">  1        1 0.42878179E+00 0.15743301E+04</pdfrwt>
<pdfrwt beam="2">  1       -2 0.34203343E-01 0.15743301E+04</pdfrwt>
<totfact> 0.57761185E+00</totfact>
</mgrwt>
</event>
<event>
12    4  0.4398275E-008  0.1395082E+04  0.7818608E-02  0.8957386E-01
          1   -1    0    0  501    0  0.00000000000E+00  0.00000000000E+00  0.12194712303E+04  0.12194712303E+04  0.00000000000E+00 0. -1.
         -2   -1    0    0    0  501 -0.00000000000E+00 -0.00000000000E+00 -0.39899563047E+03  0.39899563047E+03  0.00000000000E+00 0.  1.
        -24    2    1    2    0    0 -0.27214201859E+03  0.54077171948E+02 -0.73579178283E+02  0.29823031819E+03  0.80881446615E+02 0.  0.
        254    2    1    2    0    0  0.27214201859E+03 -0.54077171948E+02  0.89405477812E+03  0.13202365426E+04  0.93096990462E+03 0.  0.
         23    2    4    4    0    0  0.15242993642E+02 -0.10036025962E+02  0.10147558565E+04  0.10189344207E+04  0.90359475370E+02 0.  0.
         23    2    4    4    0    0  0.25689902495E+03 -0.44041145987E+02 -0.12070107837E+03  0.30130212186E+03  0.90980694431E+02 0.  0.
          3    1    3    3  502    0 -0.91026857737E+02 -0.15760257207E+02 -0.55733416065E+01  0.92549104120E+02  0.00000000000E+00 0. -1.
         -4    1    3    3    0  502 -0.18111516085E+03  0.69837429155E+02 -0.68005836676E+02  0.20568121407E+03  0.00000000000E+00 0.  1.
         11    1    5    5    0    0 -0.10653694044E+02 -0.22904427891E+02  0.83682385792E+02  0.87411988340E+02  0.00000000000E+00 0. -1.
        -11    1    5    5    0    0  0.25896687686E+02  0.12868401930E+02  0.93107347070E+03  0.93152243239E+03  0.00000000000E+00 0.  1.
          4    1    6    6  503    0  0.22285548030E+03 -0.35503679452E+02 -0.63910703429E+02  0.23454137027E+03  0.00000000000E+00 0. -1.
         -4    1    6    6    0  503  0.34043544647E+02 -0.85374665347E+01 -0.56790374945E+02  0.66760751593E+02  0.00000000000E+00 0.  1.
<mgrwt>
<rscale>  0 0.13950824E+04</rscale>
<asrwt>0</asrwt>
<pdfrwt beam="1">  1        1 0.18761096E+00 0.13950824E+04</pdfrwt>
<pdfrwt beam="2">  1       -2 0.61383944E-01 0.13950824E+04</pdfrwt>
<totfact> 0.21831363E+01</totfact>
</mgrwt>
</event>
<event>
12    4  0.4398275E-008  0.1164912E+04  0.7818608E-02  0.9144136E-01
          1   -1    0    0  501    0  0.00000000000E+00  0.00000000000E+00  0.58393223011E+03  0.58393223011E+03  0.00000000000E+00 0. -1.
         -2   -1    0    0    0  501 -0.00000000000E+00 -0.00000000000E+00 -0.58098353656E+03  0.58098353656E+03  0.00000000000E+00 0.  1.
        -24    2    1    2    0    0 -0.22748219199E+03 -0.18939450603E+02 -0.10764794232E+02  0.24238455917E+03  0.80793212986E+02 0.  0.
        254    2    1    2    0    0  0.22748219199E+03  0.18939450603E+02  0.13713487784E+02  0.92253120751E+03  0.89373873063E+03 0.  0.
         23    2    4    4    0    0  0.24535912097E+03  0.35618402981E+03  0.24254246502E+03  0.50440576508E+03  0.92358904112E+02 0.  0.
         23    2    4    4    0    0 -0.17876928980E+02 -0.33724457921E+03 -0.22882897724E+03  0.41812544243E+03  0.91720739157E+02 0.  0.
          3    1    3    3  502    0 -0.18612913732E+03  0.33640553585E+01  0.18428362069E+02  0.18706944474E+03  0.00000000000E+00 0. -1.
         -4    1    3    3    0  502 -0.41353054675E+02 -0.22303505961E+02 -0.29193156302E+02  0.55315114426E+02  0.00000000000E+00 0.  1.
         11    1    5    5    0    0  0.61017084495E+02  0.16800023772E+03  0.10325765182E+03  0.20642021978E+03  0.00000000000E+00 0.  1.
        -11    1    5    5    0    0  0.18434203648E+03  0.18818379209E+03  0.13928481320E+03  0.29798554529E+03  0.00000000000E+00 0. -1.
          2    1    6    6  503    0 -0.14071373548E+02 -0.39013633218E+01 -0.16128521426E+01  0.14691000011E+02  0.00000000000E+00 0. -1.
         -2    1    6    6    0  503 -0.38055554323E+01 -0.33334321589E+03 -0.22721612509E+03  0.40343444242E+03  0.00000000000E+00 0.  1.
<mgrwt>
<rscale>  0 0.11649120E+04</rscale>
<asrwt>0</asrwt>
<pdfrwt beam="1">  1        1 0.89835728E-01 0.11649120E+04</pdfrwt>
<pdfrwt beam="2">  1       -2 0.89382083E-01 0.11649120E+04</pdfrwt>
<totfact> 0.33212775E+01</totfact>
</mgrwt>
</event>
<event>
12    4  0.4398275E-008  0.1300638E+04  0.7818608E-02  0.9029060E-01
         -4   -1    0    0    0  501 -0.00000000000E+00  0.00000000000E+00  0.20013780790E+03  0.20013780790E+03  0.00000000000E+00 0.  1.
          1   -1    0    0  501    0  0.00000000000E+00 -0.00000000000E+00 -0.21131166844E+04  0.21131166844E+04  0.00000000000E+00 0. -1.
        -24    2    1    2    0    0  0.12116718515E+03  0.28907045281E+03 -0.39696611490E+03  0.51186890166E+03  0.78641354668E+02 0.  0.
        254    2    1    2    0    0 -0.12116718515E+03 -0.28907045281E+03 -0.15160127616E+04  0.18013855907E+04  0.92111461796E+03 0.  0.
         23    2    4    4    0    0 -0.16852614021E+03  0.19081848979E+03 -0.11700209419E+04  0.12008610158E+04  0.91134070919E+02 0.  0.
         23    2    4    4    0    0  0.47358955062E+02 -0.47988894260E+03 -0.34599181975E+03  0.60052457486E+03  0.91559586183E+02 0.  0.
          1    1    3    3  502    0  0.16697221549E+02  0.97149370835E+02 -0.80365945659E+02  0.12718287103E+03  0.00000000000E+00 0. -1.
         -2    1    3    3    0  502  0.10446996360E+03  0.19192108197E+03 -0.31660016924E+03  0.38468603063E+03  0.00000000000E+00 0.  1.
         11    1    5    5    0    0 -0.18058030538E+02  0.72105279352E+02 -0.43263818859E+03  0.43897729554E+03  0.00000000000E+00 0.  1.
        -11    1    5    5    0    0 -0.15046810967E+03  0.11871321044E+03 -0.73738275330E+03  0.76188372028E+03  0.00000000000E+00 0. -1.
          2    1    6    6  503    0  0.35300928957E+01 -0.17801616331E+03 -0.18027087439E+03  0.25337680262E+03  0.00000000000E+00 0. -1.
         -2    1    6    6    0  503  0.43828862166E+02 -0.30187277929E+03 -0.16572094535E+03  0.34714777223E+03  0.00000000000E+00 0.  1.
<mgrwt>
<rscale>  0 0.13006376E+04</rscale>
<asrwt>0</asrwt>
<pdfrwt beam="1">  1        1 0.32509487E+00 0.13006376E+04</pdfrwt>
<pdfrwt beam="2">  1       -4 0.30790433E-01 0.13006376E+04</pdfrwt>
<totfact> 0.12489364E+01</totfact>
</mgrwt>
</event>
<event>
12    4  0.4398275E-008  0.1682697E+04  0.7818608E-02  0.8771295E-01
         -2   -1    0    0    0  501 -0.00000000000E+00  0.00000000000E+00  0.44990177884E+03  0.44990177884E+03  0.00000000000E+00 0.  1.
          1   -1    0    0  501    0  0.00000000000E+00 -0.00000000000E+00 -0.15733817922E+04  0.15733817922E+04  0.00000000000E+00 0. -1.
        -24    2    1    2    0    0  0.44168077343E+03 -0.37213170076E+03 -0.21567405113E+03  0.62182292871E+03  0.81145240223E+02 0.  0.
        254    2    1    2    0    0 -0.44168077343E+03  0.37213170076E+03 -0.90780596221E+03  0.14014606423E+04  0.89800688117E+03 0.  0.
         23    2    4    4    0    0 -0.22154039559E+03 -0.24787247573E+03 -0.10683186292E+03  0.36086939540E+03  0.91064606169E+02 0.  0.
         23    2    4    4    0    0 -0.22014037783E+03  0.62000417649E+03 -0.80097409929E+03  0.10405912469E+04  0.91671536638E+02 0.  0.
          3    1    3    3  502    0  0.90635516106E+02 -0.84810334121E+02 -0.82496566616E+02  0.14904117906E+03  0.00000000000E+00 0. -1.
         -4    1    3    3    0  502  0.35104525732E+03 -0.28732136664E+03 -0.13317748452E+03  0.47278174964E+03  0.00000000000E+00 0.  1.
         11    1    5    5    0    0 -0.12017620465E+03 -0.14252280431E+03 -0.10643964126E+03  0.21467293063E+03  0.00000000000E+00 0. -1.
        -11    1    5    5    0    0 -0.10136419094E+03 -0.10534967142E+03 -0.39222165925E+00  0.14619646477E+03  0.00000000000E+00 0.  1.
          1    1    6    6  503    0 -0.15009626806E+03  0.33902432566E+03 -0.39299234718E+03  0.54028637593E+03  0.00000000000E+00 0. -1.
         -1    1    6    6    0  503 -0.70044109771E+02  0.28097985082E+03 -0.40798175211E+03  0.50030487100E+03  0.00000000000E+00 0.  1.
<mgrwt>
<rscale>  0 0.16826970E+04</rscale>
<asrwt>0</asrwt>
<pdfrwt beam="1">  1        1 0.24205875E+00 0.16826970E+04</pdfrwt>
<pdfrwt beam="2">  1       -2 0.69215656E-01 0.16826970E+04</pdfrwt>
<totfact> 0.92744211E+00</totfact>
</mgrwt>
</event>
<event>
12    4  0.4398275E-008  0.2894852E+04  0.7818608E-02  0.8274411E-01
         -2   -1    0    0    0  501 -0.00000000000E+00  0.00000000000E+00  0.15890181234E+04  0.15890181234E+04  0.00000000000E+00 0.  1.
          1   -1    0    0  501    0  0.00000000000E+00 -0.00000000000E+00 -0.13184511019E+04  0.13184511019E+04  0.00000000000E+00 0. -1.
        -24    2    1    2    0    0 -0.78594179652E+03  0.94080345181E+03  0.57999215451E+03  0.13585537491E+04  0.80384995529E+02 0.  0.
        254    2    1    2    0    0  0.78594179652E+03 -0.94080345181E+03 -0.30942513295E+03  0.15489154762E+04  0.89475113689E+03 0.  0.
         23    2    4    4    0    0  0.55519198514E+03 -0.10233198513E+04 -0.31794572754E+02  0.11681164248E+04  0.89796595524E+02 0.  0.
         23    2    4    4    0    0  0.23074981138E+03  0.82516399481E+02 -0.27763056020E+03  0.38079905139E+03  0.88739832946E+02 0.  0.
          3    1    3    3  502    0 -0.21164157395E+03  0.22170978359E+03  0.11403467143E+03  0.32703408117E+03  0.00000000000E+00 0. -1.
         -4    1    3    3    0  502 -0.57430022257E+03  0.71909366822E+03  0.46595748308E+03  0.10315196679E+04  0.00000000000E+00 0.  1.
         11    1    5    5    0    0  0.47197637287E+03 -0.80737220755E+03 -0.57061308178E+01  0.93522411111E+03  0.00000000000E+00 0.  1.
        -11    1    5    5    0    0  0.83215612269E+02 -0.21594764374E+03 -0.26088441936E+02  0.23289231367E+03  0.00000000000E+00 0. -1.
          3    1    6    6  503    0  0.22153379750E+03  0.95293165684E+02 -0.27324566984E+03  0.36444643906E+03  0.00000000000E+00 0. -1.
         -3    1    6    6    0  503  0.92160138792E+01 -0.12776766203E+02 -0.43848903533E+01  0.16352612325E+02  0.00000000000E+00 0.  1.
<mgrwt>
<rscale>  0 0.28948525E+04</rscale>
<asrwt>0</asrwt>
<pdfrwt beam="1">  1        1 0.20283863E+00 0.28948525E+04</pdfrwt>
<pdfrwt beam="2">  1       -2 0.24446433E+00 0.28948525E+04</pdfrwt>
<totfact> 0.45986891E-01</totfact>
</mgrwt>
</event>
<event>
12    4  0.4398275E-008  0.2222172E+04  0.7818608E-02  0.8509256E-01
          1   -1    0    0  501    0  0.00000000000E+00  0.00000000000E+00  0.16940604285E+04  0.16940604285E+04  0.00000000000E+00 0. -1.
         -2   -1    0    0    0  501 -0.00000000000E+00 -0.00000000000E+00 -0.72872980874E+03  0.72872980874E+03  0.00000000000E+00 0.  1.
        -24    2    1    2    0    0  0.53411879209E+03 -0.17851120770E+03  0.12069874940E+04  0.13340602328E+04  0.75820569680E+02 0.  0.
        254    2    1    2    0    0 -0.53411879209E+03  0.17851120770E+03 -0.24165687423E+03  0.10887300044E+04  0.89988101564E+03 0.  0.
         23    2    4    4    0    0 -0.97559877272E+02 -0.26639265739E+03  0.16351624637E+03  0.33995685721E+03  0.91379014939E+02 0.  0.
         23    2    4    4    0    0 -0.43655891482E+03  0.44490386508E+03 -0.40517312059E+03  0.74877314721E+03  0.89290722117E+02 0.  0.
          3    1    3    3  502    0  0.44989603247E+03 -0.15867701201E+03  0.10767539454E+04  0.11777028034E+04  0.00000000000E+00 0. -1.
         -4    1    3    3    0  502  0.84222759619E+02 -0.19834195685E+02  0.13023354853E+03  0.15635742937E+03  0.00000000000E+00 0.  1.
         11    1    5    5    0    0 -0.27433677929E+02 -0.47600094649E+02  0.76697820772E+02  0.94344747636E+02  0.00000000000E+00 0. -1.
        -11    1    5    5    0    0 -0.70126199343E+02 -0.21879256274E+03  0.86818425594E+02  0.24561210957E+03  0.00000000000E+00 0.  1.
          4    1    6    6  503    0 -0.22722268340E+03  0.28310304689E+03 -0.26425586704E+03  0.44900851470E+03  0.00000000000E+00 0. -1.
         -4    1    6    6    0  503 -0.20933623142E+03  0.16180081819E+03 -0.14091725356E+03  0.29976463251E+03  0.00000000000E+00 0.  1.
<mgrwt>
<rscale>  0 0.22221722E+04</rscale>
<asrwt>0</asrwt>
<pdfrwt beam="1">  1        1 0.26062468E+00 0.22221722E+04</pdfrwt>
<pdfrwt beam="2">  1       -2 0.11211228E+00 0.22221722E+04</pdfrwt>
<totfact> 0.24117442E+00</totfact>
</mgrwt>
</event>
<event>
12    4  0.4398275E-008  0.1296536E+04  0.7818608E-02  0.9032317E-01
         -2   -1    0    0    0  501 -0.00000000000E+00  0.00000000000E+00  0.97504396011E+03  0.97504396011E+03  0.00000000000E+00 0.  1.
          1   -1    0    0  501    0  0.00000000000E+00 -0.00000000000E+00 -0.43100732505E+03  0.43100732505E+03  0.00000000000E+00 0. -1.
        -24    2    1    2    0    0 -0.20415671050E+03 -0.22361207549E+03  0.37306432983E+01  0.31419163961E+03  0.83786311263E+02 0.  0.
        254    2    1    2    0    0  0.20415671050E+03  0.22361207549E+03  0.54030599176E+03  0.10918596455E+04  0.89919107986E+03 0.  0.
         23    2    4    4    0    0  0.35185174420E+03  0.49882023466E+03  0.29682986460E+03  0.68488271602E+03  0.91296712844E+02 0.  0.
         23    2    4    4    0    0 -0.14769503370E+03 -0.27520815917E+03  0.24347612717E+03  0.40697692953E+03  0.93788287185E+02 0.  0.
          3    1    3    3  502    0 -0.10000165319E+03 -0.10783668719E+03 -0.40048835310E+02  0.15242372176E+03  0.00000000000E+00 0. -1.
         -4    1    3    3    0  502 -0.10415505731E+03 -0.11577538830E+03  0.43779478609E+02  0.16176791785E+03  0.00000000000E+00 0.  1.
         11    1    5    5    0    0  0.35538976712E+03  0.47721818424E+03  0.28209662921E+03  0.65849646176E+03  0.00000000000E+00 0. -1.
        -11    1    5    5    0    0 -0.35380229173E+01  0.21602050421E+02  0.14733235389E+02  0.26386254254E+02  0.00000000000E+00 0.  1.
          4    1    6    6  503    0  0.26468416653E+01 -0.28268131299E+02  0.54896950136E+02  0.61804272928E+02  0.00000000000E+00 0.  1.
         -4    1    6    6    0  503 -0.15034187537E+03 -0.24694002787E+03  0.18857917703E+03  0.34517265660E+03  0.00000000000E+00 0. -1.
<mgrwt>
<rscale>  0 0.12965355E+04</rscale>
<asrwt>0</asrwt>
<pdfrwt beam="1">  1        1 0.66308820E-01 0.12965355E+04</pdfrwt>
<pdfrwt beam="2">  1       -2 0.15000676E+00 0.12965355E+04</pdfrwt>
<totfact> 0.13954071E+01</totfact>
</mgrwt>
</event>
<event>
12    4  0.4398275E-008  0.1961811E+04  0.7818608E-02  0.8624687E-01
         -2   -1    0    0    0  501 -0.00000000000E+00  0.00000000000E+00  0.89575695095E+03  0.89575695095E+03  0.00000000000E+00 0.  1.
          3   -1    0    0  501    0  0.00000000000E+00 -0.00000000000E+00 -0.10741475553E+04  0.10741475553E+04  0.00000000000E+00 0. -1.
        -24    2    1    2    0    0  0.19320692793E+03  0.59875872666E+03 -0.51470677552E+03  0.81666673950E+03  0.78616594228E+02 0.  0.
        254    2    1    2    0    0 -0.19320692793E+03 -0.59875872666E+03  0.33631617115E+03  0.11532377668E+04  0.90609483498E+03 0.  0.
         23    2    4    4    0    0 -0.54669203510E+03 -0.28953827137E+03  0.19606434204E+03  0.65464896826E+03  0.86136250142E+02 0.  0.
         23    2    4    4    0    0  0.35348510717E+03 -0.30922045528E+03  0.14025182911E+03  0.49858879851E+03  0.91384919302E+02 0.  0.
          1    1    3    3  502    0  0.17229373340E+03  0.45393221149E+03 -0.42322144237E+03  0.64409313960E+03  0.00000000000E+00 0. -1.
         -2    1    3    3    0  502  0.20913194539E+02  0.14482651517E+03 -0.91485333150E+02  0.17257359990E+03  0.00000000000E+00 0.  1.
         11    1    5    5    0    0 -0.85402179635E+02 -0.78289994213E+02  0.19763814314E+02  0.11753069317E+03  0.00000000000E+00 0.  1.
        -11    1    5    5    0    0 -0.46128985547E+03 -0.21124827716E+03  0.17630052772E+03  0.53711827509E+03  0.00000000000E+00 0. -1.
          2    1    6    6  503    0  0.17407979128E+03 -0.18249570139E+03  0.33661879915E+02  0.25444366158E+03  0.00000000000E+00 0. -1.
         -2    1    6    6    0  503  0.17940531588E+03 -0.12672475389E+03  0.10658994919E+03  0.24414513693E+03  0.00000000000E+00 0.  1.
<mgrwt>
<rscale>  0 0.19618105E+04</rscale>
<asrwt>0</asrwt>
<pdfrwt beam="1">  1        3 0.16525347E+00 0.19618105E+04</pdfrwt>
<pdfrwt beam="2">  1       -2 0.13780876E+00 0.19618105E+04</pdfrwt>
<totfact> 0.36119438E-01</totfact>
</mgrwt>
</event>
<event>
12    4  0.4398275E-008  0.2170464E+04  0.7818608E-02  0.8530823E-01
          1   -1    0    0  501    0  0.00000000000E+00  0.00000000000E+00  0.13503938780E+04  0.13503938780E+04  0.00000000000E+00 0. -1.
         -2   -1    0    0    0  501 -0.00000000000E+00 -0.00000000000E+00 -0.87213704403E+03  0.87213704403E+03  0.00000000000E+00 0.  1.
        -24    2    1    2    0    0  0.86383158576E+03  0.23895311993E+03  0.21351710830E+03  0.92468714572E+03  0.78442079593E+02 0.  0.
        254    2    1    2    0    0 -0.86383158576E+03 -0.23895311993E+03  0.26473972565E+03  0.12978437763E+04  0.90055968332E+03 0.  0.
         23    2    4    4    0    0 -0.41034772675E+03 -0.56157987076E+03  0.83354530994E+02  0.70550836159E+03  0.83886007992E+02 0.  0.
         23    2    4    4    0    0 -0.45348385901E+03  0.32262675083E+03  0.18138519465E+03  0.59233541469E+03  0.90691917675E+02 0.  0.
          3    1    3    3  502    0  0.11495580826E+03  0.10324060990E+02  0.11118839175E+02  0.11595280364E+03  0.00000000000E+00 0. -1.
         -4    1    3    3    0  502  0.74887577750E+03  0.22862905894E+03  0.20239826912E+03  0.80873434208E+03  0.00000000000E+00 0.  1.
         11    1    5    5    0    0 -0.31281750391E+03 -0.38465589382E+03  0.30767633601E+02  0.49675103893E+03  0.00000000000E+00 0. -1.
        -11    1    5    5    0    0 -0.97530222841E+02 -0.17692397694E+03  0.52586897393E+02  0.20875732265E+03  0.00000000000E+00 0.  1.
          1    1    6    6  503    0 -0.20549056731E+03  0.17494091264E+03  0.12845913456E+03  0.29888533825E+03  0.00000000000E+00 0. -1.
         -1    1    6    6    0  503 -0.24799329170E+03  0.14768583819E+03  0.52926060091E+02  0.29345007644E+03  0.00000000000E+00 0.  1.
<mgrwt>
<rscale>  0 0.21704640E+04</rscale>
<asrwt>0</asrwt>
<pdfrwt beam="1">  1        1 0.20775291E+00 0.21704640E+04</pdfrwt>
<pdfrwt beam="2">  1       -2 0.13417493E+00 0.21704640E+04</pdfrwt>
<totfact> 0.26773425E+00</totfact>
</mgrwt>
</event>
<event>
12    4  0.4398275E-008  0.1958794E+04  0.7818608E-02  0.8626132E-01
          1   -1    0    0  501    0  0.00000000000E+00  0.00000000000E+00  0.12161690606E+04  0.12161690606E+04  0.00000000000E+00 0. -1.
         -2   -1    0    0    0  501 -0.00000000000E+00 -0.00000000000E+00 -0.78872115569E+03  0.78872115569E+03  0.00000000000E+00 0.  1.
        -24    2    1    2    0    0 -0.16268223585E+03 -0.52690075017E+03 -0.36617508767E+03  0.66626154008E+03  0.75698973384E+02 0.  0.
        254    2    1    2    0    0  0.16268223585E+03  0.52690075017E+03  0.79362299255E+03  0.13386286762E+04  0.92628255300E+03 0.  0.
         23    2    4    4    0    0  0.10054369953E+03  0.75488960395E+03  0.38447040305E+03  0.85765144876E+03  0.88210923791E+02 0.  0.
         23    2    4    4    0    0  0.62138536319E+02 -0.22798885377E+03  0.40915258951E+03  0.48097722743E+03  0.89961862255E+02 0.  0.
          3    1    3    3  502    0 -0.22755285205E+02 -0.12636554216E+03 -0.52926164142E+02  0.13887847962E+03  0.00000000000E+00 0. -1.
         -4    1    3    3    0  502 -0.13992695065E+03 -0.40053520801E+03 -0.31324892353E+03  0.52738306046E+03  0.00000000000E+00 0.  1.
         11    1    5    5    0    0  0.69044799875E+02  0.21594012885E+03  0.11895577520E+03  0.25602304601E+03  0.00000000000E+00 0.  1.
        -11    1    5    5    0    0  0.31498899659E+02  0.53894947510E+03  0.26551462785E+03  0.60162840275E+03  0.00000000000E+00 0. -1.
          3    1    6    6  503    0  0.37745773673E+02 -0.19707913752E+03  0.38666869522E+03  0.43563472053E+03  0.00000000000E+00 0. -1.
         -3    1    6    6    0  503  0.24392762646E+02 -0.30909716260E+02  0.22483894290E+02  0.45342506892E+02  0.00000000000E+00 0.  1.
<mgrwt>
<rscale>  0 0.19587938E+04</rscale>
<asrwt>0</asrwt>
<pdfrwt beam="1">  1        1 0.18710293E+00 0.19587938E+04</pdfrwt>
<pdfrwt beam="2">  1       -2 0.12134172E+00 0.19587938E+04</pdfrwt>
<totfact> 0.43861439E+00</totfact>
</mgrwt>
</event>
<event>
12    4  0.4398275E-008  0.1252581E+04  0.7818608E-02  0.9068038E-01
          1   -1    0    0  501    0  0.00000000000E+00  0.00000000000E+00  0.34340521179E+03  0.34340521179E+03  0.00000000000E+00 0. -1.
         -2   -1    0    0    0  501 -0.00000000000E+00 -0.00000000000E+00 -0.11422072892E+04  0.11422072892E+04  0.00000000000E+00 0.  1.
        -24    2    1    2    0    0 -0.22609431776E+03  0.11023252371E+03  0.35450269778E+01  0.26381432292E+03  0.79470623200E+02 0.  0.
        254    2    1    2    0    0  0.22609431776E+03 -0.11023252371E+03 -0.80234710439E+03  0.12217981781E+04  0.88643108149E+03 0.  0.
         23    2    4    4    0    0  0.41522953531E+03  0.61714495080E+02 -0.62715820837E+02  0.43419163573E+03  0.91459589212E+02 0.  0.
         23    2    4    4    0    0 -0.18913521755E+03 -0.17194701879E+03 -0.73963128356E+03  0.78760654235E+03  0.89060216386E+02 0.  0.
          1    1    3    3  502    0 -0.11088169611E+03  0.95909818914E+02  0.13845780836E+02  0.14725878427E+03  0.00000000000E+00 0. -1.
         -2    1    3    3    0  502 -0.11521262165E+03  0.14322704799E+02 -0.10300753858E+02  0.11655553865E+03  0.00000000000E+00 0.  1.
         11    1    5    5    0    0  0.37148469818E+03  0.26965542533E+02 -0.65844073713E+02  0.37823731111E+03  0.00000000000E+00 0.  1.
        -11    1    5    5    0    0  0.43744837128E+02  0.34748952548E+02  0.31282528757E+01  0.55954324628E+02  0.00000000000E+00 0. -1.
          3    1    6    6  503    0 -0.13549676100E+03 -0.16756306520E+03 -0.62136656064E+03  0.65767252926E+03  0.00000000000E+00 0.  1.
         -3    1    6    6    0  503 -0.53638456553E+02 -0.43839535897E+01 -0.11826472291E+03  0.12993401308E+03  0.00000000000E+00 0. -1.
<mgrwt>
<rscale>  0 0.12525812E+04</rscale>
<asrwt>0</asrwt>
<pdfrwt beam="1">  1        1 0.52831572E-01 0.12525812E+04</pdfrwt>
<pdfrwt beam="2">  1       -2 0.17572420E+00 0.12525812E+04</pdfrwt>
<totfact> 0.12264342E+01</totfact>
</mgrwt>
</event>
<event>
12    4  0.4398275E-008  0.1203068E+04  0.7818608E-02  0.9110175E-01
         -2   -1    0    0    0  501 -0.00000000000E+00  0.00000000000E+00  0.87661372382E+03  0.87661372382E+03  0.00000000000E+00 0.  1.
          1   -1    0    0  501    0  0.00000000000E+00 -0.00000000000E+00 -0.41277400265E+03  0.41277400265E+03  0.00000000000E+00 0. -1.
        -24    2    1    2    0    0 -0.91552353323E+02 -0.43691273567E+02  0.33601380696E+03  0.36003196677E+03  0.80168434231E+02 0.  0.
        254    2    1    2    0    0  0.91552353323E+02  0.43691273567E+02  0.12782591421E+03  0.92935575970E+03  0.91491633659E+03 0.  0.
         23    2    4    4    0    0  0.26289847327E+03  0.41464677403E+03  0.10284702594E+03  0.50985411944E+03  0.91247782969E+02 0.  0.
         23    2    4    4    0    0 -0.17134611995E+03 -0.37095550047E+03  0.24978888272E+02  0.41950164027E+03  0.91598063183E+02 0.  0.
          1    1    3    3  502    0  0.14169880454E+02  0.13680679784E+01  0.32110004836E+02  0.35124201523E+02  0.00000000000E+00 0. -1.
         -2    1    3    3    0  502 -0.10572223378E+03 -0.45059341545E+02  0.30390380212E+03  0.32490776525E+03  0.00000000000E+00 0.  1.
         11    1    5    5    0    0  0.17240753077E+03  0.28128405694E+03  0.11205247265E+03  0.34842622459E+03  0.00000000000E+00 0.  1.
        -11    1    5    5    0    0  0.90490942505E+02  0.13336271709E+03 -0.92054467111E+01  0.16142789485E+03  0.00000000000E+00 0. -1.
          3    1    6    6  503    0 -0.14196659502E+03 -0.28494159440E+03 -0.18209756995E+02  0.31886959964E+03  0.00000000000E+00 0. -1.
         -3    1    6    6    0  503 -0.29379524932E+02 -0.86013906063E+02  0.43188645268E+02  0.10063204063E+03  0.00000000000E+00 0.  1.
<mgrwt>
<rscale>  0 0.12030683E+04</rscale>
<asrwt>0</asrwt>
<pdfrwt beam="1">  1        1 0.63503693E-01 0.12030683E+04</pdfrwt>
<pdfrwt beam="2">  1       -2 0.13486365E+00 0.12030683E+04</pdfrwt>
<totfact> 0.19658728E+01</totfact>
</mgrwt>
</event>
<event>
12    4  0.4398275E-008  0.1468741E+04  0.7818608E-02  0.8905510E-01
          1   -1    0    0  501    0  0.00000000000E+00  0.00000000000E+00  0.14230811387E+04  0.14230811387E+04  0.00000000000E+00 0. -1.
         -2   -1    0    0    0  501 -0.00000000000E+00 -0.00000000000E+00 -0.37896629379E+03  0.37896629379E+03  0.00000000000E+00 0.  1.
        -24    2    1    2    0    0 -0.19062202470E+03 -0.40665187950E+03  0.35757837674E+03  0.57956718004E+03  0.79582116485E+02 0.  0.
        254    2    1    2    0    0  0.19062202470E+03  0.40665187950E+03  0.68653646814E+03  0.12224802524E+04  0.90632396970E+03 0.  0.
         23    2    4    4    0    0 -0.12568129473E+03  0.32006486218E+03 -0.96043041297E+02  0.36898122172E+03  0.93196418156E+02 0.  0.
         23    2    4    4    0    0  0.31630331943E+03  0.86587017322E+02  0.78257950944E+03  0.85349903069E+03  0.92113003126E+02 0.  0.
          1    1    3    3  502    0 -0.14863941691E+03 -0.26763549890E+03  0.28024582597E+03  0.41504235869E+03  0.00000000000E+00 0. -1.
         -2    1    3    3    0  502 -0.41982607789E+02 -0.13901638060E+03  0.77332550764E+02  0.16452482135E+03  0.00000000000E+00 0.  1.
         11    1    5    5    0    0 -0.11400062654E+03  0.32204067451E+03 -0.10084765014E+03  0.35619739953E+03  0.00000000000E+00 0. -1.
        -11    1    5    5    0    0 -0.11680668189E+02 -0.19758123346E+01  0.48046088465E+01  0.12783822194E+02  0.00000000000E+00 0.  1.
          2    1    6    6  503    0  0.14375700913E+03  0.31213150121E+02  0.46664783730E+03  0.48928574726E+03  0.00000000000E+00 0. -1.
         -2    1    6    6    0  503  0.17254631030E+03  0.55373867201E+02  0.31593167214E+03  0.36421328343E+03  0.00000000000E+00 0.  1.
<mgrwt>
<rscale>  0 0.14687407E+04</rscale>
<asrwt>0</asrwt>
<pdfrwt beam="1">  1        1 0.21893556E+00 0.14687407E+04</pdfrwt>
<pdfrwt beam="2">  1       -2 0.58302508E-01 0.14687407E+04</pdfrwt>
<totfact> 0.17328662E+01</totfact>
</mgrwt>
</event>
<event>
12    4  0.4398275E-008  0.1759293E+04  0.7818608E-02  0.8728252E-01
          1   -1    0    0  501    0  0.00000000000E+00  0.00000000000E+00  0.38502871615E+03  0.38502871615E+03  0.00000000000E+00 0. -1.
         -2   -1    0    0    0  501 -0.00000000000E+00 -0.00000000000E+00 -0.20096622734E+04  0.20096622734E+04  0.00000000000E+00 0.  1.
        -24    2    1    2    0    0 -0.79434107333E+02  0.47071288327E+03 -0.61112421680E+01  0.48390713452E+03  0.79046642377E+02 0.  0.
        254    2    1    2    0    0  0.79434107333E+02 -0.47071288327E+03 -0.16185223151E+04  0.19107838551E+04  0.89643742689E+03 0.  0.
         23    2    4    4    0    0  0.37128084456E+01 -0.59824355162E+03 -0.51729936073E+03  0.79586314897E+03  0.88827874455E+02 0.  0.
         23    2    4    4    0    0  0.75721298887E+02  0.12753066834E+03 -0.11012229544E+04  0.11149207061E+04  0.91424280806E+02 0.  0.
          3    1    3    3  502    0 -0.81079666087E+02  0.28579522579E+03 -0.24432529862E+02  0.29807678851E+03  0.00000000000E+00 0. -1.
         -4    1    3    3    0  502  0.16455587542E+01  0.18491765749E+03  0.18321287694E+02  0.18583034601E+03  0.00000000000E+00 0.  1.
         11    1    5    5    0    0 -0.18977200926E+02 -0.24805594869E+03 -0.16445658194E+03  0.29822450466E+03  0.00000000000E+00 0. -1.
        -11    1    5    5    0    0  0.22690009371E+02 -0.35018760292E+03 -0.35284277878E+03  0.49763864431E+03  0.00000000000E+00 0.  1.
          1    1    6    6  503    0  0.70271590311E+01  0.13415787584E+02 -0.17930919951E+02  0.23470880061E+02  0.00000000000E+00 0. -1.
         -1    1    6    6    0  503  0.68694139856E+02  0.11411488076E+03 -0.10832920344E+04  0.10914498260E+04  0.00000000000E+00 0.  1.
<mgrwt>
<rscale>  0 0.17592927E+04</rscale>
<asrwt>0</asrwt>
<pdfrwt beam="1">  1        1 0.59235187E-01 0.17592927E+04</pdfrwt>
<pdfrwt beam="2">  1       -2 0.30917881E+00 0.17592927E+04</pdfrwt>
<totfact> 0.14625579E+00</totfact>
</mgrwt>
</event>
<event>
12    4  0.4398275E-008  0.1517699E+04  0.7818608E-02  0.8872768E-01
         -2   -1    0    0    0  501 -0.00000000000E+00  0.00000000000E+00  0.54163857820E+03  0.54163857820E+03  0.00000000000E+00 0.  1.
          1   -1    0    0  501    0  0.00000000000E+00 -0.00000000000E+00 -0.10631678573E+04  0.10631678573E+04  0.00000000000E+00 0. -1.
        -24    2    1    2    0    0 -0.26930231178E+03  0.31931806938E+03  0.98333747055E+02  0.43649812596E+03  0.79833098342E+02 0.  0.
        254    2    1    2    0    0  0.26930231178E+03 -0.31931806938E+03 -0.61986302621E+03  0.11683083096E+04  0.89790109167E+03 0.  0.
         23    2    4    4    0    0  0.58570585200E+02 -0.58900634079E+03 -0.22943838032E+03  0.64119731438E+03  0.90183383557E+02 0.  0.
         23    2    4    4    0    0  0.21073172658E+03  0.26968827141E+03 -0.39042464589E+03  0.52711099520E+03  0.90966877632E+02 0.  0.
          3    1    3    3  502    0 -0.10346169403E+03  0.99327287534E+02  0.69860492486E+02  0.15953281979E+03  0.00000000000E+00 0. -1.
         -4    1    3    3    0  502 -0.16584061776E+03  0.21999078185E+03  0.28473254569E+02  0.27696530617E+03  0.00000000000E+00 0.  1.
         11    1    5    5    0    0 -0.55773830232E+01 -0.76357729376E+02 -0.60666309796E+02  0.97683218524E+02  0.00000000000E+00 0. -1.
        -11    1    5    5    0    0  0.64147968223E+02 -0.51264861141E+03 -0.16877207053E+03  0.54351409586E+03  0.00000000000E+00 0.  1.
          1    1    6    6  503    0  0.32745007360E+02  0.22157085133E+02 -0.12342649934E+02  0.41418751019E+02  0.00000000000E+00 0. -1.
         -1    1    6    6    0  503  0.17798671922E+03  0.24753118627E+03 -0.37808199595E+03  0.48569224418E+03  0.00000000000E+00 0.  1.
<mgrwt>
<rscale>  0 0.15176992E+04</rscale>
<asrwt>0</asrwt>
<pdfrwt beam="1">  1        1 0.16356428E+00 0.15176992E+04</pdfrwt>
<pdfrwt beam="2">  1       -2 0.83329013E-01 0.15176992E+04</pdfrwt>
<totfact> 0.14436969E+01</totfact>
</mgrwt>
</event>
<event>
12    4  0.4398275E-008  0.2442537E+04  0.7818608E-02  0.8423748E-01
          1   -1    0    0  501    0  0.00000000000E+00  0.00000000000E+00  0.18505629114E+04  0.18505629114E+04  0.00000000000E+00 0. -1.
         -2   -1    0    0    0  501 -0.00000000000E+00 -0.00000000000E+00 -0.80596945566E+03  0.80596945566E+03  0.00000000000E+00 0.  1.
        -24    2    1    2    0    0  0.83537359119E+03 -0.22663854950E+03 -0.18213217946E+03  0.88824047793E+03  0.81147685466E+02 0.  0.
        254    2    1    2    0    0 -0.83537359119E+03  0.22663854950E+03  0.12267256352E+04  0.17682918891E+04  0.93423035280E+03 0.  0.
         23    2    4    4    0    0 -0.36247249576E+03 -0.29171479196E+03  0.83415858669E+03  0.95947343532E+03  0.91021400270E+02 0.  0.
         23    2    4    4    0    0 -0.47290109543E+03  0.51835334146E+03  0.39256704847E+03  0.80881845377E+03  0.88049820872E+02 0.  0.
          3    1    3    3  502    0  0.46857693408E+03 -0.13566752449E+03 -0.14278134828E+03  0.50828784539E+03  0.00000000000E+00 0. -1.
         -4    1    3    3    0  502  0.36679665711E+03 -0.90971025012E+02 -0.39350831178E+02  0.37995263254E+03  0.00000000000E+00 0.  1.
         11    1    5    5    0    0 -0.24778976408E+03 -0.18342107363E+03  0.46367556067E+03  0.55681063477E+03  0.00000000000E+00 0. -1.
        -11    1    5    5    0    0 -0.11468273168E+03 -0.10829371833E+03  0.37048302603E+03  0.40266280055E+03  0.00000000000E+00 0.  1.
          4    1    6    6  503    0 -0.41355824593E+03  0.40448342974E+03  0.32991195231E+03  0.66594231281E+03  0.00000000000E+00 0.  1.
         -4    1    6    6    0  503 -0.59342849497E+02  0.11386991172E+03  0.62655096158E+02  0.14287614096E+03  0.00000000000E+00 0. -1.
<mgrwt>
<rscale>  0 0.24425374E+04</rscale>
<asrwt>0</asrwt>
<pdfrwt beam="1">  1        1 0.28470198E+00 0.24425374E+04</pdfrwt>
<pdfrwt beam="2">  1       -2 0.12399530E+00 0.24425374E+04</pdfrwt>
<totfact> 0.14446392E+00</totfact>
</mgrwt>
</event>
<event>
12    4  0.4398275E-008  0.1085004E+04  0.7818608E-02  0.9219932E-01
          1   -1    0    0  501    0  0.00000000000E+00  0.00000000000E+00  0.44706343228E+03  0.44706343228E+03  0.00000000000E+00 0. -1.
         -2   -1    0    0    0  501 -0.00000000000E+00 -0.00000000000E+00 -0.65831477036E+03  0.65831477036E+03  0.00000000000E+00 0.  1.
        -24    2    1    2    0    0  0.10001824003E+03  0.60752993973E+00  0.78850353101E+02  0.15046562151E+03  0.80115589255E+02 0.  0.
        254    2    1    2    0    0 -0.10001824003E+03 -0.60752993973E+00 -0.29010169117E+03  0.95491258113E+03  0.90426491082E+03 0.  0.
         23    2    4    4    0    0 -0.36174167282E+03 -0.31525758595E+03 -0.11451465899E+03  0.50035097735E+03  0.83624817262E+02 0.  0.
         23    2    4    4    0    0  0.26172343279E+03  0.31465005601E+03 -0.17558703218E+03  0.45456160377E+03  0.91058402883E+02 0.  0.
          3    1    3    3  502    0  0.99823215331E+02  0.44016853312E+01  0.34136237118E+02  0.10559039652E+03  0.00000000000E+00 0. -1.
         -4    1    3    3    0  502  0.19502469522E+00 -0.37941553915E+01  0.44714115982E+02  0.44875224989E+02  0.00000000000E+00 0.  1.
         11    1    5    5    0    0 -0.20985787661E+02 -0.15245945796E+02  0.12667823684E+02  0.28867211571E+02  0.00000000000E+00 0. -1.
        -11    1    5    5    0    0 -0.34075588516E+03 -0.30001164015E+03 -0.12718248267E+03  0.47148376578E+03  0.00000000000E+00 0.  1.
          1    1    6    6  503    0  0.11598799615E+03  0.76478294579E+02 -0.42810129094E+02  0.14537830631E+03  0.00000000000E+00 0. -1.
         -1    1    6    6    0  503  0.14573543664E+03  0.23817176143E+03 -0.13277690309E+03  0.30918329746E+03  0.00000000000E+00 0.  1.
<mgrwt>
<rscale>  0 0.10850041E+04</rscale>
<asrwt>0</asrwt>
<pdfrwt beam="1">  1        1 0.68778989E-01 0.10850041E+04</pdfrwt>
<pdfrwt beam="2">  1       -2 0.10127920E+00 0.10850041E+04</pdfrwt>
<totfact> 0.36100301E+01</totfact>
</mgrwt>
</event>
<event>
12    4  0.4398275E-008  0.2777320E+04  0.7818608E-02  0.8310344E-01
          1   -1    0    0  501    0  0.00000000000E+00  0.00000000000E+00  0.15164275292E+04  0.15164275292E+04  0.00000000000E+00 0. -1.
         -2   -1    0    0    0  501 -0.00000000000E+00 -0.00000000000E+00 -0.12716574219E+04  0.12716574219E+04  0.00000000000E+00 0.  1.
        -24    2    1    2    0    0  0.29353668873E+03  0.74391986494E+03  0.10639505976E+04  0.13333416761E+04  0.78921466438E+02 0.  0.
        254    2    1    2    0    0 -0.29353668873E+03 -0.74391986494E+03 -0.81918049044E+03  0.14547432750E+04  0.89757493683E+03 0.  0.
         23    2    4    4    0    0 -0.41062665444E+03 -0.71273436790E+03 -0.24874567286E+03  0.86408904703E+03  0.90393268040E+02 0.  0.
         23    2    4    4    0    0  0.11708996570E+03 -0.31185497033E+02 -0.57043481757E+03  0.59065422799E+03  0.93776013170E+02 0.  0.
          3    1    3    3  502    0  0.27867630179E+03  0.64228125548E+03  0.90754324998E+03  0.11462200674E+04  0.00000000000E+00 0. -1.
         -4    1    3    3    0  502  0.14860386940E+02  0.10163860945E+03  0.15640734766E+03  0.18712160868E+03  0.00000000000E+00 0.  1.
         11    1    5    5    0    0 -0.14640154109E+03 -0.31656681291E+03 -0.71899583890E+02  0.35611445974E+03  0.00000000000E+00 0. -1.
        -11    1    5    5    0    0 -0.26422511334E+03 -0.39616755499E+03 -0.17684608897E+03  0.50797458729E+03  0.00000000000E+00 0.  1.
          3    1    6    6  503    0  0.46983504040E+02 -0.21164640115E+02 -0.43291003328E+03  0.43596615529E+03  0.00000000000E+00 0. -1.
         -3    1    6    6    0  503  0.70106461663E+02 -0.10020856918E+02 -0.13752478430E+03  0.15468807270E+03  0.00000000000E+00 0.  1.
<mgrwt>
<rscale>  0 0.27773198E+04</rscale>
<asrwt>0</asrwt>
<pdfrwt beam="1">  1        1 0.23329654E+00 0.27773198E+04</pdfrwt>
<pdfrwt beam="2">  1       -2 0.19563960E+00 0.27773198E+04</pdfrwt>
<totfact> 0.68993178E-01</totfact>
</mgrwt>
</event>
<event>
12    4  0.4398275E-008  0.1263580E+04  0.7818608E-02  0.9058955E-01
          1   -1    0    0  501    0  0.00000000000E+00  0.00000000000E+00  0.31332568629E+03  0.31332568629E+03  0.00000000000E+00 0. -1.
         -2   -1    0    0    0  501 -0.00000000000E+00 -0.00000000000E+00 -0.12739423786E+04  0.12739423786E+04  0.00000000000E+00 0.  1.
        -24    2    1    2    0    0 -0.20334517503E+02  0.50122280794E+02  0.13422015719E+03  0.16394341788E+03  0.77049711462E+02 0.  0.
        254    2    1    2    0    0  0.20334517503E+02 -0.50122280794E+02 -0.10948368495E+04  0.14233246470E+04  0.90788743145E+03 0.  0.
         23    2    4    4    0    0  0.20664802326E+02 -0.41885213601E+03 -0.25004542004E+03  0.49680063474E+03  0.91782420410E+02 0.  0.
         23    2    4    4    0    0 -0.33028482382E+00  0.36872985522E+03 -0.84479142948E+03  0.92652401231E+03  0.93874228819E+02 0.  0.
          3    1    3    3  502    0  0.24469933831E+02  0.29861023617E+02  0.89520091930E+02  0.97490026425E+02  0.00000000000E+00 0. -1.
         -4    1    3    3    0  502 -0.44804451334E+02  0.20261257177E+02  0.44700065257E+02  0.66453391454E+02  0.00000000000E+00 0.  1.
         11    1    5    5    0    0  0.34337848519E+02 -0.14705448966E+03 -0.50100786224E+02  0.15910436685E+03  0.00000000000E+00 0.  1.
        -11    1    5    5    0    0 -0.13673046193E+02 -0.27179764635E+03 -0.19994463381E+03  0.33769626789E+03  0.00000000000E+00 0. -1.
          3    1    6    6  503    0 -0.28751293828E+02  0.11289875618E+03 -0.18896978830E+03  0.22199627685E+03  0.00000000000E+00 0. -1.
         -3    1    6    6    0  503  0.28421009005E+02  0.25583109903E+03 -0.65582164118E+03  0.70452773545E+03  0.00000000000E+00 0.  1.
<mgrwt>
<rscale>  0 0.12635804E+04</rscale>
<asrwt>0</asrwt>
<pdfrwt beam="1">  1        1 0.48203951E-01 0.12635804E+04</pdfrwt>
<pdfrwt beam="2">  1       -2 0.19599114E+00 0.12635804E+04</pdfrwt>
<totfact> 0.10061202E+01</totfact>
</mgrwt>
</event>
<event>
12    4  0.4398275E-008  0.1538784E+04  0.7818608E-02  0.8859064E-01
          1   -1    0    0  501    0  0.00000000000E+00  0.00000000000E+00  0.18306417234E+04  0.18306417234E+04  0.00000000000E+00 0. -1.
         -2   -1    0    0    0  501 -0.00000000000E+00 -0.00000000000E+00 -0.32336414366E+03  0.32336414366E+03  0.00000000000E+00 0.  1.
        -24    2    1    2    0    0  0.40516259582E+03 -0.11410614455E+02  0.94130101068E+03  0.10280990014E+04  0.81566125662E+02 0.  0.
        254    2    1    2    0    0 -0.40516259582E+03  0.11410614455E+02  0.56597656909E+03  0.11259068657E+04  0.88490104657E+03 0.  0.
         23    2    4    4    0    0 -0.54198791569E+03 -0.26685378507E+03  0.21133826853E+03  0.64663640635E+03  0.92265567307E+02 0.  0.
         23    2    4    4    0    0  0.13682531987E+03  0.27826439952E+03  0.35463830057E+03  0.47927045932E+03  0.88202067687E+02 0.  0.
          3    1    3    3  502    0  0.38579581884E+03 -0.46222847261E+01  0.92378340763E+03  0.10011171578E+04  0.00000000000E+00 0. -1.
         -4    1    3    3    0  502  0.19366776984E+02 -0.67883297284E+01  0.17517603058E+02  0.26981843676E+02  0.00000000000E+00 0.  1.
         11    1    5    5    0    0 -0.23931518391E+02  0.60669457764E+01  0.19131033927E+01  0.24762579998E+02  0.00000000000E+00 0. -1.
        -11    1    5    5    0    0 -0.51805639730E+03 -0.27292073084E+03  0.20942516514E+03  0.62187382635E+03  0.00000000000E+00 0.  1.
          1    1    6    6  503    0  0.11250130609E+03  0.17384756840E+03  0.28161453234E+03  0.34955152086E+03  0.00000000000E+00 0. -1.
         -1    1    6    6    0  503  0.24324013783E+02  0.10441683112E+03  0.73023768229E+02  0.12971893846E+03  0.00000000000E+00 0.  1.
<mgrwt>
<rscale>  0 0.15387838E+04</rscale>
<asrwt>0</asrwt>
<pdfrwt beam="1">  1        1 0.28163718E+00 0.15387838E+04</pdfrwt>
<pdfrwt beam="2">  1       -2 0.49748331E-01 0.15387838E+04</pdfrwt>
<totfact> 0.12570707E+01</totfact>
</mgrwt>
</event>
<event>
12    4  0.4398275E-008  0.1901035E+04  0.7818608E-02  0.8654342E-01
          1   -1    0    0  501    0  0.00000000000E+00  0.00000000000E+00  0.35915833527E+03  0.35915833527E+03  0.00000000000E+00 0. -1.
         -2   -1    0    0    0  501 -0.00000000000E+00 -0.00000000000E+00 -0.25155568856E+04  0.25155568856E+04  0.00000000000E+00 0.  1.
        -24    2    1    2    0    0  0.29625468712E+03  0.15862651089E+02  0.17520071614E+03  0.35370773570E+03  0.79971294967E+02 0.  0.
        254    2    1    2    0    0 -0.29625468712E+03 -0.15862651089E+02 -0.23315992665E+04  0.25210074852E+04  0.91164967918E+03 0.  0.
         23    2    4    4    0    0 -0.25296752604E+03  0.32754486498E+03 -0.19582128648E+04  0.20035498391E+04  0.91302388894E+02 0.  0.
         23    2    4    4    0    0 -0.43287161079E+02 -0.34340751606E+03 -0.37338640171E+03  0.51745764608E+03  0.92425700421E+02 0.  0.
          1    1    3    3  502    0  0.27120526393E+03 -0.97730739663E+01  0.15668270635E+03  0.31336445016E+03  0.00000000000E+00 0. -1.
         -2    1    3    3    0  502  0.25049423190E+02  0.25635725056E+02  0.18518009791E+02  0.40343285537E+02  0.00000000000E+00 0.  1.
         11    1    5    5    0    0 -0.22887170905E+03  0.24231690271E+03 -0.16198156943E+04  0.16537541002E+04  0.00000000000E+00 0.  1.
        -11    1    5    5    0    0 -0.24095816985E+02  0.85227962264E+02 -0.33839717046E+03  0.34979573886E+03  0.00000000000E+00 0. -1.
          4    1    6    6  503    0 -0.70562022225E+02 -0.28191622150E+03 -0.31216789908E+03  0.42650269887E+03  0.00000000000E+00 0. -1.
         -4    1    6    6    0  503  0.27274861146E+02 -0.61491294562E+02 -0.61218502633E+02  0.90954947211E+02  0.00000000000E+00 0.  1.
<mgrwt>
<rscale>  0 0.19010347E+04</rscale>
<asrwt>0</asrwt>
<pdfrwt beam="1">  1        1 0.55255127E-01 0.19010347E+04</pdfrwt>
<pdfrwt beam="2">  1       -2 0.38700876E+00 0.19010347E+04</pdfrwt>
<totfact> 0.51268891E-01</totfact>
</mgrwt>
</event>
<event>
12    4  0.4398275E-008  0.1506358E+04  0.7818608E-02  0.8880236E-01
         -4   -1    0    0    0  501 -0.00000000000E+00  0.00000000000E+00  0.75300398725E+03  0.75300398725E+03  0.00000000000E+00 0.  1.
          1   -1    0    0  501    0  0.00000000000E+00 -0.00000000000E+00 -0.75335366588E+03  0.75335366588E+03  0.00000000000E+00 0. -1.
        -24    2    1    2    0    0 -0.27610577265E+03 -0.10740046341E+03  0.41460801099E+03  0.51580727899E+03  0.79925521904E+02 0.  0.
        254    2    1    2    0    0  0.27610577265E+03  0.10740046341E+03 -0.41495768962E+03  0.99055037414E+03  0.84925314383E+03 0.  0.
         23    2    4    4    0    0  0.32294162192E+03 -0.25535255624E+03 -0.44440983554E+03  0.61170024664E+03  0.84740018079E+02 0.  0.
         23    2    4    4    0    0 -0.46835849265E+02  0.36275301965E+03  0.29452145926E+02  0.37885012751E+03  0.94215923150E+02 0.  0.
          3    1    3    3  502    0 -0.15624049128E+02 -0.19123063764E+02  0.10156382665E+02  0.26701209481E+02  0.00000000000E+00 0. -1.
         -4    1    3    3    0  502 -0.26048172352E+03 -0.88277399645E+02  0.40445162832E+03  0.48910606951E+03  0.00000000000E+00 0.  1.
         11    1    5    5    0    0  0.41064436627E+02 -0.17012182856E+01 -0.41361141203E+02  0.58308885264E+02  0.00000000000E+00 0. -1.
        -11    1    5    5    0    0  0.28187718529E+03 -0.25365133795E+03 -0.40304869434E+03  0.55339136137E+03  0.00000000000E+00 0.  1.
          2    1    6    6  503    0 -0.64971796239E+02  0.17371002182E+03  0.35558784260E+02  0.18884102607E+03  0.00000000000E+00 0. -1.
         -2    1    6    6    0  503  0.18135946974E+02  0.18904299782E+03 -0.61066383344E+01  0.19000910144E+03  0.00000000000E+00 0.  1.
<mgrwt>
<rscale>  0 0.15063576E+04</rscale>
<asrwt>0</asrwt>
<pdfrwt beam="1">  1        1 0.11590056E+00 0.15063576E+04</pdfrwt>
<pdfrwt beam="2">  1       -4 0.11584677E+00 0.15063576E+04</pdfrwt>
<totfact> 0.65660223E+00</totfact>
</mgrwt>
</event>
<event>
12    4  0.4398275E-008  0.1729014E+04  0.7818608E-02  0.8744988E-01
         -2   -1    0    0    0  501 -0.00000000000E+00  0.00000000000E+00  0.45269717779E+03  0.45269717779E+03  0.00000000000E+00 0.  1.
          1   -1    0    0  501    0  0.00000000000E+00 -0.00000000000E+00 -0.16509315307E+04  0.16509315307E+04  0.00000000000E+00 0. -1.
        -24    2    1    2    0    0 -0.61009802247E+03 -0.12990939309E+02 -0.29623847999E+03  0.68463095894E+03  0.92595633686E+02 0.  0.
        254    2    1    2    0    0  0.61009802247E+03  0.12990939309E+02 -0.90199587290E+03  0.14189977495E+04  0.90970857801E+03 0.  0.
         23    2    4    4    0    0  0.33179416443E+03 -0.27129580631E+03 -0.91104219952E+03  0.10109629177E+04  0.91429478947E+02 0.  0.
         23    2    4    4    0    0  0.27830385804E+03  0.28428674562E+03  0.90463266151E+01  0.40803483181E+03  0.90214171883E+02 0.  0.
          1    1    3    3  502    0 -0.20771358153E+03 -0.14892490993E+02 -0.54685397514E+02  0.21530724776E+03  0.00000000000E+00 0. -1.
         -2    1    3    3    0  502 -0.40238444095E+03  0.19015516832E+01 -0.24155308248E+03  0.46932371117E+03  0.00000000000E+00 0.  1.
         11    1    5    5    0    0  0.88298741043E+02 -0.35381821593E+02 -0.14721988420E+03  0.17527759490E+03  0.00000000000E+00 0.  1.
        -11    1    5    5    0    0  0.24349542339E+03 -0.23591398472E+03 -0.76382231532E+03  0.83568532282E+03  0.00000000000E+00 0. -1.
          1    1    6    6  503    0  0.44819542411E+02  0.10090083481E+03 -0.76576001740E+01  0.11067252905E+03  0.00000000000E+00 0. -1.
         -1    1    6    6    0  503  0.23348431563E+03  0.18338591082E+03  0.16703926789E+02  0.29736230276E+03  0.00000000000E+00 0.  1.
<mgrwt>
<rscale>  0 0.17290136E+04</rscale>
<asrwt>0</asrwt>
<pdfrwt beam="1">  1        1 0.25398947E+00 0.17290136E+04</pdfrwt>
<pdfrwt beam="2">  1       -2 0.69645719E-01 0.17290136E+04</pdfrwt>
<totfact> 0.80635901E+00</totfact>
</mgrwt>
</event>
<event>
12    4  0.4398275E-008  0.2879933E+04  0.7818608E-02  0.8278873E-01
         -2   -1    0    0    0  501 -0.00000000000E+00  0.00000000000E+00  0.20796568126E+04  0.20796568126E+04  0.00000000000E+00 0.  1.
          3   -1    0    0  501    0  0.00000000000E+00 -0.00000000000E+00 -0.99704086713E+03  0.99704086713E+03  0.00000000000E+00 0. -1.
        -24    2    1    2    0    0  0.14705777587E+03 -0.11899779343E+04  0.10209636130E+04  0.15768807346E+04  0.80701167143E+02 0.  0.
        254    2    1    2    0    0 -0.14705777587E+03  0.11899779343E+04  0.61652332473E+02  0.14998169451E+04  0.89887506651E+03 0.  0.
         23    2    4    4    0    0  0.31188515524E+03  0.72358341912E+03 -0.14728081316E+03  0.80689665074E+03  0.92440535351E+02 0.  0.
         23    2    4    4    0    0 -0.45894293111E+03  0.46639451523E+03  0.20893314563E+03  0.69292029440E+03  0.91285361389E+02 0.  0.
          1    1    3    3  502    0  0.11775684054E+03 -0.10456770240E+04  0.86277369782E+03  0.13607665361E+04  0.00000000000E+00 0. -1.
         -2    1    3    3    0  502  0.29300935329E+02 -0.14430091030E+03  0.15818991521E+03  0.21611419851E+03  0.00000000000E+00 0.  1.
         11    1    5    5    0    0  0.21282070328E+03  0.51030752516E+03 -0.60384067039E+02  0.55619480179E+03  0.00000000000E+00 0.  1.
        -11    1    5    5    0    0  0.99064451957E+02  0.21327589396E+03 -0.86896746121E+02  0.25070184896E+03  0.00000000000E+00 0. -1.
          3    1    6    6  503    0 -0.35797611079E+03  0.32888792934E+03  0.18731574404E+03  0.52096195056E+03  0.00000000000E+00 0.  1.
         -3    1    6    6    0  503 -0.10096682032E+03  0.13750658588E+03  0.21617401597E+02  0.17195834384E+03  0.00000000000E+00 0. -1.
<mgrwt>
<rscale>  0 0.28799325E+04</rscale>
<asrwt>0</asrwt>
<pdfrwt beam="1">  1        3 0.15339090E+00 0.28799325E+04</pdfrwt>
<pdfrwt beam="2">  1       -2 0.31994720E+00 0.28799325E+04</pdfrwt>
<totfact> 0.26257211E-02</totfact>
</mgrwt>
</event>
<event>
12    4  0.4398275E-008  0.2045635E+04  0.7818608E-02  0.8585577E-01
         -2   -1    0    0    0  501 -0.00000000000E+00  0.00000000000E+00  0.43545709698E+03  0.43545709698E+03  0.00000000000E+00 0.  1.
          1   -1    0    0  501    0  0.00000000000E+00 -0.00000000000E+00 -0.24024321356E+04  0.24024321356E+04  0.00000000000E+00 0. -1.
        -24    2    1    2    0    0 -0.69049220815E+03 -0.12987233228E+01 -0.14157038311E+04  0.15772771850E+04  0.82491239755E+02 0.  0.
        254    2    1    2    0    0  0.69049220815E+03  0.12987233228E+01 -0.55127120751E+03  0.12606120476E+04  0.89914493498E+03 0.  0.
         23    2    4    4    0    0  0.81407943230E+03  0.64892543071E+02 -0.66853413789E+03  0.10593338211E+04  0.91180517293E+02 0.  0.
         23    2    4    4    0    0 -0.12358722415E+03 -0.63593819748E+02  0.11726293038E+03  0.20127822651E+03  0.86280668412E+02 0.  0.
          3    1    3    3  502    0 -0.63958244330E+03  0.12468323703E+02 -0.13417659730E+04  0.14864578996E+04  0.00000000000E+00 0. -1.
         -4    1    3    3    0  502 -0.50909764850E+02 -0.13767047026E+02 -0.73937858076E+02  0.90819285384E+02  0.00000000000E+00 0.  1.
         11    1    5    5    0    0  0.18779106373E+03  0.53276542859E+02 -0.15063469613E+03  0.24656578294E+03  0.00000000000E+00 0. -1.
        -11    1    5    5    0    0  0.62628836857E+03  0.11616000212E+02 -0.51789944176E+03  0.81276803815E+03  0.00000000000E+00 0.  1.
          1    1    6    6  503    0 -0.55450954739E+02 -0.70436908827E+02  0.91549507247E+02  0.12813070976E+03  0.00000000000E+00 0. -1.
         -1    1    6    6    0  503 -0.68136269407E+02  0.68430890788E+01  0.25713423136E+02  0.73147516747E+02  0.00000000000E+00 0.  1.
<mgrwt>
<rscale>  0 0.20456355E+04</rscale>
<asrwt>0</asrwt>
<pdfrwt beam="1">  1        1 0.36960494E+00 0.20456355E+04</pdfrwt>
<pdfrwt beam="2">  1       -2 0.66993400E-01 0.20456355E+04</pdfrwt>
<totfact> 0.26280907E+00</totfact>
</mgrwt>
</event>
<event>
12    4  0.4398275E-008  0.2374384E+04  0.7818608E-02  0.8449157E-01
         -2   -1    0    0    0  501 -0.00000000000E+00  0.00000000000E+00  0.53149461880E+03  0.53149461880E+03  0.00000000000E+00 0.  1.
          1   -1    0    0  501    0  0.00000000000E+00 -0.00000000000E+00 -0.26518137320E+04  0.26518137320E+04  0.00000000000E+00 0. -1.
        -24    2    1    2    0    0 -0.89392723070E+03 -0.45922191064E+03 -0.77243151333E+03  0.12700141597E+04  0.79340192753E+02 0.  0.
        254    2    1    2    0    0  0.89392723070E+03  0.45922191064E+03 -0.13478875998E+04  0.19132941910E+04  0.91318290750E+03 0.  0.
         23    2    4    4    0    0 -0.64423662713E+01 -0.10501042683E+03 -0.58787084507E+03  0.60371104972E+03  0.88352743247E+02 0.  0.
         23    2    4    4    0    0  0.90036959697E+03  0.56423233747E+03 -0.76001675478E+03  0.13095831413E+04  0.91427537616E+02 0.  0.
          1    1    3    3  502    0 -0.79757188585E+02 -0.50639685270E+02 -0.10147046912E+03  0.13864286119E+03  0.00000000000E+00 0. -1.
         -2    1    3    3    0  502 -0.81417004211E+03 -0.40858222537E+03 -0.67096104421E+03  0.11313712986E+04  0.00000000000E+00 0.  1.
         11    1    5    5    0    0 -0.23331612875E+02 -0.51459309312E+02 -0.12176788844E+03  0.13423801000E+03  0.00000000000E+00 0. -1.
        -11    1    5    5    0    0  0.16889246603E+02 -0.53551117519E+02 -0.46610295663E+03  0.46947303972E+03  0.00000000000E+00 0.  1.
          4    1    6    6  503    0  0.72689101827E+03  0.43310306947E+03 -0.64227010521E+03  0.10622898424E+04  0.00000000000E+00 0.  1.
         -4    1    6    6    0  503  0.17347857870E+03  0.13112926800E+03 -0.11774664957E+03  0.24729329889E+03  0.00000000000E+00 0. -1.
<mgrwt>
<rscale>  0 0.23743839E+04</rscale>
<asrwt>0</asrwt>
<pdfrwt beam="1">  1        1 0.40797135E+00 0.23743839E+04</pdfrwt>
<pdfrwt beam="2">  1       -2 0.81768401E-01 0.23743839E+04</pdfrwt>
<totfact> 0.11022371E+00</totfact>
</mgrwt>
</event>
<event>
12    4  0.4398275E-008  0.1143101E+04  0.7818608E-02  0.9164171E-01
          1   -1    0    0  501    0  0.00000000000E+00  0.00000000000E+00  0.21268427901E+04  0.21268427901E+04  0.00000000000E+00 0. -1.
         -2   -1    0    0    0  501 -0.00000000000E+00 -0.00000000000E+00 -0.15359397353E+03  0.15359397353E+03  0.00000000000E+00 0.  1.
        -24    2    1    2    0    0 -0.19665800644E+03  0.33754932182E+02  0.53983902075E+03  0.58142412494E+03  0.82547427566E+02 0.  0.
        254    2    1    2    0    0  0.19665800644E+03 -0.33754932182E+02  0.14334097958E+04  0.16990126387E+04  0.89003737937E+03 0.  0.
         23    2    4    4    0    0 -0.19372377336E+02  0.31338340515E+03  0.17134203708E+03  0.36932971923E+03  0.91988587380E+02 0.  0.
         23    2    4    4    0    0  0.21603038378E+03 -0.34713833733E+03  0.12620677587E+04  0.13296829194E+04  0.89819188687E+02 0.  0.
          1    1    3    3  502    0 -0.48285548358E+02  0.25183464895E+02  0.24814946753E+03  0.25405483526E+03  0.00000000000E+00 0. -1.
         -2    1    3    3    0  502 -0.14837245808E+03  0.85714672864E+01  0.29168955322E+03  0.32736928969E+03  0.00000000000E+00 0.  1.
         11    1    5    5    0    0  0.62127570576E+00  0.29468738726E+03  0.17333174250E+03  0.34188438858E+03  0.00000000000E+00 0. -1.
        -11    1    5    5    0    0 -0.19993653042E+02  0.18696017884E+02 -0.19897054227E+01  0.27445330648E+02  0.00000000000E+00 0.  1.
          3    1    6    6  503    0  0.80127739457E+02 -0.21331581202E+03  0.68054477979E+03  0.71768049130E+03  0.00000000000E+00 0. -1.
         -3    1    6    6    0  503  0.13590264432E+03 -0.13382252531E+03  0.58152297894E+03  0.61200242814E+03  0.00000000000E+00 0.  1.
<mgrwt>
<rscale>  0 0.11431015E+04</rscale>
<asrwt>0</asrwt>
<pdfrwt beam="1">  1        1 0.32720656E+00 0.11431015E+04</pdfrwt>
<pdfrwt beam="2">  1       -2 0.23629844E-01 0.11431015E+04</pdfrwt>
<totfact> 0.33978201E+01</totfact>
</mgrwt>
</event>
<event>
12    4  0.4398275E-008  0.1230508E+04  0.7818608E-02  0.9086564E-01
         -2   -1    0    0    0  501 -0.00000000000E+00  0.00000000000E+00  0.18741950034E+03  0.18741950034E+03  0.00000000000E+00 0.  1.
          1   -1    0    0  501    0  0.00000000000E+00 -0.00000000000E+00 -0.20197329610E+04  0.20197329610E+04  0.00000000000E+00 0. -1.
        -24    2    1    2    0    0  0.14335335742E+03  0.21529715492E+03 -0.64927677661E+03  0.70358491859E+03  0.81045388646E+02 0.  0.
        254    2    1    2    0    0 -0.14335335742E+03 -0.21529715492E+03 -0.11830366841E+04  0.15035675428E+04  0.89119947814E+03 0.  0.
         23    2    4    4    0    0 -0.42534988378E+03 -0.78461004165E+02 -0.10716746500E+04  0.11592078264E+04  0.90540469796E+02 0.  0.
         23    2    4    4    0    0  0.28199652636E+03 -0.13683615076E+03 -0.11136203414E+03  0.34435971637E+03  0.89083885072E+02 0.  0.
          3    1    3    3  502    0  0.14876125362E+03  0.18647562763E+03 -0.53806636649E+03  0.58857326224E+03  0.00000000000E+00 0. -1.
         -4    1    3    3    0  502 -0.54078961992E+01  0.28821527295E+02 -0.11121041012E+03  0.11501165635E+03  0.00000000000E+00 0.  1.
         11    1    5    5    0    0 -0.38266737293E+02 -0.28185599986E+02 -0.17329923171E+03  0.17969806604E+03  0.00000000000E+00 0. -1.
        -11    1    5    5    0    0 -0.38708314649E+03 -0.50275404179E+02 -0.89837541825E+03  0.97950976038E+03  0.00000000000E+00 0.  1.
          1    1    6    6  503    0  0.86063040854E+02 -0.12303129122E+02 -0.62608315402E+02  0.10713549899E+03  0.00000000000E+00 0. -1.
         -1    1    6    6    0  503  0.19593348551E+03 -0.12453302164E+03 -0.48753718736E+02  0.23722421738E+03  0.00000000000E+00 0.  1.
<mgrwt>
<rscale>  0 0.12305078E+04</rscale>
<asrwt>0</asrwt>
<pdfrwt beam="1">  1        1 0.31072815E+00 0.12305078E+04</pdfrwt>
<pdfrwt beam="2">  1       -2 0.28833769E-01 0.12305078E+04</pdfrwt>
<totfact> 0.27705714E+01</totfact>
</mgrwt>
</event>
<event>
12    4  0.4398275E-008  0.1290112E+04  0.7818608E-02  0.9037443E-01
         -2   -1    0    0    0  501 -0.00000000000E+00  0.00000000000E+00  0.24238196898E+04  0.24238196898E+04  0.00000000000E+00 0.  1.
          1   -1    0    0  501    0  0.00000000000E+00 -0.00000000000E+00 -0.17167006413E+03  0.17167006413E+03  0.00000000000E+00 0. -1.
        -24    2    1    2    0    0  0.23772113150E+03  0.22973206183E+03  0.58984586978E+03  0.68138415471E+03  0.84131204678E+02 0.  0.
        254    2    1    2    0    0 -0.23772113150E+03 -0.22973206183E+03  0.16623037559E+04  0.19141055992E+04  0.88952701563E+03 0.  0.
         23    2    4    4    0    0 -0.16266598097E+03 -0.55034126348E+03  0.81575951648E+03  0.10015654241E+04  0.91290647845E+02 0.  0.
         23    2    4    4    0    0 -0.75055150537E+02  0.32060920164E+03  0.84654423941E+03  0.91254017512E+03  0.87572176668E+02 0.  0.
          1    1    3    3  502    0  0.61059267860E+02  0.15106763845E+02  0.99113143449E+02  0.11738766422E+03  0.00000000000E+00 0. -1.
         -2    1    3    3    0  502  0.17666186364E+03  0.21462529799E+03  0.49073272633E+03  0.56399649049E+03  0.00000000000E+00 0.  1.
         11    1    5    5    0    0 -0.73097879658E+02 -0.39480865447E+03  0.57210208332E+03  0.69894060362E+03  0.00000000000E+00 0.  1.
        -11    1    5    5    0    0 -0.89568101309E+02 -0.15553260900E+03  0.24365743316E+03  0.30262482048E+03  0.00000000000E+00 0. -1.
          3    1    6    6  503    0 -0.23225316469E+02  0.24217150711E+02  0.43229183239E+02  0.54723377063E+02  0.00000000000E+00 0. -1.
         -3    1    6    6    0  503 -0.51829834068E+02  0.29639205093E+03  0.80331505617E+03  0.85781679806E+03  0.00000000000E+00 0.  1.
<mgrwt>
<rscale>  0 0.12901121E+04</rscale>
<asrwt>0</asrwt>
<pdfrwt beam="1">  1        1 0.26410781E-01 0.12901121E+04</pdfrwt>
<pdfrwt beam="2">  1       -2 0.37289531E+00 0.12901121E+04</pdfrwt>
<totfact> 0.17558868E+00</totfact>
</mgrwt>
</event>
<event>
12    4  0.4398275E-008  0.1317373E+04  0.7818608E-02  0.9015900E-01
          1   -1    0    0  501    0  0.00000000000E+00  0.00000000000E+00  0.61712247849E+03  0.61712247849E+03  0.00000000000E+00 0. -1.
         -2   -1    0    0    0  501 -0.00000000000E+00 -0.00000000000E+00 -0.70305025645E+03  0.70305025645E+03  0.00000000000E+00 0.  1.
        -24    2    1    2    0    0  0.14609428809E+03 -0.11665114214E+03 -0.31806451985E+03  0.37690340700E+03  0.77072105518E+02 0.  0.
        254    2    1    2    0    0 -0.14609428809E+03  0.11665114214E+03  0.23213674189E+03  0.94326932794E+03  0.89494051652E+03 0.  0.
         23    2    4    4    0    0  0.61652279553E+02  0.41256678361E+03  0.34930266125E+03  0.55228214812E+03  0.94820184920E+02 0.  0.
         23    2    4    4    0    0 -0.20774656765E+03 -0.29591564147E+03 -0.11716591936E+03  0.39098717981E+03  0.91751942145E+02 0.  0.
          1    1    3    3  502    0  0.13606501527E+02  0.39824427425E+01 -0.30596871646E+01  0.14503738124E+02  0.00000000000E+00 0. -1.
         -2    1    3    3    0  502  0.13248778657E+03 -0.12063358489E+03 -0.31500483268E+03  0.36239966888E+03  0.00000000000E+00 0.  1.
         11    1    5    5    0    0  0.16732250452E+02  0.90745188547E+02  0.30809936853E+02  0.97282627732E+02  0.00000000000E+00 0. -1.
        -11    1    5    5    0    0  0.44920029100E+02  0.32182159506E+03  0.31849272440E+03  0.45499952039E+03  0.00000000000E+00 0.  1.
          2    1    6    6  503    0  0.47959293210E+01  0.33792048463E+01 -0.27854623886E+01  0.64945180086E+01  0.00000000000E+00 0. -1.
         -2    1    6    6    0  503 -0.21254249697E+03 -0.29929484631E+03 -0.11438045697E+03  0.38449266181E+03  0.00000000000E+00 0.  1.
<mgrwt>
<rscale>  0 0.13173733E+04</rscale>
<asrwt>0</asrwt>
<pdfrwt beam="1">  1        1 0.94941920E-01 0.13173733E+04</pdfrwt>
<pdfrwt beam="2">  1       -2 0.10816158E+00 0.13173733E+04</pdfrwt>
<totfact> 0.19321356E+01</totfact>
</mgrwt>
</event>
<event>
12    4  0.4398275E-008  0.1420575E+04  0.7818608E-02  0.8939058E-01
         -2   -1    0    0    0  501 -0.00000000000E+00  0.00000000000E+00  0.25924648205E+03  0.25924648205E+03  0.00000000000E+00 0.  1.
          1   -1    0    0  501    0  0.00000000000E+00 -0.00000000000E+00 -0.19460567243E+04  0.19460567243E+04  0.00000000000E+00 0. -1.
        -24    2    1    2    0    0  0.24160133368E+03 -0.32992128011E+03 -0.58564367636E+03  0.71817392703E+03  0.74672741368E+02 0.  0.
        254    2    1    2    0    0 -0.24160133368E+03  0.32992128011E+03 -0.11011665659E+04  0.14871292794E+04  0.91201229822E+03 0.  0.
         23    2    4    4    0    0  0.31851784837E+03  0.13930093548E+03 -0.21906498995E+03  0.42122643864E+03  0.92649190126E+02 0.  0.
         23    2    4    4    0    0 -0.56011918206E+03  0.19062034463E+03 -0.88210157597E+03  0.10659028407E+04  0.89308799210E+02 0.  0.
          1    1    3    3  502    0  0.22273113728E+03 -0.30412188446E+03 -0.56787839947E+03  0.68160483912E+03  0.00000000000E+00 0. -1.
         -2    1    3    3    0  502  0.18870196401E+02 -0.25799395649E+02 -0.17765276890E+02  0.36569087917E+02  0.00000000000E+00 0.  1.
         11    1    5    5    0    0  0.17147802865E+03  0.57026512155E+02 -0.62480936402E+02  0.19120827601E+03  0.00000000000E+00 0.  1.
        -11    1    5    5    0    0  0.14703981972E+03  0.82274423329E+02 -0.15658405355E+03  0.23001816264E+03  0.00000000000E+00 0. -1.
          3    1    6    6  503    0 -0.30560354929E+03  0.83757517217E+02 -0.39923556030E+03  0.50970372143E+03  0.00000000000E+00 0. -1.
         -3    1    6    6    0  503 -0.25451563277E+03  0.10686282741E+03 -0.48286601567E+03  0.55619911928E+03  0.00000000000E+00 0.  1.
<mgrwt>
<rscale>  0 0.14205750E+04</rscale>
<asrwt>0</asrwt>
<pdfrwt beam="1">  1        1 0.29939333E+00 0.14205750E+04</pdfrwt>
<pdfrwt beam="2">  1       -2 0.39884075E-01 0.14205750E+04</pdfrwt>
<totfact> 0.16491123E+01</totfact>
</mgrwt>
</event>
<event>
12    4  0.4398275E-008  0.2118085E+04  0.7818608E-02  0.8553318E-01
          1   -1    0    0  501    0  0.00000000000E+00  0.00000000000E+00  0.22323881892E+04  0.22323881892E+04  0.00000000000E+00 0. -1.
         -2   -1    0    0    0  501 -0.00000000000E+00 -0.00000000000E+00 -0.50240870502E+03  0.50240870502E+03  0.00000000000E+00 0.  1.
        -24    2    1    2    0    0  0.30773227809E+03  0.10861845989E+03  0.17497631731E+04  0.17817466391E+04  0.80329317134E+02 0.  0.
        254    2    1    2    0    0 -0.30773227809E+03 -0.10861845989E+03 -0.19783688952E+02  0.95305025508E+03  0.89521855966E+03 0.  0.
         23    2    4    4    0    0  0.24079510227E+03 -0.16483519500E+03  0.18595953795E+03  0.35764862848E+03  0.90435993452E+02 0.  0.
         23    2    4    4    0    0 -0.54852738036E+03  0.56216735112E+02 -0.20574322690E+03  0.59540162660E+03  0.90167695041E+02 0.  0.
          1    1    3    3  502    0  0.11482436266E+03  0.79603480836E+02  0.80804850202E+03  0.82003885886E+03  0.00000000000E+00 0. -1.
         -2    1    3    3    0  502  0.19290791543E+03  0.29014979056E+02  0.94171467110E+03  0.96170778026E+03  0.00000000000E+00 0.  1.
         11    1    5    5    0    0  0.69676048774E+02 -0.89333989209E+02  0.39113708278E+02  0.11985489383E+03  0.00000000000E+00 0. -1.
        -11    1    5    5    0    0  0.17111905350E+03 -0.75501205794E+02  0.14684582967E+03  0.23779373465E+03  0.00000000000E+00 0.  1.
          4    1    6    6  503    0 -0.21988722179E+03  0.66515127066E+02 -0.92385675695E+02  0.24760808853E+03  0.00000000000E+00 0. -1.
         -4    1    6    6    0  503 -0.32864015858E+03 -0.10298391955E+02 -0.11335755121E+03  0.34779353807E+03  0.00000000000E+00 0.  1.
<mgrwt>
<rscale>  0 0.21180852E+04</rscale>
<asrwt>0</asrwt>
<pdfrwt beam="1">  1        1 0.34344433E+00 0.21180852E+04</pdfrwt>
<pdfrwt beam="2">  1       -2 0.77293648E-01 0.21180852E+04</pdfrwt>
<totfact> 0.24938339E+00</totfact>
</mgrwt>
</event>
<event>
12    4  0.4398275E-008  0.1240401E+04  0.7818608E-02  0.9078210E-01
         -2   -1    0    0    0  501 -0.00000000000E+00  0.00000000000E+00  0.17372087721E+03  0.17372087721E+03  0.00000000000E+00 0.  1.
          1   -1    0    0  501    0  0.00000000000E+00 -0.00000000000E+00 -0.22141769801E+04  0.22141769801E+04  0.00000000000E+00 0. -1.
        -24    2    1    2    0    0 -0.19157975456E+03 -0.64286962711E+02 -0.92533027132E+03  0.95046429206E+03  0.79439558876E+02 0.  0.
        254    2    1    2    0    0  0.19157975456E+03  0.64286962711E+02 -0.11151258316E+04  0.14374335653E+04  0.88423640414E+03 0.  0.
         23    2    4    4    0    0  0.32033027895E+03 -0.23174599977E+03 -0.17990699882E+03  0.44375888486E+03  0.90761906359E+02 0.  0.
         23    2    4    4    0    0 -0.12875052439E+03  0.29603296248E+03 -0.93521883278E+03  0.99367468045E+03  0.92427771580E+02 0.  0.
          1    1    3    3  502    0 -0.17251328586E+03 -0.80692075790E+02 -0.84888964649E+03  0.86999176825E+03  0.00000000000E+00 0. -1.
         -2    1    3    3    0  502 -0.19066468701E+02  0.16405113079E+02 -0.76440624831E+02  0.80472523811E+02  0.00000000000E+00 0.  1.
         11    1    5    5    0    0  0.13446976308E+03 -0.69959107077E+02 -0.27590088512E+02  0.15407013607E+03  0.00000000000E+00 0.  1.
        -11    1    5    5    0    0  0.18586051587E+03 -0.16178689269E+03 -0.15231691031E+03  0.28968874879E+03  0.00000000000E+00 0. -1.
          4    1    6    6  503    0 -0.12059771656E+03  0.29596934038E+03 -0.85052382143E+03  0.90858815231E+03  0.00000000000E+00 0. -1.
         -4    1    6    6    0  503 -0.81528078247E+01  0.63622101735E-01 -0.84695011350E+02  0.85086528139E+02  0.00000000000E+00 0.  1.
<mgrwt>
<rscale>  0 0.12404012E+04</rscale>
<asrwt>0</asrwt>
<pdfrwt beam="1">  1        1 0.34064257E+00 0.12404012E+04</pdfrwt>
<pdfrwt beam="2">  1       -2 0.26726292E-01 0.12404012E+04</pdfrwt>
<totfact> 0.23514166E+01</totfact>
</mgrwt>
</event>
<event>
12    4  0.4398275E-008  0.3449898E+04  0.7818608E-02  0.8125767E-01
         -2   -1    0    0    0  501 -0.00000000000E+00  0.00000000000E+00  0.14494573099E+04  0.14494573099E+04  0.00000000000E+00 0.  1.
          1   -1    0    0  501    0  0.00000000000E+00 -0.00000000000E+00 -0.20528016606E+04  0.20528016606E+04  0.00000000000E+00 0. -1.
        -24    2    1    2    0    0  0.80867737581E+02 -0.94870252671E+03  0.10375762447E+04  0.14105023660E+04  0.79852273251E+02 0.  0.
        254    2    1    2    0    0 -0.80867737581E+02  0.94870252671E+03 -0.16409205954E+04  0.20917566045E+04  0.88105006495E+03 0.  0.
         23    2    4    4    0    0 -0.45488064498E+03  0.39321885367E+03 -0.93211652410E+03  0.11130765420E+04  0.92524081807E+02 0.  0.
         23    2    4    4    0    0  0.37401290740E+03  0.55548367304E+03 -0.70880407131E+03  0.97868006256E+03  0.83448711323E+02 0.  0.
          1    1    3    3  502    0  0.14016658212E+02 -0.87569143192E+02  0.13240553177E+03  0.15936137045E+03  0.00000000000E+00 0. -1.
         -2    1    3    3    0  502  0.66851079369E+02 -0.86113338352E+03  0.90517071298E+03  0.12511409955E+04  0.00000000000E+00 0.  1.
         11    1    5    5    0    0 -0.19855714899E+03  0.23149303615E+03 -0.45015995855E+03  0.54374438432E+03  0.00000000000E+00 0. -1.
        -11    1    5    5    0    0 -0.25632349599E+03  0.16172581752E+03 -0.48195656554E+03  0.56933215764E+03  0.00000000000E+00 0.  1.
          2    1    6    6  503    0  0.33064606262E+03  0.52596523525E+03 -0.66778656579E+03  0.91208834269E+03  0.00000000000E+00 0. -1.
         -2    1    6    6    0  503  0.43366844781E+02  0.29518437790E+02 -0.41017505520E+02  0.66591719867E+02  0.00000000000E+00 0.  1.
<mgrwt>
<rscale>  0 0.34498976E+04</rscale>
<asrwt>0</asrwt>
<pdfrwt beam="1">  1        1 0.31581564E+00 0.34498976E+04</pdfrwt>
<pdfrwt beam="2">  1       -2 0.22299343E+00 0.34498976E+04</pdfrwt>
<totfact> 0.18703262E-01</totfact>
</mgrwt>
</event>
<event>
12    4  0.4398275E-008  0.2071347E+04  0.7818608E-02  0.8573972E-01
          1   -1    0    0  501    0  0.00000000000E+00  0.00000000000E+00  0.11400711579E+04  0.11400711579E+04  0.00000000000E+00 0. -1.
         -2   -1    0    0    0  501 -0.00000000000E+00 -0.00000000000E+00 -0.94083521179E+03  0.94083521179E+03  0.00000000000E+00 0.  1.
        -24    2    1    2    0    0  0.31529928036E+03 -0.47662496600E+03 -0.53526073831E+03  0.78717481857E+03  0.80963835173E+02 0.  0.
        254    2    1    2    0    0 -0.31529928036E+03  0.47662496600E+03  0.73449668445E+03  0.12937315512E+04  0.89870515330E+03 0.  0.
         23    2    4    4    0    0  0.21885189435E+03  0.37040053363E+02  0.50600905409E+03  0.56009402767E+03  0.91608077153E+02 0.  0.
         23    2    4    4    0    0 -0.53415117471E+03  0.43958491263E+03  0.22848763036E+03  0.73363752348E+03  0.86400496362E+02 0.  0.
          3    1    3    3  502    0  0.78669817205E+02 -0.72390810202E+02 -0.12526539338E+03  0.16468390425E+03  0.00000000000E+00 0. -1.
         -4    1    3    3    0  502  0.23662946315E+03 -0.40423415579E+03 -0.40999534493E+03  0.62249091432E+03  0.00000000000E+00 0.  1.
         11    1    5    5    0    0  0.22058578228E+03  0.50711572216E+02  0.47774537176E+03  0.52864959201E+03  0.00000000000E+00 0.  1.
        -11    1    5    5    0    0 -0.17338879236E+01 -0.13671518853E+02  0.28263682328E+02  0.31444435658E+02  0.00000000000E+00 0. -1.
          2    1    6    6  503    0 -0.40014336627E+03  0.37260067026E+03  0.16700961388E+03  0.57169763353E+03  0.00000000000E+00 0.  1.
         -2    1    6    6    0  503 -0.13400780844E+03  0.66984242374E+02  0.61478016476E+02  0.16193988995E+03  0.00000000000E+00 0. -1.
<mgrwt>
<rscale>  0 0.20713465E+04</rscale>
<asrwt>0</asrwt>
<pdfrwt beam="1">  1        1 0.17539556E+00 0.20713465E+04</pdfrwt>
<pdfrwt beam="2">  1       -2 0.14474388E+00 0.20713465E+04</pdfrwt>
<totfact> 0.31495821E+00</totfact>
</mgrwt>
</event>
<event>
12    4  0.4398275E-008  0.2769672E+04  0.7818608E-02  0.8312746E-01
         -2   -1    0    0    0  501 -0.00000000000E+00  0.00000000000E+00  0.23464563857E+04  0.23464563857E+04  0.00000000000E+00 0.  1.
          1   -1    0    0  501    0  0.00000000000E+00 -0.00000000000E+00 -0.81730485456E+03  0.81730485456E+03  0.00000000000E+00 0. -1.
        -24    2    1    2    0    0  0.82547319893E+03  0.81675792509E+03  0.11636627575E+04  0.16460837980E+04  0.83554452408E+02 0.  0.
        254    2    1    2    0    0 -0.82547319893E+03 -0.81675792509E+03  0.36548877362E+03  0.15176774422E+04  0.90623576661E+03 0.  0.
         23    2    4    4    0    0 -0.82547706544E+03 -0.30797706159E+03  0.45013815511E+03  0.99364440522E+03  0.91883563858E+02 0.  0.
         23    2    4    4    0    0  0.38665114002E-02 -0.50878086349E+03 -0.84649381490E+02  0.52403303701E+03  0.92666817254E+02 0.  0.
          3    1    3    3  502    0  0.20577943648E+03  0.25321720785E+03  0.34445169397E+03  0.47445874458E+03  0.00000000000E+00 0. -1.
         -4    1    3    3    0  502  0.61969376246E+03  0.56354071724E+03  0.81921106357E+03  0.11716250535E+04  0.00000000000E+00 0.  1.
         11    1    5    5    0    0 -0.52351583795E+03 -0.14809388666E+03  0.26924470456E+03  0.60703652509E+03  0.00000000000E+00 0.  1.
        -11    1    5    5    0    0 -0.30196122749E+03 -0.15988317493E+03  0.18089345055E+03  0.38660788014E+03  0.00000000000E+00 0. -1.
          3    1    6    6  503    0  0.21762383789E+02 -0.88061276357E+02 -0.43929414738E+02  0.10078781286E+03  0.00000000000E+00 0. -1.
         -3    1    6    6    0  503 -0.21758517277E+02 -0.42071958714E+03 -0.40719966751E+02  0.42324522415E+03  0.00000000000E+00 0.  1.
<mgrwt>
<rscale>  0 0.27696716E+04</rscale>
<asrwt>0</asrwt>
<pdfrwt beam="1">  1        1 0.12573921E+00 0.27696716E+04</pdfrwt>
<pdfrwt beam="2">  1       -2 0.36099329E+00 0.27696716E+04</pdfrwt>
<totfact> 0.21547013E-01</totfact>
</mgrwt>
</event>
<event>
12    4  0.4398275E-008  0.2004054E+04  0.7818608E-02  0.8604728E-01
          1   -1    0    0  501    0  0.00000000000E+00  0.00000000000E+00  0.12324469142E+04  0.12324469142E+04  0.00000000000E+00 0. -1.
         -2   -1    0    0    0  501 -0.00000000000E+00 -0.00000000000E+00 -0.81468665752E+03  0.81468665752E+03  0.00000000000E+00 0.  1.
        -24    2    1    2    0    0  0.98548282984E+02 -0.77734975269E+03 -0.32593951430E+02  0.78826173068E+03  0.79434175952E+02 0.  0.
        254    2    1    2    0    0 -0.98548282984E+02  0.77734975269E+03  0.45035420810E+03  0.12588718410E+04  0.87633041558E+03 0.  0.
         23    2    4    4    0    0 -0.25232297527E+03  0.14446930108E+03  0.51459263770E+03  0.59802228376E+03  0.91031897105E+02 0.  0.
         23    2    4    4    0    0  0.15377469228E+03  0.63288045160E+03 -0.64238429604E+02  0.66084955726E+03  0.91712809805E+02 0.  0.
          3    1    3    3  502    0 -0.49706696693E+01 -0.10150658366E+03 -0.24269271716E+02  0.10448584418E+03  0.00000000000E+00 0. -1.
         -4    1    3    3    0  502  0.10351895265E+03 -0.67584316902E+03 -0.83246797140E+01  0.68377588651E+03  0.00000000000E+00 0.  1.
         11    1    5    5    0    0 -0.35744383574E+02  0.64291451900E+02  0.13298559003E+03  0.15197440212E+03  0.00000000000E+00 0. -1.
        -11    1    5    5    0    0 -0.21657859169E+03  0.80177849182E+02  0.38160704768E+03  0.44604788164E+03  0.00000000000E+00 0.  1.
          3    1    6    6  503    0  0.96211327585E+02  0.30927634266E+03  0.93411256807E+01  0.32403044967E+03  0.00000000000E+00 0. -1.
         -3    1    6    6    0  503  0.57563364699E+02  0.32360410894E+03 -0.73579555284E+02  0.33681910759E+03  0.00000000000E+00 0.  1.
<mgrwt>
<rscale>  0 0.20040539E+04</rscale>
<asrwt>0</asrwt>
<pdfrwt beam="1">  1        1 0.18960722E+00 0.20040539E+04</pdfrwt>
<pdfrwt beam="2">  1       -2 0.12533641E+00 0.20040539E+04</pdfrwt>
<totfact> 0.39205636E+00</totfact>
</mgrwt>
</event>
<event>
12    4  0.4398275E-008  0.2662243E+04  0.7818608E-02  0.8347361E-01
          1   -1    0    0  501    0  0.00000000000E+00  0.00000000000E+00  0.27624288886E+04  0.27624288886E+04  0.00000000000E+00 0. -1.
         -2   -1    0    0    0  501 -0.00000000000E+00 -0.00000000000E+00 -0.64142247259E+03  0.64142247259E+03  0.00000000000E+00 0.  1.
        -24    2    1    2    0    0  0.10342385213E+04 -0.21489880851E+03  0.15984643506E+04  0.19176235618E+04  0.79756051124E+02 0.  0.
        254    2    1    2    0    0 -0.10342385213E+04  0.21489880851E+03  0.52254206547E+03  0.14862277995E+04  0.90553412136E+03 0.  0.
         23    2    4    4    0    0 -0.10997142998E+04  0.13766692572E+01  0.56229671030E+03  0.12386493046E+04  0.93279541020E+02 0.  0.
         23    2    4    4    0    0  0.65475778557E+02  0.21352213925E+03 -0.39754644838E+02  0.24757849492E+03  0.99176095053E+02 0.  0.
          3    1    3    3  502    0  0.90026263577E+03 -0.20667825940E+03  0.14272037614E+04  0.17000292035E+04  0.00000000000E+00 0. -1.
         -4    1    3    3    0  502  0.13397588551E+03 -0.82205491065E+01  0.17126058923E+03  0.21759435827E+03  0.00000000000E+00 0.  1.
         11    1    5    5    0    0 -0.68693244150E+03  0.16396733559E+02  0.30313538346E+03  0.75102336366E+03  0.00000000000E+00 0. -1.
        -11    1    5    5    0    0 -0.41278185834E+03 -0.15020064302E+02  0.25916132684E+03  0.48762594090E+03  0.00000000000E+00 0.  1.
          4    1    6    6  503    0  0.49021590452E+02  0.18195568135E+03 -0.69841274026E+02  0.20096962423E+03  0.00000000000E+00 0.  1.
         -4    1    6    6    0  503  0.16454188106E+02  0.31566457905E+02  0.30086629187E+02  0.46608870688E+02  0.00000000000E+00 0. -1.
<mgrwt>
<rscale>  0 0.26622426E+04</rscale>
<asrwt>0</asrwt>
<pdfrwt beam="1">  1        1 0.42498905E+00 0.26622426E+04</pdfrwt>
<pdfrwt beam="2">  1       -2 0.98680382E-01 0.26622426E+04</pdfrwt>
<totfact> 0.58184955E-01</totfact>
</mgrwt>
</event>
<event>
12    4  0.4398275E-008  0.1642137E+04  0.7818608E-02  0.8795072E-01
         -2   -1    0    0    0  501 -0.00000000000E+00  0.00000000000E+00  0.66679029929E+03  0.66679029929E+03  0.00000000000E+00 0.  1.
          1   -1    0    0  501    0  0.00000000000E+00 -0.00000000000E+00 -0.10110429372E+04  0.10110429372E+04  0.00000000000E+00 0. -1.
        -24    2    1    2    0    0 -0.37080344316E+03 -0.10841595215E+03  0.31023044593E+03  0.50165640247E+03  0.78530277092E+02 0.  0.
        254    2    1    2    0    0  0.37080344316E+03  0.10841595215E+03 -0.65448308380E+03  0.11761768340E+04  0.89766064060E+03 0.  0.
         23    2    4    4    0    0  0.90057360966E+02  0.48268531715E+03 -0.30817348012E+03  0.58698950018E+03  0.92143018227E+02 0.  0.
         23    2    4    4    0    0  0.28074608219E+03 -0.37426936501E+03 -0.34630960367E+03  0.58918733381E+03  0.91189102819E+02 0.  0.
          1    1    3    3  502    0 -0.20228881692E+03 -0.80415654735E+02  0.13102599155E+03  0.25407725880E+03  0.00000000000E+00 0. -1.
         -2    1    3    3    0  502 -0.16851462624E+03 -0.28000297410E+02  0.17920445438E+03  0.24757914367E+03  0.00000000000E+00 0.  1.
         11    1    5    5    0    0  0.80251474154E+02  0.32491262510E+03 -0.25305855726E+03  0.41957972598E+03  0.00000000000E+00 0.  1.
        -11    1    5    5    0    0  0.98058868119E+01  0.15777269205E+03 -0.55114922865E+02  0.16740977420E+03  0.00000000000E+00 0. -1.
          2    1    6    6  503    0  0.32043739310E+02 -0.95054463765E+01 -0.12391143520E+02  0.35646811604E+02  0.00000000000E+00 0. -1.
         -2    1    6    6    0  503  0.24870234288E+03 -0.36476391863E+03 -0.33391846015E+03  0.55354052220E+03  0.00000000000E+00 0.  1.
<mgrwt>
<rscale>  0 0.16421372E+04</rscale>
<asrwt>0</asrwt>
<pdfrwt beam="1">  1        1 0.15554507E+00 0.16421372E+04</pdfrwt>
<pdfrwt beam="2">  1       -2 0.10258312E+00 0.16421372E+04</pdfrwt>
<totfact> 0.96652886E+00</totfact>
</mgrwt>
</event>
<event>
12    4  0.4398275E-008  0.1292373E+04  0.7818608E-02  0.9035635E-01
         -2   -1    0    0    0  501 -0.00000000000E+00  0.00000000000E+00  0.37203629226E+03  0.37203629226E+03  0.00000000000E+00 0.  1.
          1   -1    0    0  501    0  0.00000000000E+00 -0.00000000000E+00 -0.11223562946E+04  0.11223562946E+04  0.00000000000E+00 0. -1.
        -24    2    1    2    0    0 -0.16537066665E+02  0.19535401170E+02 -0.57247458536E+03  0.57854210903E+03  0.79553218461E+02 0.  0.
        254    2    1    2    0    0  0.16537066665E+02 -0.19535401170E+02 -0.17784541696E+03  0.91585047779E+03  0.89805233638E+03 0.  0.
         23    2    4    4    0    0 -0.13208773618E+03 -0.25311704497E+03 -0.43434534479E+03  0.52745830002E+03  0.89671462695E+02 0.  0.
         23    2    4    4    0    0  0.14862480284E+03  0.23358164380E+03  0.25649992784E+03  0.38839217777E+03  0.91687264297E+02 0.  0.
          3    1    3    3  502    0 -0.60941361835E+01  0.18071974997E+02 -0.56567183701E+03  0.56599325258E+03  0.00000000000E+00 0. -1.
         -4    1    3    3    0  502 -0.10442930481E+02  0.14634261733E+01 -0.68027483482E+01  0.12548856454E+02  0.00000000000E+00 0.  1.
         11    1    5    5    0    0 -0.32180842236E+02 -0.14239269531E+03 -0.25863536810E+03  0.29699080780E+03  0.00000000000E+00 0.  1.
        -11    1    5    5    0    0 -0.99906893941E+02 -0.11072434966E+03 -0.17570997669E+03  0.23046749222E+03  0.00000000000E+00 0. -1.
          1    1    6    6  503    0  0.39906690209E+02  0.96817672073E+02  0.15274451729E+03  0.18519474375E+03  0.00000000000E+00 0. -1.
         -1    1    6    6    0  503  0.10871811263E+03  0.13676397173E+03  0.10375541055E+03  0.20319743402E+03  0.00000000000E+00 0.  1.
<mgrwt>
<rscale>  0 0.12923734E+04</rscale>
<asrwt>0</asrwt>
<pdfrwt beam="1">  1        1 0.17267020E+00 0.12923734E+04</pdfrwt>
<pdfrwt beam="2">  1       -2 0.57236353E-01 0.12923734E+04</pdfrwt>
<totfact> 0.30078488E+01</totfact>
</mgrwt>
</event>
<event>
12    4  0.4398275E-008  0.2429726E+04  0.7818608E-02  0.8428458E-01
          1   -1    0    0  501    0  0.00000000000E+00  0.00000000000E+00  0.71300362372E+03  0.71300362372E+03  0.00000000000E+00 0. -1.
         -2   -1    0    0    0  501 -0.00000000000E+00 -0.00000000000E+00 -0.20699650555E+04  0.20699650555E+04  0.00000000000E+00 0.  1.
        -24    2    1    2    0    0 -0.49323364194E+03 -0.47973478522E+03  0.31328817545E+03  0.75999774399E+03  0.77602836992E+02 0.  0.
        254    2    1    2    0    0  0.49323364194E+03  0.47973478522E+03 -0.16702496072E+04  0.20229709352E+04  0.91063316692E+03 0.  0.
         23    2    4    4    0    0  0.14502497328E+03  0.29290541402E+03 -0.15688672473E+04  0.16050727460E+04  0.89934731764E+02 0.  0.
         23    2    4    4    0    0  0.34820866865E+03  0.18682937120E+03 -0.10138235997E+03  0.41789818925E+03  0.90587100605E+02 0.  0.
          1    1    3    3  502    0 -0.38787624918E+03 -0.33467137206E+03  0.24823064850E+03  0.56927266473E+03  0.00000000000E+00 0. -1.
         -2    1    3    3    0  502 -0.10535739275E+03 -0.14506341316E+03  0.65057526943E+02  0.19072507926E+03  0.00000000000E+00 0.  1.
         11    1    5    5    0    0  0.38619589265E+02  0.30959722452E+02 -0.13975601411E+03  0.14826233699E+03  0.00000000000E+00 0. -1.
        -11    1    5    5    0    0  0.10640538402E+03  0.26194569157E+03 -0.14291112331E+04  0.14568104090E+04  0.00000000000E+00 0.  1.
          1    1    6    6  503    0  0.21033313705E+03  0.12977438116E+03 -0.10527260621E+03  0.26863309581E+03  0.00000000000E+00 0. -1.
         -1    1    6    6    0  503  0.13787553160E+03  0.57054990038E+02  0.38902462369E+01  0.14926509344E+03  0.00000000000E+00 0.  1.
<mgrwt>
<rscale>  0 0.24297264E+04</rscale>
<asrwt>0</asrwt>
<pdfrwt beam="1">  1        1 0.10969287E+00 0.24297264E+04</pdfrwt>
<pdfrwt beam="2">  1       -2 0.31845616E+00 0.24297264E+04</pdfrwt>
<totfact> 0.50814949E-01</totfact>
</mgrwt>
</event>
<event>
12    4  0.4398275E-008  0.1786006E+04  0.7818608E-02  0.8713777E-01
          1   -1    0    0  501    0  0.00000000000E+00  0.00000000000E+00  0.14722066834E+04  0.14722066834E+04  0.00000000000E+00 0. -1.
         -2   -1    0    0    0  501 -0.00000000000E+00 -0.00000000000E+00 -0.54167301738E+03  0.54167301738E+03  0.00000000000E+00 0.  1.
        -24    2    1    2    0    0 -0.90677569720E+02  0.42119370884E+03 -0.22651185273E+03  0.49311214560E+03  0.78901246454E+02 0.  0.
        254    2    1    2    0    0  0.90677569720E+02 -0.42119370884E+03  0.11570455187E+04  0.15207675552E+04  0.88789248360E+03 0.  0.
         23    2    4    4    0    0  0.38696982008E+03 -0.18016581099E+02  0.81700491488E+03  0.90957971978E+03  0.98833176830E+02 0.  0.
         23    2    4    4    0    0 -0.29629225036E+03 -0.40317712774E+03  0.34004060387E+03  0.61118783541E+03  0.87075047583E+02 0.  0.
          1    1    3    3  502    0  0.92996947166E+01  0.89018593585E+02 -0.64044670210E+02  0.11005686761E+03  0.00000000000E+00 0. -1.
         -2    1    3    3    0  502 -0.99977264437E+02  0.33217511525E+03 -0.16246718252E+03  0.38305527799E+03  0.00000000000E+00 0.  1.
         11    1    5    5    0    0  0.26592542811E+03  0.22220040285E+02  0.47915618923E+03  0.54845302186E+03  0.00000000000E+00 0.  1.
        -11    1    5    5    0    0  0.12104439198E+03 -0.40236621384E+02  0.33784872564E+03  0.36112669792E+03  0.00000000000E+00 0. -1.
          3    1    6    6  503    0 -0.73478912994E+02 -0.59074682434E+02  0.36498403269E+02  0.10109946687E+03  0.00000000000E+00 0. -1.
         -3    1    6    6    0  503 -0.22281333737E+03 -0.34410244530E+03  0.30354220060E+03  0.51008836854E+03  0.00000000000E+00 0.  1.
<mgrwt>
<rscale>  0 0.17860063E+04</rscale>
<asrwt>0</asrwt>
<pdfrwt beam="1">  1        1 0.22649333E+00 0.17860063E+04</pdfrwt>
<pdfrwt beam="2">  1       -2 0.83334311E-01 0.17860063E+04</pdfrwt>
<totfact> 0.71463107E+00</totfact>
</mgrwt>
</event>
<event>
12    4  0.4398275E-008  0.1712868E+04  0.7818608E-02  0.8754059E-01
          1   -1    0    0  501    0  0.00000000000E+00  0.00000000000E+00  0.26419663809E+04  0.26419663809E+04  0.00000000000E+00 0. -1.
         -2   -1    0    0    0  501 -0.00000000000E+00 -0.00000000000E+00 -0.27762609154E+03  0.27762609154E+03  0.00000000000E+00 0.  1.
        -24    2    1    2    0    0  0.50398474185E+03 -0.15273602469E+03  0.27254885579E+03  0.59781271839E+03  0.75949023807E+02 0.  0.
        254    2    1    2    0    0 -0.50398474185E+03  0.15273602469E+03  0.20917914336E+04  0.23217797541E+04  0.85891845452E+03 0.  0.
         23    2    4    4    0    0 -0.15097736970E+03 -0.28028456811E+03  0.13376146757E+04  0.13779897985E+04  0.91045366746E+02 0.  0.
         23    2    4    4    0    0 -0.35300737215E+03  0.43302059279E+03  0.75417675784E+03  0.94378995554E+03  0.99175901921E+02 0.  0.
          3    1    3    3  502    0  0.14742255817E+03 -0.79769104348E+02  0.98041586201E+02  0.19418721196E+03  0.00000000000E+00 0. -1.
         -4    1    3    3    0  502  0.35656218368E+03 -0.72966920339E+02  0.17450726959E+03  0.40362550642E+03  0.00000000000E+00 0.  1.
         11    1    5    5    0    0  0.61303375555E+01  0.21596316108E+01  0.13246244719E+02  0.14754932951E+02  0.00000000000E+00 0. -1.
        -11    1    5    5    0    0 -0.15710770725E+03 -0.28244419972E+03  0.13243684310E+04  0.13632348656E+04  0.00000000000E+00 0.  1.
          1    1    6    6  503    0 -0.84213531295E+02  0.45789296546E+02  0.13642225686E+03  0.16673215256E+03  0.00000000000E+00 0. -1.
         -1    1    6    6    0  503 -0.26879384086E+03  0.38723129625E+03  0.61775450098E+03  0.77705780297E+03  0.00000000000E+00 0.  1.
<mgrwt>
<rscale>  0 0.17128675E+04</rscale>
<asrwt>0</asrwt>
<pdfrwt beam="1">  1        1 0.40645635E+00 0.17128675E+04</pdfrwt>
<pdfrwt beam="2">  1       -2 0.42711708E-01 0.17128675E+04</pdfrwt>
<totfact> 0.46872743E+00</totfact>
</mgrwt>
</event>
<event>
12    4  0.4398275E-008  0.3750524E+04  0.7818608E-02  0.8056856E-01
         -2   -1    0    0    0  501 -0.00000000000E+00  0.00000000000E+00  0.27735831974E+04  0.27735831974E+04  0.00000000000E+00 0.  1.
          1   -1    0    0  501    0  0.00000000000E+00 -0.00000000000E+00 -0.12678934777E+04  0.12678934777E+04  0.00000000000E+00 0. -1.
        -24    2    1    2    0    0  0.83954157153E+03 -0.70173370637E+03 -0.78913454807E+03  0.13519234883E+04  0.87769802292E+02 0.  0.
        254    2    1    2    0    0 -0.83954157153E+03  0.70173370637E+03  0.22948242678E+04  0.26895531868E+04  0.87762046428E+03 0.  0.
         23    2    4    4    0    0 -0.33539445308E+03  0.79065379582E+03  0.16326785397E+04  0.18470540700E+04  0.91360053222E+02 0.  0.
         23    2    4    4    0    0 -0.50414711845E+03 -0.88920089451E+02  0.66214572809E+03  0.84249911680E+03  0.96419382013E+02 0.  0.
          1    1    3    3  502    0  0.73502234419E+03 -0.61293199242E+03 -0.72424643563E+03  0.12001984725E+04  0.00000000000E+00 0. -1.
         -2    1    3    3    0  502  0.10451922735E+03 -0.88801713948E+02 -0.64888112444E+02  0.15172501581E+03  0.00000000000E+00 0.  1.
         11    1    5    5    0    0 -0.15265282467E+03  0.24968301439E+03  0.54464679076E+03  0.61829169430E+03  0.00000000000E+00 0.  1.
        -11    1    5    5    0    0 -0.18274162841E+03  0.54097078143E+03  0.10880317489E+04  0.12287623757E+04  0.00000000000E+00 0. -1.
          2    1    6    6  503    0 -0.50624028652E+03 -0.93786395534E+02  0.64965202374E+03  0.82892874702E+03  0.00000000000E+00 0. -1.
         -2    1    6    6    0  503  0.20931680754E+01  0.48663060829E+01  0.12493704352E+02  0.13570369778E+02  0.00000000000E+00 0.  1.
<mgrwt>
<rscale>  0 0.37505243E+04</rscale>
<asrwt>0</asrwt>
<pdfrwt beam="1">  1        1 0.19506053E+00 0.37505243E+04</pdfrwt>
<pdfrwt beam="2">  1       -2 0.42670511E+00 0.37505243E+04</pdfrwt>
<totfact> 0.33096395E-02</totfact>
</mgrwt>
</event>
<event>
12    4  0.4398275E-008  0.1392836E+04  0.7818608E-02  0.8959021E-01
          1   -1    0    0  501    0  0.00000000000E+00  0.00000000000E+00  0.28947507591E+04  0.28947507591E+04  0.00000000000E+00 0. -1.
         -2   -1    0    0    0  501 -0.00000000000E+00 -0.00000000000E+00 -0.16754385326E+03  0.16754385326E+03  0.00000000000E+00 0.  1.
        -24    2    1    2    0    0 -0.28538853059E+03  0.23952081066E+03  0.48111951857E+03  0.61385465788E+03  0.80775724789E+02 0.  0.
        254    2    1    2    0    0  0.28538853059E+03 -0.23952081066E+03  0.22460873872E+04  0.24484399544E+04  0.90062912859E+03 0.  0.
         23    2    4    4    0    0  0.45536588927E+03  0.13854349661E+03  0.74880491380E+03  0.89204172858E+03  0.92071999164E+02 0.  0.
         23    2    4    4    0    0 -0.16997735868E+03 -0.37806430727E+03  0.14972824734E+04  0.15563982258E+04  0.93250787215E+02 0.  0.
          3    1    3    3  502    0 -0.19176315544E+02  0.57580066864E+01  0.61506755279E+02  0.64683588829E+02  0.00000000000E+00 0. -1.
         -4    1    3    3    0  502 -0.26621221504E+03  0.23376280398E+03  0.41961276329E+03  0.54917106905E+03  0.00000000000E+00 0.  1.
         11    1    5    5    0    0  0.68799169039E+02 -0.10161100332E+02  0.12967132509E+03  0.14714355633E+03  0.00000000000E+00 0. -1.
        -11    1    5    5    0    0  0.38656672023E+03  0.14870459694E+03  0.61913358871E+03  0.74489817224E+03  0.00000000000E+00 0.  1.
          2    1    6    6  503    0 -0.13132949172E+03 -0.33882117099E+03  0.11909764881E+04  0.12451795920E+04  0.00000000000E+00 0.  1.
         -2    1    6    6    0  503 -0.38647866965E+02 -0.39243136284E+02  0.30630598537E+03  0.31121863382E+03  0.00000000000E+00 0. -1.
<mgrwt>
<rscale>  0 0.13928355E+04</rscale>
<asrwt>0</asrwt>
<pdfrwt beam="1">  1        1 0.44534623E+00 0.13928355E+04</pdfrwt>
<pdfrwt beam="2">  1       -2 0.25775980E-01 0.13928355E+04</pdfrwt>
<totfact> 0.83424565E+00</totfact>
</mgrwt>
</event>
<event>
12    4  0.4398275E-008  0.1541983E+04  0.7818608E-02  0.8857005E-01
         -2   -1    0    0    0  501 -0.00000000000E+00  0.00000000000E+00  0.26437646831E+03  0.26437646831E+03  0.00000000000E+00 0.  1.
          1   -1    0    0  501    0  0.00000000000E+00 -0.00000000000E+00 -0.22484141368E+04  0.22484141368E+04  0.00000000000E+00 0. -1.
        -24    2    1    2    0    0  0.36035308190E+03 -0.33229873573E+02 -0.12512334935E+04  0.13048515480E+04  0.78062402914E+02 0.  0.
        254    2    1    2    0    0 -0.36035308190E+03  0.33229873573E+02 -0.73280417496E+03  0.12079390572E+04  0.88946963908E+03 0.  0.
         23    2    4    4    0    0 -0.48428179354E+03 -0.30017682678E+03 -0.33410992579E+03  0.66675473028E+03  0.91090312042E+02 0.  0.
         23    2    4    4    0    0  0.12392871164E+03  0.33340670035E+03 -0.39869424917E+03  0.54118432688E+03  0.86052413880E+02 0.  0.
          3    1    3    3  502    0  0.29858468990E+03 -0.54272725086E+02 -0.10711147744E+04  0.11132767875E+04  0.00000000000E+00 0. -1.
         -4    1    3    3    0  502  0.61768391997E+02  0.21042851513E+02 -0.18011871914E+03  0.19157476043E+03  0.00000000000E+00 0.  1.
         11    1    5    5    0    0 -0.65168446354E+02 -0.31908106523E+02 -0.10876692657E+02  0.73371357526E+02  0.00000000000E+00 0. -1.
        -11    1    5    5    0    0 -0.41911334719E+03 -0.26826872025E+03 -0.32323323313E+03  0.59338337275E+03  0.00000000000E+00 0.  1.
          4    1    6    6  503    0  0.34772432213E+02  0.11105152714E+03 -0.19330375153E+03  0.22562779987E+03  0.00000000000E+00 0. -1.
         -4    1    6    6    0  503  0.89156279427E+02  0.22235517321E+03 -0.20539049765E+03  0.31555652701E+03  0.00000000000E+00 0.  1.
<mgrwt>
<rscale>  0 0.15419829E+04</rscale>
<asrwt>0</asrwt>
<pdfrwt beam="1">  1        1 0.34590987E+00 0.15419829E+04</pdfrwt>
<pdfrwt beam="2">  1       -2 0.40673302E-01 0.15419829E+04</pdfrwt>
<totfact> 0.97932716E+00</totfact>
</mgrwt>
</event>
<event>
12    4  0.4398275E-008  0.2261519E+04  0.7818608E-02  0.8493250E-01
          1   -1    0    0  501    0  0.00000000000E+00  0.00000000000E+00  0.90275130535E+03  0.90275130535E+03  0.00000000000E+00 0. -1.
         -2   -1    0    0    0  501 -0.00000000000E+00 -0.00000000000E+00 -0.14163560756E+04  0.14163560756E+04  0.00000000000E+00 0.  1.
        -24    2    1    2    0    0  0.81320761894E+03 -0.43650966260E+03 -0.99250294464E+02  0.93108931302E+03  0.72314388752E+02 0.  0.
        254    2    1    2    0    0 -0.81320761894E+03  0.43650966260E+03 -0.41435447581E+03  0.13880180680E+04  0.95029322228E+03 0.  0.
         23    2    4    4    0    0  0.19606130043E+02  0.46825371941E+03 -0.22868027353E+03  0.52930902729E+03  0.90705197148E+02 0.  0.
         23    2    4    4    0    0 -0.83281374898E+03 -0.31744056811E+02 -0.18567420227E+03  0.85870904067E+03  0.91213384431E+02 0.  0.
          3    1    3    3  502    0  0.38511360839E+03 -0.21181716335E+03 -0.11234620843E+02  0.43966489372E+03  0.00000000000E+00 0. -1.
         -4    1    3    3    0  502  0.42809401055E+03 -0.22469249924E+03 -0.88015673622E+02  0.49142441930E+03  0.00000000000E+00 0.  1.
         11    1    5    5    0    0  0.42882723229E+02  0.41479252437E+03 -0.18372587066E+03  0.45568296191E+03  0.00000000000E+00 0. -1.
        -11    1    5    5    0    0 -0.23276593186E+02  0.53461195035E+02 -0.44954402873E+02  0.73626065374E+02  0.00000000000E+00 0.  1.
          2    1    6    6  503    0 -0.46631151496E+03  0.11384829996E+02 -0.13910774438E+03  0.48675148473E+03  0.00000000000E+00 0. -1.
         -2    1    6    6    0  503 -0.36650223402E+03 -0.43128886807E+02 -0.46566457891E+02  0.37195755594E+03  0.00000000000E+00 0.  1.
<mgrwt>
<rscale>  0 0.22615192E+04</rscale>
<asrwt>0</asrwt>
<pdfrwt beam="1">  1        1 0.13888482E+00 0.22615192E+04</pdfrwt>
<pdfrwt beam="2">  1       -2 0.21790093E+00 0.22615192E+04</pdfrwt>
<totfact> 0.14664055E+00</totfact>
</mgrwt>
</event>
<event>
12    4  0.4398275E-008  0.1536132E+04  0.7818608E-02  0.8860775E-01
          1   -1    0    0  501    0  0.00000000000E+00  0.00000000000E+00  0.22813774905E+04  0.22813774905E+04  0.00000000000E+00 0. -1.
         -2   -1    0    0    0  501 -0.00000000000E+00 -0.00000000000E+00 -0.25858291858E+03  0.25858291858E+03  0.00000000000E+00 0.  1.
        -24    2    1    2    0    0  0.65904493846E+02  0.32204911033E+03  0.12981342289E+04  0.13415441285E+04  0.80803098500E+02 0.  0.
        254    2    1    2    0    0 -0.65904493846E+02 -0.32204911033E+03  0.72466034304E+03  0.11984162806E+04  0.89610821725E+03 0.  0.
         23    2    4    4    0    0 -0.28153905039E+03  0.97744604941E+02 -0.19255748868E+02  0.31298524811E+03  0.93652212911E+02 0.  0.
         23    2    4    4    0    0  0.21563455654E+03 -0.41979371527E+03  0.74391609190E+03  0.88543103247E+03  0.88611151193E+02 0.  0.
          1    1    3    3  502    0  0.80439900748E+02  0.24685896383E+03  0.93212676621E+03  0.96761057970E+03  0.00000000000E+00 0. -1.
         -2    1    3    3    0  502 -0.14535406901E+02  0.75190146498E+02  0.36600746266E+03  0.37393354878E+03  0.00000000000E+00 0.  1.
         11    1    5    5    0    0 -0.26259523271E+03  0.11477289467E+03 -0.21664714191E+02  0.28739943186E+03  0.00000000000E+00 0. -1.
        -11    1    5    5    0    0 -0.18943817679E+02 -0.17028289730E+02  0.24089653230E+01  0.25585816252E+02  0.00000000000E+00 0.  1.
          3    1    6    6  503    0  0.10804950321E+03 -0.29736044291E+03  0.46613728451E+03  0.56336657352E+03  0.00000000000E+00 0. -1.
         -3    1    6    6    0  503  0.10758505333E+03 -0.12243327236E+03  0.27777880740E+03  0.32206445895E+03  0.00000000000E+00 0.  1.
<mgrwt>
<rscale>  0 0.15361318E+04</rscale>
<asrwt>0</asrwt>
<pdfrwt beam="1">  1        1 0.35098114E+00 0.15361318E+04</pdfrwt>
<pdfrwt beam="2">  1       -2 0.39781989E-01 0.15361318E+04</pdfrwt>
<totfact> 0.97169440E+00</totfact>
</mgrwt>
</event>
<event>
12    4  0.4398275E-008  0.1339593E+04  0.7818608E-02  0.8998744E-01
          3   -1    0    0  501    0  0.00000000000E+00  0.00000000000E+00  0.14659838535E+04  0.14659838535E+04  0.00000000000E+00 0. -1.
         -4   -1    0    0    0  501 -0.00000000000E+00 -0.00000000000E+00 -0.30602455028E+03  0.30602455028E+03  0.00000000000E+00 0.  1.
        -24    2    1    2    0    0  0.15558235269E+03  0.33139848562E+03  0.60572250738E+03  0.71230886847E+03  0.80332704560E+02 0.  0.
        254    2    1    2    0    0 -0.15558235269E+03 -0.33139848562E+03  0.55423679584E+03  0.10596995353E+04  0.82568387082E+03 0.  0.
         23    2    4    4    0    0 -0.15238283974E+02 -0.57703421323E+03  0.47093746595E+03  0.75094969797E+03  0.94565657126E+02 0.  0.
         23    2    4    4    0    0 -0.14034406871E+03  0.24563572762E+03  0.83299329884E+02  0.30874983733E+03  0.91401944118E+02 0.  0.
          3    1    3    3  502    0  0.10274667808E+03  0.19668530538E+03  0.43639192469E+03  0.48957114003E+03  0.00000000000E+00 0. -1.
         -4    1    3    3    0  502  0.52835674605E+02  0.13471318024E+03  0.16933058268E+03  0.22273772844E+03  0.00000000000E+00 0.  1.
         11    1    5    5    0    0  0.34413447635E+02 -0.14613742612E+03  0.14114606723E+03  0.20606466214E+03  0.00000000000E+00 0. -1.
        -11    1    5    5    0    0 -0.49651731609E+02 -0.43089678712E+03  0.32979139873E+03  0.54488503583E+03  0.00000000000E+00 0.  1.
          1    1    6    6  503    0 -0.25490816637E+01  0.41118560057E+02 -0.14189878504E+02  0.43572771893E+02  0.00000000000E+00 0. -1.
         -1    1    6    6    0  503 -0.13779498705E+03  0.20451716756E+03  0.97489208388E+02  0.26517706544E+03  0.00000000000E+00 0.  1.
<mgrwt>
<rscale>  0 0.13395925E+04</rscale>
<asrwt>0</asrwt>
<pdfrwt beam="1">  1        3 0.22553597E+00 0.13395925E+04</pdfrwt>
<pdfrwt beam="2">  1       -4 0.47080701E-01 0.13395925E+04</pdfrwt>
<totfact> 0.10083150E+00</totfact>
</mgrwt>
</event>
<event>
12    4  0.4398275E-008  0.3246517E+04  0.7818608E-02  0.8176639E-01
         -2   -1    0    0    0  501 -0.00000000000E+00  0.00000000000E+00  0.15661436274E+04  0.15661436274E+04  0.00000000000E+00 0.  1.
          1   -1    0    0  501    0  0.00000000000E+00 -0.00000000000E+00 -0.16824558578E+04  0.16824558578E+04  0.00000000000E+00 0. -1.
        -24    2    1    2    0    0  0.22582613751E+03  0.48435028695E+03  0.13478402920E+04  0.14522369834E+04  0.82013160326E+02 0.  0.
        254    2    1    2    0    0 -0.22582613751E+03 -0.48435028695E+03 -0.14641525224E+04  0.17963625018E+04  0.89307501596E+03 0.  0.
         23    2    4    4    0    0 -0.23257295562E+03  0.74827444580E+02 -0.10830915658E+04  0.11136381502E+04  0.86100310123E+02 0.  0.
         23    2    4    4    0    0  0.67468181147E+01 -0.55917773153E+03 -0.38106095662E+03  0.68272435166E+03  0.90442427483E+02 0.  0.
          3    1    3    3  502    0  0.22202834235E+02  0.13037800262E+03  0.33819816620E+03  0.36313825058E+03  0.00000000000E+00 0. -1.
         -4    1    3    3    0  502  0.20362330327E+03  0.35397228433E+03  0.10096421258E+04  0.10890987328E+04  0.00000000000E+00 0.  1.
         11    1    5    5    0    0 -0.21166368455E+02 -0.95677273234E+01 -0.42430272643E+02  0.48372353636E+02  0.00000000000E+00 0.  1.
        -11    1    5    5    0    0 -0.21140658717E+03  0.84395171903E+02 -0.10406612932E+04  0.10652657965E+04  0.00000000000E+00 0. -1.
          2    1    6    6  503    0 -0.31883017708E+02 -0.43155419645E+03 -0.30221304796E+03  0.52781462432E+03  0.00000000000E+00 0. -1.
         -2    1    6    6    0  503  0.38629835823E+02 -0.12762353508E+03 -0.78847908656E+02  0.15490972733E+03  0.00000000000E+00 0.  1.
<mgrwt>
<rscale>  0 0.32465166E+04</rscale>
<asrwt>0</asrwt>
<pdfrwt beam="1">  1        1 0.25883936E+00 0.32465166E+04</pdfrwt>
<pdfrwt beam="2">  1       -2 0.24094517E+00 0.32465166E+04</pdfrwt>
<totfact> 0.26219454E-01</totfact>
</mgrwt>
</event>
<event>
12    4  0.4398275E-008  0.2578123E+04  0.7818608E-02  0.8375671E-01
         -2   -1    0    0    0  501 -0.00000000000E+00  0.00000000000E+00  0.14600294942E+04  0.14600294942E+04  0.00000000000E+00 0.  1.
          1   -1    0    0  501    0  0.00000000000E+00 -0.00000000000E+00 -0.11381133405E+04  0.11381133405E+04  0.00000000000E+00 0. -1.
        -24    2    1    2    0    0  0.81403723508E+03 -0.42127774557E+03  0.82102490442E+03  0.12329034368E+04  0.76403088312E+02 0.  0.
        254    2    1    2    0    0 -0.81403723508E+03  0.42127774557E+03 -0.49910875065E+03  0.13652393978E+04  0.88013493819E+03 0.  0.
         23    2    4    4    0    0 -0.12512523219E+03 -0.94846054578E+02 -0.46470974515E+03  0.49894228735E+03  0.91302579730E+02 0.  0.
         23    2    4    4    0    0 -0.68891200289E+03  0.51612380014E+03 -0.34399005496E+02  0.86629711049E+03  0.91125557662E+02 0.  0.
          1    1    3    3  502    0  0.92488388348E+02 -0.34899475761E+02  0.11802951700E+03  0.15395792371E+03  0.00000000000E+00 0. -1.
         -2    1    3    3    0  502  0.72154884673E+03 -0.38637826981E+03  0.70299538741E+03  0.10789455131E+04  0.00000000000E+00 0.  1.
         11    1    5    5    0    0 -0.48182910701E+02  0.87662120165E+01 -0.17627009951E+03  0.18294695225E+03  0.00000000000E+00 0. -1.
        -11    1    5    5    0    0 -0.76942321493E+02 -0.10361226659E+03 -0.28843964564E+03  0.31599533510E+03  0.00000000000E+00 0.  1.
          4    1    6    6  503    0 -0.55364610433E+02  0.58525429493E+02 -0.26247637811E+02  0.84731366544E+02  0.00000000000E+00 0. -1.
         -4    1    6    6    0  503 -0.63354739246E+03  0.45759837065E+03 -0.81513676852E+01  0.78156574394E+03  0.00000000000E+00 0.  1.
<mgrwt>
<rscale>  0 0.25781226E+04</rscale>
<asrwt>0</asrwt>
<pdfrwt beam="1">  1        1 0.17509436E+00 0.25781226E+04</pdfrwt>
<pdfrwt beam="2">  1       -2 0.22461992E+00 0.25781226E+04</pdfrwt>
<totfact> 0.84932171E-01</totfact>
</mgrwt>
</event>
<event>
12    4  0.4398275E-008  0.1867882E+04  0.7818608E-02  0.8671011E-01
          1   -1    0    0  501    0  0.00000000000E+00  0.00000000000E+00  0.69366928799E+03  0.69366928799E+03  0.00000000000E+00 0. -1.
         -2   -1    0    0    0  501 -0.00000000000E+00 -0.00000000000E+00 -0.12574369220E+04  0.12574369220E+04  0.00000000000E+00 0.  1.
        -24    2    1    2    0    0 -0.66094811025E+03 -0.20631261925E+03 -0.42120437222E+03  0.81441520029E+03  0.80260164343E+02 0.  0.
        254    2    1    2    0    0  0.66094811025E+03  0.20631261925E+03 -0.14256326175E+03  0.11366910097E+04  0.89012632056E+03 0.  0.
         23    2    4    4    0    0 -0.14143997667E+03  0.24589116819E+03  0.58204606378E+02  0.30364123641E+03  0.91337235834E+02 0.  0.
         23    2    4    4    0    0  0.80238808692E+03 -0.39578548934E+02 -0.20076786813E+03  0.83304977326E+03  0.90945501726E+02 0.  0.
          3    1    3    3  502    0 -0.62292863720E+03 -0.19319986110E+03 -0.41668191704E+03  0.77394450277E+03  0.00000000000E+00 0. -1.
         -4    1    3    3    0  502 -0.38019473051E+02 -0.13112758153E+02 -0.45224551835E+01  0.40470697527E+02  0.00000000000E+00 0.  1.
         11    1    5    5    0    0  0.77182745264E+01  0.52477651995E+02  0.18567826899E+02  0.56198219868E+02  0.00000000000E+00 0. -1.
        -11    1    5    5    0    0 -0.14915825120E+03  0.19341351619E+03  0.39636779479E+02  0.24744301654E+03  0.00000000000E+00 0.  1.
          4    1    6    6  503    0  0.15653108594E+03  0.22575084382E+02 -0.19392230592E+02  0.15933509942E+03  0.00000000000E+00 0. -1.
         -4    1    6    6    0  503  0.64585700098E+03 -0.62153633316E+02 -0.18137563754E+03  0.67371467384E+03  0.00000000000E+00 0.  1.
<mgrwt>
<rscale>  0 0.18678816E+04</rscale>
<asrwt>0</asrwt>
<pdfrwt beam="1">  1        1 0.10671835E+00 0.18678816E+04</pdfrwt>
<pdfrwt beam="2">  1       -2 0.19345183E+00 0.18678816E+04</pdfrwt>
<totfact> 0.33333662E+00</totfact>
</mgrwt>
</event>
<event>
12    4  0.4398275E-008  0.1165099E+04  0.7818608E-02  0.9143966E-01
          1   -1    0    0  501    0  0.00000000000E+00  0.00000000000E+00  0.12719531036E+04  0.12719531036E+04  0.00000000000E+00 0. -1.
         -2   -1    0    0    0  501 -0.00000000000E+00 -0.00000000000E+00 -0.26680524270E+03  0.26680524270E+03  0.00000000000E+00 0.  1.
        -24    2    1    2    0    0  0.69349813998E+02  0.11203262329E+03 -0.31136337847E+02  0.15700222523E+03  0.79495420063E+02 0.  0.
        254    2    1    2    0    0 -0.69349813998E+02 -0.11203262329E+03  0.10362841987E+04  0.13817561210E+04  0.90443591930E+03 0.  0.
         23    2    4    4    0    0  0.26351540794E+03 -0.22428539414E+03  0.94062558935E+03  0.10063806600E+04  0.91001237976E+02 0.  0.
         23    2    4    4    0    0 -0.33286522193E+03  0.11225277085E+03  0.95658609384E+02  0.37537546101E+03  0.91412398725E+02 0.  0.
          1    1    3    3  502    0  0.47292051820E+02  0.38470168619E+02 -0.48928785530E+02  0.78169802944E+02  0.00000000000E+00 0. -1.
         -2    1    3    3    0  502  0.22057762178E+02  0.73562454672E+02  0.17792447682E+02  0.78832422290E+02  0.00000000000E+00 0.  1.
         11    1    5    5    0    0  0.24912499296E+03 -0.18233565764E+03  0.75823687705E+03  0.81867741870E+03  0.00000000000E+00 0.  1.
        -11    1    5    5    0    0  0.14390414976E+02 -0.41949736496E+02  0.18238871230E+03  0.18770324134E+03  0.00000000000E+00 0. -1.
          3    1    6    6  503    0 -0.27412998516E+02  0.21611902675E+02 -0.15131074630E+02  0.38045975403E+02  0.00000000000E+00 0. -1.
         -3    1    6    6    0  503 -0.30545222342E+03  0.90640868170E+02  0.11078968401E+03  0.33732948560E+03  0.00000000000E+00 0.  1.
<mgrwt>
<rscale>  0 0.11650987E+04</rscale>
<asrwt>0</asrwt>
<pdfrwt beam="1">  1        1 0.19568509E+00 0.11650987E+04</pdfrwt>
<pdfrwt beam="2">  1       -2 0.41046961E-01 0.11650987E+04</pdfrwt>
<totfact> 0.46338266E+01</totfact>
</mgrwt>
</event>
<event>
12    4  0.4398275E-008  0.1444957E+04  0.7818608E-02  0.8921904E-01
          1   -1    0    0  501    0  0.00000000000E+00  0.00000000000E+00  0.16812978138E+04  0.16812978138E+04  0.00000000000E+00 0. -1.
         -2   -1    0    0    0  501 -0.00000000000E+00 -0.00000000000E+00 -0.31045948660E+03  0.31045948660E+03  0.00000000000E+00 0.  1.
        -24    2    1    2    0    0 -0.18264610881E+03  0.31951636389E+03  0.11352715392E+03  0.39329756362E+03  0.79650806711E+02 0.  0.
        254    2    1    2    0    0  0.18264610881E+03 -0.31951636389E+03  0.12573111733E+04  0.15984597368E+04  0.91585579422E+03 0.  0.
         23    2    4    4    0    0 -0.66861717078E+02 -0.33907531396E+03  0.47564474943E+02  0.35980260846E+03  0.88051008080E+02 0.  0.
         23    2    4    4    0    0  0.24950782589E+03  0.19558950072E+02  0.12097466983E+04  0.12386571283E+04  0.90264609471E+02 0.  0.
          1    1    3    3  502    0 -0.18666958964E+03  0.28582784718E+03  0.11217934311E+03  0.35934287100E+03  0.00000000000E+00 0. -1.
         -2    1    3    3    0  502  0.40234808321E+01  0.33688516717E+02  0.13478108121E+01  0.33954692616E+02  0.00000000000E+00 0.  1.
         11    1    5    5    0    0 -0.54971402840E+02 -0.27572213325E+03  0.25125274091E+01  0.28115985255E+03  0.00000000000E+00 0. -1.
        -11    1    5    5    0    0 -0.11890314238E+02 -0.63353180719E+02  0.45051947534E+02  0.78642755906E+02  0.00000000000E+00 0.  1.
          3    1    6    6  503    0  0.20000855719E+03  0.52264014908E+02  0.94150430046E+03  0.96393220611E+03  0.00000000000E+00 0. -1.
         -3    1    6    6    0  503  0.49499268700E+02 -0.32705064836E+02  0.26824239786E+03  0.27472492220E+03  0.00000000000E+00 0.  1.
<mgrwt>
<rscale>  0 0.14449565E+04</rscale>
<asrwt>0</asrwt>
<pdfrwt beam="1">  1        1 0.25866120E+00 0.14449565E+04</pdfrwt>
<pdfrwt beam="2">  1       -2 0.47762999E-01 0.14449565E+04</pdfrwt>
<totfact> 0.17386584E+01</totfact>
</mgrwt>
</event>
<event>
12    4  0.4398275E-008  0.1888218E+04  0.7818608E-02  0.8660743E-01
         -2   -1    0    0    0  501 -0.00000000000E+00  0.00000000000E+00  0.71289806266E+03  0.71289806266E+03  0.00000000000E+00 0.  1.
          1   -1    0    0  501    0  0.00000000000E+00 -0.00000000000E+00 -0.12503072216E+04  0.12503072216E+04  0.00000000000E+00 0. -1.
        -24    2    1    2    0    0 -0.20827062037E+03  0.10958334183E+03  0.51129794133E+03  0.56840575203E+03  0.79210820064E+02 0.  0.
        254    2    1    2    0    0  0.20827062037E+03 -0.10958334183E+03 -0.10487071003E+04  0.13947995322E+04  0.88898481022E+03 0.  0.
         23    2    4    4    0    0  0.26962035836E+03  0.30530076593E+03 -0.24749613155E+03  0.48564774663E+03  0.93250755272E+02 0.  0.
         23    2    4    4    0    0 -0.61349737996E+02 -0.41488410775E+03 -0.80121096871E+03  0.90915178557E+03  0.93409526386E+02 0.  0.
          1    1    3    3  502    0 -0.63848235080E+02  0.68725573197E+02  0.14676471017E+03  0.17418289723E+03  0.00000000000E+00 0. -1.
         -2    1    3    3    0  502 -0.14442238529E+03  0.40857768631E+02  0.36453323116E+03  0.39422285480E+03  0.00000000000E+00 0.  1.
         11    1    5    5    0    0  0.26572938460E+03  0.29055656420E+03 -0.25453441778E+03  0.46885284757E+03  0.00000000000E+00 0. -1.
        -11    1    5    5    0    0  0.38909737675E+01  0.14744201725E+02  0.70382862361E+01  0.16794899062E+02  0.00000000000E+00 0.  1.
          2    1    6    6  503    0 -0.15540996185E+02 -0.34943546074E+03 -0.65074689648E+03  0.73879509139E+03  0.00000000000E+00 0. -1.
         -2    1    6    6    0  503 -0.45808741811E+02 -0.65448647011E+02 -0.15046407222E+03  0.17035669418E+03  0.00000000000E+00 0.  1.
<mgrwt>
<rscale>  0 0.18882178E+04</rscale>
<asrwt>0</asrwt>
<pdfrwt beam="1">  1        1 0.19235496E+00 0.18882178E+04</pdfrwt>
<pdfrwt beam="2">  1       -2 0.10967663E+00 0.18882178E+04</pdfrwt>
<totfact> 0.53399778E+00</totfact>
</mgrwt>
</event>
<event>
12    4  0.4398275E-008  0.2500173E+04  0.7818608E-02  0.8402924E-01
          1   -1    0    0  501    0  0.00000000000E+00  0.00000000000E+00  0.26945048246E+04  0.26945048246E+04  0.00000000000E+00 0. -1.
         -2   -1    0    0    0  501 -0.00000000000E+00 -0.00000000000E+00 -0.57996438678E+03  0.57996438678E+03  0.00000000000E+00 0.  1.
        -24    2    1    2    0    0  0.38689212424E+03  0.20897075610E+03  0.22193692706E+04  0.22639285095E+04  0.80112696769E+02 0.  0.
        254    2    1    2    0    0 -0.38689212424E+03 -0.20897075610E+03 -0.10482883276E+03  0.10105407019E+04  0.90379706422E+03 0.  0.
         23    2    4    4    0    0 -0.35376696927E+03 -0.12030681927E+03  0.36151840965E+03  0.52647161408E+03  0.82776811984E+02 0.  0.
         23    2    4    4    0    0 -0.33125154971E+02 -0.88663936831E+02 -0.46634724241E+03  0.48406908781E+03  0.88795054384E+02 0.  0.
          3    1    3    3  502    0  0.36966621815E+03  0.21411832032E+03  0.20810358453E+04  0.21244316787E+04  0.00000000000E+00 0. -1.
         -4    1    3    3    0  502  0.17225906097E+02 -0.51475642132E+01  0.13833342524E+03  0.13949683078E+03  0.00000000000E+00 0.  1.
         11    1    5    5    0    0 -0.30104402136E+03 -0.98788377494E+02  0.34215943281E+03  0.46632577002E+03  0.00000000000E+00 0.  1.
        -11    1    5    5    0    0 -0.52722947914E+02 -0.21518441777E+02  0.19358976842E+02  0.60145844059E+02  0.00000000000E+00 0. -1.
          1    1    6    6  503    0 -0.32020118032E+02 -0.32745551069E+01 -0.53124597578E+02  0.62114680533E+02  0.00000000000E+00 0. -1.
         -1    1    6    6    0  503 -0.11050369389E+01 -0.85389381724E+02 -0.41322264483E+03  0.42195440728E+03  0.00000000000E+00 0.  1.
<mgrwt>
<rscale>  0 0.25001735E+04</rscale>
<asrwt>0</asrwt>
<pdfrwt beam="1">  1        1 0.41453920E+00 0.25001735E+04</pdfrwt>
<pdfrwt beam="2">  1       -2 0.89225292E-01 0.25001735E+04</pdfrwt>
<totfact> 0.83367345E-01</totfact>
</mgrwt>
</event>
<event>
12    4  0.4398275E-008  0.1694000E+04  0.7818608E-02  0.8764794E-01
         -2   -1    0    0    0  501 -0.00000000000E+00  0.00000000000E+00  0.59556413167E+03  0.59556413167E+03  0.00000000000E+00 0.  1.
          1   -1    0    0  501    0  0.00000000000E+00 -0.00000000000E+00 -0.12045872175E+04  0.12045872175E+04  0.00000000000E+00 0. -1.
        -24    2    1    2    0    0 -0.36275137522E+03  0.32574254612E+03 -0.60702553212E+03  0.78263108905E+03  0.79590566838E+02 0.  0.
        254    2    1    2    0    0  0.36275137522E+03 -0.32574254612E+03 -0.19975536724E+01  0.10175202601E+04  0.89311070022E+03 0.  0.
         23    2    4    4    0    0  0.56974706266E+03 -0.43281092865E+03  0.13370622221E+03  0.73367773077E+03  0.92025232450E+02 0.  0.
         23    2    4    4    0    0 -0.20699568744E+03  0.10706838253E+03 -0.13570377588E+03  0.28384252930E+03  0.88544980064E+02 0.  0.
          1    1    3    3  502    0 -0.25967774850E+03  0.21147068023E+03 -0.46630527882E+03  0.57410190273E+03  0.00000000000E+00 0. -1.
         -2    1    3    3    0  502 -0.10307362673E+03  0.11427186589E+03 -0.14072025330E+03  0.20852918633E+03  0.00000000000E+00 0.  1.
         11    1    5    5    0    0  0.33851269365E+03 -0.23802683816E+03  0.33548058850E+02  0.41517838539E+03  0.00000000000E+00 0.  1.
        -11    1    5    5    0    0  0.23123436901E+03 -0.19478409050E+03  0.10015816336E+03  0.31849934538E+03  0.00000000000E+00 0. -1.
          4    1    6    6  503    0 -0.27963999502E+02  0.34622075715E+02  0.51497034898E+01  0.44801705782E+02  0.00000000000E+00 0.  1.
         -4    1    6    6    0  503 -0.17903168794E+03  0.72446306814E+02 -0.14085347937E+03  0.23904082352E+03  0.00000000000E+00 0. -1.
<mgrwt>
<rscale>  0 0.16939999E+04</rscale>
<asrwt>0</asrwt>
<pdfrwt beam="1">  1        1 0.18532111E+00 0.16939999E+04</pdfrwt>
<pdfrwt beam="2">  1       -2 0.91625252E-01 0.16939999E+04</pdfrwt>
<totfact> 0.89781980E+00</totfact>
</mgrwt>
</event>
<event>
12    4  0.4398275E-008  0.1311959E+04  0.7818608E-02  0.9020135E-01
         -2   -1    0    0    0  501 -0.00000000000E+00  0.00000000000E+00  0.99338596662E+03  0.99338596662E+03  0.00000000000E+00 0.  1.
          1   -1    0    0  501    0  0.00000000000E+00 -0.00000000000E+00 -0.43317426134E+03  0.43317426134E+03  0.00000000000E+00 0. -1.
        -24    2    1    2    0    0  0.13929827712E+03 -0.11080198934E+03  0.46306243577E+03  0.50248717739E+03  0.79909030608E+02 0.  0.
        254    2    1    2    0    0 -0.13929827712E+03  0.11080198934E+03  0.97149269511E+02  0.92407305057E+03  0.90154973871E+03 0.  0.
         23    2    4    4    0    0 -0.36404007043E+03  0.39487447933E+03  0.37431914415E+02  0.54599749951E+03  0.90890560294E+02 0.  0.
         23    2    4    4    0    0  0.22474179331E+03 -0.28407249000E+03  0.59717355095E+02  0.37807555106E+03  0.90382003609E+02 0.  0.
          1    1    3    3  502    0 -0.62973741656E+01  0.39335556477E-01  0.22748125592E+01  0.66957629025E+01  0.00000000000E+00 0. -1.
         -2    1    3    3    0  502  0.14559565129E+03 -0.11084132489E+03  0.46078762321E+03  0.49579141449E+03  0.00000000000E+00 0.  1.
         11    1    5    5    0    0 -0.75580138352E+01  0.42293113579E+02  0.83244942078E+01  0.43762178113E+02  0.00000000000E+00 0. -1.
        -11    1    5    5    0    0 -0.35648205659E+03  0.35258136575E+03  0.29107420208E+02  0.50223532140E+03  0.00000000000E+00 0.  1.
          3    1    6    6  503    0  0.66014521800E+02 -0.14985595765E+03  0.83946060459E+01  0.16396705322E+03  0.00000000000E+00 0. -1.
         -3    1    6    6    0  503  0.15872727151E+03 -0.13421653235E+03  0.51322749049E+02  0.21410849784E+03  0.00000000000E+00 0.  1.
<mgrwt>
<rscale>  0 0.13119592E+04</rscale>
<asrwt>0</asrwt>
<pdfrwt beam="1">  1        1 0.66642194E-01 0.13119592E+04</pdfrwt>
<pdfrwt beam="2">  1       -2 0.15282861E+00 0.13119592E+04</pdfrwt>
<totfact> 0.13174071E+01</totfact>
</mgrwt>
</event>
<event>
12    4  0.4398275E-008  0.1438418E+04  0.7818608E-02  0.8926469E-01
          1   -1    0    0  501    0  0.00000000000E+00  0.00000000000E+00  0.17240101839E+04  0.17240101839E+04  0.00000000000E+00 0. -1.
         -2   -1    0    0    0  501 -0.00000000000E+00 -0.00000000000E+00 -0.30003414508E+03  0.30003414508E+03  0.00000000000E+00 0.  1.
        -24    2    1    2    0    0 -0.65069830678E+02 -0.21535437152E+03 -0.82087698958E+02  0.25235774555E+03  0.79589278314E+02 0.  0.
        254    2    1    2    0    0  0.65069830678E+02  0.21535437152E+03  0.15060637378E+04  0.17716865834E+04  0.90555716521E+03 0.  0.
         23    2    4    4    0    0 -0.13183063672E+03  0.61649743294E+02 -0.60561158595E+02  0.18255639029E+03  0.92082430886E+02 0.  0.
         23    2    4    4    0    0  0.19690046740E+03  0.15370462822E+03  0.15666248964E+04  0.15891301931E+04  0.92877866293E+02 0.  0.
          1    1    3    3  502    0 -0.55890173229E+02 -0.15660683108E+03 -0.21839584588E+02  0.16770920803E+03  0.00000000000E+00 0. -1.
         -2    1    3    3    0  502 -0.91796574491E+01 -0.58747540437E+02 -0.60248114370E+02  0.84648537515E+02  0.00000000000E+00 0.  1.
         11    1    5    5    0    0  0.19410266171E+00 -0.11975181022E+02  0.10122240130E+02  0.15681274872E+02  0.00000000000E+00 0. -1.
        -11    1    5    5    0    0 -0.13202473938E+03  0.73624924316E+02 -0.70683398725E+02  0.16687511541E+03  0.00000000000E+00 0.  1.
          4    1    6    6  503    0  0.16213137146E+02 -0.39243246832E+01  0.27040005650E+03  0.27091411313E+03  0.00000000000E+00 0. -1.
         -4    1    6    6    0  503  0.18068733025E+03  0.15762895290E+03  0.12962248399E+04  0.13182160800E+04  0.00000000000E+00 0.  1.
<mgrwt>
<rscale>  0 0.14384185E+04</rscale>
<asrwt>0</asrwt>
<pdfrwt beam="1">  1        1 0.26523233E+00 0.14384185E+04</pdfrwt>
<pdfrwt beam="2">  1       -2 0.46159100E-01 0.14384185E+04</pdfrwt>
<totfact> 0.17428962E+01</totfact>
</mgrwt>
</event>
<event>
12    4  0.4398275E-008  0.1645128E+04  0.7818608E-02  0.8793294E-01
          1   -1    0    0  501    0  0.00000000000E+00  0.00000000000E+00  0.88017247273E+03  0.88017247273E+03  0.00000000000E+00 0. -1.
         -2   -1    0    0    0  501 -0.00000000000E+00 -0.00000000000E+00 -0.76872638856E+03  0.76872638856E+03  0.00000000000E+00 0.  1.
        -24    2    1    2    0    0 -0.36878628575E+03 -0.43896947821E+03  0.51552891276E+02  0.58102906596E+03  0.78990806622E+02 0.  0.
        254    2    1    2    0    0  0.36878628575E+03  0.43896947821E+03  0.59893192891E+02  0.10678697953E+04  0.89892223126E+03 0.  0.
         23    2    4    4    0    0 -0.19324690155E+03  0.43983954114E+03  0.92556333489E+02  0.49759511972E+03  0.90725086872E+02 0.  0.
         23    2    4    4    0    0  0.56203318730E+03 -0.87006292486E+00 -0.32663140598E+02  0.57027467561E+03  0.90907998858E+02 0.  0.
          1    1    3    3  502    0 -0.18550047594E+02 -0.52408419280E+02  0.17533240149E+02  0.58293749127E+02  0.00000000000E+00 0. -1.
         -2    1    3    3    0  502 -0.35023623815E+03 -0.38656105894E+03  0.34019651127E+02  0.52273531683E+03  0.00000000000E+00 0.  1.
         11    1    5    5    0    0  0.36235679770E+01  0.47207085500E+02  0.23902371770E+02  0.53037369302E+02  0.00000000000E+00 0.  1.
        -11    1    5    5    0    0 -0.19687046953E+03  0.39263245564E+03  0.68653961719E+02  0.44455775041E+03  0.00000000000E+00 0. -1.
          2    1    6    6  503    0  0.43067514071E+03  0.20525131109E+02 -0.57203453249E+02  0.43494205694E+03  0.00000000000E+00 0. -1.
         -2    1    6    6    0  503  0.13135804659E+03 -0.21395194034E+02  0.24540312651E+02  0.13533261867E+03  0.00000000000E+00 0.  1.
<mgrwt>
<rscale>  0 0.16451283E+04</rscale>
<asrwt>0</asrwt>
<pdfrwt beam="1">  1        1 0.13541115E+00 0.16451283E+04</pdfrwt>
<pdfrwt beam="2">  1       -2 0.11826560E+00 0.16451283E+04</pdfrwt>
<totfact> 0.87135790E+00</totfact>
</mgrwt>
</event>
<event>
12    4  0.4398275E-008  0.2264358E+04  0.7818608E-02  0.8492108E-01
          1   -1    0    0  501    0  0.00000000000E+00  0.00000000000E+00  0.26563267906E+04  0.26563267906E+04  0.00000000000E+00 0. -1.
         -2   -1    0    0    0  501 -0.00000000000E+00 -0.00000000000E+00 -0.48255724962E+03  0.48255724962E+03  0.00000000000E+00 0.  1.
        -24    2    1    2    0    0 -0.54231714400E+03  0.71237178266E+03  0.13718809746E+04  0.16401292914E+04  0.79907712505E+02 0.  0.
        254    2    1    2    0    0  0.54231714400E+03 -0.71237178266E+03  0.80188856636E+03  0.14987547488E+04  0.89535416620E+03 0.  0.
         23    2    4    4    0    0  0.74966853442E+03 -0.38279553733E+03  0.41959071484E+03  0.94486634743E+03  0.90447286465E+02 0.  0.
         23    2    4    4    0    0 -0.20735139042E+03 -0.32957624532E+03  0.38229785152E+03  0.55388840142E+03  0.95003228109E+02 0.  0.
          1    1    3    3  502    0 -0.54420561201E+03  0.70351062754E+03  0.13526759613E+04  0.16188944399E+04  0.00000000000E+00 0. -1.
         -2    1    3    3    0  502  0.18884680154E+01  0.88611551158E+01  0.19205013311E+02  0.21234851488E+02  0.00000000000E+00 0.  1.
         11    1    5    5    0    0  0.54610893593E+03 -0.23244091045E+03  0.29572118797E+03  0.66310992133E+03  0.00000000000E+00 0. -1.
        -11    1    5    5    0    0  0.20355959849E+03 -0.15035462688E+03  0.12386952686E+03  0.28175642610E+03  0.00000000000E+00 0.  1.
          1    1    6    6  503    0 -0.19554791127E+03 -0.29747696610E+03  0.37828573704E+03  0.51945320272E+03  0.00000000000E+00 0. -1.
         -1    1    6    6    0  503 -0.11803479152E+02 -0.32099279228E+02  0.40121144821E+01  0.34435198702E+02  0.00000000000E+00 0.  1.
<mgrwt>
<rscale>  0 0.22643584E+04</rscale>
<asrwt>0</asrwt>
<pdfrwt beam="1">  1        1 0.40866565E+00 0.22643584E+04</pdfrwt>
<pdfrwt beam="2">  1       -2 0.74239578E-01 0.22643584E+04</pdfrwt>
<totfact> 0.13712215E+00</totfact>
</mgrwt>
</event>
<event>
12    4  0.4398275E-008  0.1175204E+04  0.7818608E-02  0.9134842E-01
          3   -1    0    0  501    0  0.00000000000E+00  0.00000000000E+00  0.37398756900E+03  0.37398756900E+03  0.00000000000E+00 0. -1.
         -4   -1    0    0    0  501 -0.00000000000E+00 -0.00000000000E+00 -0.92322855907E+03  0.92322855907E+03  0.00000000000E+00 0.  1.
        -24    2    1    2    0    0 -0.39418542580E+02 -0.14781987294E+03  0.81371383825E+02  0.19035281535E+03  0.78793120688E+02 0.  0.
        254    2    1    2    0    0  0.39418542580E+02  0.14781987294E+03 -0.63061237389E+03  0.11068633127E+04  0.89669944274E+03 0.  0.
         23    2    4    4    0    0 -0.11838853919E+03  0.42467119762E+03 -0.70683589299E+02  0.45622780643E+03  0.93734568150E+02 0.  0.
         23    2    4    4    0    0  0.15780708178E+03 -0.27685132468E+03 -0.55992878460E+03  0.65063550629E+03  0.90865764703E+02 0.  0.
          1    1    3    3  502    0 -0.35450448243E+02 -0.15292347737E+03  0.60049116768E+02  0.16807206977E+03  0.00000000000E+00 0. -1.
         -4    1    3    3    0  502 -0.39680943373E+01  0.51036044298E+01  0.21322267057E+02  0.22280745573E+02  0.00000000000E+00 0.  1.
         11    1    5    5    0    0 -0.60533044442E+02  0.24593058462E+03  0.59193418489E+01  0.25333997025E+03  0.00000000000E+00 0. -1.
        -11    1    5    5    0    0 -0.57855494753E+02  0.17874061300E+03 -0.76602931148E+02  0.20288783618E+03  0.00000000000E+00 0.  1.
          2    1    6    6  503    0  0.75912829156E+02 -0.15640112400E+03 -0.38889918985E+03  0.42598902460E+03  0.00000000000E+00 0. -1.
         -2    1    6    6    0  503  0.81894252619E+02 -0.12045020068E+03 -0.17102959475E+03  0.22464648169E+03  0.00000000000E+00 0.  1.
<mgrwt>
<rscale>  0 0.11752038E+04</rscale>
<asrwt>0</asrwt>
<pdfrwt beam="1">  1        3 0.57536549E-01 0.11752038E+04</pdfrwt>
<pdfrwt beam="2">  1       -4 0.14203516E+00 0.11752038E+04</pdfrwt>
<totfact> 0.23052187E+00</totfact>
</mgrwt>
</event>
<event>
12    4  0.4398275E-008  0.2631058E+04  0.7818608E-02  0.8357727E-01
         -2   -1    0    0    0  501 -0.00000000000E+00  0.00000000000E+00  0.89480660251E+03  0.89480660251E+03  0.00000000000E+00 0.  1.
          1   -1    0    0  501    0  0.00000000000E+00 -0.00000000000E+00 -0.19340684347E+04  0.19340684347E+04  0.00000000000E+00 0. -1.
        -24    2    1    2    0    0  0.10099873900E+04  0.55593024892E+03 -0.51084393184E+03  0.12635244022E+04  0.79996391079E+02 0.  0.
        254    2    1    2    0    0 -0.10099873900E+04 -0.55593024892E+03 -0.52841790040E+03  0.15653506351E+04  0.91758605244E+03 0.  0.
         23    2    4    4    0    0  0.13209298702E+03 -0.38180552943E+02  0.67770639573E+02  0.17400891941E+03  0.82340346140E+02 0.  0.
         23    2    4    4    0    0 -0.11420803770E+04 -0.51774969598E+03 -0.59618853997E+03  0.13913417157E+04  0.89323341254E+02 0.  0.
          1    1    3    3  502    0  0.12083680449E+03  0.49542060653E+02 -0.35961069504E+02  0.13545902559E+03  0.00000000000E+00 0. -1.
         -2    1    3    3    0  502  0.88915058551E+03  0.50638818827E+03 -0.47488286234E+03  0.11280653766E+04  0.00000000000E+00 0.  1.
         11    1    5    5    0    0  0.75535465716E+02 -0.21710596766E+02  0.81817255210E+02  0.11345051716E+03  0.00000000000E+00 0.  1.
        -11    1    5    5    0    0  0.56557521305E+02 -0.16469956177E+02 -0.14046615636E+02  0.60558402253E+02  0.00000000000E+00 0. -1.
          1    1    6    6  503    0 -0.58003238806E+02 -0.66782072560E+01 -0.22033088514E+02  0.62405377602E+02  0.00000000000E+00 0. -1.
         -1    1    6    6    0  503 -0.10840771382E+04 -0.51107148872E+03 -0.57415545146E+03  0.13289363381E+04  0.00000000000E+00 0.  1.
<mgrwt>
<rscale>  0 0.26310585E+04</rscale>
<asrwt>0</asrwt>
<pdfrwt beam="1">  1        1 0.29754899E+00 0.26310585E+04</pdfrwt>
<pdfrwt beam="2">  1       -2 0.13766256E+00 0.26310585E+04</pdfrwt>
<totfact> 0.95675510E-01</totfact>
</mgrwt>
</event>
<event>
12    4  0.4398275E-008  0.1229616E+04  0.7818608E-02  0.9087322E-01
          1   -1    0    0  501    0  0.00000000000E+00  0.00000000000E+00  0.11043520587E+04  0.11043520587E+04  0.00000000000E+00 0. -1.
         -2   -1    0    0    0  501 -0.00000000000E+00 -0.00000000000E+00 -0.34227190946E+03  0.34227190946E+03  0.00000000000E+00 0.  1.
        -24    2    1    2    0    0  0.90375292070E+02  0.21956755829E+01 -0.13088044791E+03  0.17817621789E+03  0.80278008008E+02 0.  0.
        254    2    1    2    0    0 -0.90375292070E+02 -0.21956755829E+01  0.89296059712E+03  0.12684477502E+04  0.89633060456E+03 0.  0.
         23    2    4    4    0    0 -0.25507133773E+03 -0.27544122497E+03  0.84951600020E+03  0.93335618084E+03  0.92450364899E+02 0.  0.
         23    2    4    4    0    0  0.16469604566E+03  0.27324554938E+03  0.43444596917E+02  0.33509156940E+03  0.92795523426E+02 0.  0.
          1    1    3    3  502    0  0.41620148824E+02  0.12961561830E+02 -0.64044404382E+01  0.44059683732E+02  0.00000000000E+00 0. -1.
         -2    1    3    3    0  502  0.48755143246E+02 -0.10765886247E+02 -0.12447600747E+03  0.13411653416E+03  0.00000000000E+00 0.  1.
         11    1    5    5    0    0 -0.27369532255E+02 -0.55367771692E+02  0.78808475797E+02  0.10012720557E+03  0.00000000000E+00 0.  1.
        -11    1    5    5    0    0 -0.22770180547E+03 -0.22007345327E+03  0.77070752441E+03  0.83322897527E+03  0.00000000000E+00 0. -1.
          4    1    6    6  503    0  0.17537169722E+03  0.25211963537E+03  0.31932724040E+02  0.30877053226E+03  0.00000000000E+00 0. -1.
         -4    1    6    6    0  503 -0.10675651562E+02  0.21125914010E+02  0.11511872877E+02  0.26321037141E+02  0.00000000000E+00 0.  1.
<mgrwt>
<rscale>  0 0.12296157E+04</rscale>
<asrwt>0</asrwt>
<pdfrwt beam="1">  1        1 0.16990032E+00 0.12296157E+04</pdfrwt>
<pdfrwt beam="2">  1       -2 0.52657217E-01 0.12296157E+04</pdfrwt>
<totfact> 0.37076130E+01</totfact>
</mgrwt>
</event>
<event>
12    4  0.4398275E-008  0.1122724E+04  0.7818608E-02  0.9183322E-01
          1   -1    0    0  501    0  0.00000000000E+00  0.00000000000E+00  0.18214964879E+04  0.18214964879E+04  0.00000000000E+00 0. -1.
         -4   -1    0    0    0  501 -0.00000000000E+00 -0.00000000000E+00 -0.17300460242E+03  0.17300460242E+03  0.00000000000E+00 0.  1.
        -24    2    1    2    0    0 -0.24249032042E+03 -0.46000398189E+02  0.71021575248E+03  0.75709933711E+03  0.88743445085E+02 0.  0.
        254    2    1    2    0    0  0.24249032042E+03  0.46000398189E+02  0.93827613304E+03  0.12374017533E+04  0.76803867415E+03 0.  0.
         23    2    4    4    0    0  0.22665122544E+02  0.66471363428E+02 -0.11209368115E+03  0.16036651343E+03  0.90665734095E+02 0.  0.
         23    2    4    4    0    0  0.21982519788E+03 -0.20470965239E+02  0.10503698142E+04  0.10770352398E+04  0.89364328621E+02 0.  0.
          1    1    3    3  502    0 -0.12201480587E+03 -0.28046299024E+02  0.23211627470E+03  0.26372745917E+03  0.00000000000E+00 0. -1.
         -2    1    3    3    0  502 -0.12047551455E+03 -0.17954099165E+02  0.47809947778E+03  0.49337187794E+03  0.00000000000E+00 0.  1.
         11    1    5    5    0    0  0.36412184966E+02 -0.54144652133E+01 -0.60503821096E+02  0.70822849524E+02  0.00000000000E+00 0.  1.
        -11    1    5    5    0    0 -0.13747062422E+02  0.71885828642E+02 -0.51589860055E+02  0.89543663903E+02  0.00000000000E+00 0. -1.
          2    1    6    6  503    0  0.20481095966E+03 -0.32509699924E+02  0.10215131709E+04  0.10423500219E+04  0.00000000000E+00 0. -1.
         -2    1    6    6    0  503  0.15014238215E+02  0.12038734685E+02  0.28856643264E+02  0.34685217924E+02  0.00000000000E+00 0.  1.
<mgrwt>
<rscale>  0 0.11227240E+04</rscale>
<asrwt>0</asrwt>
<pdfrwt beam="1">  1        1 0.28023022E+00 0.11227240E+04</pdfrwt>
<pdfrwt beam="2">  1       -4 0.26616094E-01 0.11227240E+04</pdfrwt>
<totfact> 0.26355768E+01</totfact>
</mgrwt>
</event>
<event>
12    4  0.4398275E-008  0.1246135E+04  0.7818608E-02  0.9073406E-01
         -4   -1    0    0    0  501 -0.00000000000E+00  0.00000000000E+00  0.13905378036E+04  0.13905378036E+04  0.00000000000E+00 0.  1.
          3   -1    0    0  501    0  0.00000000000E+00 -0.00000000000E+00 -0.27918210866E+03  0.27918210866E+03  0.00000000000E+00 0. -1.
        -24    2    1    2    0    0  0.66079842656E+02  0.28369562556E+03  0.34461717626E+03  0.45826580251E+03  0.79979960046E+02 0.  0.
        254    2    1    2    0    0 -0.66079842656E+02 -0.28369562556E+03  0.76673851871E+03  0.12114541098E+04  0.89156230881E+03 0.  0.
         23    2    4    4    0    0 -0.50851782533E+02 -0.34869701606E+03  0.93812915946E+03  0.10061632464E+04  0.90014697048E+02 0.  0.
         23    2    4    4    0    0 -0.15228060123E+02  0.65001390501E+02 -0.17139064075E+03  0.20529086344E+03  0.91172980062E+02 0.  0.
          3    1    3    3  502    0  0.45890494208E+02  0.53622590583E+02  0.92535671456E+02  0.11637942332E+03  0.00000000000E+00 0. -1.
         -4    1    3    3    0  502  0.20189348448E+02  0.23007303497E+03  0.25208150481E+03  0.34188637919E+03  0.00000000000E+00 0.  1.
         11    1    5    5    0    0 -0.13659829586E+02 -0.29979973478E+03  0.73379473630E+03  0.79279328134E+03  0.00000000000E+00 0. -1.
        -11    1    5    5    0    0 -0.37191952947E+02 -0.48897281280E+02  0.20433442316E+03  0.21336996501E+03  0.00000000000E+00 0.  1.
          1    1    6    6  503    0 -0.43851229830E+01  0.80792783547E+02 -0.16710295461E+03  0.18566125232E+03  0.00000000000E+00 0. -1.
         -1    1    6    6    0  503 -0.10842937140E+02 -0.15791393045E+02 -0.42876861451E+01  0.19629611117E+02  0.00000000000E+00 0.  1.
<mgrwt>
<rscale>  0 0.12461353E+04</rscale>
<asrwt>0</asrwt>
<pdfrwt beam="1">  1        3 0.42951094E-01 0.12461353E+04</pdfrwt>
<pdfrwt beam="2">  1       -4 0.21392889E+00 0.12461353E+04</pdfrwt>
<totfact> 0.12971582E+00</totfact>
</mgrwt>
</event>
<event>
12    4  0.4398275E-008  0.1829039E+04  0.7818608E-02  0.8691008E-01
          1   -1    0    0  501    0  0.00000000000E+00  0.00000000000E+00  0.78481888527E+03  0.78481888527E+03  0.00000000000E+00 0. -1.
         -2   -1    0    0    0  501 -0.00000000000E+00 -0.00000000000E+00 -0.10656542015E+04  0.10656542015E+04  0.00000000000E+00 0.  1.
        -24    2    1    2    0    0 -0.15980958077E+03  0.57605442170E+03  0.24712385857E+03  0.65212202354E+03  0.82553820334E+02 0.  0.
        254    2    1    2    0    0  0.15980958077E+03 -0.57605442170E+03 -0.52795917478E+03  0.11983510632E+04  0.89438614793E+03 0.  0.
         23    2    4    4    0    0 -0.15850082066E+03 -0.51985883014E+03  0.24978871186E+02  0.55123831423E+03  0.88679319184E+02 0.  0.
         23    2    4    4    0    0  0.31831040143E+03 -0.56195591563E+02 -0.55293804596E+03  0.64711274898E+03  0.92384907052E+02 0.  0.
          3    1    3    3  502    0 -0.13931375282E+03  0.55237729859E+03  0.24671425750E+03  0.62080345245E+03  0.00000000000E+00 0. -1.
         -4    1    3    3    0  502 -0.20495827956E+02  0.23677123108E+02  0.40960107062E+00  0.31318571093E+02  0.00000000000E+00 0.  1.
         11    1    5    5    0    0 -0.15952748904E+03 -0.52244517697E+03  0.28195179616E+02  0.54698532965E+03  0.00000000000E+00 0. -1.
        -11    1    5    5    0    0  0.10266683808E+01  0.25863468358E+01 -0.32163084301E+01  0.42529845799E+01  0.00000000000E+00 0.  1.
          3    1    6    6  503    0  0.21725609869E+03 -0.24518172759E+02 -0.44548056110E+03  0.49624014703E+03  0.00000000000E+00 0. -1.
         -3    1    6    6    0  503  0.10105430274E+03 -0.31677418804E+02 -0.10745748487E+03  0.15087260195E+03  0.00000000000E+00 0.  1.
<mgrwt>
<rscale>  0 0.18290386E+04</rscale>
<asrwt>0</asrwt>
<pdfrwt beam="1">  1        1 0.12074137E+00 0.18290386E+04</pdfrwt>
<pdfrwt beam="2">  1       -2 0.16394680E+00 0.18290386E+04</pdfrwt>
<totfact> 0.44276426E+00</totfact>
</mgrwt>
</event>
<event>
12    4  0.4398275E-008  0.2331701E+04  0.7818608E-02  0.8465526E-01
          1   -1    0    0  501    0  0.00000000000E+00  0.00000000000E+00  0.15419366846E+04  0.15419366846E+04  0.00000000000E+00 0. -1.
         -2   -1    0    0    0  501 -0.00000000000E+00 -0.00000000000E+00 -0.88149389914E+03  0.88149389914E+03  0.00000000000E+00 0.  1.
        -24    2    1    2    0    0  0.61326020192E+03  0.56489875888E+03  0.83762903339E+03  0.11843369386E+04  0.76373447742E+02 0.  0.
        254    2    1    2    0    0 -0.61326020192E+03 -0.56489875888E+03 -0.17718624791E+03  0.12390936452E+04  0.89931052034E+03 0.  0.
         23    2    4    4    0    0 -0.26049026119E+02 -0.33156840949E+03  0.28805274597E+03  0.44903184443E+03  0.89660754599E+02 0.  0.
         23    2    4    4    0    0 -0.58721117580E+03 -0.23333034939E+03 -0.46523899388E+03  0.79006180074E+03  0.92142881536E+02 0.  0.
          1    1    3    3  502    0  0.39694794401E+03  0.37592297658E+03  0.59831701749E+03  0.81047455728E+03  0.00000000000E+00 0. -1.
         -2    1    3    3    0  502  0.21631225791E+03  0.18897578229E+03  0.23931201591E+03  0.37386238133E+03  0.00000000000E+00 0.  1.
         11    1    5    5    0    0 -0.56193995475E+02 -0.18077175028E+03  0.13885799156E+03  0.23477166066E+03  0.00000000000E+00 0. -1.
        -11    1    5    5    0    0  0.30144969355E+02 -0.15079665921E+03  0.14919475441E+03  0.21426018377E+03  0.00000000000E+00 0.  1.
          2    1    6    6  503    0 -0.61404364244E-01  0.22848316395E+01 -0.10965650616E+02  0.11201326687E+02  0.00000000000E+00 0. -1.
         -2    1    6    6    0  503 -0.58714977144E+03 -0.23561518103E+03 -0.45427334327E+03  0.77886047405E+03  0.00000000000E+00 0.  1.
<mgrwt>
<rscale>  0 0.23317013E+04</rscale>
<asrwt>0</asrwt>
<pdfrwt beam="1">  1        1 0.23722103E+00 0.23317013E+04</pdfrwt>
<pdfrwt beam="2">  1       -2 0.13561445E+00 0.23317013E+04</pdfrwt>
<totfact> 0.18885439E+00</totfact>
</mgrwt>
</event>
<event>
12    4  0.4398275E-008  0.1379397E+04  0.7818608E-02  0.8968868E-01
          1   -1    0    0  501    0  0.00000000000E+00  0.00000000000E+00  0.52271611229E+03  0.52271611229E+03  0.00000000000E+00 0. -1.
         -2   -1    0    0    0  501 -0.00000000000E+00 -0.00000000000E+00 -0.91002380454E+03  0.91002380454E+03  0.00000000000E+00 0.  1.
        -24    2    1    2    0    0 -0.16944275081E+03  0.19973511726E+03  0.84157643403E+02  0.28535798995E+03  0.75774076144E+02 0.  0.
        254    2    1    2    0    0  0.16944275081E+03 -0.19973511726E+03 -0.47146533566E+03  0.11473819269E+04  0.10127194876E+04 0.  0.
         23    2    4    4    0    0 -0.23721366315E+03 -0.46913260952E+03 -0.34648571601E+03  0.63578329371E+03  0.88387317314E+02 0.  0.
         23    2    4    4    0    0  0.40665641397E+03  0.26939749226E+03 -0.12497961966E+03  0.51159863316E+03  0.90381459778E+02 0.  0.
          3    1    3    3  502    0 -0.88260640696E+02  0.14923186172E+03  0.76305005277E+02  0.18942688056E+03  0.00000000000E+00 0. -1.
         -4    1    3    3    0  502 -0.81182110118E+02  0.50503255540E+02  0.78526381259E+01  0.95931109391E+02  0.00000000000E+00 0.  1.
         11    1    5    5    0    0 -0.17785111347E+03 -0.36469132444E+03 -0.22086306403E+03  0.46196458061E+03  0.00000000000E+00 0.  1.
        -11    1    5    5    0    0 -0.59362549680E+02 -0.10444128508E+03 -0.12562265198E+03  0.17381871310E+03  0.00000000000E+00 0. -1.
          2    1    6    6  503    0  0.22323175394E+03  0.99373641022E+02 -0.40977880188E+02  0.24776344194E+03  0.00000000000E+00 0. -1.
         -2    1    6    6    0  503  0.18342466003E+03  0.17002385124E+03 -0.84001739467E+02  0.26383519123E+03  0.00000000000E+00 0.  1.
<mgrwt>
<rscale>  0 0.13793971E+04</rscale>
<asrwt>0</asrwt>
<pdfrwt beam="1">  1        1 0.80417864E-01 0.13793971E+04</pdfrwt>
<pdfrwt beam="2">  1       -2 0.14000366E+00 0.13793971E+04</pdfrwt>
<totfact> 0.12773715E+01</totfact>
</mgrwt>
</event>
<event>
12    4  0.4398275E-008  0.1657776E+04  0.7818608E-02  0.8785819E-01
         -2   -1    0    0    0  501 -0.00000000000E+00  0.00000000000E+00  0.64033757549E+03  0.64033757549E+03  0.00000000000E+00 0.  1.
          1   -1    0    0  501    0  0.00000000000E+00 -0.00000000000E+00 -0.10729584177E+04  0.10729584177E+04  0.00000000000E+00 0. -1.
        -24    2    1    2    0    0  0.53777026437E+03  0.18992022525E+03 -0.24976333377E+03  0.62761828121E+03  0.79097628340E+02 0.  0.
        254    2    1    2    0    0 -0.53777026437E+03 -0.18992022525E+03 -0.18285750849E+03  0.10856777120E+04  0.90553447024E+03 0.  0.
         23    2    4    4    0    0 -0.21376234065E+03  0.33931971673E+03 -0.20211094392E+03  0.45827551334E+03  0.91298433887E+02 0.  0.
         23    2    4    4    0    0 -0.32400792373E+03 -0.52923994198E+03  0.19253435434E+02  0.62740219869E+03  0.90480789830E+02 0.  0.
          1    1    3    3  502    0  0.50830551142E+03  0.17281496600E+03 -0.21325635435E+03  0.57768311217E+03  0.00000000000E+00 0. -1.
         -2    1    3    3    0  502  0.29464752952E+02  0.17105259250E+02 -0.36506979424E+02  0.49935169042E+02  0.00000000000E+00 0.  1.
         11    1    5    5    0    0 -0.79428687934E+01  0.74576414525E+02 -0.49385876357E+02  0.89798082115E+02  0.00000000000E+00 0.  1.
        -11    1    5    5    0    0 -0.20581947185E+03  0.26474330220E+03 -0.15272506756E+03  0.36847743122E+03  0.00000000000E+00 0. -1.
          2    1    6    6  503    0 -0.30964377616E+03 -0.51167676106E+03  0.67027915765E+00  0.59807426395E+03  0.00000000000E+00 0. -1.
         -2    1    6    6    0  503 -0.14364147561E+02 -0.17563180918E+02  0.18583156276E+02  0.29327934743E+02  0.00000000000E+00 0.  1.
<mgrwt>
<rscale>  0 0.16577763E+04</rscale>
<asrwt>0</asrwt>
<pdfrwt beam="1">  1        1 0.16507053E+00 0.16577763E+04</pdfrwt>
<pdfrwt beam="2">  1       -2 0.98513474E-01 0.16577763E+04</pdfrwt>
<totfact> 0.95244547E+00</totfact>
</mgrwt>
</event>
<event>
12    4  0.4398275E-008  0.1378426E+04  0.7818608E-02  0.8969584E-01
         -2   -1    0    0    0  501 -0.00000000000E+00  0.00000000000E+00  0.68667567794E+03  0.68667567794E+03  0.00000000000E+00 0.  1.
          1   -1    0    0  501    0  0.00000000000E+00 -0.00000000000E+00 -0.69176001028E+03  0.69176001028E+03  0.00000000000E+00 0. -1.
        -24    2    1    2    0    0  0.10102969831E+02  0.13833259523E+03  0.36392127444E+03  0.39763260284E+03  0.80218551164E+02 0.  0.
        254    2    1    2    0    0 -0.10102969831E+02 -0.13833259523E+03 -0.36900560678E+03  0.98080308538E+03  0.89809330114E+03 0.  0.
         23    2    4    4    0    0 -0.13809210470E+03  0.35127454385E+03 -0.10208882130E+03  0.40157836440E+03  0.91541361038E+02 0.  0.
         23    2    4    4    0    0  0.12798913486E+03 -0.48960713908E+03 -0.26691678548E+03  0.57922472098E+03  0.90334587756E+02 0.  0.
          3    1    3    3  502    0  0.22055684439E+02  0.12380008242E+01  0.40074452659E+02  0.45759672399E+02  0.00000000000E+00 0. -1.
         -4    1    3    3    0  502 -0.11952714608E+02  0.13709459440E+03  0.32384682178E+03  0.35187293044E+03  0.00000000000E+00 0.  1.
         11    1    5    5    0    0 -0.82555613934E+02  0.28364935840E+03 -0.10632128159E+03  0.31396911127E+03  0.00000000000E+00 0.  1.
        -11    1    5    5    0    0 -0.55536490762E+02  0.67625185453E+02  0.42324602916E+01  0.87609253129E+02  0.00000000000E+00 0. -1.
          1    1    6    6  503    0 -0.61000735980E+01 -0.19891767559E+02 -0.29515232087E+02  0.36111525026E+02  0.00000000000E+00 0. -1.
         -1    1    6    6    0  503  0.13408920846E+03 -0.46971537152E+03 -0.23740155340E+03  0.54311319596E+03  0.00000000000E+00 0.  1.
<mgrwt>
<rscale>  0 0.13784263E+04</rscale>
<asrwt>0</asrwt>
<pdfrwt beam="1">  1        1 0.10642462E+00 0.13784263E+04</pdfrwt>
<pdfrwt beam="2">  1       -2 0.10564241E+00 0.13784263E+04</pdfrwt>
<totfact> 0.17183558E+01</totfact>
</mgrwt>
</event>
<event>
12    4  0.4398275E-008  0.2106178E+04  0.7818608E-02  0.8558527E-01
          1   -1    0    0  501    0  0.00000000000E+00  0.00000000000E+00  0.13292894517E+04  0.13292894517E+04  0.00000000000E+00 0. -1.
         -2   -1    0    0    0  501 -0.00000000000E+00 -0.00000000000E+00 -0.83427779289E+03  0.83427779289E+03  0.00000000000E+00 0.  1.
        -24    2    1    2    0    0  0.70052055357E+03 -0.47093458994E+03  0.33493139909E+03  0.91135911054E+03  0.76732993458E+02 0.  0.
        254    2    1    2    0    0 -0.70052055357E+03  0.47093458994E+03  0.16008025967E+03  0.12522081340E+04  0.91098358238E+03 0.  0.
         23    2    4    4    0    0 -0.66781187109E+02  0.37060945386E+03  0.40375303737E+03  0.55982723430E+03  0.92622474785E+02 0.  0.
         23    2    4    4    0    0 -0.63373936646E+03  0.10032513609E+03 -0.24367277770E+03  0.69238089971E+03  0.91236890379E+02 0.  0.
          1    1    3    3  502    0  0.51212994963E+03 -0.38386245747E+03  0.25572901283E+03  0.68922042887E+03  0.00000000000E+00 0. -1.
         -2    1    3    3    0  502  0.18839060393E+03 -0.87072132478E+02  0.79202386257E+02  0.22213868167E+03  0.00000000000E+00 0.  1.
         11    1    5    5    0    0  0.17965223749E+02  0.63743581142E+02  0.99076151782E+02  0.11917246852E+03  0.00000000000E+00 0.  1.
        -11    1    5    5    0    0 -0.84746410859E+02  0.30686587272E+03  0.30467688559E+03  0.44065476578E+03  0.00000000000E+00 0. -1.
          2    1    6    6  503    0 -0.18204651379E+02  0.75349896318E+01 -0.26655958309E+02  0.33147028735E+02  0.00000000000E+00 0. -1.
         -2    1    6    6    0  503 -0.61553471508E+03  0.92790146454E+02 -0.21701681939E+03  0.65923387098E+03  0.00000000000E+00 0.  1.
<mgrwt>
<rscale>  0 0.21061782E+04</rscale>
<asrwt>0</asrwt>
<pdfrwt beam="1">  1        1 0.20450607E+00 0.21061782E+04</pdfrwt>
<pdfrwt beam="2">  1       -2 0.12835043E+00 0.21061782E+04</pdfrwt>
<totfact> 0.31191601E+00</totfact>
</mgrwt>
</event>
<event>
12    4  0.4398275E-008  0.1145113E+04  0.7818608E-02  0.9162304E-01
          1   -1    0    0  501    0  0.00000000000E+00  0.00000000000E+00  0.13271934901E+04  0.13271934901E+04  0.00000000000E+00 0. -1.
         -2   -1    0    0    0  501 -0.00000000000E+00 -0.00000000000E+00 -0.24700308505E+03  0.24700308505E+03  0.00000000000E+00 0.  1.
        -24    2    1    2    0    0 -0.10958086367E+03 -0.82023543980E+02  0.17251981976E+01  0.15988930006E+03  0.82618306166E+02 0.  0.
        254    2    1    2    0    0  0.10958086367E+03  0.82023543980E+02  0.10784652068E+04  0.14143072751E+04  0.90467786449E+03 0.  0.
         23    2    4    4    0    0  0.32340044581E+03  0.39744874474E+03  0.57567012105E+03  0.77685316485E+03  0.97731256139E+02 0.  0.
         23    2    4    4    0    0 -0.21381958214E+03 -0.31542520076E+03  0.50279508577E+03  0.63745411021E+03  0.91285121258E+02 0.  0.
          3    1    3    3  502    0 -0.11050715804E+03 -0.39996828631E+02 -0.31902738909E+01  0.11756596500E+03  0.00000000000E+00 0. -1.
         -4    1    3    3    0  502  0.92629437265E+00 -0.42026715349E+02  0.49154720885E+01  0.42323335054E+02  0.00000000000E+00 0.  1.
         11    1    5    5    0    0  0.70909458238E+02  0.83078836301E+02  0.18846767569E+03  0.21783091858E+03  0.00000000000E+00 0. -1.
        -11    1    5    5    0    0  0.25249098757E+03  0.31436990844E+03  0.38720244536E+03  0.55902224627E+03  0.00000000000E+00 0.  1.
          2    1    6    6  503    0 -0.20861518049E+02 -0.10200377263E+03  0.13607352024E+03  0.17133585578E+03  0.00000000000E+00 0. -1.
         -2    1    6    6    0  503 -0.19295806409E+03 -0.21342142813E+03  0.36672156554E+03  0.46611825443E+03  0.00000000000E+00 0.  1.
<mgrwt>
<rscale>  0 0.11451129E+04</rscale>
<asrwt>0</asrwt>
<pdfrwt beam="1">  1        1 0.20418361E+00 0.11451129E+04</pdfrwt>
<pdfrwt beam="2">  1       -2 0.38000475E-01 0.11451129E+04</pdfrwt>
<totfact> 0.49264593E+01</totfact>
</mgrwt>
</event>
<event>
12    4  0.4398275E-008  0.1633269E+04  0.7818608E-02  0.8800367E-01
         -2   -1    0    0    0  501 -0.00000000000E+00  0.00000000000E+00  0.68069320240E+03  0.68069320240E+03  0.00000000000E+00 0.  1.
          1   -1    0    0  501    0  0.00000000000E+00 -0.00000000000E+00 -0.97972411564E+03  0.97972411564E+03  0.00000000000E+00 0. -1.
        -24    2    1    2    0    0 -0.16063042754E+03  0.45389164452E+03  0.19393948677E+03  0.52509634171E+03  0.79334004893E+02 0.  0.
        254    2    1    2    0    0  0.16063042754E+03 -0.45389164452E+03 -0.49297040001E+03  0.11353209763E+04  0.90228274106E+03 0.  0.
         23    2    4    4    0    0 -0.13021972750E+03 -0.63285681437E+03 -0.41260962606E+03  0.77201492931E+03  0.91079210750E+02 0.  0.
         23    2    4    4    0    0  0.29085015504E+03  0.17896516986E+03 -0.80360773953E+02  0.36330604703E+03  0.94398543988E+02 0.  0.
          1    1    3    3  502    0 -0.97732521735E+02  0.19063400781E+03  0.56592460809E+02  0.22157544394E+03  0.00000000000E+00 0. -1.
         -2    1    3    3    0  502 -0.62897905807E+02  0.26325763671E+03  0.13734702596E+03  0.30352089777E+03  0.00000000000E+00 0.  1.
         11    1    5    5    0    0 -0.99960697746E+02 -0.59764954631E+03 -0.37924490643E+03  0.71484531219E+03  0.00000000000E+00 0. -1.
        -11    1    5    5    0    0 -0.30259029756E+02 -0.35207268058E+02 -0.33364719623E+02  0.57169617118E+02  0.00000000000E+00 0.  1.
          3    1    6    6  503    0  0.21585773961E+03  0.17511812246E+03 -0.50568881838E+02  0.28252102996E+03  0.00000000000E+00 0. -1.
         -3    1    6    6    0  503  0.74992415434E+02  0.38470474000E+01 -0.29791892114E+02  0.80785017065E+02  0.00000000000E+00 0.  1.
<mgrwt>
<rscale>  0 0.16332686E+04</rscale>
<asrwt>0</asrwt>
<pdfrwt beam="1">  1        1 0.15072679E+00 0.16332686E+04</pdfrwt>
<pdfrwt beam="2">  1       -2 0.10472203E+00 0.16332686E+04</pdfrwt>
<totfact> 0.97404649E+00</totfact>
</mgrwt>
</event>
<event>
12    4  0.4398275E-008  0.1364992E+04  0.7818608E-02  0.8979556E-01
          1   -1    0    0  501    0  0.00000000000E+00  0.00000000000E+00  0.22409346870E+04  0.22409346870E+04  0.00000000000E+00 0. -1.
         -2   -1    0    0    0  501 -0.00000000000E+00 -0.00000000000E+00 -0.20786016465E+03  0.20786016465E+03  0.00000000000E+00 0.  1.
        -24    2    1    2    0    0 -0.29638567892E+03  0.24060288473E+03  0.67142301204E+03  0.77609500915E+03  0.76028832235E+02 0.  0.
        254    2    1    2    0    0  0.29638567892E+03 -0.24060288473E+03  0.13616515103E+04  0.16726998425E+04  0.89336202558E+03 0.  0.
         23    2    4    4    0    0 -0.80220279400E+02 -0.39591885083E+03  0.24588180893E+03  0.48143817434E+03  0.90209877945E+02 0.  0.
         23    2    4    4    0    0  0.37660595832E+03  0.15531596610E+03  0.11157697014E+04  0.11912616682E+04  0.90593809632E+02 0.  0.
          1    1    3    3  502    0 -0.35309114440E+02  0.30841881073E+02  0.41199466453E+02  0.62412748912E+02  0.00000000000E+00 0. -1.
         -2    1    3    3    0  502 -0.26107656448E+03  0.20976100366E+03  0.63022354558E+03  0.71368226024E+03  0.00000000000E+00 0.  1.
         11    1    5    5    0    0 -0.27259324276E+02 -0.32022063409E+03  0.19632571560E+03  0.37660073269E+03  0.00000000000E+00 0. -1.
        -11    1    5    5    0    0 -0.52960955124E+02 -0.75698216735E+02  0.49556093334E+02  0.10483744165E+03  0.00000000000E+00 0.  1.
          2    1    6    6  503    0  0.55786301856E+02  0.61334331386E+02  0.21070757796E+03  0.22643253982E+03  0.00000000000E+00 0. -1.
         -2    1    6    6    0  503  0.32081965646E+03  0.93981634709E+02  0.90506212344E+03  0.96482912835E+03  0.00000000000E+00 0.  1.
<mgrwt>
<rscale>  0 0.13649924E+04</rscale>
<asrwt>0</asrwt>
<pdfrwt beam="1">  1        1 0.34475917E+00 0.13649924E+04</pdfrwt>
<pdfrwt beam="2">  1       -2 0.31978488E-01 0.13649924E+04</pdfrwt>
<totfact> 0.15983495E+01</totfact>
</mgrwt>
</event>
<event>
12    4  0.4398275E-008  0.1887829E+04  0.7818608E-02  0.8660939E-01
         -2   -1    0    0    0  501 -0.00000000000E+00  0.00000000000E+00  0.68555429860E+03  0.68555429860E+03  0.00000000000E+00 0.  1.
          1   -1    0    0  501    0  0.00000000000E+00 -0.00000000000E+00 -0.12996409132E+04  0.12996409132E+04  0.00000000000E+00 0. -1.
        -24    2    1    2    0    0  0.40102963864E+03  0.25756764040E+03 -0.78008817706E+03  0.91727627558E+03  0.75447606363E+02 0.  0.
        254    2    1    2    0    0 -0.40102963864E+03 -0.25756764040E+03  0.16600156248E+03  0.10679189362E+04  0.94113148662E+03 0.  0.
         23    2    4    4    0    0 -0.39152379306E+03 -0.21385119407E+03  0.52511750962E+03  0.69513453964E+03  0.91871734278E+02 0.  0.
         23    2    4    4    0    0 -0.95058455826E+01 -0.43716446325E+02 -0.35911594714E+03  0.37278439656E+03  0.89456436581E+02 0.  0.
          1    1    3    3  502    0  0.18293530137E+03  0.15961476176E+03 -0.41758757066E+03  0.48303372121E+03  0.00000000000E+00 0. -1.
         -2    1    3    3    0  502  0.21809433727E+03  0.97952878636E+02 -0.36250060640E+03  0.43424255436E+03  0.00000000000E+00 0.  1.
         11    1    5    5    0    0 -0.17075988742E+03 -0.91586744938E+02  0.29896529679E+03  0.35626860609E+03  0.00000000000E+00 0.  1.
        -11    1    5    5    0    0 -0.22076390564E+03 -0.12226444914E+03  0.22615221283E+03  0.33886593355E+03  0.00000000000E+00 0. -1.
          1    1    6    6  503    0 -0.41052050537E+02 -0.89411198218E+01 -0.86604234410E+02  0.96257508251E+02  0.00000000000E+00 0. -1.
         -1    1    6    6    0  503  0.31546204955E+02 -0.34775326503E+02 -0.27251171273E+03  0.27652688831E+03  0.00000000000E+00 0.  1.
<mgrwt>
<rscale>  0 0.18878288E+04</rscale>
<asrwt>0</asrwt>
<pdfrwt beam="1">  1        1 0.19994476E+00 0.18878288E+04</pdfrwt>
<pdfrwt beam="2">  1       -2 0.10546989E+00 0.18878288E+04</pdfrwt>
<totfact> 0.54088206E+00</totfact>
</mgrwt>
</event>
<event>
12    4  0.4398275E-008  0.2165703E+04  0.7818608E-02  0.8532841E-01
         -2   -1    0    0    0  501 -0.00000000000E+00  0.00000000000E+00  0.76772030566E+03  0.76772030566E+03  0.00000000000E+00 0.  1.
          1   -1    0    0  501    0  0.00000000000E+00 -0.00000000000E+00 -0.15273362083E+04  0.15273362083E+04  0.00000000000E+00 0. -1.
        -24    2    1    2    0    0 -0.38706281836E+03  0.18465581500E+02 -0.11634898430E+04  0.12288833085E+04  0.79290402635E+02 0.  0.
        254    2    1    2    0    0  0.38706281836E+03 -0.18465581500E+02  0.40387394045E+03  0.10661732054E+04  0.90744285834E+03 0.  0.
         23    2    4    4    0    0  0.80790201433E+02  0.42264418662E+03  0.19533284379E+03  0.48277831245E+03  0.98817073336E+02 0.  0.
         23    2    4    4    0    0  0.30627261693E+03 -0.44110976812E+03  0.20854109666E+03  0.58339489298E+03  0.92084030935E+02 0.  0.
          1    1    3    3  502    0 -0.26599270148E+03 -0.73920201132E+01 -0.88448520338E+03  0.92364540501E+03  0.00000000000E+00 0. -1.
         -2    1    3    3    0  502 -0.12107011688E+03  0.25857601613E+02 -0.27900463967E+03  0.30523790348E+03  0.00000000000E+00 0.  1.
         11    1    5    5    0    0 -0.18319485028E+02  0.43522479810E+02  0.37599531921E+02  0.60361697964E+02  0.00000000000E+00 0. -1.
        -11    1    5    5    0    0  0.99109686460E+02  0.37912170681E+03  0.15773331187E+03  0.42241661449E+03  0.00000000000E+00 0.  1.
          2    1    6    6  503    0  0.17696170903E+02 -0.18973908305E+02  0.34655999574E+02  0.43292054322E+02  0.00000000000E+00 0. -1.
         -2    1    6    6    0  503  0.28857644602E+03 -0.42213585981E+03  0.17388509709E+03  0.54010283866E+03  0.00000000000E+00 0.  1.
<mgrwt>
<rscale>  0 0.21657027E+04</rscale>
<asrwt>0</asrwt>
<pdfrwt beam="1">  1        1 0.23497480E+00 0.21657027E+04</pdfrwt>
<pdfrwt beam="2">  1       -2 0.11811082E+00 0.21657027E+04</pdfrwt>
<totfact> 0.27768382E+00</totfact>
</mgrwt>
</event>
<event>
12    4  0.4398275E-008  0.2267568E+04  0.7818608E-02  0.8490819E-01
         -4   -1    0    0    0  501 -0.00000000000E+00  0.00000000000E+00  0.54504077101E+03  0.54504077101E+03  0.00000000000E+00 0.  1.
          3   -1    0    0  501    0  0.00000000000E+00 -0.00000000000E+00 -0.23584778320E+04  0.23584778320E+04  0.00000000000E+00 0. -1.
        -24    2    1    2    0    0 -0.18550781096E+03  0.22514198164E+03 -0.19281077312E+04  0.19516971439E+04  0.80126514002E+02 0.  0.
        254    2    1    2    0    0  0.18550781096E+03 -0.22514198164E+03  0.11467067029E+03  0.95182145912E+03  0.89872836140E+03 0.  0.
         23    2    4    4    0    0 -0.27489243749E+03 -0.30572313943E+03  0.20003298027E+03  0.46657434926E+03  0.92983547029E+02 0.  0.
         23    2    4    4    0    0  0.46040024845E+03  0.80581157787E+02 -0.85362309984E+02  0.48524710986E+03  0.98571405044E+02 0.  0.
          3    1    3    3  502    0 -0.18687637349E+03  0.19528809345E+03 -0.17978382561E+04  0.18180436225E+04  0.00000000000E+00 0. -1.
         -4    1    3    3    0  502  0.13685625234E+01  0.29853888194E+02 -0.13026947516E+03  0.13365352132E+03  0.00000000000E+00 0.  1.
         11    1    5    5    0    0 -0.22306848963E+03 -0.29267222192E+03  0.17147585868E+03  0.40598097328E+03  0.00000000000E+00 0.  1.
        -11    1    5    5    0    0 -0.51823947859E+02 -0.13050917507E+02  0.28557121597E+02  0.60593375986E+02  0.00000000000E+00 0. -1.
          1    1    6    6  503    0  0.12774077124E+03 -0.67898365706E+01 -0.57282345032E+02  0.14016088460E+03  0.00000000000E+00 0. -1.
         -1    1    6    6    0  503  0.33265947721E+03  0.87370994358E+02 -0.28079964952E+02  0.34508622526E+03  0.00000000000E+00 0.  1.
<mgrwt>
<rscale>  0 0.22675684E+04</rscale>
<asrwt>0</asrwt>
<pdfrwt beam="1">  1        3 0.36284274E+00 0.22675684E+04</pdfrwt>
<pdfrwt beam="2">  1       -4 0.83852427E-01 0.22675684E+04</pdfrwt>
<totfact> 0.45677664E-02</totfact>
</mgrwt>
</event>
<event>
12    4  0.4398275E-008  0.1758024E+04  0.7818608E-02  0.8728946E-01
          1   -1    0    0  501    0  0.00000000000E+00  0.00000000000E+00  0.16715318314E+04  0.16715318314E+04  0.00000000000E+00 0. -1.
         -2   -1    0    0    0  501 -0.00000000000E+00 -0.00000000000E+00 -0.46224770407E+03  0.46224770407E+03  0.00000000000E+00 0.  1.
        -24    2    1    2    0    0  0.47991844500E+03  0.89978032193E+01 -0.62235599874E+02  0.49042299148E+03  0.78985861842E+02 0.  0.
        254    2    1    2    0    0 -0.47991844500E+03 -0.89978032193E+01  0.12715197272E+04  0.16433565440E+04  0.92382662858E+03 0.  0.
         23    2    4    4    0    0 -0.18256957336E+03  0.37528799312E+03  0.98305889271E+03  0.10714158556E+04  0.85757928532E+02 0.  0.
         23    2    4    4    0    0 -0.29734887164E+03 -0.38428579634E+03  0.28846083452E+03  0.57194068835E+03  0.88400074680E+02 0.  0.
          1    1    3    3  502    0  0.17741159614E+03 -0.34789768047E+02 -0.21767839952E+02  0.18209624176E+03  0.00000000000E+00 0. -1.
         -2    1    3    3    0  502  0.30250684886E+03  0.43787571266E+02 -0.40467759922E+02  0.30832674973E+03  0.00000000000E+00 0.  1.
         11    1    5    5    0    0 -0.11577596804E+03  0.31461819828E+03  0.75091006147E+03  0.82234701063E+03  0.00000000000E+00 0.  1.
        -11    1    5    5    0    0 -0.66793605315E+02  0.60669794844E+02  0.23214883123E+03  0.24906884502E+03  0.00000000000E+00 0. -1.
          4    1    6    6  503    0 -0.23954611994E+03 -0.33786055145E+03  0.21136215255E+03  0.46497962895E+03  0.00000000000E+00 0.  1.
         -4    1    6    6    0  503 -0.57802751700E+02 -0.46425244888E+02  0.77098681966E+02  0.10696105940E+03  0.00000000000E+00 0. -1.
<mgrwt>
<rscale>  0 0.17580236E+04</rscale>
<asrwt>0</asrwt>
<pdfrwt beam="1">  1        1 0.25715874E+00 0.17580236E+04</pdfrwt>
<pdfrwt beam="2">  1       -2 0.71115032E-01 0.17580236E+04</pdfrwt>
<totfact> 0.74393742E+00</totfact>
</mgrwt>
</event>
<event>
12    4  0.4398275E-008  0.1569629E+04  0.7818608E-02  0.8839427E-01
          1   -1    0    0  501    0  0.00000000000E+00  0.00000000000E+00  0.33828194570E+04  0.33828194570E+04  0.00000000000E+00 0. -1.
         -4   -1    0    0    0  501 -0.00000000000E+00 -0.00000000000E+00 -0.18207697347E+03  0.18207697347E+03  0.00000000000E+00 0.  1.
        -24    2    1    2    0    0  0.11663449479E+03 -0.44630107248E+03  0.16207509925E+04  0.16871270179E+04  0.82313682030E+02 0.  0.
        254    2    1    2    0    0 -0.11663449479E+03  0.44630107248E+03  0.15799914911E+04  0.18777694126E+04  0.90380119625E+03 0.  0.
         23    2    4    4    0    0 -0.38554953151E+03  0.17491396263E+03  0.27018202214E+03  0.51013118939E+03  0.89398935862E+02 0.  0.
         23    2    4    4    0    0  0.26891503672E+03  0.27138710986E+03  0.13098094689E+04  0.13676382232E+04  0.94165834037E+02 0.  0.
          3    1    3    3  502    0  0.12367864161E+03 -0.44342681551E+03  0.16034898833E+04  0.16682636341E+04  0.00000000000E+00 0. -1.
         -4    1    3    3    0  502 -0.70441468201E+01 -0.28742569698E+01  0.17261109235E+02  0.18863383832E+02  0.00000000000E+00 0.  1.
         11    1    5    5    0    0 -0.16240362374E+02  0.19175061161E+02  0.41950752491E+02  0.48900899533E+02  0.00000000000E+00 0.  1.
        -11    1    5    5    0    0 -0.36930916913E+03  0.15573890147E+03  0.22823126965E+03  0.46123028986E+03  0.00000000000E+00 0. -1.
          4    1    6    6  503    0  0.18196051648E+03  0.14284983069E+03  0.65370527340E+03  0.69343080993E+03  0.00000000000E+00 0. -1.
         -4    1    6    6    0  503  0.86954520240E+02  0.12853727917E+03  0.65610419552E+03  0.67420741327E+03  0.00000000000E+00 0.  1.
<mgrwt>
<rscale>  0 0.15696287E+04</rscale>
<asrwt>0</asrwt>
<pdfrwt beam="1">  1        1 0.52043372E+00 0.15696287E+04</pdfrwt>
<pdfrwt beam="2">  1       -4 0.28011845E-01 0.15696287E+04</pdfrwt>
<totfact> 0.18429249E+00</totfact>
</mgrwt>
</event>
<event>
12    4  0.4398275E-008  0.1850059E+04  0.7818608E-02  0.8680122E-01
         -2   -1    0    0    0  501 -0.00000000000E+00  0.00000000000E+00  0.15748610744E+04  0.15748610744E+04  0.00000000000E+00 0.  1.
          1   -1    0    0  501    0  0.00000000000E+00 -0.00000000000E+00 -0.54333662053E+03  0.54333662053E+03  0.00000000000E+00 0. -1.
        -24    2    1    2    0    0  0.25876478113E+03  0.16507914497E+02  0.11467776922E+04  0.11783475697E+04  0.78563327723E+02 0.  0.
        254    2    1    2    0    0 -0.25876478113E+03 -0.16507914497E+02 -0.11525323837E+03  0.93985012520E+03  0.89599287145E+03 0.  0.
         23    2    4    4    0    0  0.21437767442E+03 -0.75850791249E+02 -0.32719950712E+03  0.41071143335E+03  0.99565225881E+02 0.  0.
         23    2    4    4    0    0 -0.47314245555E+03  0.59342876752E+02  0.21194626874E+03  0.52913869185E+03  0.87642307785E+02 0.  0.
          3    1    3    3  502    0  0.43205534074E+02  0.26938475668E+02  0.14778689530E+03  0.15631175922E+03  0.00000000000E+00 0. -1.
         -2    1    3    3    0  502  0.21555924706E+03 -0.10430561171E+02  0.99899079693E+03  0.10220358105E+04  0.00000000000E+00 0.  1.
         11    1    5    5    0    0  0.55691355941E+02 -0.69126902450E+02 -0.10336513036E+03  0.13625126033E+03  0.00000000000E+00 0.  1.
        -11    1    5    5    0    0  0.15868631847E+03 -0.67238887986E+01 -0.22383437676E+03  0.27446017301E+03  0.00000000000E+00 0. -1.
          4    1    6    6  503    0 -0.42932558917E+03  0.79274316846E+02  0.18738948461E+03  0.47509967140E+03  0.00000000000E+00 0.  1.
         -4    1    6    6    0  503 -0.43816866378E+02 -0.19931440094E+02  0.24556784139E+02  0.54039020445E+02  0.00000000000E+00 0. -1.
<mgrwt>
<rscale>  0 0.18500591E+04</rscale>
<asrwt>0</asrwt>
<pdfrwt beam="1">  1        1 0.83590250E-01 0.18500591E+04</pdfrwt>
<pdfrwt beam="2">  1       -2 0.24228632E+00 0.18500591E+04</pdfrwt>
<totfact> 0.23265217E+00</totfact>
</mgrwt>
</event>
<event>
12    4  0.4398275E-008  0.1320496E+04  0.7818608E-02  0.9013468E-01
         -2   -1    0    0    0  501 -0.00000000000E+00  0.00000000000E+00  0.92861167170E+03  0.92861167170E+03  0.00000000000E+00 0.  1.
          1   -1    0    0  501    0  0.00000000000E+00 -0.00000000000E+00 -0.46943971054E+03  0.46943971054E+03  0.00000000000E+00 0. -1.
        -24    2    1    2    0    0 -0.63014074226E+02 -0.35935517376E+03  0.11534401619E+03  0.39055233647E+03  0.78230243472E+02 0.  0.
        254    2    1    2    0    0  0.63014074226E+02  0.35935517376E+03  0.34382794497E+03  0.10074990458E+04  0.87391633298E+03 0.  0.
         23    2    4    4    0    0  0.34130367016E+03 -0.68341670011E+02 -0.42299349500E+02  0.36082526097E+03  0.85128460933E+02 0.  0.
         23    2    4    4    0    0 -0.27828959594E+03  0.42769684377E+03  0.38612729447E+03  0.64667378480E+03  0.93397039785E+02 0.  0.
          1    1    3    3  502    0 -0.49589812735E+02 -0.35386321367E+03  0.11691802082E+03  0.37596295976E+03  0.00000000000E+00 0. -1.
         -2    1    3    3    0  502 -0.13424261491E+02 -0.54919600858E+01 -0.15740046370E+01  0.14589376709E+02  0.00000000000E+00 0.  1.
         11    1    5    5    0    0  0.27090408747E+03 -0.79646332782E+02 -0.56897020804E+02  0.28804484705E+03  0.00000000000E+00 0. -1.
        -11    1    5    5    0    0  0.70399582696E+02  0.11304662771E+02  0.14597671304E+02  0.72780413928E+02  0.00000000000E+00 0.  1.
          3    1    6    6  503    0 -0.14344453359E+03  0.29882402457E+03  0.23027292221E+03  0.40360593477E+03  0.00000000000E+00 0. -1.
         -3    1    6    6    0  503 -0.13484506235E+03  0.12887281920E+03  0.15585437226E+03  0.24306785004E+03  0.00000000000E+00 0.  1.
<mgrwt>
<rscale>  0 0.13204957E+04</rscale>
<asrwt>0</asrwt>
<pdfrwt beam="1">  1        1 0.72221494E-01 0.13204957E+04</pdfrwt>
<pdfrwt beam="2">  1       -2 0.14286333E+00 0.13204957E+04</pdfrwt>
<totfact> 0.14113021E+01</totfact>
</mgrwt>
</event>
<event>
12    4  0.4398275E-008  0.2248767E+04  0.7818608E-02  0.8498400E-01
         -2   -1    0    0    0  501 -0.00000000000E+00  0.00000000000E+00  0.61687467219E+03  0.61687467219E+03  0.00000000000E+00 0.  1.
          1   -1    0    0  501    0  0.00000000000E+00 -0.00000000000E+00 -0.20494253933E+04  0.20494253933E+04  0.00000000000E+00 0. -1.
        -24    2    1    2    0    0  0.39050266856E+03  0.84811311345E+03 -0.46378806785E+03  0.10454346847E+04  0.77756804796E+02 0.  0.
        254    2    1    2    0    0 -0.39050266856E+03 -0.84811311345E+03 -0.96876265328E+03  0.16208653808E+04  0.90383367776E+03 0.  0.
         23    2    4    4    0    0 -0.38789559733E+03 -0.35026363774E+03 -0.97989468289E+03  0.11148243288E+04  0.97427327790E+02 0.  0.
         23    2    4    4    0    0 -0.26070712300E+01 -0.49784947571E+03  0.11132029613E+02  0.50604105203E+03  0.89959585174E+02 0.  0.
          1    1    3    3  502    0  0.50970399255E+02  0.15866511413E+03 -0.10774101718E+03  0.19844577805E+03  0.00000000000E+00 0. -1.
         -2    1    3    3    0  502  0.33953226931E+03  0.68944799932E+03 -0.35604705068E+03  0.84698890664E+03  0.00000000000E+00 0.  1.
         11    1    5    5    0    0 -0.24529645246E+03 -0.19622840249E+03 -0.49250723291E+03  0.58415692241E+03  0.00000000000E+00 0.  1.
        -11    1    5    5    0    0 -0.14259914488E+03 -0.15403523525E+03 -0.48738744998E+03  0.53066740640E+03  0.00000000000E+00 0. -1.
          2    1    6    6  503    0 -0.38222590129E+02 -0.12164625163E+03  0.12812180865E+02  0.12815197583E+03  0.00000000000E+00 0. -1.
         -2    1    6    6    0  503  0.35615518899E+02 -0.37620322409E+03 -0.16801512529E+01  0.37788907620E+03  0.00000000000E+00 0.  1.
<mgrwt>
<rscale>  0 0.22487673E+04</rscale>
<asrwt>0</asrwt>
<pdfrwt beam="1">  1        1 0.31529622E+00 0.22487673E+04</pdfrwt>
<pdfrwt beam="2">  1       -2 0.94903795E-01 0.22487673E+04</pdfrwt>
<totfact> 0.20551987E+00</totfact>
</mgrwt>
</event>
<event>
12    4  0.4398275E-008  0.1305524E+04  0.7818608E-02  0.9025196E-01
         -2   -1    0    0    0  501 -0.00000000000E+00  0.00000000000E+00  0.24320872644E+03  0.24320872644E+03  0.00000000000E+00 0.  1.
          1   -1    0    0  501    0  0.00000000000E+00 -0.00000000000E+00 -0.17519845806E+04  0.17519845806E+04  0.00000000000E+00 0. -1.
        -24    2    1    2    0    0  0.13573081516E+03  0.30232157993E+03 -0.44100766702E+03  0.55726977392E+03  0.78997763812E+02 0.  0.
        254    2    1    2    0    0 -0.13573081516E+03 -0.30232157993E+03 -0.10677681871E+04  0.14379235331E+04  0.90425327964E+03 0.  0.
         23    2    4    4    0    0  0.37346087730E+03 -0.16890423294E+03 -0.37426031743E+03  0.56245489972E+03  0.91011330280E+02 0.  0.
         23    2    4    4    0    0 -0.50919169246E+03 -0.13341734699E+03 -0.69350786970E+03  0.87546863339E+03  0.91737639824E+02 0.  0.
          3    1    3    3  502    0  0.15617795738E+02  0.83420389222E+02 -0.16175169276E+03  0.18266495831E+03  0.00000000000E+00 0. -1.
         -4    1    3    3    0  502  0.12011301942E+03  0.21890119070E+03 -0.27925597426E+03  0.37460481562E+03  0.00000000000E+00 0.  1.
         11    1    5    5    0    0  0.32100121669E+03 -0.17685897865E+03 -0.33386037736E+03  0.49576570173E+03  0.00000000000E+00 0. -1.
        -11    1    5    5    0    0  0.52459660609E+02  0.79547457079E+01 -0.40399940070E+02  0.66689197987E+02  0.00000000000E+00 0.  1.
          1    1    6    6  503    0 -0.21017721584E+03 -0.49916250094E+02 -0.35988935429E+03  0.41974568659E+03  0.00000000000E+00 0. -1.
         -1    1    6    6    0  503 -0.29901447661E+03 -0.83501096894E+02 -0.33361851541E+03  0.45572294679E+03  0.00000000000E+00 0.  1.
<mgrwt>
<rscale>  0 0.13055236E+04</rscale>
<asrwt>0</asrwt>
<pdfrwt beam="1">  1        1 0.26953609E+00 0.13055236E+04</pdfrwt>
<pdfrwt beam="2">  1       -2 0.37416727E-01 0.13055236E+04</pdfrwt>
<totfact> 0.25514163E+01</totfact>
</mgrwt>
</event>
<event>
12    4  0.4398275E-008  0.1466968E+04  0.7818608E-02  0.8906721E-01
          1   -1    0    0  501    0  0.00000000000E+00  0.00000000000E+00  0.99479460496E+03  0.99479460496E+03  0.00000000000E+00 0. -1.
         -2   -1    0    0    0  501 -0.00000000000E+00 -0.00000000000E+00 -0.54081370637E+03  0.54081370637E+03  0.00000000000E+00 0.  1.
        -24    2    1    2    0    0 -0.41987183137E+03 -0.15376029145E+03  0.50134077568E+02  0.45698121943E+03  0.79898855914E+02 0.  0.
        254    2    1    2    0    0  0.41987183137E+03  0.15376029145E+03  0.40384682102E+03  0.10786270919E+04  0.89465611635E+03 0.  0.
         23    2    4    4    0    0  0.47826451080E+03  0.11671124539E+03  0.64335317446E+03  0.81523057077E+03  0.91318778712E+02 0.  0.
         23    2    4    4    0    0 -0.58392679437E+02  0.37049046066E+02 -0.23950635344E+03  0.26339652112E+03  0.85041737840E+02 0.  0.
          3    1    3    3  502    0 -0.21154158505E+03 -0.71135504400E+02 -0.14727973691E+02  0.22366719786E+03  0.00000000000E+00 0. -1.
         -4    1    3    3    0  502 -0.20833024632E+03 -0.82624787055E+02  0.64862051259E+02  0.23331402157E+03  0.00000000000E+00 0.  1.
         11    1    5    5    0    0  0.42954042071E+03  0.85563513307E+02  0.60050099804E+03  0.74325469153E+03  0.00000000000E+00 0. -1.
        -11    1    5    5    0    0  0.48724090093E+02  0.31147732082E+02  0.42852176416E+02  0.71975879243E+02  0.00000000000E+00 0.  1.
          1    1    6    6  503    0 -0.60430708044E+02  0.27149207644E+02 -0.24363258579E+03  0.25247927996E+03  0.00000000000E+00 0. -1.
         -1    1    6    6    0  503  0.20380286063E+01  0.98998384215E+01  0.41262323437E+01  0.10917241168E+02  0.00000000000E+00 0.  1.
<mgrwt>
<rscale>  0 0.14669677E+04</rscale>
<asrwt>0</asrwt>
<pdfrwt beam="1">  1        1 0.15304532E+00 0.14669677E+04</pdfrwt>
<pdfrwt beam="2">  1       -2 0.83202109E-01 0.14669677E+04</pdfrwt>
<totfact> 0.16428616E+01</totfact>
</mgrwt>
</event>
<event>
12    4  0.4398275E-008  0.2336645E+04  0.7818608E-02  0.8463611E-01
          1   -1    0    0  501    0  0.00000000000E+00  0.00000000000E+00  0.62235404287E+03  0.62235404287E+03  0.00000000000E+00 0. -1.
         -2   -1    0    0    0  501 -0.00000000000E+00 -0.00000000000E+00 -0.21932489570E+04  0.21932489570E+04  0.00000000000E+00 0.  1.
        -24    2    1    2    0    0  0.85925177325E+03  0.31797197586E+03 -0.11449844782E+04  0.14686177751E+04  0.80180587516E+02 0.  0.
        254    2    1    2    0    0 -0.85925177325E+03 -0.31797197586E+03 -0.42591043589E+03  0.13469852248E+04  0.89081407099E+03 0.  0.
         23    2    4    4    0    0 -0.93292270558E+03 -0.47160362966E+03 -0.23656798612E+03  0.10756923467E+04  0.91623438774E+02 0.  0.
         23    2    4    4    0    0  0.73670932328E+02  0.15363165380E+03 -0.18934244976E+03  0.27129287810E+03  0.93376501885E+02 0.  0.
          1    1    3    3  502    0  0.80589349862E+03  0.28358217318E+03 -0.10397636565E+04  0.13457308949E+04  0.00000000000E+00 0. -1.
         -2    1    3    3    0  502  0.53358274639E+02  0.34389802678E+02 -0.10522082165E+03  0.12288688014E+03  0.00000000000E+00 0.  1.
         11    1    5    5    0    0 -0.13856394834E+03 -0.47651519320E+02 -0.81262141790E+01  0.14675377484E+03  0.00000000000E+00 0. -1.
        -11    1    5    5    0    0 -0.79435875725E+03 -0.42395211034E+03 -0.22844177194E+03  0.92893857184E+03  0.00000000000E+00 0.  1.
          3    1    6    6  503    0 -0.80033020579E+01 -0.67785221127E+01 -0.26726800517E+02  0.28711027006E+02  0.00000000000E+00 0. -1.
         -3    1    6    6    0  503  0.81674234386E+02  0.16041017591E+03 -0.16261564925E+03  0.24258185109E+03  0.00000000000E+00 0.  1.
<mgrwt>
<rscale>  0 0.23366449E+04</rscale>
<asrwt>0</asrwt>
<pdfrwt beam="1">  1        1 0.95746775E-01 0.23366449E+04</pdfrwt>
<pdfrwt beam="2">  1       -2 0.33742292E+00 0.23366449E+04</pdfrwt>
<totfact> 0.47879952E-01</totfact>
</mgrwt>
</event>
<event>
12    4  0.4398275E-008  0.1653664E+04  0.7818608E-02  0.8788242E-01
         -2   -1    0    0    0  501 -0.00000000000E+00  0.00000000000E+00  0.34964253470E+03  0.34964253470E+03  0.00000000000E+00 0.  1.
          1   -1    0    0  501    0  0.00000000000E+00 -0.00000000000E+00 -0.19552850026E+04  0.19552850026E+04  0.00000000000E+00 0. -1.
        -24    2    1    2    0    0 -0.16744019200E+03  0.55413354122E+03 -0.49463504061E+03  0.76562124640E+03  0.80074153949E+02 0.  0.
        254    2    1    2    0    0  0.16744019200E+03 -0.55413354122E+03 -0.11110074273E+04  0.15393062909E+04  0.89444181159E+03 0.  0.
         23    2    4    4    0    0 -0.26503626518E+03  0.40196102419E+01 -0.60012527520E+03  0.66255223901E+03  0.92545904029E+02 0.  0.
         23    2    4    4    0    0  0.43247645718E+03 -0.55815315146E+03 -0.51088215209E+03  0.87675405190E+03  0.95531501055E+02 0.  0.
          3    1    3    3  502    0 -0.16932746694E+02  0.56696902930E+02 -0.86543199344E+02  0.10483788469E+03  0.00000000000E+00 0. -1.
         -4    1    3    3    0  502 -0.15050744531E+03  0.49743663829E+03 -0.40809184127E+03  0.66078336171E+03  0.00000000000E+00 0.  1.
         11    1    5    5    0    0 -0.44575326564E+02 -0.12285684740E+02 -0.20146298055E+03  0.20670082322E+03  0.00000000000E+00 0. -1.
        -11    1    5    5    0    0 -0.22046093861E+03  0.16305294982E+02 -0.39866229465E+03  0.45585141579E+03  0.00000000000E+00 0.  1.
          4    1    6    6  503    0  0.16723025399E+03 -0.15360091142E+03 -0.13534086546E+03  0.26434134694E+03  0.00000000000E+00 0. -1.
         -4    1    6    6    0  503  0.26524620319E+03 -0.40455224005E+03 -0.37554128663E+03  0.61241270496E+03  0.00000000000E+00 0.  1.
<mgrwt>
<rscale>  0 0.16536636E+04</rscale>
<asrwt>0</asrwt>
<pdfrwt beam="1">  1        1 0.30081308E+00 0.16536636E+04</pdfrwt>
<pdfrwt beam="2">  1       -2 0.53791159E-01 0.16536636E+04</pdfrwt>
<totfact> 0.87287007E+00</totfact>
</mgrwt>
</event>
<event>
12    4  0.4398275E-008  0.1482133E+04  0.7818608E-02  0.8896422E-01
         -2   -1    0    0    0  501 -0.00000000000E+00  0.00000000000E+00  0.23471485979E+03  0.23471485979E+03  0.00000000000E+00 0.  1.
          1   -1    0    0  501    0  0.00000000000E+00 -0.00000000000E+00 -0.23397739192E+04  0.23397739192E+04  0.00000000000E+00 0. -1.
        -24    2    1    2    0    0  0.26780261219E+02 -0.22930191851E+03  0.29032491682E+02  0.24747980513E+03  0.84301934443E+02 0.  0.
        254    2    1    2    0    0 -0.26780261219E+02  0.22930191851E+03 -0.21340915510E+04  0.23270089738E+04  0.89851403094E+03 0.  0.
         23    2    4    4    0    0 -0.43814390738E+03  0.86193423312E+02 -0.80107195451E+03  0.92170305092E+03  0.91765178461E+02 0.  0.
         23    2    4    4    0    0  0.41136364616E+03  0.14310849519E+03 -0.13330195965E+04  0.14053059229E+04  0.90793179378E+02 0.  0.
          1    1    3    3  502    0 -0.22133560139E+02 -0.54754123173E+02 -0.15006205704E+02  0.60935167994E+02  0.00000000000E+00 0. -1.
         -2    1    3    3    0  502  0.48913821358E+02 -0.17454779533E+03  0.44038697386E+02  0.18654463713E+03  0.00000000000E+00 0.  1.
         11    1    5    5    0    0 -0.38602483102E+03  0.69857586046E+02 -0.75246978134E+03  0.84859061055E+03  0.00000000000E+00 0.  1.
        -11    1    5    5    0    0 -0.52119076356E+02  0.16335837266E+02 -0.48602173177E+02  0.73112440370E+02  0.00000000000E+00 0. -1.
          1    1    6    6  503    0  0.11295589831E+03 -0.62333883386E+00 -0.30497021044E+03  0.32521723935E+03  0.00000000000E+00 0. -1.
         -1    1    6    6    0  503  0.29840774785E+03  0.14373183403E+03 -0.10280493861E+04  0.10800886836E+04  0.00000000000E+00 0.  1.
<mgrwt>
<rscale>  0 0.14821332E+04</rscale>
<asrwt>0</asrwt>
<pdfrwt beam="1">  1        1 0.35996522E+00 0.14821332E+04</pdfrwt>
<pdfrwt beam="2">  1       -2 0.36109978E-01 0.14821332E+04</pdfrwt>
<totfact> 0.10746854E+01</totfact>
</mgrwt>
</event>
<event>
12    4  0.4398275E-008  0.1966437E+04  0.7818608E-02  0.8622475E-01
         -2   -1    0    0    0  501 -0.00000000000E+00  0.00000000000E+00  0.51889912085E+03  0.51889912085E+03  0.00000000000E+00 0.  1.
          1   -1    0    0  501    0  0.00000000000E+00 -0.00000000000E+00 -0.18630178155E+04  0.18630178155E+04  0.00000000000E+00 0. -1.
        -24    2    1    2    0    0  0.70178981568E+03 -0.33780651787E+03 -0.47601067103E+03  0.91649959200E+03  0.82238399160E+02 0.  0.
        254    2    1    2    0    0 -0.70178981568E+03  0.33780651787E+03 -0.86810802364E+03  0.14654173444E+04  0.88725095860E+03 0.  0.
         23    2    4    4    0    0 -0.62987657484E+03  0.28982350245E+03 -0.10402795376E+04  0.12538330608E+04  0.95779256372E+02 0.  0.
         23    2    4    4    0    0 -0.71913240837E+02  0.47983015418E+02  0.17217151397E+03  0.21158428353E+03  0.87469965349E+02 0.  0.
          1    1    3    3  502    0  0.16770921046E+03 -0.91711119898E+02 -0.78178120927E+02  0.20651665157E+03  0.00000000000E+00 0. -1.
         -2    1    3    3    0  502  0.53408060522E+03 -0.24609539797E+03 -0.39783255010E+03  0.70998294043E+03  0.00000000000E+00 0.  1.
         11    1    5    5    0    0 -0.56062288165E+03  0.22339339213E+03 -0.88097912373E+03  0.10678608709E+04  0.00000000000E+00 0.  1.
        -11    1    5    5    0    0 -0.69253693195E+02  0.66430110321E+02 -0.15930041387E+03  0.18597218996E+03  0.00000000000E+00 0. -1.
          4    1    6    6  503    0 -0.27686171238E+02 -0.19247069014E+02  0.92028457690E+02  0.98011278781E+02  0.00000000000E+00 0. -1.
         -4    1    6    6    0  503 -0.44227069599E+02  0.67230084432E+02  0.80143056281E+02  0.11357300475E+03  0.00000000000E+00 0.  1.
<mgrwt>
<rscale>  0 0.19664367E+04</rscale>
<asrwt>0</asrwt>
<pdfrwt beam="1">  1        1 0.28661813E+00 0.19664367E+04</pdfrwt>
<pdfrwt beam="2">  1       -2 0.79830633E-01 0.19664367E+04</pdfrwt>
<totfact> 0.41882195E+00</totfact>
</mgrwt>
</event>
<event>
12    4  0.4398275E-008  0.1874383E+04  0.7818608E-02  0.8667714E-01
         -2   -1    0    0    0  501 -0.00000000000E+00  0.00000000000E+00  0.92938415336E+03  0.92938415336E+03  0.00000000000E+00 0.  1.
          1   -1    0    0  501    0  0.00000000000E+00 -0.00000000000E+00 -0.94506472839E+03  0.94506472839E+03  0.00000000000E+00 0. -1.
        -24    2    1    2    0    0 -0.59699326888E+03  0.16653490592E+03 -0.37303152795E+03  0.72793983769E+03  0.81296054451E+02 0.  0.
        254    2    1    2    0    0  0.59699326888E+03 -0.16653490592E+03  0.35735095293E+03  0.11465090441E+04  0.89590649433E+03 0.  0.
         23    2    4    4    0    0  0.31212719673E+03 -0.50950085801E+03  0.71495613129E+02  0.60903833425E+03  0.93816622438E+02 0.  0.
         23    2    4    4    0    0  0.28486607215E+03  0.34296595208E+03  0.28585533980E+03  0.53747070981E+03  0.91581467901E+02 0.  0.
          3    1    3    3  502    0 -0.21762420686E+03  0.78815585097E+02 -0.18076018392E+03  0.29367743522E+03  0.00000000000E+00 0. -1.
         -4    1    3    3    0  502 -0.37936906202E+03  0.87719320825E+02 -0.19227134403E+03  0.43426240247E+03  0.00000000000E+00 0.  1.
         11    1    5    5    0    0  0.31423398153E+03 -0.50803471531E+03  0.63603437518E+02  0.60073926488E+03  0.00000000000E+00 0.  1.
        -11    1    5    5    0    0 -0.21067847961E+01 -0.14661426974E+01  0.78921756108E+01  0.82990693730E+01  0.00000000000E+00 0. -1.
          4    1    6    6  503    0 -0.98633243942E+00 -0.39010186040E+01  0.82478605882E+01  0.91770366738E+01  0.00000000000E+00 0. -1.
         -4    1    6    6    0  503  0.28585240459E+03  0.34686697069E+03  0.27760747921E+03  0.52829367314E+03  0.00000000000E+00 0.  1.
<mgrwt>
<rscale>  0 0.18743833E+04</rscale>
<asrwt>0</asrwt>
<pdfrwt beam="1">  1        1 0.14539457E+00 0.18743833E+04</pdfrwt>
<pdfrwt beam="2">  1       -2 0.14298218E+00 0.18743833E+04</pdfrwt>
<totfact> 0.46723300E+00</totfact>
</mgrwt>
</event>
<event>
12    4  0.4398275E-008  0.1627954E+04  0.7818608E-02  0.8803557E-01
          1   -1    0    0  501    0  0.00000000000E+00  0.00000000000E+00  0.18052692366E+04  0.18052692366E+04  0.00000000000E+00 0. -1.
         -2   -1    0    0    0  501 -0.00000000000E+00 -0.00000000000E+00 -0.36701351353E+03  0.36701351353E+03  0.00000000000E+00 0.  1.
        -24    2    1    2    0    0  0.55455602536E+03  0.88490098864E+02  0.48369263736E+03  0.74542236740E+03  0.79580497170E+02 0.  0.
        254    2    1    2    0    0 -0.55455602536E+03 -0.88490098864E+02  0.95456308573E+03  0.14268603827E+04  0.89965381362E+03 0.  0.
         23    2    4    4    0    0 -0.36974528944E+03  0.29554650391E+03  0.85226469317E+03  0.97921644773E+03  0.91926216284E+02 0.  0.
         23    2    4    4    0    0 -0.18481073592E+03 -0.38403660277E+03  0.10229839256E+03  0.44764393502E+03  0.91000060760E+02 0.  0.
          1    1    3    3  502    0  0.11691128659E+03  0.51841073262E+02  0.10283207085E+03  0.16410417607E+03  0.00000000000E+00 0. -1.
         -2    1    3    3    0  502  0.43764473878E+03  0.36649025602E+02  0.38086056650E+03  0.58131819133E+03  0.00000000000E+00 0.  1.
         11    1    5    5    0    0 -0.32860214363E+03  0.27420109149E+03  0.81171828460E+03  0.91763401251E+03  0.00000000000E+00 0. -1.
        -11    1    5    5    0    0 -0.41143145818E+02  0.21345412417E+02  0.40546408574E+02  0.61582435217E+02  0.00000000000E+00 0.  1.
          1    1    6    6  503    0 -0.14655907482E+03 -0.29013775963E+03  0.37250229806E+02  0.32718047252E+03  0.00000000000E+00 0. -1.
         -1    1    6    6    0  503 -0.38251661095E+02 -0.93898843145E+02  0.65048162753E+02  0.12046346250E+03  0.00000000000E+00 0.  1.
<mgrwt>
<rscale>  0 0.16279536E+04</rscale>
<asrwt>0</asrwt>
<pdfrwt beam="1">  1        1 0.27773372E+00 0.16279536E+04</pdfrwt>
<pdfrwt beam="2">  1       -2 0.56463619E-01 0.16279536E+04</pdfrwt>
<totfact> 0.99945611E+00</totfact>
</mgrwt>
</event>
<event>
12    4  0.4398275E-008  0.1271333E+04  0.7818608E-02  0.9052612E-01
          1   -1    0    0  501    0  0.00000000000E+00  0.00000000000E+00  0.11761814326E+04  0.11761814326E+04  0.00000000000E+00 0. -1.
         -2   -1    0    0    0  501 -0.00000000000E+00 -0.00000000000E+00 -0.34354559128E+03  0.34354559128E+03  0.00000000000E+00 0.  1.
        -24    2    1    2    0    0  0.98038540960E+01 -0.27093009984E+03  0.32042229308E+02  0.28580917267E+03  0.84622362122E+02 0.  0.
        254    2    1    2    0    0 -0.98038540960E+01  0.27093009984E+03  0.80059361197E+03  0.12339178512E+04  0.89894599247E+03 0.  0.
         23    2    4    4    0    0 -0.51359627168E+02  0.11988177195E+03 -0.17788429932E+03  0.23888389577E+03  0.91723721927E+02 0.  0.
         23    2    4    4    0    0  0.41555773072E+02  0.15104832789E+03  0.97847791130E+03  0.99503395541E+03  0.90172445269E+02 0.  0.
          3    1    3    3  502    0  0.43317492438E+01 -0.23864064950E+03  0.56085794469E+02  0.24518103513E+03  0.00000000000E+00 0. -1.
         -4    1    3    3    0  502  0.54721048522E+01 -0.32289450339E+02 -0.24043565161E+02  0.40628137544E+02  0.00000000000E+00 0.  1.
         11    1    5    5    0    0  0.49901798682E+01 -0.12140451162E+02 -0.46957026677E+01  0.13940662577E+02  0.00000000000E+00 0.  1.
        -11    1    5    5    0    0 -0.56349807037E+02  0.13202222311E+03 -0.17318859666E+03  0.22494323319E+03  0.00000000000E+00 0. -1.
          4    1    6    6  503    0  0.15287536444E+02  0.13447747374E+03  0.90779080340E+03  0.91782462511E+03  0.00000000000E+00 0. -1.
         -4    1    6    6    0  503  0.26268236628E+02  0.16570854154E+02  0.70687107895E+02  0.77209330301E+02  0.00000000000E+00 0.  1.
<mgrwt>
<rscale>  0 0.12713331E+04</rscale>
<asrwt>0</asrwt>
<pdfrwt beam="1">  1        1 0.18095099E+00 0.12713331E+04</pdfrwt>
<pdfrwt beam="2">  1       -2 0.52853169E-01 0.12713331E+04</pdfrwt>
<totfact> 0.32434079E+01</totfact>
</mgrwt>
</event>
<event>
12    4  0.4398275E-008  0.1330911E+04  0.7818608E-02  0.9005405E-01
          1   -1    0    0  501    0  0.00000000000E+00  0.00000000000E+00  0.12795144453E+04  0.12795144453E+04  0.00000000000E+00 0. -1.
         -2   -1    0    0    0  501 -0.00000000000E+00 -0.00000000000E+00 -0.34609311186E+03  0.34609311186E+03  0.00000000000E+00 0.  1.
        -24    2    1    2    0    0  0.25685519907E+03  0.30497058396E+02 -0.29433835818E+02  0.27223342104E+03  0.79624248690E+02 0.  0.
        254    2    1    2    0    0 -0.25685519907E+03 -0.30497058396E+02  0.96285516922E+03  0.13533741361E+04  0.91521954278E+03 0.  0.
         23    2    4    4    0    0 -0.32582583473E+03  0.16339033283E+02 -0.41788227712E+02  0.34113302385E+03  0.90532013138E+02 0.  0.
         23    2    4    4    0    0  0.68970635654E+02 -0.46836091679E+02  0.10046433969E+04  0.10122411122E+04  0.91504897358E+02 0.  0.
          3    1    3    3  502    0  0.48343912843E+02 -0.88018355996E+01  0.22104519377E+02  0.53881499569E+02  0.00000000000E+00 0. -1.
         -4    1    3    3    0  502  0.20851128623E+03  0.39298893996E+02 -0.51538355196E+02  0.21835192147E+03  0.00000000000E+00 0.  1.
         11    1    5    5    0    0 -0.12767779420E+02  0.18229505720E+01 -0.23985773545E+02  0.27233374243E+02  0.00000000000E+00 0. -1.
        -11    1    5    5    0    0 -0.31305805531E+03  0.14516082711E+02 -0.17802454166E+02  0.31389964961E+03  0.00000000000E+00 0.  1.
          2    1    6    6  503    0  0.58231089574E+02 -0.74178417943E+02  0.74749467351E+03  0.75341992568E+03  0.00000000000E+00 0.  1.
         -2    1    6    6    0  503  0.10739546080E+02  0.27342326264E+02  0.25714872342E+03  0.25882118656E+03  0.00000000000E+00 0. -1.
<mgrwt>
<rscale>  0 0.13309112E+04</rscale>
<asrwt>0</asrwt>
<pdfrwt beam="1">  1        1 0.19684837E+00 0.13309112E+04</pdfrwt>
<pdfrwt beam="2">  1       -2 0.53245095E-01 0.13309112E+04</pdfrwt>
<totfact> 0.26752025E+01</totfact>
</mgrwt>
</event>
<event>
12    4  0.4398275E-008  0.1232353E+04  0.7818608E-02  0.9085000E-01
          1   -1    0    0  501    0  0.00000000000E+00  0.00000000000E+00  0.15935441972E+04  0.15935441972E+04  0.00000000000E+00 0. -1.
         -2   -1    0    0    0  501 -0.00000000000E+00 -0.00000000000E+00 -0.23825717999E+03  0.23825717999E+03  0.00000000000E+00 0.  1.
        -24    2    1    2    0    0 -0.19546716115E+03  0.19902228519E+03  0.46513779234E+03  0.54817785966E+03  0.79551988469E+02 0.  0.
        254    2    1    2    0    0  0.19546716115E+03 -0.19902228519E+03  0.89014922483E+03  0.12836235175E+04  0.88176323981E+03 0.  0.
         23    2    4    4    0    0 -0.33778717264E+03 -0.22169618770E+02  0.27918524618E+03  0.44859490836E+03  0.93280888323E+02 0.  0.
         23    2    4    4    0    0  0.53325433379E+03 -0.17685266642E+03  0.61096397865E+03  0.83502860913E+03  0.91426170921E+02 0.  0.
          3    1    3    3  502    0 -0.15281833177E+03  0.10416411100E+03  0.32043662706E+03  0.36997734593E+03  0.00000000000E+00 0. -1.
         -4    1    3    3    0  502 -0.42648829383E+02  0.94858174190E+02  0.14470116529E+03  0.17820051373E+03  0.00000000000E+00 0.  1.
         11    1    5    5    0    0 -0.29257665706E+03 -0.17892784266E+02  0.19234208305E+03  0.35059482155E+03  0.00000000000E+00 0. -1.
        -11    1    5    5    0    0 -0.45210515574E+02 -0.42768345040E+01  0.86843163128E+02  0.98000086806E+02  0.00000000000E+00 0.  1.
          3    1    6    6  503    0  0.14743521808E+03 -0.88602124839E+02  0.21271555385E+03  0.27356057264E+03  0.00000000000E+00 0. -1.
         -3    1    6    6    0  503  0.38581911571E+03 -0.88250541579E+02  0.39824842481E+03  0.56146803649E+03  0.00000000000E+00 0.  1.
<mgrwt>
<rscale>  0 0.12323528E+04</rscale>
<asrwt>0</asrwt>
<pdfrwt beam="1">  1        1 0.24516064E+00 0.12323528E+04</pdfrwt>
<pdfrwt beam="2">  1       -2 0.36654952E-01 0.12323528E+04</pdfrwt>
<totfact> 0.34243431E+01</totfact>
</mgrwt>
</event>
<event>
12    4  0.4398275E-008  0.1381509E+04  0.7818608E-02  0.8967313E-01
         -2   -1    0    0    0  501 -0.00000000000E+00  0.00000000000E+00  0.49887303623E+03  0.49887303623E+03  0.00000000000E+00 0.  1.
          1   -1    0    0  501    0  0.00000000000E+00 -0.00000000000E+00 -0.95643876955E+03  0.95643876955E+03  0.00000000000E+00 0. -1.
        -24    2    1    2    0    0 -0.36625671217E+03 -0.77820100098E+02  0.51947867692E+02  0.38658515664E+03  0.80929322169E+02 0.  0.
        254    2    1    2    0    0  0.36625671217E+03  0.77820100098E+02 -0.50951360101E+03  0.10687266491E+04  0.86161046522E+03 0.  0.
         23    2    4    4    0    0  0.29646801285E+03 -0.12096921181E+03 -0.69682631837E+03  0.77235558837E+03  0.91866229200E+02 0.  0.
         23    2    4    4    0    0  0.69788699323E+02  0.19878931191E+03  0.18731271736E+03  0.29637106077E+03  0.91444510482E+02 0.  0.
          3    1    3    3  502    0 -0.85029240689E+02 -0.45001854816E+02  0.36939543933E+02  0.10305177638E+03  0.00000000000E+00 0. -1.
         -4    1    3    3    0  502 -0.28122747148E+03 -0.32818245281E+02  0.15008323760E+02  0.28353338026E+03  0.00000000000E+00 0.  1.
         11    1    5    5    0    0  0.12506676200E+03 -0.95812513166E+02 -0.37765672082E+03  0.40920206673E+03  0.00000000000E+00 0. -1.
        -11    1    5    5    0    0  0.17140125085E+03 -0.25156698642E+02 -0.31916959754E+03  0.36315352164E+03  0.00000000000E+00 0.  1.
          1    1    6    6  503    0  0.52874500626E+02  0.35559523305E+02  0.36169949100E+02  0.73269760011E+02  0.00000000000E+00 0. -1.
         -1    1    6    6    0  503  0.16914198697E+02  0.16322978860E+03  0.15114276826E+03  0.22310130076E+03  0.00000000000E+00 0.  1.
<mgrwt>
<rscale>  0 0.13815086E+04</rscale>
<asrwt>0</asrwt>
<pdfrwt beam="1">  1        1 0.14714443E+00 0.13815086E+04</pdfrwt>
<pdfrwt beam="2">  1       -2 0.76749698E-01 0.13815086E+04</pdfrwt>
<totfact> 0.21268762E+01</totfact>
</mgrwt>
</event>
<event>
12    4  0.4398275E-008  0.2719741E+04  0.7818608E-02  0.8328628E-01
         -2   -1    0    0    0  501 -0.00000000000E+00  0.00000000000E+00  0.88160284674E+03  0.88160284674E+03  0.00000000000E+00 0.  1.
          1   -1    0    0  501    0  0.00000000000E+00 -0.00000000000E+00 -0.20975976713E+04  0.20975976713E+04  0.00000000000E+00 0. -1.
        -24    2    1    2    0    0  0.60821201777E+03 -0.13701526569E+03  0.59175982795E+03  0.86352525716E+03  0.82468989232E+02 0.  0.
        254    2    1    2    0    0 -0.60821201777E+03  0.13701526569E+03 -0.18077546525E+04  0.21156752609E+04  0.90521261826E+03 0.  0.
         23    2    4    4    0    0 -0.39341073262E+03 -0.21188636660E+03 -0.28692837492E+03  0.53798952651E+03  0.86238050857E+02 0.  0.
         23    2    4    4    0    0 -0.21480128515E+03  0.34890163229E+03 -0.15208262776E+04  0.15776857344E+04  0.91146962235E+02 0.  0.
          3    1    3    3  502    0  0.74031579855E+01  0.69117171110E+01  0.16513938578E+02  0.19372370762E+02  0.00000000000E+00 0. -1.
         -4    1    3    3    0  502  0.60080885978E+03 -0.14392698280E+03  0.57524588937E+03  0.84415288639E+03  0.00000000000E+00 0.  1.
         11    1    5    5    0    0 -0.73229656691E+02 -0.10042282526E+02 -0.26355125776E+02  0.78473069980E+02  0.00000000000E+00 0. -1.
        -11    1    5    5    0    0 -0.32018107593E+03 -0.20184408407E+03 -0.26057324914E+03  0.45951645653E+03  0.00000000000E+00 0.  1.
          3    1    6    6  503    0 -0.16496205160E+03  0.30592519935E+03 -0.13645279006E+04  0.14080976875E+04  0.00000000000E+00 0.  1.
         -3    1    6    6    0  503 -0.49839233549E+02  0.42976432932E+02 -0.15629837702E+03  0.16958804689E+03  0.00000000000E+00 0. -1.
<mgrwt>
<rscale>  0 0.27197412E+04</rscale>
<asrwt>0</asrwt>
<pdfrwt beam="1">  1        1 0.32270733E+00 0.27197412E+04</pdfrwt>
<pdfrwt beam="2">  1       -2 0.13563121E+00 0.27197412E+04</pdfrwt>
<totfact> 0.76408805E-01</totfact>
</mgrwt>
</event>
<event>
12    4  0.4398275E-008  0.1862028E+04  0.7818608E-02  0.8673992E-01
         -2   -1    0    0    0  501 -0.00000000000E+00  0.00000000000E+00  0.11224089163E+04  0.11224089163E+04  0.00000000000E+00 0.  1.
          1   -1    0    0  501    0  0.00000000000E+00 -0.00000000000E+00 -0.77225575205E+03  0.77225575205E+03  0.00000000000E+00 0. -1.
        -24    2    1    2    0    0  0.36232898695E+03  0.24347884753E+03  0.70650101685E+03  0.83430390647E+03  0.79718740313E+02 0.  0.
        254    2    1    2    0    0 -0.36232898695E+03 -0.24347884753E+03 -0.35634785259E+03  0.10603607619E+04  0.89822987556E+03 0.  0.
         23    2    4    4    0    0 -0.27423660072E+03  0.21891000885E+03 -0.44337087797E+03  0.57317492639E+03  0.93938573830E+02 0.  0.
         23    2    4    4    0    0 -0.88092386228E+02 -0.46238885639E+03  0.87023025384E+02  0.48718583551E+03  0.90627304650E+02 0.  0.
          1    1    3    3  502    0  0.10325070475E+03  0.64559058776E+02  0.13496730880E+03  0.18178216234E+03  0.00000000000E+00 0. -1.
         -2    1    3    3    0  502  0.25907828220E+03  0.17891978876E+03  0.57153370805E+03  0.65252174413E+03  0.00000000000E+00 0.  1.
         11    1    5    5    0    0 -0.70886203361E+02  0.76406937047E+02 -0.72919959434E+02  0.12720139284E+03  0.00000000000E+00 0. -1.
        -11    1    5    5    0    0 -0.20335039736E+03  0.14250307181E+03 -0.37045091854E+03  0.44597353355E+03  0.00000000000E+00 0.  1.
          3    1    6    6  503    0 -0.29850564919E+02 -0.23698062909E+03  0.60710442917E+00  0.23885402104E+03  0.00000000000E+00 0. -1.
         -3    1    6    6    0  503 -0.58241821309E+02 -0.22540822730E+03  0.86415920955E+02  0.24833181447E+03  0.00000000000E+00 0.  1.
<mgrwt>
<rscale>  0 0.18620276E+04</rscale>
<asrwt>0</asrwt>
<pdfrwt beam="1">  1        1 0.11880858E+00 0.18620276E+04</pdfrwt>
<pdfrwt beam="2">  1       -2 0.17267830E+00 0.18620276E+04</pdfrwt>
<totfact> 0.39219111E+00</totfact>
</mgrwt>
</event>
<event>
12    4  0.4398275E-008  0.2999734E+04  0.7818608E-02  0.8243807E-01
          1   -1    0    0  501    0  0.00000000000E+00  0.00000000000E+00  0.14252133960E+04  0.14252133960E+04  0.00000000000E+00 0. -1.
         -2   -1    0    0    0  501 -0.00000000000E+00 -0.00000000000E+00 -0.15784313652E+04  0.15784313652E+04  0.00000000000E+00 0.  1.
        -24    2    1    2    0    0  0.10848136090E+04  0.53803151053E+03  0.56847683141E+03  0.13398891849E+04  0.76411042402E+02 0.  0.
        254    2    1    2    0    0 -0.10848136090E+04 -0.53803151053E+03 -0.72169480059E+03  0.16637555763E+04  0.88370852643E+03 0.  0.
         23    2    4    4    0    0 -0.95006908113E+03 -0.20253738828E+03 -0.82383067615E+03  0.12769100219E+04  0.90274960236E+02 0.  0.
         23    2    4    4    0    0 -0.13474452790E+03 -0.33549412225E+03  0.10213587557E+03  0.38684555438E+03  0.92224465315E+02 0.  0.
          1    1    3    3  502    0  0.97971217229E+03  0.46195809706E+03  0.49674412281E+03  0.11916358284E+04  0.00000000000E+00 0. -1.
         -2    1    3    3    0  502  0.10510143673E+03  0.76073413475E+02  0.71732708599E+02  0.14825335653E+03  0.00000000000E+00 0.  1.
         11    1    5    5    0    0 -0.76175424668E+03 -0.19218521199E+03 -0.69048573152E+03  0.10459327098E+04  0.00000000000E+00 0. -1.
        -11    1    5    5    0    0 -0.18831483445E+03 -0.10352176288E+02 -0.13334494463E+03  0.23097731206E+03  0.00000000000E+00 0.  1.
          2    1    6    6  503    0 -0.32440664154E+02 -0.19151076994E+03  0.74661390084E+02  0.20809395681E+03  0.00000000000E+00 0. -1.
         -2    1    6    6    0  503 -0.10230386374E+03 -0.14398335231E+03  0.27474485482E+02  0.17875159757E+03  0.00000000000E+00 0.  1.
<mgrwt>
<rscale>  0 0.29997343E+04</rscale>
<asrwt>0</asrwt>
<pdfrwt beam="1">  1        1 0.21926360E+00 0.29997343E+04</pdfrwt>
<pdfrwt beam="2">  1       -2 0.24283559E+00 0.29997343E+04</pdfrwt>
<totfact> 0.39218555E-01</totfact>
</mgrwt>
</event>
<event>
12    4  0.4398275E-008  0.1609894E+04  0.7818608E-02  0.8814492E-01
         -2   -1    0    0    0  501 -0.00000000000E+00  0.00000000000E+00  0.11034582263E+04  0.11034582263E+04  0.00000000000E+00 0.  1.
          1   -1    0    0  501    0  0.00000000000E+00 -0.00000000000E+00 -0.58719039333E+03  0.58719039333E+03  0.00000000000E+00 0. -1.
        -24    2    1    2    0    0 -0.10760475560E+02 -0.47436743672E+03 -0.10422778054E+03  0.49209987753E+03  0.78476788788E+02 0.  0.
        254    2    1    2    0    0  0.10760475560E+02  0.47436743672E+03  0.62049561351E+03  0.11985487421E+04  0.90904566878E+03 0.  0.
         23    2    4    4    0    0  0.15768203211E+03  0.13422912979E+03 -0.19438672338E+03  0.29838574135E+03  0.91470049093E+02 0.  0.
         23    2    4    4    0    0 -0.14692155655E+03  0.34013830693E+03  0.81488233689E+03  0.90016300074E+03  0.94763881899E+02 0.  0.
          3    1    3    3  502    0 -0.21948332180E+02 -0.46082791875E+03 -0.10868476874E+03  0.47397940771E+03  0.00000000000E+00 0. -1.
         -2    1    3    3    0  502  0.11187856620E+02 -0.13539517972E+02  0.44569881971E+01  0.18120469819E+02  0.00000000000E+00 0.  1.
         11    1    5    5    0    0  0.10960387289E+03  0.13708668035E+03 -0.13222071092E+03  0.21974549660E+03  0.00000000000E+00 0. -1.
        -11    1    5    5    0    0  0.48078159223E+02 -0.28575505542E+01 -0.62166012461E+02  0.78640244752E+02  0.00000000000E+00 0.  1.
          1    1    6    6  503    0 -0.14888488803E+03  0.33084178674E+03  0.81327357049E+03  0.89052619175E+03  0.00000000000E+00 0. -1.
         -1    1    6    6    0  503  0.19633314806E+01  0.92965201915E+01  0.16087663952E+01  0.96368089889E+01  0.00000000000E+00 0.  1.
<mgrwt>
<rscale>  0 0.16098945E+04</rscale>
<asrwt>0</asrwt>
<pdfrwt beam="1">  1        1 0.90336984E-01 0.16098945E+04</pdfrwt>
<pdfrwt beam="2">  1       -2 0.16976280E+00 0.16098945E+04</pdfrwt>
<totfact> 0.63376102E+00</totfact>
</mgrwt>
</event>
<event>
12    4  0.4398275E-008  0.1903352E+04  0.7818608E-02  0.8653190E-01
         -2   -1    0    0    0  501 -0.00000000000E+00  0.00000000000E+00  0.76678710288E+03  0.76678710288E+03  0.00000000000E+00 0.  1.
          1   -1    0    0  501    0  0.00000000000E+00 -0.00000000000E+00 -0.11811459746E+04  0.11811459746E+04  0.00000000000E+00 0. -1.
        -24    2    1    2    0    0 -0.55130520240E+03 -0.17214508395E+03  0.30391551774E+03  0.65758462891E+03  0.80508050166E+02 0.  0.
        254    2    1    2    0    0  0.55130520240E+03  0.17214508395E+03 -0.71827438949E+03  0.12903484486E+04  0.90305573698E+03 0.  0.
         23    2    4    4    0    0  0.52908478340E+03  0.39068637221E+03 -0.79870191714E+03  0.10387644304E+04  0.92413418333E+02 0.  0.
         23    2    4    4    0    0  0.22220419000E+02 -0.21854128827E+03  0.80427527653E+02  0.25158401824E+03  0.92584498329E+02 0.  0.
          1    1    3    3  502    0 -0.26667512382E+03 -0.10322915379E+03  0.11019116544E+03  0.30645386732E+03  0.00000000000E+00 0. -1.
         -2    1    3    3    0  502 -0.28463007858E+03 -0.68915930155E+02  0.19372435229E+03  0.35113076159E+03  0.00000000000E+00 0.  1.
         11    1    5    5    0    0  0.51537138419E+03  0.39344739176E+03 -0.79103608213E+03  0.10228130802E+04  0.00000000000E+00 0.  1.
        -11    1    5    5    0    0  0.13713399212E+02 -0.27610195448E+01 -0.76658350135E+01  0.15951350204E+02  0.00000000000E+00 0. -1.
          1    1    6    6  503    0  0.10393189821E+02 -0.11006843595E+02 -0.16355764446E+02  0.22286319373E+02  0.00000000000E+00 0. -1.
         -1    1    6    6    0  503  0.11827229179E+02 -0.20753444467E+03  0.96783292099E+02  0.22929769886E+03  0.00000000000E+00 0.  1.
<mgrwt>
<rscale>  0 0.19033523E+04</rscale>
<asrwt>0</asrwt>
<pdfrwt beam="1">  1        1 0.18171476E+00 0.19033523E+04</pdfrwt>
<pdfrwt beam="2">  1       -2 0.11796725E+00 0.19033523E+04</pdfrwt>
<totfact> 0.50138155E+00</totfact>
</mgrwt>
</event>
<event>
12    4  0.4398275E-008  0.3286949E+04  0.7818608E-02  0.8166224E-01
         -2   -1    0    0    0  501 -0.00000000000E+00  0.00000000000E+00  0.13961576865E+04  0.13961576865E+04  0.00000000000E+00 0.  1.
          1   -1    0    0  501    0  0.00000000000E+00 -0.00000000000E+00 -0.19346010532E+04  0.19346010532E+04  0.00000000000E+00 0. -1.
        -24    2    1    2    0    0  0.66781897425E+03 -0.11913452846E+04  0.42993501641E+03  0.14343189274E+04  0.84503831580E+02 0.  0.
        254    2    1    2    0    0 -0.66781897425E+03  0.11913452846E+04 -0.96837838318E+03  0.18964398123E+04  0.89075333243E+03 0.  0.
         23    2    4    4    0    0 -0.63535212892E+03  0.89296688517E+03 -0.27166307645E+03  0.11324743403E+04  0.87379165736E+02 0.  0.
         23    2    4    4    0    0 -0.32466845321E+02  0.29837839946E+03 -0.69671530673E+03  0.76396547203E+03  0.90262165497E+02 0.  0.
          1    1    3    3  502    0  0.22242023000E+03 -0.44935041182E+03  0.12473175889E+03  0.51666678139E+03  0.00000000000E+00 0. -1.
         -2    1    3    3    0  502  0.44539874424E+03 -0.74199487281E+03  0.30520325752E+03  0.91765214600E+03  0.00000000000E+00 0.  1.
         11    1    5    5    0    0 -0.22051519179E+02  0.43870851711E+02 -0.29968266419E+02  0.57524065574E+02  0.00000000000E+00 0.  1.
        -11    1    5    5    0    0 -0.61330060975E+03  0.84909603345E+03 -0.24169481003E+03  0.10749502747E+04  0.00000000000E+00 0. -1.
          2    1    6    6  503    0 -0.38762907524E+02  0.28786029054E+03 -0.60143490300E+03  0.66789973230E+03  0.00000000000E+00 0. -1.
         -2    1    6    6    0  503  0.62960622025E+01  0.10518108921E+02 -0.95280403730E+02  0.96065739728E+02  0.00000000000E+00 0.  1.
<mgrwt>
<rscale>  0 0.32869488E+04</rscale>
<asrwt>0</asrwt>
<pdfrwt beam="1">  1        1 0.29763093E+00 0.32869488E+04</pdfrwt>
<pdfrwt beam="2">  1       -2 0.21479349E+00 0.32869488E+04</pdfrwt>
<totfact> 0.25708984E-01</totfact>
</mgrwt>
</event>
<event>
12    4  0.4398275E-008  0.2565395E+04  0.7818608E-02  0.8380051E-01
          1   -1    0    0  501    0  0.00000000000E+00  0.00000000000E+00  0.13910123673E+04  0.13910123673E+04  0.00000000000E+00 0. -1.
         -2   -1    0    0    0  501 -0.00000000000E+00 -0.00000000000E+00 -0.11828171805E+04  0.11828171805E+04  0.00000000000E+00 0.  1.
        -24    2    1    2    0    0 -0.36026928236E+03 -0.10780022231E+04  0.14812592492E+03  0.11490498345E+04  0.80569743679E+02 0.  0.
        254    2    1    2    0    0  0.36026928236E+03  0.10780022231E+04  0.60069261841E+02  0.14247797133E+04  0.85703335201E+03 0.  0.
         23    2    4    4    0    0  0.60004716614E+03  0.88317353281E+03  0.16834705292E+03  0.10846997922E+04  0.90447875742E+02 0.  0.
         23    2    4    4    0    0 -0.23977788378E+03  0.19482869029E+03 -0.10827779108E+03  0.34007992117E+03  0.92079425678E+02 0.  0.
          1    1    3    3  502    0 -0.26842884817E+03 -0.69540662926E+03  0.79457759657E+02  0.74963855432E+03  0.00000000000E+00 0. -1.
         -2    1    3    3    0  502 -0.91840434197E+02 -0.38259559384E+03  0.68668165261E+02  0.39941128013E+03  0.00000000000E+00 0.  1.
         11    1    5    5    0    0  0.92013305603E+02  0.15660198439E+03  0.61265235396E+02  0.19168739914E+03  0.00000000000E+00 0. -1.
        -11    1    5    5    0    0  0.50803386054E+03  0.72657154842E+03  0.10708181752E+03  0.89301239301E+03  0.00000000000E+00 0.  1.
          4    1    6    6  503    0 -0.51167810269E+02  0.92678544449E+02 -0.18111447050E+02  0.10740336086E+03  0.00000000000E+00 0. -1.
         -4    1    6    6    0  503 -0.18861007351E+03  0.10215014584E+03 -0.90166344030E+02  0.23267656031E+03  0.00000000000E+00 0.  1.
<mgrwt>
<rscale>  0 0.25653954E+04</rscale>
<asrwt>0</asrwt>
<pdfrwt beam="1">  1        1 0.21400190E+00 0.25653954E+04</pdfrwt>
<pdfrwt beam="2">  1       -2 0.18197187E+00 0.25653954E+04</pdfrwt>
<totfact> 0.10624824E+00</totfact>
</mgrwt>
</event>
<event>
12    4  0.4398275E-008  0.1416552E+04  0.7818608E-02  0.8941924E-01
          1   -1    0    0  501    0  0.00000000000E+00  0.00000000000E+00  0.41190307417E+03  0.41190307417E+03  0.00000000000E+00 0. -1.
         -2   -1    0    0    0  501 -0.00000000000E+00 -0.00000000000E+00 -0.12178956491E+04  0.12178956491E+04  0.00000000000E+00 0.  1.
        -24    2    1    2    0    0 -0.75998099268E+02 -0.96190606933E+01  0.23129845187E+03  0.25729428702E+03  0.82662802218E+02 0.  0.
        254    2    1    2    0    0  0.75998099268E+02  0.96190606933E+01 -0.10372910269E+04  0.13725044363E+04  0.89550405685E+03 0.  0.
         23    2    4    4    0    0  0.39781825825E+03 -0.24644338614E+03 -0.56619017050E+03  0.74038847104E+03  0.92790461294E+02 0.  0.
         23    2    4    4    0    0 -0.32182015898E+03  0.25606244683E+03 -0.47110085636E+03  0.63211596526E+03  0.92186687067E+02 0.  0.
          3    1    3    3  502    0 -0.60850555989E+01 -0.29149996766E+00  0.14808519592E+03  0.14821045214E+03  0.00000000000E+00 0. -1.
         -4    1    3    3    0  502 -0.69913043669E+02 -0.93275607257E+01  0.83213255958E+02  0.10908383488E+03  0.00000000000E+00 0.  1.
         11    1    5    5    0    0  0.24756082960E+03 -0.19421522441E+03 -0.33336142248E+03  0.45840566722E+03  0.00000000000E+00 0.  1.
        -11    1    5    5    0    0  0.15025742865E+03 -0.52228161727E+02 -0.23282874803E+03  0.28198280382E+03  0.00000000000E+00 0. -1.
          2    1    6    6  503    0 -0.38888054753E+02  0.43760782003E+02 -0.27305586554E+02  0.64597847496E+02  0.00000000000E+00 0. -1.
         -2    1    6    6    0  503 -0.28293210423E+03  0.21230166483E+03 -0.44379526980E+03  0.56751811776E+03  0.00000000000E+00 0.  1.
<mgrwt>
<rscale>  0 0.14165521E+04</rscale>
<asrwt>0</asrwt>
<pdfrwt beam="1">  1        1 0.63369704E-01 0.14165521E+04</pdfrwt>
<pdfrwt beam="2">  1       -2 0.18736856E+00 0.14165521E+04</pdfrwt>
<totfact> 0.79190485E+00</totfact>
</mgrwt>
</event>
<event>
12    4  0.4398275E-008  0.1534926E+04  0.7818608E-02  0.8861554E-01
         -2   -1    0    0    0  501 -0.00000000000E+00  0.00000000000E+00  0.77162101426E+03  0.77162101426E+03  0.00000000000E+00 0.  1.
          1   -1    0    0  501    0  0.00000000000E+00 -0.00000000000E+00 -0.76332693876E+03  0.76332693876E+03  0.00000000000E+00 0. -1.
        -24    2    1    2    0    0  0.42540973561E+02 -0.48157488729E+03  0.13237734734E+03  0.50733539727E+03  0.78366681289E+02 0.  0.
        254    2    1    2    0    0 -0.42540973561E+02  0.48157488729E+03 -0.12408327184E+03  0.10276125558E+04  0.89825764672E+03 0.  0.
         23    2    4    4    0    0 -0.17039341271E+02  0.13519109411E+03 -0.48910514593E+03  0.51578579051E+03  0.90797394495E+02 0.  0.
         23    2    4    4    0    0 -0.25501632290E+02  0.34638379318E+03  0.36502187408E+03  0.51182676524E+03  0.89964457593E+02 0.  0.
          1    1    3    3  502    0 -0.10831128152E+02 -0.16690691318E+03  0.17681706299E+02  0.16818999299E+03  0.00000000000E+00 0. -1.
         -2    1    3    3    0  502  0.53372101713E+02 -0.31466797411E+03  0.11469564104E+03  0.33914540428E+03  0.00000000000E+00 0.  1.
         11    1    5    5    0    0 -0.48266565139E+02  0.11020883001E+03 -0.40779631247E+03  0.42517464645E+03  0.00000000000E+00 0. -1.
        -11    1    5    5    0    0  0.31227223868E+02  0.24982264098E+02 -0.81308833461E+02  0.90611144065E+02  0.00000000000E+00 0.  1.
          4    1    6    6  503    0  0.15625364302E+01  0.29562947482E+03  0.26795581431E+03  0.39899817835E+03  0.00000000000E+00 0. -1.
         -4    1    6    6    0  503 -0.27064168720E+02  0.50754318365E+02  0.97066059770E+02  0.11282858689E+03  0.00000000000E+00 0.  1.
<mgrwt>
<rscale>  0 0.15349255E+04</rscale>
<asrwt>0</asrwt>
<pdfrwt beam="1">  1        1 0.11743491E+00 0.15349255E+04</pdfrwt>
<pdfrwt beam="2">  1       -2 0.11871093E+00 0.15349255E+04</pdfrwt>
<totfact> 0.10977528E+01</totfact>
</mgrwt>
</event>
<event>
12    4  0.4398275E-008  0.1267143E+04  0.7818608E-02  0.9056034E-01
         -2   -1    0    0    0  501 -0.00000000000E+00  0.00000000000E+00  0.34452199877E+03  0.34452199877E+03  0.00000000000E+00 0.  1.
          1   -1    0    0  501    0  0.00000000000E+00 -0.00000000000E+00 -0.11651304035E+04  0.11651304035E+04  0.00000000000E+00 0. -1.
        -24    2    1    2    0    0  0.13361099958E+03 -0.32833294917E+03 -0.27939113287E+03  0.45844170823E+03  0.80342827909E+02 0.  0.
        254    2    1    2    0    0 -0.13361099958E+03  0.32833294917E+03 -0.54121727183E+03  0.10512106940E+04  0.82853688100E+03 0.  0.
         23    2    4    4    0    0 -0.98235006343E+02 -0.26312295435E+03 -0.11956871421E+03  0.31815152929E+03  0.89665559684E+02 0.  0.
         23    2    4    4    0    0 -0.35375993233E+02  0.59145590353E+03 -0.42164855762E+03  0.73305916473E+03  0.92285893477E+02 0.  0.
          1    1    3    3  502    0  0.55226479441E+02 -0.53278462901E+02 -0.71267218613E+02  0.10472619104E+03  0.00000000000E+00 0. -1.
         -2    1    3    3    0  502  0.78384520134E+02 -0.27505448627E+03 -0.20812391426E+03  0.35371551719E+03  0.00000000000E+00 0.  1.
         11    1    5    5    0    0  0.11819967463E+02 -0.32178165814E+01 -0.81296583737E+01  0.14702289606E+02  0.00000000000E+00 0.  1.
        -11    1    5    5    0    0 -0.11005497381E+03 -0.25990513777E+03 -0.11143905584E+03  0.30344923969E+03  0.00000000000E+00 0. -1.
          4    1    6    6  503    0 -0.37272360079E+02  0.45542616223E+03 -0.36842840326E+03  0.58697675116E+03  0.00000000000E+00 0. -1.
         -4    1    6    6    0  503  0.18963668465E+01  0.13602974130E+03 -0.53220154354E+02  0.14608241357E+03  0.00000000000E+00 0.  1.
<mgrwt>
<rscale>  0 0.12671433E+04</rscale>
<asrwt>0</asrwt>
<pdfrwt beam="1">  1        1 0.17925083E+00 0.12671433E+04</pdfrwt>
<pdfrwt beam="2">  1       -2 0.53003385E-01 0.12671433E+04</pdfrwt>
<totfact> 0.32865309E+01</totfact>
</mgrwt>
</event>
<event>
12    4  0.4398275E-008  0.1047328E+04  0.7818608E-02  0.9258107E-01
         -2   -1    0    0    0  501 -0.00000000000E+00  0.00000000000E+00  0.39183282452E+03  0.39183282452E+03  0.00000000000E+00 0.  1.
          1   -1    0    0  501    0  0.00000000000E+00 -0.00000000000E+00 -0.69984973891E+03  0.69984973891E+03  0.00000000000E+00 0. -1.
        -24    2    1    2    0    0  0.16585278801E+02 -0.91974202719E+02 -0.10957898800E+03  0.16466596474E+03  0.79831070986E+02 0.  0.
        254    2    1    2    0    0 -0.16585278801E+02  0.91974202719E+02 -0.19843792640E+03  0.92701659869E+03  0.90069297664E+03 0.  0.
         23    2    4    4    0    0  0.28011204578E+03  0.36284060579E+03 -0.21587928904E+03  0.51456110865E+03  0.89739643956E+02 0.  0.
         23    2    4    4    0    0 -0.29669732459E+03 -0.27086640307E+03  0.17441362643E+02  0.41245549004E+03  0.91746495333E+02 0.  0.
          1    1    3    3  502    0  0.38142385371E+02 -0.79931860624E+02 -0.10835151569E+03  0.13994282710E+03  0.00000000000E+00 0. -1.
         -2    1    3    3    0  502 -0.21557106570E+02 -0.12042342096E+02 -0.12274723154E+01  0.24723137646E+02  0.00000000000E+00 0.  1.
         11    1    5    5    0    0  0.17457335066E+03  0.20426713061E+03 -0.17216335115E+03  0.31912557855E+03  0.00000000000E+00 0. -1.
        -11    1    5    5    0    0  0.10553869512E+03  0.15857347518E+03 -0.43715937891E+02  0.19543553010E+03  0.00000000000E+00 0.  1.
          1    1    6    6  503    0 -0.22863167084E+03 -0.23502376515E+03  0.44538979689E+02  0.33089625536E+03  0.00000000000E+00 0. -1.
         -1    1    6    6    0  503 -0.68065653741E+02 -0.35842637914E+02 -0.27097617046E+02  0.81559234679E+02  0.00000000000E+00 0.  1.
<mgrwt>
<rscale>  0 0.10473282E+04</rscale>
<asrwt>0</asrwt>
<pdfrwt beam="1">  1        1 0.10766919E+00 0.10473282E+04</pdfrwt>
<pdfrwt beam="2">  1       -2 0.60281973E-01 0.10473282E+04</pdfrwt>
<totfact> 0.61214443E+01</totfact>
</mgrwt>
</event>
<event>
12    4  0.4398275E-008  0.1440501E+04  0.7818608E-02  0.8925013E-01
         -2   -1    0    0    0  501 -0.00000000000E+00  0.00000000000E+00  0.74794707569E+03  0.74794707569E+03  0.00000000000E+00 0.  1.
          1   -1    0    0  501    0  0.00000000000E+00 -0.00000000000E+00 -0.69357939725E+03  0.69357939725E+03  0.00000000000E+00 0. -1.
        -24    2    1    2    0    0  0.21224119574E+03  0.34503096750E+03 -0.12135149880E+03  0.43030498106E+03  0.79646071829E+02 0.  0.
        254    2    1    2    0    0 -0.21224119574E+03 -0.34503096750E+03  0.17571917724E+03  0.10112214919E+04  0.90972467412E+03 0.  0.
         23    2    4    4    0    0 -0.46122957775E+03  0.67196906856E+02 -0.38320039775E+02  0.47652746525E+03  0.91443162749E+02 0.  0.
         23    2    4    4    0    0  0.24898838201E+03 -0.41222787436E+03  0.21403921701E+03  0.53469402663E+03  0.90320988253E+02 0.  0.
          1    1    3    3  502    0  0.18584708104E+03  0.32549465209E+03 -0.12935133681E+03  0.39650684030E+03  0.00000000000E+00 0. -1.
         -2    1    3    3    0  502  0.26394114693E+02  0.19536315413E+02  0.79998380100E+01  0.33798140756E+02  0.00000000000E+00 0.  1.
         11    1    5    5    0    0 -0.14989146221E+02  0.19714643044E+02  0.63019052149E+01  0.25554953808E+02  0.00000000000E+00 0. -1.
        -11    1    5    5    0    0 -0.44624043153E+03  0.47482263812E+02 -0.44621944990E+02  0.45097251145E+03  0.00000000000E+00 0.  1.
          4    1    6    6  503    0  0.24928791362E+03 -0.38841188075E+03  0.21821067318E+03  0.51051361478E+03  0.00000000000E+00 0.  1.
         -4    1    6    6    0  503 -0.29953161167E+00 -0.23815993613E+02 -0.41714561620E+01  0.24180411855E+02  0.00000000000E+00 0. -1.
<mgrwt>
<rscale>  0 0.14405009E+04</rscale>
<asrwt>0</asrwt>
<pdfrwt beam="1">  1        1 0.10670452E+00 0.14405009E+04</pdfrwt>
<pdfrwt beam="2">  1       -2 0.11506878E+00 0.14405009E+04</pdfrwt>
<totfact> 0.13842017E+01</totfact>
</mgrwt>
</event>
<event>
12    4  0.4398275E-008  0.1180905E+04  0.7818608E-02  0.9129737E-01
         -2   -1    0    0    0  501 -0.00000000000E+00  0.00000000000E+00  0.71700853850E+03  0.71700853850E+03  0.00000000000E+00 0.  1.
          1   -1    0    0  501    0  0.00000000000E+00 -0.00000000000E+00 -0.48623413107E+03  0.48623413107E+03  0.00000000000E+00 0. -1.
        -24    2    1    2    0    0  0.16945148290E+03  0.15598473753E+03 -0.39709346954E+01  0.24360529672E+03  0.79263666767E+02 0.  0.
        254    2    1    2    0    0 -0.16945148290E+03 -0.15598473753E+03  0.23474534212E+03  0.95963737285E+03  0.90152840683E+03 0.  0.
         23    2    4    4    0    0 -0.40011922627E+03 -0.21993490167E+03  0.43327518757E+03  0.63597757736E+03  0.90957872345E+02 0.  0.
         23    2    4    4    0    0  0.23066774337E+03  0.63950164140E+02 -0.19852984544E+03  0.32365979549E+03  0.89690202148E+02 0.  0.
          1    1    3    3  502    0  0.11240861607E+03  0.82292678472E+02 -0.37991813727E+02  0.14439930681E+03  0.00000000000E+00 0. -1.
         -2    1    3    3    0  502  0.57042866829E+02  0.73692059061E+02  0.34020879031E+02  0.99205989914E+02  0.00000000000E+00 0.  1.
         11    1    5    5    0    0 -0.33379256267E+02 -0.36257888848E+02  0.18481348174E+02  0.52634299492E+02  0.00000000000E+00 0.  1.
        -11    1    5    5    0    0 -0.36673997000E+03 -0.18367701282E+03  0.41479383939E+03  0.58334327787E+03  0.00000000000E+00 0. -1.
          4    1    6    6  503    0  0.16309454011E+03  0.19212174545E+02 -0.17337424306E+03  0.23880444891E+03  0.00000000000E+00 0. -1.
         -4    1    6    6    0  503  0.67573203264E+02  0.44737989595E+02 -0.25155602386E+02  0.84855346583E+02  0.00000000000E+00 0.  1.
<mgrwt>
<rscale>  0 0.11809048E+04</rscale>
<asrwt>0</asrwt>
<pdfrwt beam="1">  1        1 0.74805251E-01 0.11809048E+04</pdfrwt>
<pdfrwt beam="2">  1       -2 0.11030901E+00 0.11809048E+04</pdfrwt>
<totfact> 0.26045494E+01</totfact>
</mgrwt>
</event>
<event>
12    4  0.4398275E-008  0.2025185E+04  0.7818608E-02  0.8594936E-01
          1   -1    0    0  501    0  0.00000000000E+00  0.00000000000E+00  0.60523051346E+03  0.60523051346E+03  0.00000000000E+00 0. -1.
         -2   -1    0    0    0  501 -0.00000000000E+00 -0.00000000000E+00 -0.16941370538E+04  0.16941370538E+04  0.00000000000E+00 0.  1.
        -24    2    1    2    0    0  0.26318586369E+03 -0.44102441127E+03  0.28772634178E+03  0.59422950294E+03  0.80950134179E+02 0.  0.
        254    2    1    2    0    0 -0.26318586369E+03  0.44102441127E+03 -0.13766328821E+04  0.17051380643E+04  0.86522158785E+03 0.  0.
         23    2    4    4    0    0  0.26493725732E+03 -0.36120430971E+02 -0.30752387384E+03  0.41786948806E+03  0.92452908122E+02 0.  0.
         23    2    4    4    0    0 -0.52812312101E+03  0.47714484224E+03 -0.10691090083E+04  0.12872685763E+04  0.86516382439E+02 0.  0.
          3    1    3    3  502    0  0.60005374653E+02 -0.56167612759E+02  0.25144265466E+02  0.85951613110E+02  0.00000000000E+00 0. -1.
         -2    1    3    3    0  502  0.20318048904E+03 -0.38485679851E+03  0.26258207632E+03  0.50827788983E+03  0.00000000000E+00 0.  1.
         11    1    5    5    0    0  0.32186315775E+02  0.17756262882E+02 -0.79610665216E+02  0.87687523690E+02  0.00000000000E+00 0.  1.
        -11    1    5    5    0    0  0.23275094154E+03 -0.53876693853E+02 -0.22791320863E+03  0.33018196437E+03  0.00000000000E+00 0. -1.
          3    1    6    6  503    0 -0.45779406401E+03  0.38007065603E+03 -0.92468272714E+03  0.10995759430E+04  0.00000000000E+00 0. -1.
         -3    1    6    6    0  503 -0.70329057003E+02  0.97074186204E+02 -0.14442628113E+03  0.18769263322E+03  0.00000000000E+00 0.  1.
<mgrwt>
<rscale>  0 0.20251849E+04</rscale>
<asrwt>0</asrwt>
<pdfrwt beam="1">  1        1 0.93112389E-01 0.20251849E+04</pdfrwt>
<pdfrwt beam="2">  1       -2 0.26063646E+00 0.20251849E+04</pdfrwt>
<totfact> 0.15159238E+00</totfact>
</mgrwt>
</event>
<event>
12    4  0.4398275E-008  0.2014441E+04  0.7818608E-02  0.8599898E-01
         -2   -1    0    0    0  501 -0.00000000000E+00  0.00000000000E+00  0.52954503533E+03  0.52954503533E+03  0.00000000000E+00 0.  1.
          1   -1    0    0  501    0  0.00000000000E+00 -0.00000000000E+00 -0.19157831703E+04  0.19157831703E+04  0.00000000000E+00 0. -1.
        -24    2    1    2    0    0  0.15394811597E+03  0.27753592407E+03  0.34091209693E+03  0.47273656348E+03  0.80824433524E+02 0.  0.
        254    2    1    2    0    0 -0.15394811597E+03 -0.27753592407E+03 -0.17271502319E+04  0.19725916422E+04  0.89852303898E+03 0.  0.
         23    2    4    4    0    0  0.12287179675E+03  0.15128549081E+03 -0.12494936745E+04  0.12678529974E+04  0.90730382035E+02 0.  0.
         23    2    4    4    0    0 -0.27681991272E+03 -0.42882141488E+03 -0.47765655745E+03  0.70473864480E+03  0.89351556592E+02 0.  0.
          1    1    3    3  502    0  0.12732552018E+02  0.94235705825E+02  0.82764359213E+02  0.12606516287E+03  0.00000000000E+00 0. -1.
         -4    1    3    3    0  502  0.14121556395E+03  0.18330021825E+03  0.25814773772E+03  0.34667140061E+03  0.00000000000E+00 0.  1.
         11    1    5    5    0    0  0.75357283114E+02  0.12521461255E+03 -0.10816020575E+04  0.10914304513E+04  0.00000000000E+00 0.  1.
        -11    1    5    5    0    0  0.47514513638E+02  0.26070878260E+02 -0.16789161699E+03  0.17642254605E+03  0.00000000000E+00 0. -1.
          2    1    6    6  503    0 -0.19415353414E+03 -0.31104018864E+03 -0.28566488159E+03  0.46480750676E+03  0.00000000000E+00 0.  1.
         -2    1    6    6    0  503 -0.82666378587E+02 -0.11778122624E+03 -0.19199167586E+03  0.23993113804E+03  0.00000000000E+00 0. -1.
<mgrwt>
<rscale>  0 0.20144413E+04</rscale>
<asrwt>0</asrwt>
<pdfrwt beam="1">  1        1 0.29473588E+00 0.20144413E+04</pdfrwt>
<pdfrwt beam="2">  1       -2 0.81468465E-01 0.20144413E+04</pdfrwt>
<totfact> 0.36691846E+00</totfact>
</mgrwt>
</event>
<event>
12    4  0.4398275E-008  0.1506885E+04  0.7818608E-02  0.8879887E-01
          1   -1    0    0  501    0  0.00000000000E+00  0.00000000000E+00  0.20854792097E+04  0.20854792097E+04  0.00000000000E+00 0. -1.
         -2   -1    0    0    0  501 -0.00000000000E+00 -0.00000000000E+00 -0.27220385948E+03  0.27220385948E+03  0.00000000000E+00 0.  1.
        -24    2    1    2    0    0 -0.10136672365E+03 -0.23808168854E+03 -0.47078691803E+02  0.27484136258E+03  0.79770096421E+02 0.  0.
        254    2    1    2    0    0  0.10136672365E+03  0.23808168854E+03  0.18603540420E+04  0.20828417066E+04  0.90019681734E+03 0.  0.
         23    2    4    4    0    0 -0.19051120818E+03 -0.25090857575E+03  0.43050016510E+03  0.54107469163E+03  0.90453280466E+02 0.  0.
         23    2    4    4    0    0  0.29187793183E+03  0.48899026429E+03  0.14298538769E+04  0.15417670149E+04  0.90880214485E+02 0.  0.
          3    1    3    3  502    0 -0.52680561072E+02 -0.43563807646E+02  0.20573692990E+01  0.68390639856E+02  0.00000000000E+00 0. -1.
         -4    1    3    3    0  502 -0.48686162582E+02 -0.19451788089E+03 -0.49136061102E+02  0.20645072273E+03  0.00000000000E+00 0.  1.
         11    1    5    5    0    0  0.13397712329E+01 -0.23124567479E+02  0.87200366649E+01  0.24750346411E+02  0.00000000000E+00 0. -1.
        -11    1    5    5    0    0 -0.19185097941E+03 -0.22778400827E+03  0.42178012843E+03  0.51632434522E+03  0.00000000000E+00 0.  1.
          4    1    6    6  503    0  0.12351614560E+03  0.13021866989E+03  0.40682845865E+03  0.44466002179E+03  0.00000000000E+00 0. -1.
         -4    1    6    6    0  503  0.16836178623E+03  0.35877159440E+03  0.10230254182E+04  0.10971069931E+04  0.00000000000E+00 0.  1.
<mgrwt>
<rscale>  0 0.15068849E+04</rscale>
<asrwt>0</asrwt>
<pdfrwt beam="1">  1        1 0.32084294E+00 0.15068849E+04</pdfrwt>
<pdfrwt beam="2">  1       -2 0.41877518E-01 0.15068849E+04</pdfrwt>
<totfact> 0.11967688E+01</totfact>
</mgrwt>
</event>
<event>
12    4  0.4398275E-008  0.1446478E+04  0.7818608E-02  0.8920846E-01
          1   -1    0    0  501    0  0.00000000000E+00  0.00000000000E+00  0.10106742755E+04  0.10106742755E+04  0.00000000000E+00 0. -1.
         -2   -1    0    0    0  501 -0.00000000000E+00 -0.00000000000E+00 -0.51755013101E+03  0.51755013101E+03  0.00000000000E+00 0.  1.
        -24    2    1    2    0    0  0.22686941932E+03  0.24536918678E+03 -0.15802872693E+03  0.37622940265E+03  0.69997954546E+02 0.  0.
        254    2    1    2    0    0 -0.22686941932E+03 -0.24536918678E+03  0.65115287141E+03  0.11519950038E+04  0.88961601586E+03 0.  0.
         23    2    4    4    0    0 -0.70970117885E+02 -0.56829114388E+03  0.38398862631E+03  0.69570858626E+03  0.92582881914E+02 0.  0.
         23    2    4    4    0    0 -0.15589930144E+03  0.32292195710E+03  0.26716424509E+03  0.45628641757E+03  0.90760004601E+02 0.  0.
          1    1    3    3  502    0  0.88826178379E+00  0.60388659111E+01 -0.17122017741E+02  0.18177469626E+02  0.00000000000E+00 0. -1.
         -2    1    3    3    0  502  0.22598115754E+03  0.23933032087E+03 -0.14090670919E+03  0.35805193303E+03  0.00000000000E+00 0.  1.
         11    1    5    5    0    0  0.11150930968E+02 -0.14115602580E+03  0.62187261224E+02  0.15464999948E+03  0.00000000000E+00 0. -1.
        -11    1    5    5    0    0 -0.82121048853E+02 -0.42713511808E+03  0.32180136509E+03  0.54105858679E+03  0.00000000000E+00 0.  1.
          2    1    6    6  503    0 -0.85474321010E+02  0.82259865334E+02  0.97119964706E+02  0.15331285837E+03  0.00000000000E+00 0. -1.
         -2    1    6    6    0  503 -0.70424980428E+02  0.24066209176E+03  0.17004428039E+03  0.30297355920E+03  0.00000000000E+00 0.  1.
<mgrwt>
<rscale>  0 0.14464779E+04</rscale>
<asrwt>0</asrwt>
<pdfrwt beam="1">  1        1 0.15548835E+00 0.14464779E+04</pdfrwt>
<pdfrwt beam="2">  1       -2 0.79623098E-01 0.14464779E+04</pdfrwt>
<totfact> 0.17662812E+01</totfact>
</mgrwt>
</event>
<event>
12    4  0.4398275E-008  0.2038990E+04  0.7818608E-02  0.8588606E-01
         -2   -1    0    0    0  501 -0.00000000000E+00  0.00000000000E+00  0.51054076314E+03  0.51054076314E+03  0.00000000000E+00 0.  1.
          1   -1    0    0  501    0  0.00000000000E+00 -0.00000000000E+00 -0.20358209483E+04  0.20358209483E+04  0.00000000000E+00 0. -1.
        -24    2    1    2    0    0  0.73818493020E+03 -0.22855565018E+03 -0.28153607516E+03  0.82595287626E+03  0.76032333739E+02 0.  0.
        254    2    1    2    0    0 -0.73818493020E+03  0.22855565018E+03 -0.12437441100E+04  0.17204088352E+04  0.90319016417E+03 0.  0.
         23    2    4    4    0    0  0.60176234911E+02 -0.23602164039E+03 -0.27590594962E+03  0.37949704238E+03  0.92555486913E+02 0.  0.
         23    2    4    4    0    0 -0.79836116512E+03  0.46457729058E+03 -0.96783816041E+03  0.13409117928E+04  0.90117271109E+02 0.  0.
          1    1    3    3  502    0  0.45450122608E+03 -0.13906319143E+03 -0.13352578308E+03  0.49369937256E+03  0.00000000000E+00 0. -1.
         -2    1    3    3    0  502  0.28368370412E+03 -0.89492458758E+02 -0.14801029208E+03  0.33225350370E+03  0.00000000000E+00 0.  1.
         11    1    5    5    0    0  0.31055999189E+02 -0.24687222745E+02 -0.14849089165E+02  0.42360707047E+02  0.00000000000E+00 0.  1.
        -11    1    5    5    0    0  0.29120235722E+02 -0.21133441765E+03 -0.26105686046E+03  0.33713633533E+03  0.00000000000E+00 0. -1.
          2    1    6    6  503    0 -0.74295535458E+03  0.40320762233E+03 -0.87638379332E+03  0.12176237509E+04  0.00000000000E+00 0. -1.
         -2    1    6    6    0  503 -0.55405810535E+02  0.61369668243E+02 -0.91454367098E+02  0.12328804193E+03  0.00000000000E+00 0.  1.
<mgrwt>
<rscale>  0 0.20389895E+04</rscale>
<asrwt>0</asrwt>
<pdfrwt beam="1">  1        1 0.31320322E+00 0.20389895E+04</pdfrwt>
<pdfrwt beam="2">  1       -2 0.78544734E-01 0.20389895E+04</pdfrwt>
<totfact> 0.32957962E+00</totfact>
</mgrwt>
</event>
<event>
12    4  0.4398275E-008  0.1968968E+04  0.7818608E-02  0.8621268E-01
         -2   -1    0    0    0  501 -0.00000000000E+00  0.00000000000E+00  0.11831568537E+04  0.11831568537E+04  0.00000000000E+00 0.  1.
          1   -1    0    0  501    0  0.00000000000E+00 -0.00000000000E+00 -0.81917140208E+03  0.81917140208E+03  0.00000000000E+00 0. -1.
        -24    2    1    2    0    0 -0.48086242532E+03 -0.44359936272E+03 -0.28379482951E+03  0.71760460639E+03  0.80048729991E+02 0.  0.
        254    2    1    2    0    0  0.48086242532E+03  0.44359936272E+03  0.64778028108E+03  0.12847236493E+04  0.89603933839E+03 0.  0.
         23    2    4    4    0    0  0.90246877596E+02  0.59200652243E+03  0.14174596609E+03  0.62221125903E+03  0.91862453946E+02 0.  0.
         23    2    4    4    0    0  0.39061554772E+03 -0.14840715971E+03  0.50603431499E+03  0.66251239032E+03  0.90811608328E+02 0.  0.
          3    1    3    3  502    0 -0.33657020856E+03 -0.34710235727E+03 -0.18357114983E+03  0.51716333857E+03  0.00000000000E+00 0. -1.
         -4    1    3    3    0  502 -0.14429221676E+03 -0.96497005447E+02 -0.10022367967E+03  0.20044126782E+03  0.00000000000E+00 0.  1.
         11    1    5    5    0    0  0.59116322396E+02  0.13502460564E+03  0.24723654521E+02  0.14945782949E+03  0.00000000000E+00 0. -1.
        -11    1    5    5    0    0  0.31130555200E+02  0.45698191679E+03  0.11702231157E+03  0.47275342954E+03  0.00000000000E+00 0.  1.
          3    1    6    6  503    0  0.18370177701E+01  0.49845720260E+01 -0.10220343127E+01  0.54097270455E+01  0.00000000000E+00 0. -1.
         -3    1    6    6    0  503  0.38877852995E+03 -0.15339173173E+03  0.50705634930E+03  0.65710266328E+03  0.00000000000E+00 0.  1.
<mgrwt>
<rscale>  0 0.19689675E+04</rscale>
<asrwt>0</asrwt>
<pdfrwt beam="1">  1        1 0.12602637E+00 0.19689675E+04</pdfrwt>
<pdfrwt beam="2">  1       -2 0.18202413E+00 0.19689675E+04</pdfrwt>
<totfact> 0.30437165E+00</totfact>
</mgrwt>
</event>
<event>
12    4  0.4398275E-008  0.1877183E+04  0.7818608E-02  0.8666298E-01
         -2   -1    0    0    0  501 -0.00000000000E+00  0.00000000000E+00  0.80307367975E+03  0.80307367975E+03  0.00000000000E+00 0.  1.
          1   -1    0    0  501    0  0.00000000000E+00 -0.00000000000E+00 -0.10969779976E+04  0.10969779976E+04  0.00000000000E+00 0. -1.
        -24    2    1    2    0    0  0.15973605379E+03 -0.57018993131E+03 -0.53289401934E+03  0.80069454206E+03  0.80644585689E+02 0.  0.
        254    2    1    2    0    0 -0.15973605379E+03  0.57018993131E+03  0.23898970148E+03  0.10993571353E+04  0.89489545136E+03 0.  0.
         23    2    4    4    0    0  0.24467396904E+03  0.59412415445E+03  0.22081142369E+03  0.68536211648E+03  0.90081539948E+02 0.  0.
         23    2    4    4    0    0 -0.40441002282E+03 -0.23934223145E+02  0.18178277787E+02  0.41399501882E+03  0.83313337634E+02 0.  0.
          3    1    3    3  502    0  0.15919701579E+03 -0.51916067886E+03 -0.45974432242E+03  0.71150287582E+03  0.00000000000E+00 0. -1.
         -4    1    3    3    0  502  0.53903799385E+00 -0.51029252452E+02 -0.73149696914E+02  0.89191666238E+02  0.00000000000E+00 0.  1.
         11    1    5    5    0    0  0.19510554356E+03  0.36051967984E+03  0.13420398365E+03  0.43133666887E+03  0.00000000000E+00 0. -1.
        -11    1    5    5    0    0  0.49568425474E+02  0.23360447461E+03  0.86607440038E+02  0.25402544760E+03  0.00000000000E+00 0.  1.
          4    1    6    6  503    0 -0.35183912309E+03 -0.89250165620E+01  0.41824908670E+02  0.35442876216E+03  0.00000000000E+00 0. -1.
         -4    1    6    6    0  503 -0.52570899729E+02 -0.15009206583E+02 -0.23646630883E+02  0.59566256662E+02  0.00000000000E+00 0.  1.
<mgrwt>
<rscale>  0 0.18771832E+04</rscale>
<asrwt>0</asrwt>
<pdfrwt beam="1">  1        1 0.16876585E+00 0.18771832E+04</pdfrwt>
<pdfrwt beam="2">  1       -2 0.12354980E+00 0.18771832E+04</pdfrwt>
<totfact> 0.51728942E+00</totfact>
</mgrwt>
</event>
<event>
12    4  0.4398275E-008  0.1776099E+04  0.7818608E-02  0.8719114E-01
          1   -1    0    0  501    0  0.00000000000E+00  0.00000000000E+00  0.88607722366E+03  0.88607722366E+03  0.00000000000E+00 0. -1.
         -2   -1    0    0    0  501 -0.00000000000E+00 -0.00000000000E+00 -0.89002649200E+03  0.89002649200E+03  0.00000000000E+00 0.  1.
        -24    2    1    2    0    0  0.33287509924E+02  0.47251691961E+03  0.45784888395E+03  0.66342181769E+03  0.78247108594E+02 0.  0.
        254    2    1    2    0    0 -0.33287509924E+02 -0.47251691961E+03 -0.46179815229E+03  0.11126818980E+04  0.89466372173E+03 0.  0.
         23    2    4    4    0    0  0.33647964415E+03  0.60603243683E+02 -0.11357403871E+03  0.37078049969E+03  0.87680172238E+02 0.  0.
         23    2    4    4    0    0 -0.36976715408E+03 -0.53312016330E+03 -0.34822411359E+03  0.74190139829E+03  0.90624471056E+02 0.  0.
          3    1    3    3  502    0  0.36781146113E+02  0.47429928963E+03  0.45636607648E+03  0.65922884086E+03  0.00000000000E+00 0. -1.
         -4    1    3    3    0  502 -0.34936361885E+01 -0.17823700157E+01  0.14828074738E+01  0.41929768297E+01  0.00000000000E+00 0.  1.
         11    1    5    5    0    0  0.28286825633E+03  0.42669879106E+02 -0.12650084820E+03  0.31279007916E+03  0.00000000000E+00 0. -1.
        -11    1    5    5    0    0  0.53611387822E+02  0.17933364576E+02  0.12926809496E+02  0.57990420528E+02  0.00000000000E+00 0.  1.
          1    1    6    6  503    0 -0.34090674291E+03 -0.43456049035E+03 -0.29782510955E+03  0.62750300638E+03  0.00000000000E+00 0. -1.
         -1    1    6    6    0  503 -0.28860411166E+02 -0.98559672949E+02 -0.50399004034E+02  0.11439839191E+03  0.00000000000E+00 0.  1.
<mgrwt>
<rscale>  0 0.17760993E+04</rscale>
<asrwt>0</asrwt>
<pdfrwt beam="1">  1        1 0.13631957E+00 0.17760993E+04</pdfrwt>
<pdfrwt beam="2">  1       -2 0.13692715E+00 0.17760993E+04</pdfrwt>
<totfact> 0.58882696E+00</totfact>
</mgrwt>
</event>
<event>
12    4  0.4398275E-008  0.1838341E+04  0.7818608E-02  0.8686172E-01
          1   -1    0    0  501    0  0.00000000000E+00  0.00000000000E+00  0.14894928002E+04  0.14894928002E+04  0.00000000000E+00 0. -1.
         -2   -1    0    0    0  501 -0.00000000000E+00 -0.00000000000E+00 -0.56722309547E+03  0.56722309547E+03  0.00000000000E+00 0.  1.
        -24    2    1    2    0    0  0.36251976668E+03  0.10579752717E+03 -0.30240580893E+03  0.49034790100E+03  0.79862962328E+02 0.  0.
        254    2    1    2    0    0 -0.36251976668E+03 -0.10579752717E+03  0.12246755136E+04  0.15663679946E+04  0.90059140731E+03 0.  0.
         23    2    4    4    0    0  0.49576760223E+02 -0.24715611717E+02 -0.11638637580E+03  0.15812870280E+03  0.91597934256E+02 0.  0.
         23    2    4    4    0    0 -0.41209652691E+03 -0.81081915456E+02  0.13410618894E+04  0.14082392918E+04  0.91066389453E+02 0.  0.
          1    1    3    3  502    0  0.15185271421E+01  0.10976882779E+02 -0.20741986815E+01  0.11273871580E+02  0.00000000000E+00 0. -1.
         -2    1    3    3    0  502  0.36100123954E+03  0.94820644394E+02 -0.30033161025E+03  0.47907402942E+03  0.00000000000E+00 0.  1.
         11    1    5    5    0    0  0.53709351920E+02 -0.22598992805E+01 -0.12310297390E+03  0.13432849218E+03  0.00000000000E+00 0.  1.
        -11    1    5    5    0    0 -0.41325916965E+01 -0.22455712437E+02  0.67165981047E+01  0.23800210614E+02  0.00000000000E+00 0. -1.
          2    1    6    6  503    0 -0.17746945893E+02 -0.15793130271E+02  0.15062257179E+03  0.15248454408E+03  0.00000000000E+00 0. -1.
         -2    1    6    6    0  503 -0.39434958101E+03 -0.65288785184E+02  0.11904393176E+04  0.12557547478E+04  0.00000000000E+00 0.  1.
<mgrwt>
<rscale>  0 0.18383413E+04</rscale>
<asrwt>0</asrwt>
<pdfrwt beam="1">  1        1 0.22915274E+00 0.18383413E+04</pdfrwt>
<pdfrwt beam="2">  1       -2 0.87265092E-01 0.18383413E+04</pdfrwt>
<totfact> 0.62299654E+00</totfact>
</mgrwt>
</event>
<event>
12    4  0.4398275E-008  0.1080550E+04  0.7818608E-02  0.9224359E-01
          1   -1    0    0  501    0  0.00000000000E+00  0.00000000000E+00  0.15032181988E+04  0.15032181988E+04  0.00000000000E+00 0. -1.
         -2   -1    0    0    0  501 -0.00000000000E+00 -0.00000000000E+00 -0.19418144389E+03  0.19418144389E+03  0.00000000000E+00 0.  1.
        -24    2    1    2    0    0 -0.78075615087E+02  0.57957152495E+02  0.34997565391E+03  0.37181430898E+03  0.79423477854E+02 0.  0.
        254    2    1    2    0    0  0.78075615087E+02 -0.57957152495E+02  0.95906110100E+03  0.13255853337E+04  0.90990298840E+03 0.  0.
         23    2    4    4    0    0 -0.11793676194E+03  0.27049907680E+03  0.86645626916E+03  0.91966520449E+03  0.89212059824E+02 0.  0.
         23    2    4    4    0    0  0.19601237703E+03 -0.32845622930E+03  0.92604831846E+02  0.40592012922E+03  0.99454260413E+02 0.  0.
          1    1    3    3  502    0 -0.77135012386E+02  0.40302209714E+02  0.34110791056E+03  0.35203506202E+03  0.00000000000E+00 0. -1.
         -2    1    3    3    0  502 -0.94060270126E+00  0.17654942781E+02  0.88677433439E+01  0.19779246954E+02  0.00000000000E+00 0.  1.
         11    1    5    5    0    0 -0.10288881051E+03  0.22503685626E+03  0.80240524655E+03  0.83969153485E+03  0.00000000000E+00 0.  1.
        -11    1    5    5    0    0 -0.15047951438E+02  0.45462220540E+02  0.64051022605E+02  0.79973669640E+02  0.00000000000E+00 0. -1.
          4    1    6    6  503    0  0.85876983357E+02 -0.10669812509E+03  0.78616890813E+02  0.15792391107E+03  0.00000000000E+00 0. -1.
         -4    1    6    6    0  503  0.11013539367E+03 -0.22175810421E+03  0.13987941033E+02  0.24799621815E+03  0.00000000000E+00 0.  1.
<mgrwt>
<rscale>  0 0.10805500E+04</rscale>
<asrwt>0</asrwt>
<pdfrwt beam="1">  1        1 0.23126433E+00 0.10805500E+04</pdfrwt>
<pdfrwt beam="2">  1       -2 0.29874069E-01 0.10805500E+04</pdfrwt>
<totfact> 0.58885287E+01</totfact>
</mgrwt>
</event>
<event>
12    4  0.4398275E-008  0.2433560E+04  0.7818608E-02  0.8427045E-01
         -2   -1    0    0    0  501 -0.00000000000E+00  0.00000000000E+00  0.23427060959E+04  0.23427060959E+04  0.00000000000E+00 0.  1.
          1   -1    0    0  501    0  0.00000000000E+00 -0.00000000000E+00 -0.63198416051E+03  0.63198416051E+03  0.00000000000E+00 0. -1.
        -24    2    1    2    0    0  0.42762911050E+03 -0.40539211043E+03  0.17971544885E+04  0.18929122089E+04  0.78377011447E+02 0.  0.
        254    2    1    2    0    0 -0.42762911050E+03  0.40539211043E+03 -0.86432553100E+02  0.10817780475E+04  0.90308567611E+03 0.  0.
         23    2    4    4    0    0 -0.42854502598E+03  0.60277252743E+03  0.15085446849E+03  0.75984449321E+03  0.87298476943E+02 0.  0.
         23    2    4    4    0    0  0.91591548393E+00 -0.19738041700E+03 -0.23728702159E+03  0.32193355426E+03  0.91521663129E+02 0.  0.
          3    1    3    3  502    0  0.11980581985E+03 -0.68353522694E+02  0.42718489250E+03  0.44890151583E+03  0.00000000000E+00 0. -1.
         -4    1    3    3    0  502  0.30782329065E+03 -0.33703858773E+03  0.13699695960E+04  0.14440106931E+04  0.00000000000E+00 0.  1.
         11    1    5    5    0    0 -0.20605644062E+03  0.27327334207E+03  0.26539738210E+02  0.34328112957E+03  0.00000000000E+00 0. -1.
        -11    1    5    5    0    0 -0.22248858536E+03  0.32949918536E+03  0.12431473028E+03  0.41656336364E+03  0.00000000000E+00 0.  1.
          4    1    6    6  503    0  0.32654229172E+02 -0.17411244960E+03 -0.18109630462E+03  0.25333242062E+03  0.00000000000E+00 0. -1.
         -4    1    6    6    0  503 -0.31738313688E+02 -0.23267967405E+02 -0.56190716968E+02  0.68601133637E+02  0.00000000000E+00 0.  1.
<mgrwt>
<rscale>  0 0.24335597E+04</rscale>
<asrwt>0</asrwt>
<pdfrwt beam="1">  1        1 0.97228334E-01 0.24335597E+04</pdfrwt>
<pdfrwt beam="2">  1       -2 0.36041632E+00 0.24335597E+04</pdfrwt>
<totfact> 0.33252133E-01</totfact>
</mgrwt>
</event>
<event>
12    4  0.4398275E-008  0.2588248E+04  0.7818608E-02  0.8372204E-01
         -2   -1    0    0    0  501 -0.00000000000E+00  0.00000000000E+00  0.24063710588E+04  0.24063710588E+04  0.00000000000E+00 0.  1.
          1   -1    0    0  501    0  0.00000000000E+00 -0.00000000000E+00 -0.69596809204E+03  0.69596809204E+03  0.00000000000E+00 0. -1.
        -24    2    1    2    0    0 -0.23856632839E+03 -0.91284706619E+03  0.15106808686E+04  0.17830106664E+04  0.82259896308E+02 0.  0.
        254    2    1    2    0    0  0.23856632839E+03  0.91284706619E+03  0.19972209811E+03  0.13193284844E+04  0.90029721420E+03 0.  0.
         23    2    4    4    0    0 -0.21543811770E+03  0.48419334453E+03 -0.19872457672E+03  0.57297270214E+03  0.89159870780E+02 0.  0.
         23    2    4    4    0    0  0.45400444609E+03  0.42865372166E+03  0.39844667483E+03  0.74635578223E+03  0.91777725094E+02 0.  0.
          1    1    3    3  502    0 -0.68318456011E+01 -0.80320871587E+02  0.97068175293E+02  0.12617585816E+03  0.00000000000E+00 0. -1.
         -2    1    3    3    0  502 -0.23173448279E+03 -0.83252619460E+03  0.14136126933E+04  0.16568348083E+04  0.00000000000E+00 0.  1.
         11    1    5    5    0    0 -0.29203421291E+02  0.12247995911E+03 -0.79936344248E+02  0.14914422326E+03  0.00000000000E+00 0. -1.
        -11    1    5    5    0    0 -0.18623469640E+03  0.36171338542E+03 -0.11878823247E+03  0.42382847888E+03  0.00000000000E+00 0.  1.
          1    1    6    6  503    0  0.29488486251E+03  0.33213960187E+03  0.29816873034E+03  0.53495643656E+03  0.00000000000E+00 0. -1.
         -1    1    6    6    0  503  0.15911958358E+03  0.96514119785E+02  0.10027794449E+03  0.21139934566E+03  0.00000000000E+00 0.  1.
<mgrwt>
<rscale>  0 0.25882484E+04</rscale>
<asrwt>0</asrwt>
<pdfrwt beam="1">  1        1 0.10707201E+00 0.25882484E+04</pdfrwt>
<pdfrwt beam="2">  1       -2 0.37021093E+00 0.25882484E+04</pdfrwt>
<totfact> 0.24593466E-01</totfact>
</mgrwt>
</event>
<event>
12    4  0.4398275E-008  0.1341565E+04  0.7818608E-02  0.8997238E-01
          1   -1    0    0  501    0  0.00000000000E+00  0.00000000000E+00  0.16217458904E+04  0.16217458904E+04  0.00000000000E+00 0. -1.
         -2   -1    0    0    0  501 -0.00000000000E+00 -0.00000000000E+00 -0.27744726785E+03  0.27744726785E+03  0.00000000000E+00 0.  1.
        -24    2    1    2    0    0 -0.25382959641E+03 -0.27666337888E+03  0.48580934301E+03  0.61917345916E+03  0.79956022535E+02 0.  0.
        254    2    1    2    0    0  0.25382959641E+03  0.27666337888E+03  0.85848927954E+03  0.12800196991E+04  0.87205188937E+03 0.  0.
         23    2    4    4    0    0 -0.21578366278E+03  0.43348777917E+02 -0.33831750611E+02  0.24100866887E+03  0.92189399910E+02 0.  0.
         23    2    4    4    0    0  0.46961325919E+03  0.23331460096E+03  0.89232103015E+03  0.10390110302E+04  0.91295037270E+02 0.  0.
          3    1    3    3  502    0 -0.17521795240E+03 -0.21512475620E+03  0.30270877862E+03  0.41062464152E+03  0.00000000000E+00 0. -1.
         -4    1    3    3    0  502 -0.78611644018E+02 -0.61538622679E+02  0.18310056439E+03  0.20854881764E+03  0.00000000000E+00 0.  1.
         11    1    5    5    0    0 -0.12254714721E+02 -0.17976071425E+02  0.10041066380E+02  0.23961222648E+02  0.00000000000E+00 0.  1.
        -11    1    5    5    0    0 -0.20352894805E+03  0.61324849341E+02 -0.43872816991E+02  0.21704744623E+03  0.00000000000E+00 0. -1.
          1    1    6    6  503    0  0.21134557048E+03  0.10497032028E+03  0.31419731809E+03  0.39294487272E+03  0.00000000000E+00 0. -1.
         -1    1    6    6    0  503  0.25826768871E+03  0.12834428068E+03  0.57812371206E+03  0.64606615750E+03  0.00000000000E+00 0.  1.
<mgrwt>
<rscale>  0 0.13415647E+04</rscale>
<asrwt>0</asrwt>
<pdfrwt beam="1">  1        1 0.24949936E+00 0.13415647E+04</pdfrwt>
<pdfrwt beam="2">  1       -2 0.42684196E-01 0.13415647E+04</pdfrwt>
<totfact> 0.24115405E+01</totfact>
</mgrwt>
</event>
<event>
12    4  0.4398275E-008  0.1824585E+04  0.7818608E-02  0.8693334E-01
          1   -1    0    0  501    0  0.00000000000E+00  0.00000000000E+00  0.88859678796E+03  0.88859678796E+03  0.00000000000E+00 0. -1.
         -2   -1    0    0    0  501 -0.00000000000E+00 -0.00000000000E+00 -0.93662015593E+03  0.93662015593E+03  0.00000000000E+00 0.  1.
        -24    2    1    2    0    0 -0.56146621203E+02 -0.13693578760E+03  0.65505738434E+03  0.67626621993E+03  0.79573679355E+02 0.  0.
        254    2    1    2    0    0  0.56146621203E+02  0.13693578760E+03 -0.70308075231E+03  0.11489507240E+04  0.89658316336E+03 0.  0.
         23    2    4    4    0    0 -0.54421152535E+02 -0.35712130933E+03 -0.17453553039E+03  0.41129513965E+03  0.90574550058E+02 0.  0.
         23    2    4    4    0    0  0.11056777374E+03  0.49405709693E+03 -0.52854522192E+03  0.73765558431E+03  0.91967721672E+02 0.  0.
          1    1    3    3  502    0 -0.71510815584E+02 -0.10538568018E+03  0.57364760924E+03  0.58761511036E+03  0.00000000000E+00 0. -1.
         -2    1    3    3    0  502  0.15364194382E+02 -0.31550107422E+02  0.81409775097E+02  0.88651109574E+02  0.00000000000E+00 0.  1.
         11    1    5    5    0    0  0.79248402972E+01 -0.89299895475E+02 -0.81047661181E+02  0.12085527630E+03  0.00000000000E+00 0. -1.
        -11    1    5    5    0    0 -0.62345992832E+02 -0.26782141385E+03 -0.93487869205E+02  0.29043986336E+03  0.00000000000E+00 0.  1.
          4    1    6    6  503    0  0.10743004711E+03  0.47667073064E+03 -0.52879530948E+03  0.71998658307E+03  0.00000000000E+00 0.  1.
         -4    1    6    6    0  503  0.31377266297E+01  0.17386366286E+02  0.25008755504E+00  0.17669001240E+02  0.00000000000E+00 0. -1.
<mgrwt>
<rscale>  0 0.18245851E+04</rscale>
<asrwt>0</asrwt>
<pdfrwt beam="1">  1        1 0.13670720E+00 0.18245851E+04</pdfrwt>
<pdfrwt beam="2">  1       -2 0.14409541E+00 0.18245851E+04</pdfrwt>
<totfact> 0.51099177E+00</totfact>
</mgrwt>
</event>
<event>
12    4  0.4398275E-008  0.1385548E+04  0.7818608E-02  0.8964347E-01
         -2   -1    0    0    0  501 -0.00000000000E+00  0.00000000000E+00  0.10403988122E+04  0.10403988122E+04  0.00000000000E+00 0.  1.
          1   -1    0    0  501    0  0.00000000000E+00 -0.00000000000E+00 -0.46129965928E+03  0.46129965928E+03  0.00000000000E+00 0. -1.
        -24    2    1    2    0    0 -0.31136409424E+03  0.61673242610E+02 -0.93260491656E+02  0.34015681312E+03  0.79107206821E+02 0.  0.
        254    2    1    2    0    0  0.31136409424E+03 -0.61673242610E+02  0.67235964460E+03  0.11615416584E+04  0.89239024224E+03 0.  0.
         23    2    4    4    0    0  0.29858929080E+03 -0.44963352373E+03  0.43032583380E+03  0.69630492521E+03  0.91292690852E+02 0.  0.
         23    2    4    4    0    0  0.12774803443E+02  0.38796028112E+03  0.24203381081E+03  0.46523673318E+03  0.84784886617E+02 0.  0.
          1    1    3    3  502    0 -0.21190353270E+03  0.58107685435E+02 -0.28860049201E+02  0.22161343081E+03  0.00000000000E+00 0. -1.
         -4    1    3    3    0  502 -0.99460561545E+02  0.35655571753E+01 -0.64400442455E+02  0.11854338231E+03  0.00000000000E+00 0.  1.
         11    1    5    5    0    0  0.27067205571E+03 -0.43583061721E+03  0.42136670853E+03  0.66389878122E+03  0.00000000000E+00 0. -1.
        -11    1    5    5    0    0  0.27917235087E+02 -0.13802906516E+02  0.89591252668E+01  0.32406143997E+02  0.00000000000E+00 0.  1.
          1    1    6    6  503    0  0.23838363589E+02  0.37657567183E+03  0.24383760931E+03  0.44925970652E+03  0.00000000000E+00 0. -1.
         -1    1    6    6    0  503 -0.11063560146E+02  0.11384609287E+02 -0.18037985015E+01  0.15977026656E+02  0.00000000000E+00 0.  1.
<mgrwt>
<rscale>  0 0.13855477E+04</rscale>
<asrwt>0</asrwt>
<pdfrwt beam="1">  1        1 0.70969179E-01 0.13855477E+04</pdfrwt>
<pdfrwt beam="2">  1       -2 0.16006135E+00 0.13855477E+04</pdfrwt>
<totfact> 0.10620439E+01</totfact>
</mgrwt>
</event>
<event>
12    4  0.4398275E-008  0.1531257E+04  0.7818608E-02  0.8863930E-01
         -2   -1    0    0    0  501 -0.00000000000E+00  0.00000000000E+00  0.75000956242E+03  0.75000956242E+03  0.00000000000E+00 0.  1.
          1   -1    0    0  501    0  0.00000000000E+00 -0.00000000000E+00 -0.78157249209E+03  0.78157249209E+03  0.00000000000E+00 0. -1.
        -24    2    1    2    0    0 -0.42717387518E+03 -0.21364860395E+03 -0.16134197322E+03  0.51155189515E+03  0.86780547975E+02 0.  0.
        254    2    1    2    0    0  0.42717387518E+03  0.21364860395E+03  0.12977904355E+03  0.10200301594E+04  0.89190564538E+03 0.  0.
         23    2    4    4    0    0  0.25168677264E+03 -0.25316977518E+03  0.31011243625E+03  0.48210990808E+03  0.93909923680E+02 0.  0.
         23    2    4    4    0    0  0.17548710254E+03  0.46681837913E+03 -0.18033339270E+03  0.53792025128E+03  0.90127365251E+02 0.  0.
          1    1    3    3  502    0 -0.27362526256E+03 -0.91659174016E+02 -0.11009677994E+03  0.30885836470E+03  0.00000000000E+00 0. -1.
         -2    1    3    3    0  502 -0.15354861262E+03 -0.12198942993E+03 -0.51245193279E+02  0.20269353045E+03  0.00000000000E+00 0.  1.
         11    1    5    5    0    0  0.18121543508E+03 -0.15158026081E+03  0.15012845556E+03  0.27991813544E+03  0.00000000000E+00 0.  1.
        -11    1    5    5    0    0  0.70471337565E+02 -0.10158951436E+03  0.15998398069E+03  0.20219177264E+03  0.00000000000E+00 0. -1.
          4    1    6    6  503    0 -0.73731020671E+01  0.35276090316E+01 -0.62949476756E+01  0.10316638300E+02  0.00000000000E+00 0. -1.
         -4    1    6    6    0  503  0.18286020460E+03  0.46329077009E+03 -0.17403844503E+03  0.52760361298E+03  0.00000000000E+00 0.  1.
<mgrwt>
<rscale>  0 0.15312568E+04</rscale>
<asrwt>0</asrwt>
<pdfrwt beam="1">  1        1 0.12024192E+00 0.15312568E+04</pdfrwt>
<pdfrwt beam="2">  1       -2 0.11538609E+00 0.15312568E+04</pdfrwt>
<totfact> 0.11342928E+01</totfact>
</mgrwt>
</event>
<event>
12    4  0.4398275E-008  0.2803289E+04  0.7818608E-02  0.8302248E-01
         -4   -1    0    0    0  501 -0.00000000000E+00  0.00000000000E+00  0.15935176079E+04  0.15935176079E+04  0.00000000000E+00 0.  1.
          3   -1    0    0  501    0  0.00000000000E+00 -0.00000000000E+00 -0.12328742531E+04  0.12328742531E+04  0.00000000000E+00 0. -1.
        -24    2    1    2    0    0  0.31104329022E+03 -0.91802339478E+03  0.87591702711E+03  0.13087321574E+04  0.77681012591E+02 0.  0.
        254    2    1    2    0    0 -0.31104329022E+03  0.91802339478E+03 -0.51527367234E+03  0.15176597035E+04  0.10479833665E+04 0.  0.
         23    2    4    4    0    0  0.29891957929E+03  0.11539800699E+03  0.76978623450E+02  0.34465316671E+03  0.10094791702E+03 0.  0.
         23    2    4    4    0    0 -0.60996286951E+03  0.80262538779E+03 -0.59225229579E+03  0.11730065368E+04  0.94442248240E+02 0.  0.
          3    1    3    3  502    0  0.18651546525E+02 -0.22662582286E+02  0.16457654528E+02  0.33650070078E+02  0.00000000000E+00 0. -1.
         -4    1    3    3    0  502  0.29239174369E+03 -0.89536081249E+03  0.85945937258E+03  0.12750820873E+04  0.00000000000E+00 0.  1.
         11    1    5    5    0    0  0.52867355060E+02  0.27914084675E+02  0.57236905868E+02  0.82766036196E+02  0.00000000000E+00 0. -1.
        -11    1    5    5    0    0  0.24605222423E+03  0.87483922316E+02  0.19741717583E+02  0.26188713051E+03  0.00000000000E+00 0.  1.
          4    1    6    6  503    0 -0.34147356975E+03  0.51156046303E+03 -0.39091165679E+03  0.72877309884E+03  0.00000000000E+00 0. -1.
         -4    1    6    6    0  503 -0.26848929976E+03  0.29106492475E+03 -0.20134063900E+03  0.44423343798E+03  0.00000000000E+00 0.  1.
<mgrwt>
<rscale>  0 0.28032887E+04</rscale>
<asrwt>0</asrwt>
<pdfrwt beam="1">  1        3 0.18967296E+00 0.28032887E+04</pdfrwt>
<pdfrwt beam="2">  1       -4 0.24515656E+00 0.28032887E+04</pdfrwt>
<totfact> 0.22950312E-02</totfact>
</mgrwt>
</event>
<event>
12    4  0.4398275E-008  0.2744290E+04  0.7818608E-02  0.8320776E-01
         -2   -1    0    0    0  501 -0.00000000000E+00  0.00000000000E+00  0.78095659585E+03  0.78095659585E+03  0.00000000000E+00 0.  1.
          1   -1    0    0  501    0  0.00000000000E+00 -0.00000000000E+00 -0.24108657881E+04  0.24108657881E+04  0.00000000000E+00 0. -1.
        -24    2    1    2    0    0 -0.97526700665E+03  0.68141305482E+03 -0.10806469312E+04  0.16091816536E+04  0.78729403787E+02 0.  0.
        254    2    1    2    0    0  0.97526700665E+03 -0.68141305482E+03 -0.54926226110E+03  0.15826407303E+04  0.88746445806E+03 0.  0.
         23    2    4    4    0    0  0.69182086580E+03 -0.91860981651E+02  0.29487397412E+02  0.70466555500E+03  0.92895034840E+02 0.  0.
         23    2    4    4    0    0  0.28344614085E+03 -0.58955207317E+03 -0.57874965852E+03  0.87797517533E+03  0.89307779805E+02 0.  0.
          3    1    3    3  502    0 -0.67363364313E+03  0.49691072553E+03 -0.79803360774E+03  0.11565293742E+04  0.00000000000E+00 0. -1.
         -4    1    3    3    0  502 -0.30163336352E+03  0.18450232929E+03 -0.28261332344E+03  0.45265227944E+03  0.00000000000E+00 0.  1.
         11    1    5    5    0    0  0.35530865929E+02  0.24537915432E+01 -0.18055782460E+02  0.39930875358E+02  0.00000000000E+00 0. -1.
        -11    1    5    5    0    0  0.65628999987E+03 -0.94314773194E+02  0.47543179871E+02  0.66473467964E+03  0.00000000000E+00 0.  1.
          2    1    6    6  503    0  0.28762381885E+02 -0.11439800470E+03 -0.72656994221E+02  0.13853958604E+03  0.00000000000E+00 0. -1.
         -2    1    6    6    0  503  0.25468375896E+03 -0.47515406846E+03 -0.50609266429E+03  0.73943558929E+03  0.00000000000E+00 0.  1.
<mgrwt>
<rscale>  0 0.27442897E+04</rscale>
<asrwt>0</asrwt>
<pdfrwt beam="1">  1        1 0.37090243E+00 0.27442897E+04</pdfrwt>
<pdfrwt beam="2">  1       -2 0.12014717E+00 0.27442897E+04</pdfrwt>
<totfact> 0.63217547E-01</totfact>
</mgrwt>
</event>
<event>
12    4  0.4398275E-008  0.3133503E+04  0.7818608E-02  0.8206603E-01
          1   -1    0    0  501    0  0.00000000000E+00  0.00000000000E+00  0.18650174963E+04  0.18650174963E+04  0.00000000000E+00 0. -1.
         -2   -1    0    0    0  501 -0.00000000000E+00 -0.00000000000E+00 -0.13161863857E+04  0.13161863857E+04  0.00000000000E+00 0.  1.
        -24    2    1    2    0    0 -0.87238560628E+03  0.51633656268E+03  0.12595239620E+04  0.16188328328E+04  0.80987887828E+02 0.  0.
        254    2    1    2    0    0  0.87238560628E+03 -0.51633656268E+03 -0.71069285137E+03  0.15623710491E+04  0.95302616647E+03 0.  0.
         23    2    4    4    0    0  0.19346691904E+03  0.21636011489E+03  0.43020266021E+02  0.30764815874E+03  0.92495936161E+02 0.  0.
         23    2    4    4    0    0  0.67891868724E+03 -0.73269667757E+03 -0.75371311739E+03  0.12547228903E+04  0.92038377794E+02 0.  0.
          3    1    3    3  502    0 -0.76357803728E+03  0.47111595338E+03  0.11433992392E+04  0.14533972206E+04  0.00000000000E+00 0. -1.
         -4    1    3    3    0  502 -0.10880756901E+03  0.45220609299E+02  0.11612472276E+03  0.16543561229E+03  0.00000000000E+00 0.  1.
         11    1    5    5    0    0  0.12143860962E+03  0.89407285449E+02 -0.12873522769E+02  0.15134968182E+03  0.00000000000E+00 0.  1.
        -11    1    5    5    0    0  0.72028309420E+02  0.12695282945E+03  0.55893788790E+02  0.15629847692E+03  0.00000000000E+00 0. -1.
          3    1    6    6  503    0  0.24394641116E+03 -0.32980868063E+03 -0.30662296057E+03  0.51215354855E+03  0.00000000000E+00 0. -1.
         -3    1    6    6    0  503  0.43497227608E+03 -0.40288799694E+03 -0.44709015682E+03  0.74256934178E+03  0.00000000000E+00 0.  1.
<mgrwt>
<rscale>  0 0.31335032E+04</rscale>
<asrwt>0</asrwt>
<pdfrwt beam="1">  1        1 0.28692577E+00 0.31335032E+04</pdfrwt>
<pdfrwt beam="2">  1       -2 0.20249021E+00 0.31335032E+04</pdfrwt>
<totfact> 0.34864069E-01</totfact>
</mgrwt>
</event>
<event>
12    4  0.4398275E-008  0.2117505E+04  0.7818608E-02  0.8553571E-01
          1   -1    0    0  501    0  0.00000000000E+00  0.00000000000E+00  0.91498400776E+03  0.91498400776E+03  0.00000000000E+00 0. -1.
         -2   -1    0    0    0  501 -0.00000000000E+00 -0.00000000000E+00 -0.12251111643E+04  0.12251111643E+04  0.00000000000E+00 0.  1.
        -24    2    1    2    0    0  0.40429799007E+03 -0.73303261125E+03  0.12433343732E+03  0.85009726822E+03  0.80080508629E+02 0.  0.
        254    2    1    2    0    0 -0.40429799007E+03  0.73303261125E+03 -0.43446059382E+03  0.12899979038E+04  0.88008233155E+03 0.  0.
         23    2    4    4    0    0 -0.32754504702E+03 -0.97667983583E+01 -0.41614329050E+03  0.53713947331E+03  0.89232434604E+02 0.  0.
         23    2    4    4    0    0 -0.76752943053E+02  0.74279940961E+03 -0.18317303320E+02  0.75285843050E+03  0.93905886845E+02 0.  0.
          1    1    3    3  502    0  0.31555374990E+03 -0.57047652843E+03  0.13017241974E+03  0.66480260035E+03  0.00000000000E+00 0. -1.
         -4    1    3    3    0  502  0.88744240170E+02 -0.16255608282E+03 -0.58389824257E+01  0.18529466787E+03  0.00000000000E+00 0.  1.
         11    1    5    5    0    0 -0.93957309046E+02 -0.40151223830E+02 -0.10078814911E+03  0.14352124476E+03  0.00000000000E+00 0. -1.
        -11    1    5    5    0    0 -0.23358773797E+03  0.30384425471E+02 -0.31535514139E+03  0.39361822855E+03  0.00000000000E+00 0.  1.
          2    1    6    6  503    0 -0.68245709118E+02  0.64354127068E+03 -0.47946888720E+02  0.64892353018E+03  0.00000000000E+00 0.  1.
         -2    1    6    6    0  503 -0.85072339343E+01  0.99258138931E+02  0.29629585400E+02  0.10393490032E+03  0.00000000000E+00 0. -1.
<mgrwt>
<rscale>  0 0.21175053E+04</rscale>
<asrwt>0</asrwt>
<pdfrwt beam="1">  1        1 0.14076677E+00 0.21175053E+04</pdfrwt>
<pdfrwt beam="2">  1       -2 0.18847864E+00 0.21175053E+04</pdfrwt>
<totfact> 0.22590879E+00</totfact>
</mgrwt>
</event>
<event>
12    4  0.4398275E-008  0.2049586E+04  0.7818608E-02  0.8583782E-01
          1   -1    0    0  501    0  0.00000000000E+00  0.00000000000E+00  0.88095366061E+03  0.88095366061E+03  0.00000000000E+00 0. -1.
         -2   -1    0    0    0  501 -0.00000000000E+00 -0.00000000000E+00 -0.11921178799E+04  0.11921178799E+04  0.00000000000E+00 0.  1.
        -24    2    1    2    0    0 -0.78664358522E+02 -0.40283670567E+03 -0.85898203441E+03  0.95531840354E+03  0.79483482369E+02 0.  0.
        254    2    1    2    0    0  0.78664358522E+02  0.40283670567E+03  0.54781781507E+03  0.11177531370E+04  0.88363013986E+03 0.  0.
         23    2    4    4    0    0  0.12832248453E+03  0.35165113135E+03 -0.14641200561E+03  0.41372529548E+03  0.98015134144E+02 0.  0.
         23    2    4    4    0    0 -0.49658126006E+02  0.51185574317E+02  0.69422982068E+03  0.70402784154E+03  0.92813066131E+02 0.  0.
          3    1    3    3  502    0 -0.14985167821E+02 -0.22532645428E+02 -0.26527290806E+02  0.37894228085E+02  0.00000000000E+00 0. -1.
         -4    1    3    3    0  502 -0.63679190702E+02 -0.38030406024E+03 -0.83245474360E+03  0.91742417545E+03  0.00000000000E+00 0.  1.
         11    1    5    5    0    0  0.13713173967E+03  0.34678716781E+03 -0.15141972284E+03  0.40248526215E+03  0.00000000000E+00 0.  1.
        -11    1    5    5    0    0 -0.88092551384E+01  0.48639635408E+01  0.50077172368E+01  0.11240033334E+02  0.00000000000E+00 0. -1.
          3    1    6    6  503    0 -0.44790957039E+02  0.18020004128E+02  0.12793490938E+03  0.13674169598E+03  0.00000000000E+00 0. -1.
         -3    1    6    6    0  503 -0.48671689662E+01  0.33165570188E+02  0.56629491130E+03  0.56728614556E+03  0.00000000000E+00 0.  1.
<mgrwt>
<rscale>  0 0.20495859E+04</rscale>
<asrwt>0</asrwt>
<pdfrwt beam="1">  1        1 0.13553133E+00 0.20495859E+04</pdfrwt>
<pdfrwt beam="2">  1       -2 0.18340275E+00 0.20495859E+04</pdfrwt>
<totfact> 0.26233825E+00</totfact>
</mgrwt>
</event>
<event>
12    4  0.4398275E-008  0.1639490E+04  0.7818608E-02  0.8796649E-01
         -2   -1    0    0    0  501 -0.00000000000E+00  0.00000000000E+00  0.25555259113E+03  0.25555259113E+03  0.00000000000E+00 0.  1.
          1   -1    0    0  501    0  0.00000000000E+00 -0.00000000000E+00 -0.26295238601E+04  0.26295238601E+04  0.00000000000E+00 0. -1.
        -24    2    1    2    0    0  0.37905999999E+03 -0.24764815932E+03 -0.22881023558E+03  0.51350677473E+03  0.79492071205E+02 0.  0.
        254    2    1    2    0    0 -0.37905999999E+03  0.24764815932E+03 -0.21451610334E+04  0.23715696765E+04  0.90421832370E+03 0.  0.
         23    2    4    4    0    0 -0.19118853740E+03  0.53361870717E+03 -0.82361649067E+03  0.10030805988E+04  0.80774888309E+02 0.  0.
         23    2    4    4    0    0 -0.18787146259E+03 -0.28597054785E+03 -0.13215445427E+04  0.13684890777E+04  0.95955909708E+02 0.  0.
          3    1    3    3  502    0  0.13205911221E+03 -0.50768730038E+02 -0.95296309922E+02  0.17058270649E+03  0.00000000000E+00 0. -1.
         -4    1    3    3    0  502  0.24700088777E+03 -0.19687942929E+03 -0.13351392566E+03  0.34292406824E+03  0.00000000000E+00 0.  1.
         11    1    5    5    0    0  0.25985788213E+00  0.82475741806E+02 -0.11933693104E+03  0.14506418794E+03  0.00000000000E+00 0. -1.
        -11    1    5    5    0    0 -0.19144839528E+03  0.45114296536E+03 -0.70427955963E+03  0.85801641089E+03  0.00000000000E+00 0.  1.
          3    1    6    6  503    0 -0.70878939554E+02 -0.49766768667E+02 -0.43728180509E+03  0.44577565254E+03  0.00000000000E+00 0. -1.
         -3    1    6    6    0  503 -0.11699252303E+03 -0.23620377918E+03 -0.88426273762E+03  0.92271342511E+03  0.00000000000E+00 0.  1.
<mgrwt>
<rscale>  0 0.16394897E+04</rscale>
<asrwt>0</asrwt>
<pdfrwt beam="1">  1        1 0.40454214E+00 0.16394897E+04</pdfrwt>
<pdfrwt beam="2">  1       -2 0.39315782E-01 0.16394897E+04</pdfrwt>
<totfact> 0.56662593E+00</totfact>
</mgrwt>
</event>
<event>
12    4  0.4398275E-008  0.1968188E+04  0.7818608E-02  0.8621640E-01
         -4   -1    0    0    0  501 -0.00000000000E+00  0.00000000000E+00  0.70274433196E+03  0.70274433196E+03  0.00000000000E+00 0.  1.
          3   -1    0    0  501    0  0.00000000000E+00 -0.00000000000E+00 -0.13780849158E+04  0.13780849158E+04  0.00000000000E+00 0. -1.
        -24    2    1    2    0    0  0.27072271879E+03  0.23344746980E+02  0.49740164818E+03  0.57233376999E+03  0.79509603050E+02 0.  0.
        254    2    1    2    0    0 -0.27072271879E+03 -0.23344746980E+02 -0.11727422320E+04  0.15084954778E+04  0.90906462700E+03 0.  0.
         23    2    4    4    0    0 -0.59718457722E+03  0.21030708992E+02 -0.70784536088E+03  0.93130953558E+03  0.96024403889E+02 0.  0.
         23    2    4    4    0    0  0.32646185844E+03 -0.44375455971E+02 -0.46489687113E+03  0.57718594220E+03  0.92021654941E+02 0.  0.
          3    1    3    3  502    0  0.14365966218E+03  0.20752066253E+02  0.18554504298E+03  0.23557527410E+03  0.00000000000E+00 0. -1.
         -4    1    3    3    0  502  0.12706305660E+03  0.25926807262E+01  0.31185660519E+03  0.33675849588E+03  0.00000000000E+00 0.  1.
         11    1    5    5    0    0 -0.45079433656E+02 -0.17368336677E+02 -0.87663606342E+02  0.10009356790E+03  0.00000000000E+00 0. -1.
        -11    1    5    5    0    0 -0.55210514357E+03  0.38399045669E+02 -0.62018175454E+03  0.83121596768E+03  0.00000000000E+00 0.  1.
          2    1    6    6  503    0  0.11975976277E+03  0.10687634206E+02 -0.11085974731E+03  0.16354360238E+03  0.00000000000E+00 0. -1.
         -2    1    6    6    0  503  0.20670209567E+03 -0.55063090178E+02 -0.35403712382E+03  0.41364233982E+03  0.00000000000E+00 0.  1.
<mgrwt>
<rscale>  0 0.19681884E+04</rscale>
<asrwt>0</asrwt>
<pdfrwt beam="1">  1        3 0.21201306E+00 0.19681884E+04</pdfrwt>
<pdfrwt beam="2">  1       -4 0.10811451E+00 0.19681884E+04</pdfrwt>
<totfact> 0.18097355E-01</totfact>
</mgrwt>
</event>
<event>
12    4  0.4398275E-008  0.2521443E+04  0.7818608E-02  0.8395386E-01
          1   -1    0    0  501    0  0.00000000000E+00  0.00000000000E+00  0.83917693371E+03  0.83917693371E+03  0.00000000000E+00 0. -1.
         -2   -1    0    0    0  501 -0.00000000000E+00 -0.00000000000E+00 -0.18940213556E+04  0.18940213556E+04  0.00000000000E+00 0.  1.
        -24    2    1    2    0    0 -0.80767907345E+03  0.23486859844E+03 -0.12223263908E+04  0.14863476576E+04  0.87400284009E+02 0.  0.
        254    2    1    2    0    0  0.80767907345E+03 -0.23486859844E+03  0.16748196886E+03  0.12468506317E+04  0.90502902915E+03 0.  0.
         23    2    4    4    0    0  0.76176978333E+03  0.18002583122E+03  0.21429381641E+03  0.81689028379E+03  0.93195457461E+02 0.  0.
         23    2    4    4    0    0  0.45909290112E+02 -0.41489442966E+03 -0.46811847552E+02  0.42996034788E+03  0.91812313979E+02 0.  0.
          1    1    3    3  502    0 -0.44511121311E+03  0.14433613149E+03 -0.60686978790E+03  0.76632098389E+03  0.00000000000E+00 0. -1.
         -2    1    3    3    0  502 -0.36256786033E+03  0.90532466952E+02 -0.61545660285E+03  0.72002667375E+03  0.00000000000E+00 0.  1.
         11    1    5    5    0    0  0.17719871405E+03  0.94475845791E+01  0.25035343717E+02  0.17920772738E+03  0.00000000000E+00 0.  1.
        -11    1    5    5    0    0  0.58457106928E+03  0.17057824664E+03  0.18925847269E+03  0.63768255641E+03  0.00000000000E+00 0. -1.
          1    1    6    6  503    0  0.56362096438E+02 -0.33129843315E+03 -0.68494933428E+02  0.34296777345E+03  0.00000000000E+00 0. -1.
         -1    1    6    6    0  503 -0.10452806326E+02 -0.83595996515E+02  0.21683085876E+02  0.86992574433E+02  0.00000000000E+00 0.  1.
<mgrwt>
<rscale>  0 0.25214433E+04</rscale>
<asrwt>0</asrwt>
<pdfrwt beam="1">  1        1 0.12910414E+00 0.25214433E+04</pdfrwt>
<pdfrwt beam="2">  1       -2 0.29138790E+00 0.25214433E+04</pdfrwt>
<totfact> 0.57077237E-01</totfact>
</mgrwt>
</event>
<event>
12    4  0.4398275E-008  0.1210057E+04  0.7818608E-02  0.9104099E-01
          1   -1    0    0  501    0  0.00000000000E+00  0.00000000000E+00  0.15856902339E+03  0.15856902339E+03  0.00000000000E+00 0. -1.
         -2   -1    0    0    0  501 -0.00000000000E+00 -0.00000000000E+00 -0.23085184774E+04  0.23085184774E+04  0.00000000000E+00 0.  1.
        -24    2    1    2    0    0 -0.13085380454E+03 -0.22346312506E+03 -0.55085102669E+03  0.61453119667E+03  0.84576897876E+02 0.  0.
        254    2    1    2    0    0  0.13085380454E+03  0.22346312506E+03 -0.15990984274E+04  0.18525563042E+04  0.89877171364E+03 0.  0.
         23    2    4    4    0    0 -0.31003205516E+03  0.30037909257E+03 -0.53005831653E+03  0.68986444915E+03  0.92755942109E+02 0.  0.
         23    2    4    4    0    0  0.44088585970E+03 -0.76915967509E+02 -0.10690401108E+04  0.11626918550E+04  0.93323007770E+02 0.  0.
          3    1    3    3  502    0 -0.26790851139E+02 -0.58076624127E+02 -0.66574625219E+02  0.92319145889E+02  0.00000000000E+00 0. -1.
         -4    1    3    3    0  502 -0.10406295340E+03 -0.16538650093E+03 -0.48427640147E+03  0.52221205078E+03  0.00000000000E+00 0.  1.
         11    1    5    5    0    0 -0.55176813836E+02  0.16872672918E+02 -0.97502156341E+02  0.11329535899E+03  0.00000000000E+00 0.  1.
        -11    1    5    5    0    0 -0.25485524133E+03  0.28350641965E+03 -0.43255616019E+03  0.57656909016E+03  0.00000000000E+00 0. -1.
          1    1    6    6  503    0  0.26561612114E+03 -0.91520186818E+02 -0.67949829770E+03  0.73528620617E+03  0.00000000000E+00 0. -1.
         -1    1    6    6    0  503  0.17526973856E+03  0.14604219309E+02 -0.38954181313E+03  0.42740564883E+03  0.00000000000E+00 0.  1.
<mgrwt>
<rscale>  0 0.12100571E+04</rscale>
<asrwt>0</asrwt>
<pdfrwt beam="1">  1        1 0.24395234E-01 0.12100571E+04</pdfrwt>
<pdfrwt beam="2">  1       -2 0.35515670E+00 0.12100571E+04</pdfrwt>
<totfact> 0.25452731E+00</totfact>
</mgrwt>
</event>
<event>
12    4  0.4398275E-008  0.2311925E+04  0.7818608E-02  0.8473234E-01
         -2   -1    0    0    0  501 -0.00000000000E+00  0.00000000000E+00  0.45942970448E+03  0.45942970448E+03  0.00000000000E+00 0.  1.
          1   -1    0    0  501    0  0.00000000000E+00 -0.00000000000E+00 -0.29084958944E+04  0.29084958944E+04  0.00000000000E+00 0. -1.
        -24    2    1    2    0    0  0.49495681221E+03  0.84168835657E+03 -0.10207847219E+04  0.14148743453E+04  0.80289656046E+02 0.  0.
        254    2    1    2    0    0 -0.49495681221E+03 -0.84168835657E+03 -0.14282814680E+04  0.19530512536E+04  0.90609034422E+03 0.  0.
         23    2    4    4    0    0 -0.35892423156E+03  0.81794683228E+02 -0.28789965959E+03  0.47648101121E+03  0.92902991620E+02 0.  0.
         23    2    4    4    0    0 -0.13603258065E+03 -0.92348303980E+03 -0.11403818084E+04  0.14765702424E+04  0.91995782563E+02 0.  0.
          3    1    3    3  502    0  0.11272001041E+03  0.15555923772E+03 -0.16423407267E+03  0.25273960476E+03  0.00000000000E+00 0. -1.
         -4    1    3    3    0  502  0.38223680180E+03  0.68612911885E+03 -0.85655064927E+03  0.11621347405E+04  0.00000000000E+00 0.  1.
         11    1    5    5    0    0 -0.14797957294E+03  0.35098607485E+02 -0.62995620463E+02  0.16461565677E+03  0.00000000000E+00 0. -1.
        -11    1    5    5    0    0 -0.21094465861E+03  0.46696075743E+02 -0.22490403912E+03  0.31186535444E+03  0.00000000000E+00 0.  1.
          2    1    6    6  503    0 -0.56123234456E+02 -0.34698094480E+03 -0.36096920986E+03  0.50382969739E+03  0.00000000000E+00 0. -1.
         -2    1    6    6    0  503 -0.79909346195E+02 -0.57650209500E+03 -0.77941259856E+03  0.97274054503E+03  0.00000000000E+00 0.  1.
<mgrwt>
<rscale>  0 0.23119251E+04</rscale>
<asrwt>0</asrwt>
<pdfrwt beam="1">  1        1 0.44746090E+00 0.23119251E+04</pdfrwt>
<pdfrwt beam="2">  1       -2 0.70681494E-01 0.23119251E+04</pdfrwt>
<totfact> 0.10065318E+00</totfact>
</mgrwt>
</event>
<event>
12    4  0.4398275E-008  0.1261368E+04  0.7818608E-02  0.9060775E-01
         -2   -1    0    0    0  501 -0.00000000000E+00  0.00000000000E+00  0.30858825780E+03  0.30858825780E+03  0.00000000000E+00 0.  1.
          1   -1    0    0  501    0  0.00000000000E+00 -0.00000000000E+00 -0.12889736094E+04  0.12889736094E+04  0.00000000000E+00 0. -1.
        -24    2    1    2    0    0  0.37695265359E+02 -0.33795178189E+02 -0.59011228197E+03  0.59745410327E+03  0.78459244688E+02 0.  0.
        254    2    1    2    0    0 -0.37695265359E+02  0.33795178189E+02 -0.39027306959E+03  0.10001077639E+04  0.91942341904E+03 0.  0.
         23    2    4    4    0    0 -0.32015325081E+03 -0.25579830833E+03  0.14842035683E+02  0.42028612151E+03  0.92137176866E+02 0.  0.
         23    2    4    4    0    0  0.28245798545E+03  0.28959348652E+03 -0.40511510527E+03  0.57982164240E+03  0.91804071205E+02 0.  0.
          3    1    3    3  502    0  0.53116723501E+02  0.78408001457E+00 -0.40829917442E+03  0.41174047279E+03  0.00000000000E+00 0. -1.
         -4    1    3    3    0  502 -0.15421458142E+02 -0.34579258204E+02 -0.18181310755E+03  0.18571363048E+03  0.00000000000E+00 0.  1.
         11    1    5    5    0    0 -0.22454397699E+03 -0.12201109695E+03  0.64472555989E+01  0.25563308175E+03  0.00000000000E+00 0.  1.
        -11    1    5    5    0    0 -0.95609273824E+02 -0.13378721138E+03  0.83947800846E+01  0.16465303976E+03  0.00000000000E+00 0. -1.
          1    1    6    6  503    0  0.97411430126E+01  0.52291037750E+02 -0.56753940606E+02  0.77783367570E+02  0.00000000000E+00 0. -1.
         -1    1    6    6    0  503  0.27271684244E+03  0.23730244877E+03 -0.34836116467E+03  0.50203827483E+03  0.00000000000E+00 0.  1.
<mgrwt>
<rscale>  0 0.12613677E+04</rscale>
<asrwt>0</asrwt>
<pdfrwt beam="1">  1        1 0.19830363E+00 0.12613677E+04</pdfrwt>
<pdfrwt beam="2">  1       -2 0.47475116E-01 0.12613677E+04</pdfrwt>
<totfact> 0.33471643E+01</totfact>
</mgrwt>
</event>
<event>
12    4  0.4398275E-008  0.2874611E+04  0.7818608E-02  0.8280472E-01
          1   -1    0    0  501    0  0.00000000000E+00  0.00000000000E+00  0.19068292270E+04  0.19068292270E+04  0.00000000000E+00 0. -1.
         -2   -1    0    0    0  501 -0.00000000000E+00 -0.00000000000E+00 -0.10833941898E+04  0.10833941898E+04  0.00000000000E+00 0.  1.
        -24    2    1    2    0    0  0.77159929481E+03  0.73515827927E+03  0.11458588060E+04  0.15668095729E+04  0.77952979289E+02 0.  0.
        254    2    1    2    0    0 -0.77159929481E+03 -0.73515827927E+03 -0.32242376880E+03  0.14234138439E+04  0.88675065091E+03 0.  0.
         23    2    4    4    0    0 -0.25294470374E+03 -0.80554758272E+03 -0.13555910437E+03  0.86022161309E+03  0.93364991706E+02 0.  0.
         23    2    4    4    0    0 -0.51865459107E+03  0.70389303458E+02 -0.18686466443E+03  0.56319223077E+03  0.91158362778E+02 0.  0.
          3    1    3    3  502    0  0.58943375036E+03  0.58344268232E+03  0.84832715851E+03  0.11863795672E+04  0.00000000000E+00 0. -1.
         -4    1    3    3    0  502  0.18216554445E+03  0.15171559695E+03  0.29753164749E+03  0.38043000565E+03  0.00000000000E+00 0.  1.
         11    1    5    5    0    0 -0.23354766342E+03 -0.71270291641E+03 -0.91219770825E+02  0.75552035362E+03  0.00000000000E+00 0.  1.
        -11    1    5    5    0    0 -0.19397040324E+02 -0.92844666313E+02 -0.44339333545E+02  0.10470125947E+03  0.00000000000E+00 0. -1.
          2    1    6    6  503    0 -0.31870617368E+03  0.15611011363E+01 -0.94394952616E+02  0.33239504999E+03  0.00000000000E+00 0. -1.
         -2    1    6    6    0  503 -0.19994841739E+03  0.68828202322E+02 -0.92469711814E+02  0.23079718078E+03  0.00000000000E+00 0.  1.
<mgrwt>
<rscale>  0 0.28746114E+04</rscale>
<asrwt>0</asrwt>
<pdfrwt beam="1">  1        1 0.29335834E+00 0.28746114E+04</pdfrwt>
<pdfrwt beam="2">  1       -2 0.16667603E+00 0.28746114E+04</pdfrwt>
<totfact> 0.58681556E-01</totfact>
</mgrwt>
</event>
<event>
12    4  0.4398275E-008  0.2267958E+04  0.7818608E-02  0.8490663E-01
         -2   -1    0    0    0  501 -0.00000000000E+00  0.00000000000E+00  0.13171578627E+04  0.13171578627E+04  0.00000000000E+00 0.  1.
          1   -1    0    0  501    0  0.00000000000E+00 -0.00000000000E+00 -0.97627493674E+03  0.97627493674E+03  0.00000000000E+00 0. -1.
        -24    2    1    2    0    0  0.60541904744E+03  0.58962571286E+03  0.58047749636E+03  0.10284109543E+04  0.80524920699E+02 0.  0.
        254    2    1    2    0    0 -0.60541904744E+03 -0.58962571286E+03 -0.23959457045E+03  0.12650218451E+04  0.91032082593E+03 0.  0.
         23    2    4    4    0    0 -0.96331205844E+02 -0.67774782659E+03 -0.57555701978E+01  0.69067124484E+03  0.91497673163E+02 0.  0.
         23    2    4    4    0    0 -0.50908784159E+03  0.88122113729E+02 -0.23383900025E+03  0.57435060026E+03  0.90895525691E+02 0.  0.
          3    1    3    3  502    0  0.25810584341E+03  0.24033016243E+03  0.19546940782E+03  0.40321892660E+03  0.00000000000E+00 0. -1.
         -2    1    3    3    0  502  0.34731320402E+03  0.34929555043E+03  0.38500808854E+03  0.62519202768E+03  0.00000000000E+00 0.  1.
         11    1    5    5    0    0 -0.11398393294E+03 -0.59010085834E+03 -0.11016876129E+02  0.60110958364E+03  0.00000000000E+00 0. -1.
        -11    1    5    5    0    0  0.17652727094E+02 -0.87646968247E+02  0.52613059316E+01  0.89561661200E+02  0.00000000000E+00 0.  1.
          1    1    6    6  503    0 -0.37947067703E+03  0.84991495896E+02 -0.21188277544E+03  0.44284970320E+03  0.00000000000E+00 0. -1.
         -1    1    6    6    0  503 -0.12961716457E+03  0.31306178326E+01 -0.21956224811E+02  0.13150089706E+03  0.00000000000E+00 0.  1.
<mgrwt>
<rscale>  0 0.22679579E+04</rscale>
<asrwt>0</asrwt>
<pdfrwt beam="1">  1        1 0.15019614E+00 0.22679579E+04</pdfrwt>
<pdfrwt beam="2">  1       -2 0.20263967E+00 0.22679579E+04</pdfrwt>
<totfact> 0.16040814E+00</totfact>
</mgrwt>
</event>
<event>
12    4  0.4398275E-008  0.1865218E+04  0.7818608E-02  0.8672366E-01
          1   -1    0    0  501    0  0.00000000000E+00  0.00000000000E+00  0.85807189447E+03  0.85807189447E+03  0.00000000000E+00 0. -1.
         -2   -1    0    0    0  501 -0.00000000000E+00 -0.00000000000E+00 -0.10136208706E+04  0.10136208706E+04  0.00000000000E+00 0.  1.
        -24    2    1    2    0    0  0.45644495022E+03 -0.42279606714E+03 -0.41938931421E+03  0.75460514532E+03  0.80268434057E+02 0.  0.
        254    2    1    2    0    0 -0.45644495022E+03  0.42279606714E+03  0.26384033813E+03  0.11170876197E+04  0.88947991495E+03 0.  0.
         23    2    4    4    0    0 -0.37782559684E+03  0.23856317941E+03  0.57554086841E+03  0.73495747935E+03  0.96180211291E+02 0.  0.
         23    2    4    4    0    0 -0.78619353381E+02  0.18423288773E+03 -0.31170053028E+03  0.38213014036E+03  0.93506491481E+02 0.  0.
          1    1    3    3  502    0  0.12367098608E+03 -0.14864261833E+03 -0.97573636913E+02  0.21658660023E+03  0.00000000000E+00 0. -1.
         -2    1    3    3    0  502  0.33277396414E+03 -0.27415344881E+03 -0.32181567729E+03  0.53801854509E+03  0.00000000000E+00 0.  1.
         11    1    5    5    0    0 -0.31001289216E+03  0.20686764538E+03  0.52798477641E+03  0.64627404414E+03  0.00000000000E+00 0. -1.
        -11    1    5    5    0    0 -0.67812704683E+02  0.31695534032E+02  0.47556091993E+02  0.88683435205E+02  0.00000000000E+00 0.  1.
          3    1    6    6  503    0 -0.73817645273E+02  0.15212313759E+03 -0.18198414841E+03  0.24841240713E+03  0.00000000000E+00 0. -1.
         -3    1    6    6    0  503 -0.48017081077E+01  0.32109750135E+02 -0.12971638187E+03  0.13371773323E+03  0.00000000000E+00 0.  1.
<mgrwt>
<rscale>  0 0.18652180E+04</rscale>
<asrwt>0</asrwt>
<pdfrwt beam="1">  1        1 0.13201106E+00 0.18652180E+04</pdfrwt>
<pdfrwt beam="2">  1       -2 0.15594167E+00 0.18652180E+04</pdfrwt>
<totfact> 0.43770664E+00</totfact>
</mgrwt>
</event>
<event>
12    4  0.4398275E-008  0.1270404E+04  0.7818608E-02  0.9053370E-01
         -4   -1    0    0    0  501 -0.00000000000E+00  0.00000000000E+00  0.15219508822E+04  0.15219508822E+04  0.00000000000E+00 0.  1.
          3   -1    0    0  501    0  0.00000000000E+00 -0.00000000000E+00 -0.26510824989E+03  0.26510824989E+03  0.00000000000E+00 0. -1.
        -24    2    1    2    0    0  0.31481482318E+03 -0.18922175762E+03  0.31495768987E+03  0.49037951195E+03  0.79752572870E+02 0.  0.
        254    2    1    2    0    0 -0.31481482318E+03  0.18922175762E+03  0.94188494246E+03  0.12966796202E+04  0.81198371046E+03 0.  0.
         23    2    4    4    0    0 -0.23987053346E+03 -0.26957770237E+03  0.62203550131E+03  0.72500004272E+03  0.92124299893E+02 0.  0.
         23    2    4    4    0    0 -0.74944289726E+02  0.45879945998E+03  0.31984944116E+03  0.57167957744E+03  0.91653058892E+02 0.  0.
          1    1    3    3  502    0  0.92266756969E+02 -0.67192684260E+02  0.53723807549E+02  0.12615172911E+03  0.00000000000E+00 0. -1.
         -2    1    3    3    0  502  0.22254806621E+03 -0.12202907336E+03  0.26123388232E+03  0.36422778284E+03  0.00000000000E+00 0.  1.
         11    1    5    5    0    0  0.35909610224E+01 -0.32145272340E+02  0.55092501724E+02  0.63885814397E+02  0.00000000000E+00 0. -1.
        -11    1    5    5    0    0 -0.24346149448E+03 -0.23743243003E+03  0.56694299958E+03  0.66111422833E+03  0.00000000000E+00 0.  1.
          4    1    6    6  503    0 -0.15670502633E+02  0.67188551220E+01  0.56796826278E+01  0.17971267670E+02  0.00000000000E+00 0. -1.
         -4    1    6    6    0  503 -0.59273787093E+02  0.45208060486E+03  0.31416975853E+03  0.55370830977E+03  0.00000000000E+00 0.  1.
<mgrwt>
<rscale>  0 0.12704042E+04</rscale>
<asrwt>0</asrwt>
<pdfrwt beam="1">  1        3 0.40785886E-01 0.12704042E+04</pdfrwt>
<pdfrwt beam="2">  1       -4 0.23414628E+00 0.12704042E+04</pdfrwt>
<totfact> 0.10688379E+00</totfact>
</mgrwt>
</event>
<event>
12    4  0.4398275E-008  0.2316018E+04  0.7818608E-02  0.8471632E-01
         -2   -1    0    0    0  501 -0.00000000000E+00  0.00000000000E+00  0.13888106406E+04  0.13888106406E+04  0.00000000000E+00 0.  1.
          1   -1    0    0  501    0  0.00000000000E+00 -0.00000000000E+00 -0.96556361144E+03  0.96556361144E+03  0.00000000000E+00 0. -1.
        -24    2    1    2    0    0 -0.79177781456E+03 -0.43772303596E+02 -0.40435354707E+03  0.89369692556E+03  0.79776447272E+02 0.  0.
        254    2    1    2    0    0  0.79177781456E+03  0.43772303596E+02  0.82760057621E+03  0.14606773265E+04  0.90544321529E+03 0.  0.
         23    2    4    4    0    0  0.73705944521E+03 -0.15447035870E+03  0.18711841518E+03  0.78124431960E+03  0.90618254835E+02 0.  0.
         23    2    4    4    0    0  0.54718369349E+02  0.19824266229E+03  0.64048216103E+03  0.67943300687E+03  0.95485910612E+02 0.  0.
          3    1    3    3  502    0 -0.52550576292E+03 -0.58728861882E+02 -0.24247958298E+03  0.58172307350E+03  0.00000000000E+00 0. -1.
         -4    1    3    3    0  502 -0.26627205164E+03  0.14956558286E+02 -0.16187396409E+03  0.31197385206E+03  0.00000000000E+00 0.  1.
         11    1    5    5    0    0  0.25545262683E+03 -0.38793259902E+02  0.22758484851E+02  0.25938178463E+03  0.00000000000E+00 0. -1.
        -11    1    5    5    0    0  0.48160681839E+03 -0.11567709879E+03  0.16435993033E+03  0.52186253497E+03  0.00000000000E+00 0.  1.
          2    1    6    6  503    0  0.61104120853E+02  0.10181789929E+03  0.24422986769E+03  0.27156735163E+03  0.00000000000E+00 0. -1.
         -2    1    6    6    0  503 -0.63857515034E+01  0.96424763004E+02  0.39625229334E+03  0.40786565524E+03  0.00000000000E+00 0.  1.
<mgrwt>
<rscale>  0 0.23160181E+04</rscale>
<asrwt>0</asrwt>
<pdfrwt beam="1">  1        1 0.14854825E+00 0.23160181E+04</pdfrwt>
<pdfrwt beam="2">  1       -2 0.21366318E+00 0.23160181E+04</pdfrwt>
<totfact> 0.13825344E+00</totfact>
</mgrwt>
</event>
<event>
12    4  0.4398275E-008  0.1887871E+04  0.7818608E-02  0.8660917E-01
         -4   -1    0    0    0  501 -0.00000000000E+00  0.00000000000E+00  0.12449729773E+04  0.12449729773E+04  0.00000000000E+00 0.  1.
          1   -1    0    0  501    0  0.00000000000E+00 -0.00000000000E+00 -0.71568978747E+03  0.71568978747E+03  0.00000000000E+00 0. -1.
        -24    2    1    2    0    0 -0.59570855921E+02 -0.61699691870E+03  0.60020318617E+03  0.86675635501E+03  0.82394354807E+02 0.  0.
        254    2    1    2    0    0  0.59570855921E+02  0.61699691870E+03 -0.70919996385E+02  0.10939064097E+04  0.89853642262E+03 0.  0.
         23    2    4    4    0    0  0.22560770186E+03  0.58280632942E+03  0.28292045579E+03  0.69206329723E+03  0.91354093098E+02 0.  0.
         23    2    4    4    0    0 -0.16603684594E+03  0.34190589281E+02 -0.35384045217E+03  0.40184311249E+03  0.86819300014E+02 0.  0.
          1    1    3    3  502    0 -0.34707890650E+02 -0.74364176424E+02  0.75072469269E+02  0.11122294750E+03  0.00000000000E+00 0. -1.
         -2    1    3    3    0  502 -0.24862965270E+02 -0.54263274227E+03  0.52513071690E+03  0.75553340751E+03  0.00000000000E+00 0.  1.
         11    1    5    5    0    0 -0.70775001486E+01  0.16397063304E+02  0.16355789972E+02  0.24217071643E+02  0.00000000000E+00 0.  1.
        -11    1    5    5    0    0  0.23268520201E+03  0.56640926611E+03  0.26656466581E+03  0.66784622559E+03  0.00000000000E+00 0. -1.
          3    1    6    6  503    0 -0.92811255626E+02  0.23041559924E+02 -0.28539915635E+03  0.30099422104E+03  0.00000000000E+00 0. -1.
         -3    1    6    6    0  503 -0.73225590314E+02  0.11149029358E+02 -0.68441295826E+02  0.10084889145E+03  0.00000000000E+00 0.  1.
<mgrwt>
<rscale>  0 0.18878712E+04</rscale>
<asrwt>0</asrwt>
<pdfrwt beam="1">  1        1 0.11010612E+00 0.18878712E+04</pdfrwt>
<pdfrwt beam="2">  1       -4 0.19153430E+00 0.18878712E+04</pdfrwt>
<totfact> 0.17779610E+00</totfact>
</mgrwt>
</event>
<event>
12    4  0.4398275E-008  0.2149122E+04  0.7818608E-02  0.8539908E-01
          1   -1    0    0  501    0  0.00000000000E+00  0.00000000000E+00  0.63931907231E+03  0.63931907231E+03  0.00000000000E+00 0. -1.
         -2   -1    0    0    0  501 -0.00000000000E+00 -0.00000000000E+00 -0.18061107357E+04  0.18061107357E+04  0.00000000000E+00 0.  1.
        -24    2    1    2    0    0 -0.60568478997E+03 -0.60351544125E+03 -0.67411979391E+03  0.10916537756E+04  0.78648055923E+02 0.  0.
        254    2    1    2    0    0  0.60568478997E+03  0.60351544125E+03 -0.49267186942E+03  0.13537760323E+04  0.92676805196E+03 0.  0.
         23    2    4    4    0    0  0.76034455062E+02  0.79077057926E+02 -0.57957141704E+03  0.59790630648E+03  0.97747145378E+02 0.  0.
         23    2    4    4    0    0  0.52965033491E+03  0.52443838333E+03  0.86899547621E+02  0.75586972584E+03  0.90677537958E+02 0.  0.
          1    1    3    3  502    0 -0.31603270471E+03 -0.29428426121E+03 -0.29382347061E+03  0.52231420498E+03  0.00000000000E+00 0. -1.
         -2    1    3    3    0  502 -0.28965208526E+03 -0.30923118004E+03 -0.38029632330E+03  0.56933957066E+03  0.00000000000E+00 0.  1.
         11    1    5    5    0    0 -0.21412676854E+02  0.26296198036E+02 -0.96480035530E+02  0.10226627018E+03  0.00000000000E+00 0. -1.
        -11    1    5    5    0    0  0.97447131916E+02  0.52780859889E+02 -0.48309138151E+03  0.49564003630E+03  0.00000000000E+00 0.  1.
          3    1    6    6  503    0  0.20069044813E+03  0.14358003414E+03  0.45400298968E+02  0.25090450239E+03  0.00000000000E+00 0. -1.
         -3    1    6    6    0  503  0.32895988678E+03  0.38085834918E+03  0.41499248653E+02  0.50496522345E+03  0.00000000000E+00 0.  1.
<mgrwt>
<rscale>  0 0.21491217E+04</rscale>
<asrwt>0</asrwt>
<pdfrwt beam="1">  1        1 0.98356781E-01 0.21491217E+04</pdfrwt>
<pdfrwt beam="2">  1       -2 0.27786319E+00 0.21491217E+04</pdfrwt>
<totfact> 0.10868540E+00</totfact>
</mgrwt>
</event>
<event>
12    4  0.4398275E-008  0.1581955E+04  0.7818608E-02  0.8831711E-01
          1   -1    0    0  501    0  0.00000000000E+00  0.00000000000E+00  0.17242910440E+04  0.17242910440E+04  0.00000000000E+00 0. -1.
         -2   -1    0    0    0  501 -0.00000000000E+00 -0.00000000000E+00 -0.36284188705E+03  0.36284188705E+03  0.00000000000E+00 0.  1.
        -24    2    1    2    0    0 -0.27208476511E+03 -0.45124927995E+03  0.38236230167E+03  0.65615223569E+03  0.81723892455E+02 0.  0.
        254    2    1    2    0    0  0.27208476511E+03  0.45124927995E+03  0.97908685527E+03  0.14309806953E+04  0.90079889444E+03 0.  0.
         23    2    4    4    0    0  0.58740456813E+03  0.33364043932E+03  0.74730139070E+03  0.10120559012E+04  0.97147872423E+02 0.  0.
         23    2    4    4    0    0 -0.31531980302E+03  0.11760884064E+03  0.23178546457E+03  0.41892479418E+03  0.92277104555E+02 0.  0.
          3    1    3    3  502    0 -0.97814566341E+02 -0.21922202206E+03  0.20786341955E+03  0.31754241532E+03  0.00000000000E+00 0. -1.
         -4    1    3    3    0  502 -0.17427019877E+03 -0.23202725790E+03  0.17449888212E+03  0.33860982036E+03  0.00000000000E+00 0.  1.
         11    1    5    5    0    0  0.60269125408E+01 -0.54748256965E+01  0.32809629107E+01  0.87785026516E+01  0.00000000000E+00 0.  1.
        -11    1    5    5    0    0  0.58137765559E+03  0.33911526501E+03  0.74402042779E+03  0.10032773985E+04  0.00000000000E+00 0. -1.
          1    1    6    6  503    0 -0.23330079306E+03  0.92275521664E+02  0.12034935070E+03  0.27825886896E+03  0.00000000000E+00 0. -1.
         -1    1    6    6    0  503 -0.82019009957E+02  0.25333318973E+02  0.11143611387E+03  0.14066592522E+03  0.00000000000E+00 0.  1.
<mgrwt>
<rscale>  0 0.15819545E+04</rscale>
<asrwt>0</asrwt>
<pdfrwt beam="1">  1        1 0.26527554E+00 0.15819545E+04</pdfrwt>
<pdfrwt beam="2">  1       -2 0.55821830E-01 0.15819545E+04</pdfrwt>
<totfact> 0.11664163E+01</totfact>
</mgrwt>
</event>
<event>
12    4  0.4398275E-008  0.2498493E+04  0.7818608E-02  0.8403523E-01
         -2   -1    0    0    0  501 -0.00000000000E+00  0.00000000000E+00  0.79269753400E+03  0.79269753400E+03  0.00000000000E+00 0.  1.
          1   -1    0    0  501    0  0.00000000000E+00 -0.00000000000E+00 -0.19687410784E+04  0.19687410784E+04  0.00000000000E+00 0. -1.
        -24    2    1    2    0    0  0.39629299032E+03  0.23436788569E+03  0.57424160992E+03  0.74023760054E+03  0.78878632528E+02 0.  0.
        254    2    1    2    0    0 -0.39629299032E+03 -0.23436788569E+03 -0.17502851543E+04  0.20212010118E+04  0.89987719657E+03 0.  0.
         23    2    4    4    0    0 -0.48572030375E+03 -0.21654579728E+03 -0.41703104326E+03  0.68172951783E+03  0.89576496045E+02 0.  0.
         23    2    4    4    0    0  0.89427313428E+02 -0.17822088413E+02 -0.13332541110E+04  0.13394714940E+04  0.91117986475E+02 0.  0.
          3    1    3    3  502    0  0.15258314114E+03  0.12632533341E+03  0.20785460051E+03  0.28712930846E+03  0.00000000000E+00 0. -1.
         -2    1    3    3    0  502  0.24370984918E+03  0.10804255228E+03  0.36638700941E+03  0.45310829208E+03  0.00000000000E+00 0.  1.
         11    1    5    5    0    0 -0.35665128162E+03 -0.17572080393E+03 -0.35422756934E+03  0.53249892816E+03  0.00000000000E+00 0.  1.
        -11    1    5    5    0    0 -0.12906902213E+03 -0.40824993349E+02 -0.62803473916E+02  0.14923058966E+03  0.00000000000E+00 0. -1.
          2    1    6    6  503    0  0.16056701574E+02 -0.42914725629E+02 -0.32129085819E+03  0.32454168746E+03  0.00000000000E+00 0. -1.
         -2    1    6    6    0  503  0.73370611855E+02  0.25092637216E+02 -0.10119632528E+04  0.10149298066E+04  0.00000000000E+00 0.  1.
<mgrwt>
<rscale>  0 0.24984925E+04</rscale>
<asrwt>0</asrwt>
<pdfrwt beam="1">  1        1 0.30288324E+00 0.24984925E+04</pdfrwt>
<pdfrwt beam="2">  1       -2 0.12195347E+00 0.24984925E+04</pdfrwt>
<totfact> 0.12461040E+00</totfact>
</mgrwt>
</event>
<event>
12    4  0.4398275E-008  0.1621155E+04  0.7818608E-02  0.8807656E-01
         -2   -1    0    0    0  501 -0.00000000000E+00  0.00000000000E+00  0.46036508109E+03  0.46036508109E+03  0.00000000000E+00 0.  1.
          1   -1    0    0  501    0  0.00000000000E+00 -0.00000000000E+00 -0.14272061561E+04  0.14272061561E+04  0.00000000000E+00 0. -1.
        -24    2    1    2    0    0  0.34724448952E+02  0.45571960505E+03  0.35778642711E+02  0.46251277048E+03  0.61251986086E+02 0.  0.
        254    2    1    2    0    0 -0.34724448952E+02 -0.45571960505E+03 -0.10026197177E+04  0.14250584667E+04  0.90369197705E+03 0.  0.
         23    2    4    4    0    0 -0.39671845924E+03 -0.25602305910E+03 -0.20904379327E+03  0.52455210554E+03  0.92316094102E+02 0.  0.
         23    2    4    4    0    0  0.36199401029E+03 -0.19969654596E+03 -0.79357592441E+03  0.90050636113E+03  0.10114635281E+03 0.  0.
          1    1    3    3  502    0  0.19622324039E+02  0.40442525677E+02  0.10686663736E+02  0.46204310034E+02  0.00000000000E+00 0. -1.
         -2    1    3    3    0  502  0.15102124913E+02  0.41527707937E+03  0.25091978975E+02  0.41630846045E+03  0.00000000000E+00 0.  1.
         11    1    5    5    0    0 -0.15235078808E+03 -0.72286750664E+02 -0.33242144788E+02  0.17187546986E+03  0.00000000000E+00 0.  1.
        -11    1    5    5    0    0 -0.24436767117E+03 -0.18373630843E+03 -0.17580164848E+03  0.35267663568E+03  0.00000000000E+00 0. -1.
          2    1    6    6  503    0  0.17262544103E+03 -0.14034881146E+03 -0.48546269780E+03  0.53401438438E+03  0.00000000000E+00 0. -1.
         -2    1    6    6    0  503  0.18936856926E+03 -0.59347734499E+02 -0.30811322661E+03  0.36649197675E+03  0.00000000000E+00 0.  1.
<mgrwt>
<rscale>  0 0.16211550E+04</rscale>
<asrwt>0</asrwt>
<pdfrwt beam="1">  1        1 0.21957018E+00 0.16211550E+04</pdfrwt>
<pdfrwt beam="2">  1       -2 0.70825396E-01 0.16211550E+04</pdfrwt>
<totfact> 0.11195466E+01</totfact>
</mgrwt>
</event>
<event>
12    4  0.4398275E-008  0.1287625E+04  0.7818608E-02  0.9039437E-01
         -2   -1    0    0    0  501 -0.00000000000E+00  0.00000000000E+00  0.29171911501E+03  0.29171911501E+03  0.00000000000E+00 0.  1.
          1   -1    0    0  501    0  0.00000000000E+00 -0.00000000000E+00 -0.14208679150E+04  0.14208679150E+04  0.00000000000E+00 0. -1.
        -24    2    1    2    0    0  0.66002075223E+02 -0.30755717811E+03 -0.36245349385E+03  0.48718957754E+03  0.83865711216E+02 0.  0.
        254    2    1    2    0    0 -0.66002075223E+02  0.30755717811E+03 -0.76669530617E+03  0.12253974525E+04  0.90267908603E+03 0.  0.
         23    2    4    4    0    0  0.45799397397E+02  0.55228560176E+03 -0.75623378718E+03  0.94184398667E+03  0.89797458984E+02 0.  0.
         23    2    4    4    0    0 -0.11180147262E+03 -0.24472842364E+03 -0.10461518994E+02  0.28355346584E+03  0.88890685629E+02 0.  0.
          1    1    3    3  502    0  0.34239911486E+02 -0.23447037710E+03 -0.31591223654E+03  0.39490412820E+03  0.00000000000E+00 0. -1.
         -2    1    3    3    0  502  0.31762163737E+02 -0.73086801012E+02 -0.46541257311E+02  0.92285449338E+02  0.00000000000E+00 0.  1.
         11    1    5    5    0    0 -0.24282135217E+02  0.10678262265E+03 -0.12712497232E+03  0.16778828677E+03  0.00000000000E+00 0.  1.
        -11    1    5    5    0    0  0.70081532613E+02  0.44550297911E+03 -0.62910881486E+03  0.77405569989E+03  0.00000000000E+00 0. -1.
          1    1    6    6  503    0 -0.52412433241E+02 -0.12781342702E+03  0.38774132026E+02  0.14348089977E+03  0.00000000000E+00 0. -1.
         -1    1    6    6    0  503 -0.59389039379E+02 -0.11691499662E+03 -0.49235651020E+02  0.14007256607E+03  0.00000000000E+00 0.  1.
<mgrwt>
<rscale>  0 0.12876247E+04</rscale>
<asrwt>0</asrwt>
<pdfrwt beam="1">  1        1 0.21859506E+00 0.12876247E+04</pdfrwt>
<pdfrwt beam="2">  1       -2 0.44879864E-01 0.12876247E+04</pdfrwt>
<totfact> 0.30172121E+01</totfact>
</mgrwt>
</event>
<event>
12    4  0.4398275E-008  0.1484577E+04  0.7818608E-02  0.8894774E-01
         -2   -1    0    0    0  501 -0.00000000000E+00  0.00000000000E+00  0.37537193328E+03  0.37537193328E+03  0.00000000000E+00 0.  1.
          1   -1    0    0  501    0  0.00000000000E+00 -0.00000000000E+00 -0.14678572000E+04  0.14678572000E+04  0.00000000000E+00 0. -1.
        -24    2    1    2    0    0  0.53928288622E+02  0.35784736952E+02 -0.90908344115E+03  0.91477479762E+03  0.78685574740E+02 0.  0.
        254    2    1    2    0    0 -0.53928288622E+02 -0.35784736952E+02 -0.18340182558E+03  0.92845433567E+03  0.90785594456E+03 0.  0.
         23    2    4    4    0    0  0.29733685196E+02  0.54583023814E+02 -0.53407579426E+03  0.54651623707E+03  0.97875660121E+02 0.  0.
         23    2    4    4    0    0 -0.83661973818E+02 -0.90367760766E+02  0.35067396867E+03  0.38193809860E+03  0.87970567848E+02 0.  0.
          1    1    3    3  502    0  0.49543094307E+02  0.59679874983E+02 -0.68350341349E+03  0.68789034149E+03  0.00000000000E+00 0. -1.
         -2    1    3    3    0  502  0.43851943146E+01 -0.23895138031E+02 -0.22558002766E+03  0.22688445612E+03  0.00000000000E+00 0.  1.
         11    1    5    5    0    0  0.35459381641E+02  0.80285935534E+02 -0.44744235571E+03  0.45596914465E+03  0.00000000000E+00 0. -1.
        -11    1    5    5    0    0 -0.57256964449E+01 -0.25702911720E+02 -0.86633438543E+02  0.90547092413E+02  0.00000000000E+00 0.  1.
          1    1    6    6  503    0 -0.87906955000E+02 -0.73153415999E+02  0.20132245039E+03  0.23153786740E+03  0.00000000000E+00 0. -1.
         -1    1    6    6    0  503  0.42449811821E+01 -0.17214344767E+02  0.14935151828E+03  0.15040023120E+03  0.00000000000E+00 0.  1.
<mgrwt>
<rscale>  0 0.14845772E+04</rscale>
<asrwt>0</asrwt>
<pdfrwt beam="1">  1        1 0.22582418E+00 0.14845772E+04</pdfrwt>
<pdfrwt beam="2">  1       -2 0.57749529E-01 0.14845772E+04</pdfrwt>
<totfact> 0.16430998E+01</totfact>
</mgrwt>
</event>
<event>
12    4  0.4398275E-008  0.3227792E+04  0.7818608E-02  0.8181516E-01
         -2   -1    0    0    0  501 -0.00000000000E+00  0.00000000000E+00  0.96284233098E+03  0.96284233098E+03  0.00000000000E+00 0.  1.
          1   -1    0    0  501    0  0.00000000000E+00 -0.00000000000E+00 -0.27051779215E+04  0.27051779215E+04  0.00000000000E+00 0. -1.
        -24    2    1    2    0    0  0.87707165343E+03  0.11883297113E+04 -0.60828829674E+03  0.15993693250E+04  0.81150464313E+02 0.  0.
        254    2    1    2    0    0 -0.87707165343E+03 -0.11883297113E+04 -0.11340472938E+04  0.20686509274E+04  0.90103895973E+03 0.  0.
         23    2    4    4    0    0  0.11491256533E+03  0.50559272546E+01 -0.36514425105E+01  0.14657908132E+03  0.90783445505E+02 0.  0.
         23    2    4    4    0    0 -0.99198421876E+03 -0.11933856386E+04 -0.11303958513E+04  0.19220718461E+04  0.91451781649E+02 0.  0.
          3    1    3    3  502    0  0.35635433266E+03  0.45519396892E+03 -0.27717186875E+03  0.64110389530E+03  0.00000000000E+00 0. -1.
         -4    1    3    3    0  502  0.52071732078E+03  0.73313574242E+03 -0.33111642799E+03  0.95826542975E+03  0.00000000000E+00 0.  1.
         11    1    5    5    0    0  0.85780356429E+02  0.14212906250E+02 -0.42812940149E+02  0.96918646799E+02  0.00000000000E+00 0. -1.
        -11    1    5    5    0    0  0.29132208902E+02 -0.91569789956E+01  0.39161497638E+02  0.49660434524E+02  0.00000000000E+00 0.  1.
          3    1    6    6  503    0 -0.46918801237E+02 -0.60690930337E+02 -0.33149534340E+02  0.83568262886E+02  0.00000000000E+00 0. -1.
         -3    1    6    6    0  503 -0.94506541753E+03 -0.11326947083E+04 -0.10972463170E+04  0.18385035832E+04  0.00000000000E+00 0.  1.
<mgrwt>
<rscale>  0 0.32277917E+04</rscale>
<asrwt>0</asrwt>
<pdfrwt beam="1">  1        1 0.41618122E+00 0.32277917E+04</pdfrwt>
<pdfrwt beam="2">  1       -2 0.14812959E+00 0.32277917E+04</pdfrwt>
<totfact> 0.22132751E-01</totfact>
</mgrwt>
</event>
<event>
12    4  0.4398275E-008  0.2344581E+04  0.7818608E-02  0.8460548E-01
         -2   -1    0    0    0  501 -0.00000000000E+00  0.00000000000E+00  0.55534647389E+03  0.55534647389E+03  0.00000000000E+00 0.  1.
          1   -1    0    0  501    0  0.00000000000E+00 -0.00000000000E+00 -0.24746077687E+04  0.24746077687E+04  0.00000000000E+00 0. -1.
        -24    2    1    2    0    0  0.18881476959E+03 -0.95921074730E+03 -0.10708973221E+04  0.14521110818E+04  0.77905355740E+02 0.  0.
        254    2    1    2    0    0 -0.18881476959E+03  0.95921074730E+03 -0.84836397275E+03  0.15778431608E+04  0.90229226692E+03 0.  0.
         23    2    4    4    0    0 -0.15192638419E+03  0.10094928581E+04 -0.37168698161E+03  0.10899889830E+04  0.88132366266E+02 0.  0.
         23    2    4    4    0    0 -0.36888385402E+02 -0.50282110796E+02 -0.47667699114E+03  0.48785417783E+03  0.83016271295E+02 0.  0.
          3    1    3    3  502    0  0.67465907282E+02 -0.20130926607E+03 -0.25745297242E+03  0.33370511272E+03  0.00000000000E+00 0. -1.
         -4    1    3    3    0  502  0.12134886231E+03 -0.75790148124E+03 -0.81344434964E+03  0.11184059691E+04  0.00000000000E+00 0.  1.
         11    1    5    5    0    0 -0.10515983148E+02  0.24759632838E+02  0.27085125262E+01  0.27036297083E+02  0.00000000000E+00 0.  1.
        -11    1    5    5    0    0 -0.14141040104E+03  0.98473322526E+03 -0.37439549414E+03  0.10629526859E+04  0.00000000000E+00 0. -1.
          4    1    6    6  503    0 -0.16231817322E+02 -0.67581550344E+02 -0.41148644452E+03  0.41731502713E+03  0.00000000000E+00 0. -1.
         -4    1    6    6    0  503 -0.20656568080E+02  0.17299439548E+02 -0.65190546617E+02  0.70539150702E+02  0.00000000000E+00 0.  1.
<mgrwt>
<rscale>  0 0.23445807E+04</rscale>
<asrwt>0</asrwt>
<pdfrwt beam="1">  1        1 0.38070889E+00 0.23445807E+04</pdfrwt>
<pdfrwt beam="2">  1       -2 0.85437919E-01 0.23445807E+04</pdfrwt>
<totfact> 0.13294642E+00</totfact>
</mgrwt>
</event>
<event>
12    4  0.4398275E-008  0.3134926E+04  0.7818608E-02  0.8206218E-01
          1   -1    0    0  501    0  0.00000000000E+00  0.00000000000E+00  0.37490770558E+04  0.37490770558E+04  0.00000000000E+00 0. -1.
         -2   -1    0    0    0  501 -0.00000000000E+00 -0.00000000000E+00 -0.65534542630E+03  0.65534542630E+03  0.00000000000E+00 0.  1.
        -24    2    1    2    0    0 -0.68945464816E+03  0.61469422920E+03 -0.12733065133E+03  0.93588846635E+03  0.80482416666E+02 0.  0.
        254    2    1    2    0    0  0.68945464816E+03 -0.61469422920E+03  0.32210622809E+04  0.34685340158E+04  0.89570603108E+03 0.  0.
         23    2    4    4    0    0  0.84090621362E+03 -0.56868546748E+03  0.21221704019E+04  0.23542678739E+04  0.91888989181E+02 0.  0.
         23    2    4    4    0    0 -0.15145156546E+03 -0.46008761721E+02  0.10988918790E+04  0.11142661419E+04  0.94716896367E+02 0.  0.
          1    1    3    3  502    0 -0.39397221822E+03  0.38325683318E+03 -0.43825101095E+02  0.55138058398E+03  0.00000000000E+00 0. -1.
         -2    1    3    3    0  502 -0.29548242994E+03  0.23143739603E+03 -0.83505550239E+02  0.38450788237E+03  0.00000000000E+00 0.  1.
         11    1    5    5    0    0  0.11054964859E+03 -0.41292195306E+02  0.26811969980E+03  0.29294102413E+03  0.00000000000E+00 0. -1.
        -11    1    5    5    0    0  0.73035656503E+03 -0.52739327218E+03  0.18540507021E+04  0.20613268498E+04  0.00000000000E+00 0.  1.
          1    1    6    6  503    0  0.72035647165E+01  0.64093106072E-02  0.21191073069E+03  0.21203313224E+03  0.00000000000E+00 0. -1.
         -1    1    6    6    0  503 -0.15865513017E+03 -0.46015171031E+02  0.88698114827E+03  0.90223300964E+03  0.00000000000E+00 0.  1.
<mgrwt>
<rscale>  0 0.31349262E+04</rscale>
<asrwt>0</asrwt>
<pdfrwt beam="1">  1        1 0.57678107E+00 0.31349262E+04</pdfrwt>
<pdfrwt beam="2">  1       -2 0.10082238E+00 0.31349262E+04</pdfrwt>
<totfact> 0.94196917E-02</totfact>
</mgrwt>
</event>
<event>
12    4  0.4398275E-008  0.1087956E+04  0.7818608E-02  0.9217011E-01
         -4   -1    0    0    0  501 -0.00000000000E+00  0.00000000000E+00  0.22876947775E+04  0.22876947775E+04  0.00000000000E+00 0.  1.
          3   -1    0    0  501    0  0.00000000000E+00 -0.00000000000E+00 -0.12934942319E+03  0.12934942319E+03  0.00000000000E+00 0. -1.
        -24    2    1    2    0    0  0.71476219526E+02  0.12795587049E+03  0.47729084263E+03  0.50546290009E+03  0.78769538267E+02 0.  0.
        254    2    1    2    0    0 -0.71476219526E+02 -0.12795587049E+03  0.16810545117E+04  0.19115813006E+04  0.89817439442E+03 0.  0.
         23    2    4    4    0    0 -0.43261684153E+03 -0.38025997956E+02  0.49548283593E+03  0.66546236210E+03  0.93453767064E+02 0.  0.
         23    2    4    4    0    0  0.36114062200E+03 -0.89929872537E+02  0.11855716758E+04  0.12461189385E+04  0.93393145788E+02 0.  0.
          3    1    3    3  502    0  0.34337111747E+02  0.82054780021E+02  0.39042943865E+03  0.40043372826E+03  0.00000000000E+00 0. -1.
         -4    1    3    3    0  502  0.37139107780E+02  0.45901090472E+02  0.86861403979E+02  0.10502917183E+03  0.00000000000E+00 0.  1.
         11    1    5    5    0    0 -0.13970039523E+03 -0.55319320034E+02  0.15239362245E+03  0.21400991510E+03  0.00000000000E+00 0. -1.
        -11    1    5    5    0    0 -0.29291644630E+03  0.17293322077E+02  0.34308921348E+03  0.45145244700E+03  0.00000000000E+00 0.  1.
          4    1    6    6  503    0  0.81489084340E+02 -0.61504609910E+02  0.28790650737E+03  0.30547249450E+03  0.00000000000E+00 0.  1.
         -4    1    6    6    0  503  0.27965153766E+03 -0.28425262626E+02  0.89766516842E+03  0.94064644404E+03  0.00000000000E+00 0. -1.
<mgrwt>
<rscale>  0 0.10879559E+04</rscale>
<asrwt>0</asrwt>
<pdfrwt beam="1">  1        3 0.19899913E-01 0.10879559E+04</pdfrwt>
<pdfrwt beam="2">  1       -4 0.35195301E+00 0.10879559E+04</pdfrwt>
<totfact> 0.77628602E-01</totfact>
</mgrwt>
</event>
<event>
12    4  0.4398275E-008  0.1247597E+04  0.7818608E-02  0.9072186E-01
          1   -1    0    0  501    0  0.00000000000E+00  0.00000000000E+00  0.53144387251E+03  0.53144387251E+03  0.00000000000E+00 0. -1.
         -2   -1    0    0    0  501 -0.00000000000E+00 -0.00000000000E+00 -0.73220265607E+03  0.73220265607E+03  0.00000000000E+00 0.  1.
        -24    2    1    2    0    0 -0.58792712778E+02 -0.53533771201E+00  0.23224826896E+03  0.25259673621E+03  0.80056124369E+02 0.  0.
        254    2    1    2    0    0  0.58792712778E+02  0.53533771201E+00 -0.43300705252E+03  0.10110497924E+04  0.91173993302E+03 0.  0.
         23    2    4    4    0    0 -0.94540119453E+02 -0.30182605118E+03  0.12460180461E+03  0.35216472685E+03  0.91965133444E+02 0.  0.
         23    2    4    4    0    0  0.15333283223E+03  0.30236138889E+03 -0.55760885712E+03  0.65888506552E+03  0.90931430739E+02 0.  0.
          3    1    3    3  502    0 -0.21561463687E+02  0.27364558722E+02  0.17687188417E+03  0.18027029484E+03  0.00000000000E+00 0. -1.
         -4    1    3    3    0  502 -0.37231249091E+02 -0.27899896434E+02  0.55376384785E+02  0.72326441374E+02  0.00000000000E+00 0.  1.
         11    1    5    5    0    0 -0.60056122616E+02 -0.14369498820E+03  0.10788234570E+03  0.18945603187E+03  0.00000000000E+00 0.  1.
        -11    1    5    5    0    0 -0.34483996837E+02 -0.15813106298E+03  0.16719458909E+02  0.16270869498E+03  0.00000000000E+00 0. -1.
          3    1    6    6  503    0  0.15146308001E+03  0.21161637714E+03 -0.41259598232E+03  0.48780938932E+03  0.00000000000E+00 0.  1.
         -3    1    6    6    0  503  0.18697522253E+01  0.90745011754E+02 -0.14501287480E+03  0.17107567621E+03  0.00000000000E+00 0. -1.
<mgrwt>
<rscale>  0 0.12475971E+04</rscale>
<asrwt>0</asrwt>
<pdfrwt beam="1">  1        1 0.81760596E-01 0.12475971E+04</pdfrwt>
<pdfrwt beam="2">  1       -2 0.11264656E+00 0.12475971E+04</pdfrwt>
<totfact> 0.21779455E+01</totfact>
</mgrwt>
</event>
<event>
12    4  0.4398275E-008  0.2565883E+04  0.7818608E-02  0.8379883E-01
          1   -1    0    0  501    0  0.00000000000E+00  0.00000000000E+00  0.37316409969E+04  0.37316409969E+04  0.00000000000E+00 0. -1.
         -2   -1    0    0    0  501 -0.00000000000E+00 -0.00000000000E+00 -0.44107628444E+03  0.44107628444E+03  0.00000000000E+00 0.  1.
        -24    2    1    2    0    0  0.16436726186E+03  0.70721185323E+03  0.63078563745E+02  0.73376807156E+03  0.85272947166E+02 0.  0.
        254    2    1    2    0    0 -0.16436726186E+03 -0.70721185323E+03  0.32274861487E+04  0.34389492097E+04  0.93943580150E+03 0.  0.
         23    2    4    4    0    0  0.15386009782E+03 -0.10115523014E+02  0.18618581711E+04  0.18704003489E+04  0.90035339433E+02 0.  0.
         23    2    4    4    0    0 -0.31822735968E+03 -0.69709633022E+03  0.13656279775E+04  0.15685488608E+04  0.90519664453E+02 0.  0.
          1    1    3    3  502    0  0.56444207126E+02  0.30465337221E+03 -0.12983650946E+02  0.31010998196E+03  0.00000000000E+00 0. -1.
         -2    1    3    3    0  502  0.10792305473E+03  0.40255848102E+03  0.76062214691E+02  0.42365808960E+03  0.00000000000E+00 0.  1.
         11    1    5    5    0    0  0.70039636396E+02  0.23314165711E+02  0.12197974246E+04  0.12220289923E+04  0.00000000000E+00 0.  1.
        -11    1    5    5    0    0  0.83820461423E+02 -0.33429688724E+02  0.64206074652E+03  0.64837135660E+03  0.00000000000E+00 0. -1.
          1    1    6    6  503    0 -0.16328784351E+03 -0.33808792743E+03  0.75962000897E+03  0.84734227119E+03  0.00000000000E+00 0. -1.
         -1    1    6    6    0  503 -0.15493951617E+03 -0.35900840279E+03  0.60600796857E+03  0.72120658963E+03  0.00000000000E+00 0.  1.
<mgrwt>
<rscale>  0 0.25658826E+04</rscale>
<asrwt>0</asrwt>
<pdfrwt beam="1">  1        1 0.57409859E+00 0.25658826E+04</pdfrwt>
<pdfrwt beam="2">  1       -2 0.67857893E-01 0.25658826E+04</pdfrwt>
<totfact> 0.25137956E-01</totfact>
</mgrwt>
</event>
<event>
12    4  0.4398275E-008  0.1193387E+04  0.7818608E-02  0.9118665E-01
         -2   -1    0    0    0  501 -0.00000000000E+00  0.00000000000E+00  0.12001032152E+03  0.12001032152E+03  0.00000000000E+00 0.  1.
          1   -1    0    0  501    0  0.00000000000E+00 -0.00000000000E+00 -0.29667698661E+04  0.29667698661E+04  0.00000000000E+00 0. -1.
        -24    2    1    2    0    0 -0.69442747542E+02  0.10353328161E+03 -0.10354222120E+03  0.18040219712E+03  0.79262384319E+02 0.  0.
        254    2    1    2    0    0  0.69442747542E+02 -0.10353328161E+03 -0.27432173233E+04  0.29063779905E+04  0.95197179831E+03 0.  0.
         23    2    4    4    0    0  0.30269500333E+03  0.21001102506E+02 -0.25422441483E+04  0.25618578069E+04  0.89692820773E+02 0.  0.
         23    2    4    4    0    0 -0.23325225579E+03 -0.12453438411E+03 -0.20097317505E+03  0.34452018353E+03  0.91588820878E+02 0.  0.
          3    1    3    3  502    0 -0.64354008950E+01  0.15824024646E+02 -0.62629846473E+02  0.64917731090E+02  0.00000000000E+00 0. -1.
         -4    1    3    3    0  502 -0.63007346647E+02  0.87709256960E+02 -0.40912374725E+02  0.11548446603E+03  0.00000000000E+00 0.  1.
         11    1    5    5    0    0  0.51506480315E+02  0.27127357057E+02 -0.30136422281E+03  0.30693518176E+03  0.00000000000E+00 0. -1.
        -11    1    5    5    0    0  0.25118852302E+03 -0.61262545513E+01 -0.22408799255E+04  0.22549226252E+04  0.00000000000E+00 0.  1.
          1    1    6    6  503    0 -0.11893393949E+02  0.17691960357E+01 -0.43055524345E+02  0.44703031786E+02  0.00000000000E+00 0. -1.
         -1    1    6    6    0  503 -0.22135886184E+03 -0.12630358015E+03 -0.15791765071E+03  0.29981715174E+03  0.00000000000E+00 0.  1.
<mgrwt>
<rscale>  0 0.11933868E+04</rscale>
<asrwt>0</asrwt>
<pdfrwt beam="1">  1        1 0.45642612E+00 0.11933868E+04</pdfrwt>
<pdfrwt beam="2">  1       -2 0.18463127E-01 0.11933868E+04</pdfrwt>
<totfact> 0.13682886E+01</totfact>
</mgrwt>
</event>
<event>
12    4  0.4398275E-008  0.2465576E+04  0.7818608E-02  0.8415353E-01
          1   -1    0    0  501    0  0.00000000000E+00  0.00000000000E+00  0.14326492158E+04  0.14326492158E+04  0.00000000000E+00 0. -1.
         -2   -1    0    0    0  501 -0.00000000000E+00 -0.00000000000E+00 -0.10608086666E+04  0.10608086666E+04  0.00000000000E+00 0.  1.
        -24    2    1    2    0    0  0.89383182287E+03  0.45807467198E+03  0.52629846298E+03  0.11365236577E+04  0.76994932155E+02 0.  0.
        254    2    1    2    0    0 -0.89383182287E+03 -0.45807467198E+03 -0.15445791376E+03  0.13569342248E+04  0.89924719100E+03 0.  0.
         23    2    4    4    0    0 -0.96803812005E+03 -0.53175363751E+03  0.51071545331E+02  0.11096521106E+04  0.94126355839E+02 0.  0.
         23    2    4    4    0    0  0.74206297183E+02  0.73678965528E+02 -0.20552945909E+03  0.24728211420E+03  0.89280014247E+02 0.  0.
          3    1    3    3  502    0  0.65672253638E+03  0.32509079109E+03  0.42010078831E+03  0.84466157991E+03  0.00000000000E+00 0. -1.
         -4    1    3    3    0  502  0.23710928649E+03  0.13298388089E+03  0.10619767467E+03  0.29186207774E+03  0.00000000000E+00 0.  1.
         11    1    5    5    0    0 -0.81994881025E+03 -0.43505535954E+03  0.74686531927E+02  0.93121817817E+03  0.00000000000E+00 0. -1.
        -11    1    5    5    0    0 -0.14808930980E+03 -0.96698277975E+02 -0.23614986596E+02  0.17843393240E+03  0.00000000000E+00 0.  1.
          4    1    6    6  503    0  0.62275158890E+02  0.16502298297E+02 -0.16229201850E+03  0.17461162772E+03  0.00000000000E+00 0. -1.
         -4    1    6    6    0  503  0.11931138292E+02  0.57176667231E+02 -0.43237440590E+02  0.72670486481E+02  0.00000000000E+00 0.  1.
<mgrwt>
<rscale>  0 0.24655764E+04</rscale>
<asrwt>0</asrwt>
<pdfrwt beam="1">  1        1 0.22040757E+00 0.24655764E+04</pdfrwt>
<pdfrwt beam="2">  1       -2 0.16320133E+00 0.24655764E+04</pdfrwt>
<totfact> 0.13604305E+00</totfact>
</mgrwt>
</event>
<event>
12    4  0.4398275E-008  0.1842952E+04  0.7818608E-02  0.8683786E-01
         -2   -1    0    0    0  501 -0.00000000000E+00  0.00000000000E+00  0.14269427026E+04  0.14269427026E+04  0.00000000000E+00 0.  1.
          1   -1    0    0  501    0  0.00000000000E+00 -0.00000000000E+00 -0.59506131612E+03  0.59506131612E+03  0.00000000000E+00 0. -1.
        -24    2    1    2    0    0 -0.39141413870E+03  0.31863814966E+03  0.83755660826E+03  0.98246275855E+03  0.94850943620E+02 0.  0.
        254    2    1    2    0    0  0.39141413870E+03 -0.31863814966E+03 -0.56752217457E+01  0.10395412602E+04  0.90877858972E+03 0.  0.
         23    2    4    4    0    0 -0.92924010814E+01 -0.22369305449E+03  0.39127884377E+03  0.46001090275E+03  0.91574918610E+02 0.  0.
         23    2    4    4    0    0  0.40070653978E+03 -0.94945095168E+02 -0.39695406552E+03  0.57953035746E+03  0.93287742852E+02 0.  0.
          1    1    3    3  502    0 -0.21394576626E+03  0.21148513801E+03  0.42431284153E+03  0.52013473446E+03  0.00000000000E+00 0. -1.
         -2    1    3    3    0  502 -0.17746837244E+03  0.10715301165E+03  0.41324376673E+03  0.46232802409E+03  0.00000000000E+00 0.  1.
         11    1    5    5    0    0  0.36016599966E+02 -0.13740202120E+03  0.26299610501E+03  0.29890376738E+03  0.00000000000E+00 0.  1.
        -11    1    5    5    0    0 -0.45309001048E+02 -0.86291033293E+02  0.12828273876E+03  0.16110713536E+03  0.00000000000E+00 0. -1.
          2    1    6    6  503    0  0.22290535926E+03 -0.71364724048E+01 -0.19104570652E+03  0.29365999115E+03  0.00000000000E+00 0. -1.
         -2    1    6    6    0  503  0.17780118052E+03 -0.87808622763E+02 -0.20590835900E+03  0.28587036631E+03  0.00000000000E+00 0.  1.
<mgrwt>
<rscale>  0 0.18429524E+04</rscale>
<asrwt>0</asrwt>
<pdfrwt beam="1">  1        1 0.91547895E-01 0.18429524E+04</pdfrwt>
<pdfrwt beam="2">  1       -2 0.21952964E+00 0.18429524E+04</pdfrwt>
<totfact> 0.28371996E+00</totfact>
</mgrwt>
</event>
<event>
12    4  0.4398275E-008  0.1950500E+04  0.7818608E-02  0.8630120E-01
         -2   -1    0    0    0  501 -0.00000000000E+00  0.00000000000E+00  0.12872190666E+04  0.12872190666E+04  0.00000000000E+00 0.  1.
          1   -1    0    0  501    0  0.00000000000E+00 -0.00000000000E+00 -0.73888911553E+03  0.73888911553E+03  0.00000000000E+00 0. -1.
        -24    2    1    2    0    0  0.68688917628E+03 -0.35873051827E+03  0.22994673854E+03  0.81223518956E+03  0.79662885725E+02 0.  0.
        254    2    1    2    0    0 -0.68688917628E+03  0.35873051827E+03  0.31838321253E+03  0.12138729926E+04  0.87841644271E+03 0.  0.
         23    2    4    4    0    0 -0.64407882569E+03  0.61523399737E+03  0.23027580057E+03  0.92448264834E+03  0.91053926494E+02 0.  0.
         23    2    4    4    0    0 -0.42810350591E+02 -0.25650347909E+03  0.88107411959E+02  0.28939034423E+03  0.91417144920E+02 0.  0.
          1    1    3    3  502    0  0.10252125115E+03 -0.74420442748E+02  0.14101218938E+02  0.12746706874E+03  0.00000000000E+00 0. -1.
         -2    1    3    3    0  502  0.58436792513E+03 -0.28431007552E+03  0.21584551960E+03  0.68476812082E+03  0.00000000000E+00 0.  1.
         11    1    5    5    0    0 -0.17183679655E+03  0.15314373398E+03  0.19660002099E+02  0.23101386016E+03  0.00000000000E+00 0. -1.
        -11    1    5    5    0    0 -0.47224202914E+03  0.46209026339E+03  0.21061579847E+03  0.69346878817E+03  0.00000000000E+00 0.  1.
          2    1    6    6  503    0  0.31766436819E+01 -0.86624134894E-01 -0.10403919646E+02  0.10878424189E+02  0.00000000000E+00 0.  1.
         -2    1    6    6    0  503 -0.45986994273E+02 -0.25641685496E+03  0.98511331606E+02  0.27851192004E+03  0.00000000000E+00 0. -1.
<mgrwt>
<rscale>  0 0.19504996E+04</rscale>
<asrwt>0</asrwt>
<pdfrwt beam="1">  1        1 0.11367525E+00 0.19504996E+04</pdfrwt>
<pdfrwt beam="2">  1       -2 0.19803370E+00 0.19504996E+04</pdfrwt>
<totfact> 0.28016772E+00</totfact>
</mgrwt>
</event>
<event>
12    4  0.4398275E-008  0.1241338E+04  0.7818608E-02  0.9077424E-01
          1   -1    0    0  501    0  0.00000000000E+00  0.00000000000E+00  0.26510497828E+04  0.26510497828E+04  0.00000000000E+00 0. -1.
         -2   -1    0    0    0  501 -0.00000000000E+00 -0.00000000000E+00 -0.14531226144E+03  0.14531226144E+03  0.00000000000E+00 0.  1.
        -24    2    1    2    0    0 -0.21223041803E+03  0.10162396014E+03  0.37716654872E+03  0.45099469717E+03  0.75976521300E+02 0.  0.
        254    2    1    2    0    0  0.21223041803E+03 -0.10162396014E+03  0.21285709727E+04  0.23453673471E+04  0.95632861901E+03 0.  0.
         23    2    4    4    0    0  0.47026537591E+03  0.24945188343E+03  0.11705574941E+04  0.12892149088E+04  0.92165439438E+02 0.  0.
         23    2    4    4    0    0 -0.25803495788E+03 -0.35107584357E+03  0.95801347858E+03  0.10561524383E+04  0.88497798363E+02 0.  0.
          3    1    3    3  502    0 -0.15914204765E+03  0.48857914462E+02  0.30242996964E+03  0.34522047111E+03  0.00000000000E+00 0. -1.
         -4    1    3    3    0  502 -0.53088370376E+02  0.52766045677E+02  0.74736579081E+02  0.10577422606E+03  0.00000000000E+00 0.  1.
         11    1    5    5    0    0  0.32623595333E+03  0.21729584807E+03  0.87888280774E+03  0.96233173728E+03  0.00000000000E+00 0. -1.
        -11    1    5    5    0    0  0.14402942258E+03  0.32156035354E+02  0.29167468634E+03  0.32688317153E+03  0.00000000000E+00 0.  1.
          3    1    6    6  503    0 -0.13146178696E+03 -0.23487985575E+03  0.51749168944E+03  0.58330814902E+03  0.00000000000E+00 0. -1.
         -3    1    6    6    0  503 -0.12657317093E+03 -0.11619598782E+03  0.44052178914E+03  0.47284428927E+03  0.00000000000E+00 0.  1.
<mgrwt>
<rscale>  0 0.12413381E+04</rscale>
<asrwt>0</asrwt>
<pdfrwt beam="1">  1        1 0.40785378E+00 0.12413381E+04</pdfrwt>
<pdfrwt beam="2">  1       -2 0.22355735E-01 0.12413381E+04</pdfrwt>
<totfact> 0.16268253E+01</totfact>
</mgrwt>
</event>
<event>
12    4  0.4398275E-008  0.2000764E+04  0.7818608E-02  0.8606263E-01
         -2   -1    0    0    0  501 -0.00000000000E+00  0.00000000000E+00  0.13331569534E+04  0.13331569534E+04  0.00000000000E+00 0.  1.
          1   -1    0    0  501    0  0.00000000000E+00 -0.00000000000E+00 -0.75067255080E+03  0.75067255080E+03  0.00000000000E+00 0. -1.
        -24    2    1    2    0    0 -0.64947637277E+03  0.37769960747E+03  0.49679701196E+03  0.90422455422E+03  0.79612945505E+02 0.  0.
        254    2    1    2    0    0  0.64947637277E+03 -0.37769960747E+03  0.85687390616E+02  0.11796049500E+04  0.90534466188E+03 0.  0.
         23    2    4    4    0    0  0.40370372691E+03 -0.60532786725E+03 -0.16465486653E+03  0.75170160787E+03  0.92442177681E+02 0.  0.
         23    2    4    4    0    0  0.24577264586E+03  0.22762825978E+03  0.25034225714E+03  0.42790334209E+03  0.90615707030E+02 0.  0.
          1    1    3    3  502    0 -0.32603436742E+03  0.21485433236E+03  0.21787994957E+03  0.44713808303E+03  0.00000000000E+00 0. -1.
         -2    1    3    3    0  502 -0.32344200535E+03  0.16284527511E+03  0.27891706239E+03  0.45708647119E+03  0.00000000000E+00 0.  1.
         11    1    5    5    0    0  0.21592045578E+01  0.32319023052E+01 -0.29702021332E+01  0.48917744782E+01  0.00000000000E+00 0. -1.
        -11    1    5    5    0    0  0.40154452235E+03 -0.60855976956E+03 -0.16168466439E+03  0.74680983339E+03  0.00000000000E+00 0.  1.
          4    1    6    6  503    0  0.33280558405E+02  0.43361749194E+02  0.53820919072E+01  0.54925438316E+02  0.00000000000E+00 0. -1.
         -4    1    6    6    0  503  0.21249208745E+03  0.18426651059E+03  0.24496016523E+03  0.37297790378E+03  0.00000000000E+00 0.  1.
<mgrwt>
<rscale>  0 0.20007642E+04</rscale>
<asrwt>0</asrwt>
<pdfrwt beam="1">  1        1 0.11548808E+00 0.20007642E+04</pdfrwt>
<pdfrwt beam="2">  1       -2 0.20510107E+00 0.20007642E+04</pdfrwt>
<totfact> 0.24468442E+00</totfact>
</mgrwt>
</event>
<event>
12    4  0.4398275E-008  0.1268728E+04  0.7818608E-02  0.9054739E-01
          1   -1    0    0  501    0  0.00000000000E+00  0.00000000000E+00  0.17047133725E+04  0.17047133725E+04  0.00000000000E+00 0. -1.
         -2   -1    0    0    0  501 -0.00000000000E+00 -0.00000000000E+00 -0.23606167991E+03  0.23606167991E+03  0.00000000000E+00 0.  1.
        -24    2    1    2    0    0 -0.31973810770E+02 -0.28652135779E+03  0.23841084112E+03  0.38468089497E+03  0.89570356432E+02 0.  0.
        254    2    1    2    0    0  0.31973810770E+02  0.28652135779E+03  0.12302408514E+04  0.15560941574E+04  0.90819582751E+03 0.  0.
         23    2    4    4    0    0  0.28082036553E+03 -0.16146886320E+03  0.84165012473E+03  0.90647547601E+03  0.91600134658E+02 0.  0.
         23    2    4    4    0    0 -0.24884655476E+03  0.44799022099E+03  0.38859072671E+03  0.64961868140E+03  0.91552347959E+02 0.  0.
          3    1    3    3  502    0 -0.16137999998E+01  0.11154011375E+01  0.25393654168E+02  0.25469317661E+02  0.00000000000E+00 0. -1.
         -4    1    3    3    0  502 -0.30360010770E+02 -0.28763675892E+03  0.21301718695E+03  0.35921157731E+03  0.00000000000E+00 0.  1.
         11    1    5    5    0    0  0.79424581881E+02 -0.63873497818E+02  0.38012543962E+03  0.39355233169E+03  0.00000000000E+00 0. -1.
        -11    1    5    5    0    0  0.20139578364E+03 -0.97595365383E+02  0.46152468511E+03  0.51292314432E+03  0.00000000000E+00 0.  1.
          3    1    6    6  503    0 -0.66293317821E+02  0.89627073480E+02  0.43461003720E+02  0.11965230935E+03  0.00000000000E+00 0. -1.
         -3    1    6    6    0  503 -0.18255323694E+03  0.35836314751E+03  0.34512972299E+03  0.52996637205E+03  0.00000000000E+00 0.  1.
<mgrwt>
<rscale>  0 0.12687277E+04</rscale>
<asrwt>0</asrwt>
<pdfrwt beam="1">  1        1 0.26226359E+00 0.12687277E+04</pdfrwt>
<pdfrwt beam="2">  1       -2 0.36317183E-01 0.12687277E+04</pdfrwt>
<totfact> 0.29186179E+01</totfact>
</mgrwt>
</event>
<event>
12    4  0.4398275E-008  0.1989911E+04  0.7818608E-02  0.8611352E-01
          1   -1    0    0  501    0  0.00000000000E+00  0.00000000000E+00  0.12119181153E+04  0.12119181153E+04  0.00000000000E+00 0. -1.
         -2   -1    0    0    0  501 -0.00000000000E+00 -0.00000000000E+00 -0.81683444397E+03  0.81683444397E+03  0.00000000000E+00 0.  1.
        -24    2    1    2    0    0 -0.26448001698E+03  0.36448589163E+03  0.82428460532E+03  0.94271490616E+03  0.80415416087E+02 0.  0.
        254    2    1    2    0    0  0.26448001698E+03 -0.36448589163E+03 -0.42920093403E+03  0.10860376531E+04  0.89020486269E+03 0.  0.
         23    2    4    4    0    0 -0.22450640171E+03 -0.10692743965E+03 -0.45390537893E+03  0.52525176232E+03  0.89569632330E+02 0.  0.
         23    2    4    4    0    0  0.48898641869E+03 -0.25755845198E+03  0.24704444908E+02  0.56078589076E+03  0.91795598065E+02 0.  0.
          1    1    3    3  502    0 -0.26558420626E+03  0.36640939520E+03  0.80646325261E+03  0.92475607233E+03  0.00000000000E+00 0. -1.
         -2    1    3    3    0  502  0.11041892767E+01 -0.19235035719E+01  0.17821352707E+02  0.17958833822E+02  0.00000000000E+00 0.  1.
         11    1    5    5    0    0 -0.16507084343E+03 -0.33076143085E+02 -0.31343529629E+03  0.35578659271E+03  0.00000000000E+00 0.  1.
        -11    1    5    5    0    0 -0.59435558275E+02 -0.73851296566E+02 -0.14047008264E+03  0.16946516961E+03  0.00000000000E+00 0. -1.
          3    1    6    6  503    0  0.17902172121E+02  0.11366928011E+01 -0.12800672917E+02  0.22037174599E+02  0.00000000000E+00 0. -1.
         -3    1    6    6    0  503  0.47108424657E+03 -0.25869514478E+03  0.37505117825E+02  0.53874871616E+03  0.00000000000E+00 0.  1.
<mgrwt>
<rscale>  0 0.19899110E+04</rscale>
<asrwt>0</asrwt>
<pdfrwt beam="1">  1        1 0.18644894E+00 0.19899110E+04</pdfrwt>
<pdfrwt beam="2">  1       -2 0.12566684E+00 0.19899110E+04</pdfrwt>
<totfact> 0.40357470E+00</totfact>
</mgrwt>
</event>
<event>
12    4  0.4398275E-008  0.2329520E+04  0.7818608E-02  0.8466372E-01
          1   -1    0    0  501    0  0.00000000000E+00  0.00000000000E+00  0.13613942234E+04  0.13613942234E+04  0.00000000000E+00 0. -1.
         -2   -1    0    0    0  501 -0.00000000000E+00 -0.00000000000E+00 -0.99652652352E+03  0.99652652352E+03  0.00000000000E+00 0.  1.
        -24    2    1    2    0    0  0.60233312082E+03 -0.87571543818E+02  0.93197804812E+03  0.11169174136E+04  0.91910080130E+02 0.  0.
        254    2    1    2    0    0 -0.60233312082E+03  0.87571543818E+02 -0.56711034822E+03  0.12410033334E+04  0.92086978594E+03 0.  0.
         23    2    4    4    0    0  0.99107620504E+01  0.20569305372E+03 -0.56832408913E+03  0.61111925345E+03  0.89814342414E+02 0.  0.
         23    2    4    4    0    0 -0.61224388287E+03 -0.11812150990E+03  0.12137409064E+01  0.62988407992E+03  0.89203238473E+02 0.  0.
          1    1    3    3  502    0  0.44525155711E+03 -0.23995300185E+02  0.68817577506E+03  0.82000647615E+03  0.00000000000E+00 0. -1.
         -2    1    3    3    0  502  0.15708156371E+03 -0.63576243633E+02  0.24380227305E+03  0.29691093742E+03  0.00000000000E+00 0.  1.
         11    1    5    5    0    0  0.33298849836E+02  0.17980605778E+03 -0.40896407803E+03  0.44798509901E+03  0.00000000000E+00 0. -1.
        -11    1    5    5    0    0 -0.23388087785E+02  0.25886995943E+02 -0.15936001110E+03  0.16313415444E+03  0.00000000000E+00 0.  1.
          1    1    6    6  503    0 -0.54672893898E+03 -0.98131740873E+02  0.28395346585E+02  0.55619121442E+03  0.00000000000E+00 0. -1.
         -1    1    6    6    0  503 -0.65514943886E+02 -0.19989769027E+02 -0.27181605679E+02  0.73692865499E+02  0.00000000000E+00 0.  1.
<mgrwt>
<rscale>  0 0.23295197E+04</rscale>
<asrwt>0</asrwt>
<pdfrwt beam="1">  1        1 0.20944527E+00 0.23295197E+04</pdfrwt>
<pdfrwt beam="2">  1       -2 0.15331177E+00 0.23295197E+04</pdfrwt>
<totfact> 0.18299568E+00</totfact>
</mgrwt>
</event>
<event>
12    4  0.4398275E-008  0.2302838E+04  0.7818608E-02  0.8476803E-01
          1   -1    0    0  501    0  0.00000000000E+00  0.00000000000E+00  0.14382825680E+04  0.14382825680E+04  0.00000000000E+00 0. -1.
         -2   -1    0    0    0  501 -0.00000000000E+00 -0.00000000000E+00 -0.92176989137E+03  0.92176989137E+03  0.00000000000E+00 0.  1.
        -24    2    1    2    0    0  0.53428787852E+02 -0.92010484642E+03  0.54191891816E+03  0.10722126780E+04  0.80723907159E+02 0.  0.
        254    2    1    2    0    0 -0.53428787852E+02  0.92010484642E+03 -0.25406241526E+02  0.12878397814E+04  0.89913194897E+03 0.  0.
         23    2    4    4    0    0  0.45170848823E+02  0.83412659609E+03 -0.36251928615E+03  0.91521929547E+03  0.91643559877E+02 0.  0.
         23    2    4    4    0    0 -0.98599636675E+02  0.85978250325E+02  0.33711304462E+03  0.37262048593E+03  0.89925935082E+02 0.  0.
          3    1    3    3  502    0  0.39508660709E+02 -0.47931815197E+03  0.32735278454E+03  0.58177888465E+03  0.00000000000E+00 0. -1.
         -2    1    3    3    0  502  0.13920127143E+02 -0.44078669445E+03  0.21456613362E+03  0.49043379333E+03  0.00000000000E+00 0.  1.
         11    1    5    5    0    0  0.50481829392E+02  0.83019627076E+03 -0.35278687097E+03  0.90345605284E+03  0.00000000000E+00 0.  1.
        -11    1    5    5    0    0 -0.53109805692E+01  0.39303253302E+01 -0.97324151768E+01  0.11763242622E+02  0.00000000000E+00 0. -1.
          2    1    6    6  503    0  0.44480396587E+01  0.26294127224E+02  0.18434654592E+02  0.32419171383E+02  0.00000000000E+00 0. -1.
         -2    1    6    6    0  503 -0.10304767633E+03  0.59684123102E+02  0.31867839003E+03  0.34020131455E+03  0.00000000000E+00 0.  1.
<mgrwt>
<rscale>  0 0.23028379E+04</rscale>
<asrwt>0</asrwt>
<pdfrwt beam="1">  1        1 0.22127424E+00 0.23028379E+04</pdfrwt>
<pdfrwt beam="2">  1       -2 0.14181075E+00 0.23028379E+04</pdfrwt>
<totfact> 0.19900612E+00</totfact>
</mgrwt>
</event>
<event>
12    4  0.4398275E-008  0.1174508E+04  0.7818608E-02  0.9135467E-01
         -2   -1    0    0    0  501 -0.00000000000E+00  0.00000000000E+00  0.32764005220E+03  0.32764005220E+03  0.00000000000E+00 0.  1.
          1   -1    0    0  501    0  0.00000000000E+00 -0.00000000000E+00 -0.10525792245E+04  0.10525792245E+04  0.00000000000E+00 0. -1.
        -24    2    1    2    0    0 -0.20998127745E+03 -0.29226580938E+02 -0.28716895116E+03  0.36689716141E+03  0.84859829321E+02 0.  0.
        254    2    1    2    0    0  0.20998127745E+03  0.29226580938E+02 -0.43777022112E+03  0.10133221153E+04  0.88895028707E+03 0.  0.
         23    2    4    4    0    0  0.26981122826E+03 -0.23767863888E+03 -0.58316297469E+03  0.69091570639E+03  0.89421608211E+02 0.  0.
         23    2    4    4    0    0 -0.59829950817E+02  0.26690521982E+03  0.14539275357E+03  0.32240640888E+03  0.89380200918E+02 0.  0.
          1    1    3    3  502    0 -0.16528846184E+03  0.13778481634E+02 -0.21925356582E+03  0.27492225865E+03  0.00000000000E+00 0. -1.
         -2    1    3    3    0  502 -0.44692815610E+02 -0.43005062572E+02 -0.67915385335E+02  0.91974902768E+02  0.00000000000E+00 0.  1.
         11    1    5    5    0    0  0.15123529342E+03 -0.91543184506E+02 -0.34226023365E+03  0.38521985430E+03  0.00000000000E+00 0. -1.
        -11    1    5    5    0    0  0.11857593485E+03 -0.14613545437E+03 -0.24090274104E+03  0.30569585210E+03  0.00000000000E+00 0.  1.
          2    1    6    6  503    0  0.17357906500E+01  0.66325340909E+02 -0.13591663556E+01  0.66361970654E+02  0.00000000000E+00 0. -1.
         -2    1    6    6    0  503 -0.61565741467E+02  0.20057987891E+03  0.14675191992E+03  0.25604443823E+03  0.00000000000E+00 0.  1.
<mgrwt>
<rscale>  0 0.11745077E+04</rscale>
<asrwt>0</asrwt>
<pdfrwt beam="1">  1        1 0.16193526E+00 0.11745077E+04</pdfrwt>
<pdfrwt beam="2">  1       -2 0.50406162E-01 0.11745077E+04</pdfrwt>
<totfact> 0.44571724E+01</totfact>
</mgrwt>
</event>
<event>
12    4  0.4398275E-008  0.1361920E+04  0.7818608E-02  0.8981854E-01
          1   -1    0    0  501    0  0.00000000000E+00  0.00000000000E+00  0.23337779238E+04  0.23337779238E+04  0.00000000000E+00 0. -1.
         -4   -1    0    0    0  501 -0.00000000000E+00 -0.00000000000E+00 -0.19869348049E+03  0.19869348049E+03  0.00000000000E+00 0.  1.
        -24    2    1    2    0    0 -0.25677414757E+03  0.10040197587E+03  0.11083017040E+04  0.11451841090E+04  0.84264207992E+02 0.  0.
        254    2    1    2    0    0  0.25677414757E+03 -0.10040197587E+03  0.10267827393E+04  0.13872872953E+04  0.89121811381E+03 0.  0.
         23    2    4    4    0    0 -0.12279590149E+03  0.31957312924E+03  0.32616515302E+03  0.48176989602E+03  0.92264333922E+02 0.  0.
         23    2    4    4    0    0  0.37957004906E+03 -0.41997510510E+03  0.70061758631E+03  0.90551739931E+03  0.92974443554E+02 0.  0.
          1    1    3    3  502    0 -0.19412941503E+03  0.70903676365E+02  0.66105264664E+03  0.69260678797E+03  0.00000000000E+00 0. -1.
         -2    1    3    3    0  502 -0.62644732543E+02  0.29498299501E+02  0.44724905736E+03  0.45257732101E+03  0.00000000000E+00 0.  1.
         11    1    5    5    0    0 -0.57146509901E+02  0.18165319478E+03  0.11963422201E+03  0.22489098213E+03  0.00000000000E+00 0. -1.
        -11    1    5    5    0    0 -0.65649391587E+02  0.13791993445E+03  0.20653093101E+03  0.25687891389E+03  0.00000000000E+00 0.  1.
          2    1    6    6  503    0  0.27172159377E+03 -0.35746646766E+03  0.54857454302E+03  0.70890685514E+03  0.00000000000E+00 0. -1.
         -2    1    6    6    0  503  0.10784845529E+03 -0.62508637444E+02  0.15204304329E+03  0.19661054417E+03  0.00000000000E+00 0.  1.
<mgrwt>
<rscale>  0 0.13619199E+04</rscale>
<asrwt>0</asrwt>
<pdfrwt beam="1">  1        1 0.35904274E+00 0.13619199E+04</pdfrwt>
<pdfrwt beam="2">  1       -4 0.30568229E-01 0.13619199E+04</pdfrwt>
<totfact> 0.89343067E+00</totfact>
</mgrwt>
</event>
<event>
12    4  0.4398275E-008  0.2599918E+04  0.7818608E-02  0.8368229E-01
         -2   -1    0    0    0  501 -0.00000000000E+00  0.00000000000E+00  0.56566527434E+03  0.56566527434E+03  0.00000000000E+00 0.  1.
          1   -1    0    0  501    0  0.00000000000E+00 -0.00000000000E+00 -0.29874439274E+04  0.29874439274E+04  0.00000000000E+00 0. -1.
        -24    2    1    2    0    0  0.35652664778E+03 -0.21800598545E+03  0.38650740728E+03  0.57477574322E+03  0.79632398225E+02 0.  0.
        254    2    1    2    0    0 -0.35652664778E+03  0.21800598545E+03 -0.28082860603E+04  0.29783334585E+04  0.89964533742E+03 0.  0.
         23    2    4    4    0    0 -0.61143283095E+03  0.41651712442E+02 -0.22467211820E+04  0.23306377485E+04  0.92364891340E+02 0.  0.
         23    2    4    4    0    0  0.25490618317E+03  0.17635427300E+03 -0.56156487835E+03  0.64769571002E+03  0.89870063798E+02 0.  0.
          3    1    3    3  502    0 -0.28632741220E+01  0.24587649252E+01  0.39635970783E+01  0.54730216019E+01  0.00000000000E+00 0. -1.
         -4    1    3    3    0  502  0.35938992190E+03 -0.22046475037E+03  0.38254381020E+03  0.56930272162E+03  0.00000000000E+00 0.  1.
         11    1    5    5    0    0 -0.28277120159E+03 -0.14705379309E+02 -0.11497698928E+04  0.11841227162E+04  0.00000000000E+00 0.  1.
        -11    1    5    5    0    0 -0.32866162935E+03  0.56357091752E+02 -0.10969512892E+04  0.11465150323E+04  0.00000000000E+00 0. -1.
          1    1    6    6  503    0  0.24464964041E+03  0.17653532068E+03 -0.56152326878E+03  0.63743748508E+03  0.00000000000E+00 0. -1.
         -1    1    6    6    0  503  0.10256542761E+02 -0.18104767200E+00 -0.41609562326E-01  0.10258224945E+02  0.00000000000E+00 0.  1.
<mgrwt>
<rscale>  0 0.25999179E+04</rscale>
<asrwt>0</asrwt>
<pdfrwt beam="1">  1        1 0.45960677E+00 0.25999179E+04</pdfrwt>
<pdfrwt beam="2">  1       -2 0.87025424E-01 0.25999179E+04</pdfrwt>
<totfact> 0.53979352E-01</totfact>
</mgrwt>
</event>
<event>
12    4  0.4398275E-008  0.2282743E+04  0.7818608E-02  0.8484757E-01
          1   -1    0    0  501    0  0.00000000000E+00  0.00000000000E+00  0.20059925928E+04  0.20059925928E+04  0.00000000000E+00 0. -1.
         -2   -1    0    0    0  501 -0.00000000000E+00 -0.00000000000E+00 -0.64941835083E+03  0.64941835083E+03  0.00000000000E+00 0.  1.
        -24    2    1    2    0    0 -0.47661969380E+03 -0.11746263737E+03 -0.38668307476E+03  0.62994042787E+03  0.79607403273E+02 0.  0.
        254    2    1    2    0    0  0.47661969380E+03  0.11746263737E+03  0.17432573167E+04  0.20254705157E+04  0.90698452807E+03 0.  0.
         23    2    4    4    0    0  0.33198023129E+03 -0.16117758259E+03  0.16385267397E+04  0.16822848439E+04  0.95516135653E+02 0.  0.
         23    2    4    4    0    0  0.14463946251E+03  0.27864021996E+03  0.10473057699E+03  0.34318567183E+03  0.90812803609E+02 0.  0.
          1    1    3    3  502    0 -0.10808068720E+03 -0.43843369922E+01 -0.11782785804E+03  0.15995018439E+03  0.00000000000E+00 0. -1.
         -2    1    3    3    0  502 -0.36853900660E+03 -0.11307830038E+03 -0.26885521672E+03  0.46999024347E+03  0.00000000000E+00 0.  1.
         11    1    5    5    0    0  0.32246332337E+03 -0.13920866787E+03  0.15879273781E+04  0.16263071684E+04  0.00000000000E+00 0.  1.
        -11    1    5    5    0    0  0.95169079209E+01 -0.21968914719E+02  0.50599361650E+02  0.55977675458E+02  0.00000000000E+00 0. -1.
          2    1    6    6  503    0  0.14339161217E+03  0.27663073947E+03  0.11539085827E+03  0.33226611418E+03  0.00000000000E+00 0. -1.
         -2    1    6    6    0  503  0.12478503383E+01  0.20094804904E+01 -0.10660281280E+02  0.10919557650E+02  0.00000000000E+00 0.  1.
<mgrwt>
<rscale>  0 0.22827426E+04</rscale>
<asrwt>0</asrwt>
<pdfrwt beam="1">  1        1 0.30861424E+00 0.22827426E+04</pdfrwt>
<pdfrwt beam="2">  1       -2 0.99910517E-01 0.22827426E+04</pdfrwt>
<totfact> 0.19433349E+00</totfact>
</mgrwt>
</event>
<event>
12    4  0.4398275E-008  0.1397997E+04  0.7818608E-02  0.8955270E-01
         -2   -1    0    0    0  501 -0.00000000000E+00  0.00000000000E+00  0.51903260773E+03  0.51903260773E+03  0.00000000000E+00 0.  1.
          1   -1    0    0  501    0  0.00000000000E+00 -0.00000000000E+00 -0.94136464151E+03  0.94136464151E+03  0.00000000000E+00 0. -1.
        -24    2    1    2    0    0  0.29692199597E+03 -0.28272217347E+02 -0.40389335939E+03  0.50843805873E+03  0.80108824996E+02 0.  0.
        254    2    1    2    0    0 -0.29692199597E+03  0.28272217347E+02 -0.18438674382E+02  0.95195919051E+03  0.90383866133E+03 0.  0.
         23    2    4    4    0    0 -0.14166399903E+03  0.40196644178E+03 -0.22168102258E+03  0.48885287601E+03  0.90492815603E+02 0.  0.
         23    2    4    4    0    0 -0.15525799694E+03 -0.37369422443E+03  0.20324234820E+03  0.46310631450E+03  0.96992718485E+02 0.  0.
          3    1    3    3  502    0  0.16553600624E+03  0.83995270803E+01 -0.16837248319E+03  0.23626682905E+03  0.00000000000E+00 0. -1.
         -4    1    3    3    0  502  0.13138598974E+03 -0.36671744428E+02 -0.23552087620E+03  0.27217122968E+03  0.00000000000E+00 0.  1.
         11    1    5    5    0    0 -0.39654785979E+02  0.13209185928E+03 -0.12041661026E+03  0.18308719608E+03  0.00000000000E+00 0.  1.
        -11    1    5    5    0    0 -0.10200921305E+03  0.26987458249E+03 -0.10126441231E+03  0.30576567993E+03  0.00000000000E+00 0. -1.
          2    1    6    6  503    0 -0.13120501217E+03 -0.34377439303E+03  0.14975504072E+03  0.39726837370E+03  0.00000000000E+00 0. -1.
         -2    1    6    6    0  503 -0.24052984777E+02 -0.29919831402E+02  0.53487307473E+02  0.65837940798E+02  0.00000000000E+00 0.  1.
<mgrwt>
<rscale>  0 0.13979971E+04</rscale>
<asrwt>0</asrwt>
<pdfrwt beam="1">  1        1 0.14482533E+00 0.13979971E+04</pdfrwt>
<pdfrwt beam="2">  1       -2 0.79851171E-01 0.13979971E+04</pdfrwt>
<totfact> 0.19984636E+01</totfact>
</mgrwt>
</event>
<event>
12    4  0.4398275E-008  0.1475308E+04  0.7818608E-02  0.8901041E-01
         -2   -1    0    0    0  501 -0.00000000000E+00  0.00000000000E+00  0.83179597853E+03  0.83179597853E+03  0.00000000000E+00 0.  1.
          1   -1    0    0  501    0  0.00000000000E+00 -0.00000000000E+00 -0.65416728397E+03  0.65416728397E+03  0.00000000000E+00 0. -1.
        -24    2    1    2    0    0  0.18906279532E+03 -0.12586905739E+03  0.48025483672E+03  0.53740662985E+03  0.81076614642E+02 0.  0.
        254    2    1    2    0    0 -0.18906279532E+03  0.12586905739E+03 -0.30262614215E+03  0.94855663264E+03  0.86982144331E+03 0.  0.
         23    2    4    4    0    0 -0.37721133429E+03  0.19030439908E+03  0.14002812755E+03  0.45462157754E+03  0.92567527985E+02 0.  0.
         23    2    4    4    0    0  0.18814853897E+03 -0.64435341688E+02 -0.44265426970E+03  0.49393505510E+03  0.92071983800E+02 0.  0.
          1    1    3    3  502    0  0.10099195878E+03 -0.90119725667E+02  0.20021246116E+03  0.24167327179E+03  0.00000000000E+00 0. -1.
         -2    1    3    3    0  502  0.88070836540E+02 -0.35749331721E+02  0.28004237556E+03  0.29573335807E+03  0.00000000000E+00 0.  1.
         11    1    5    5    0    0 -0.28966519932E+03  0.12456696920E+03  0.65120248306E+02  0.32196817273E+03  0.00000000000E+00 0. -1.
        -11    1    5    5    0    0 -0.87546134967E+02  0.65737429875E+02  0.74907879243E+02  0.13265340481E+03  0.00000000000E+00 0.  1.
          3    1    6    6  503    0  0.10021935646E+03  0.53581857999E+01 -0.26942291055E+03  0.28750884211E+03  0.00000000000E+00 0. -1.
         -3    1    6    6    0  503  0.87929182510E+02 -0.69793527488E+02 -0.17323135915E+03  0.20642621299E+03  0.00000000000E+00 0.  1.
<mgrwt>
<rscale>  0 0.14753084E+04</rscale>
<asrwt>0</asrwt>
<pdfrwt beam="1">  1        1 0.10064112E+00 0.14753084E+04</pdfrwt>
<pdfrwt beam="2">  1       -2 0.12796861E+00 0.14753084E+04</pdfrwt>
<totfact> 0.11564942E+01</totfact>
</mgrwt>
</event>
<event>
12    4  0.4398275E-008  0.1345194E+04  0.7818608E-02  0.8994474E-01
         -2   -1    0    0    0  501 -0.00000000000E+00  0.00000000000E+00  0.88463530040E+03  0.88463530040E+03  0.00000000000E+00 0.  1.
          1   -1    0    0  501    0  0.00000000000E+00 -0.00000000000E+00 -0.51138245964E+03  0.51138245964E+03  0.00000000000E+00 0. -1.
        -24    2    1    2    0    0  0.50602862243E+02 -0.17671128420E+03  0.43136419681E+03  0.47577973316E+03  0.80645871308E+02 0.  0.
        254    2    1    2    0    0 -0.50602862243E+02  0.17671128420E+03 -0.58111356054E+02  0.92023802688E+03  0.89981863105E+03 0.  0.
         23    2    4    4    0    0 -0.47183150988E+02  0.52752853967E+03 -0.12713226406E+03  0.55129158147E+03  0.85130401896E+02 0.  0.
         23    2    4    4    0    0 -0.34197112544E+01 -0.35081725547E+03  0.69020908005E+02  0.36894644541E+03  0.90956872619E+02 0.  0.
          1    1    3    3  502    0  0.18882621203E+02 -0.70462041831E+02  0.27215954789E+03  0.28176634333E+03  0.00000000000E+00 0. -1.
         -2    1    3    3    0  502  0.31720241040E+02 -0.10624924237E+03  0.15920464892E+03  0.19401338983E+03  0.00000000000E+00 0.  1.
         11    1    5    5    0    0 -0.62835100792E+02  0.45824027652E+03 -0.90241803592E+02  0.47124938624E+03  0.00000000000E+00 0. -1.
        -11    1    5    5    0    0  0.15651949804E+02  0.69288263150E+02 -0.36890460467E+02  0.80042195226E+02  0.00000000000E+00 0.  1.
          4    1    6    6  503    0 -0.38214543724E+02 -0.26193126148E+03  0.68773496415E+02  0.27349246956E+03  0.00000000000E+00 0.  1.
         -4    1    6    6    0  503  0.34794832470E+02 -0.88885993989E+02  0.24741159056E+00  0.95453975854E+02  0.00000000000E+00 0. -1.
<mgrwt>
<rscale>  0 0.13451944E+04</rscale>
<asrwt>0</asrwt>
<pdfrwt beam="1">  1        1 0.78674225E-01 0.13451944E+04</pdfrwt>
<pdfrwt beam="2">  1       -2 0.13609774E+00 0.13451944E+04</pdfrwt>
<totfact> 0.14206984E+01</totfact>
</mgrwt>
</event>
<event>
12    4  0.4398275E-008  0.2090708E+04  0.7818608E-02  0.8565347E-01
          1   -1    0    0  501    0  0.00000000000E+00  0.00000000000E+00  0.20391366671E+04  0.20391366671E+04  0.00000000000E+00 0. -1.
         -2   -1    0    0    0  501 -0.00000000000E+00 -0.00000000000E+00 -0.53589615415E+03  0.53589615415E+03  0.00000000000E+00 0.  1.
        -24    2    1    2    0    0 -0.39615209635E+03  0.69676401157E+03  0.95708412406E+03  0.12512176275E+04  0.84373926684E+02 0.  0.
        254    2    1    2    0    0  0.39615209635E+03 -0.69676401157E+03  0.54615638890E+03  0.13238151938E+04  0.90099017470E+03 0.  0.
         23    2    4    4    0    0  0.15013725587E+03  0.55204822711E+02 -0.17184747937E+03  0.25143012730E+03  0.89982135428E+02 0.  0.
         23    2    4    4    0    0  0.24601484048E+03 -0.75196883428E+03  0.71800386828E+03  0.10723850665E+04  0.92194069793E+02 0.  0.
          3    1    3    3  502    0 -0.14912004241E+03  0.29821950060E+03  0.34009066368E+03  0.47627021438E+03  0.00000000000E+00 0. -1.
         -4    1    3    3    0  502 -0.24703205394E+03  0.39854451096E+03  0.61699346038E+03  0.77494741308E+03  0.00000000000E+00 0.  1.
         11    1    5    5    0    0  0.13041351569E+03  0.10334130161E+02 -0.14593204747E+03  0.19598633065E+03  0.00000000000E+00 0.  1.
        -11    1    5    5    0    0  0.19723740171E+02  0.44870692550E+02 -0.25915431907E+02  0.55443796651E+02  0.00000000000E+00 0. -1.
          4    1    6    6  503    0  0.21919646003E+03 -0.54191825169E+03  0.51593420721E+03  0.77968620981E+03  0.00000000000E+00 0. -1.
         -4    1    6    6    0  503  0.26818380456E+02 -0.21005058259E+03  0.20206966107E+03  0.29269885668E+03  0.00000000000E+00 0.  1.
<mgrwt>
<rscale>  0 0.20907085E+04</rscale>
<asrwt>0</asrwt>
<pdfrwt beam="1">  1        1 0.31371333E+00 0.20907085E+04</pdfrwt>
<pdfrwt beam="2">  1       -2 0.82445563E-01 0.20907085E+04</pdfrwt>
<totfact> 0.29264334E+00</totfact>
</mgrwt>
</event>
<event>
12    4  0.4398275E-008  0.1580567E+04  0.7818608E-02  0.8832576E-01
          1   -1    0    0  501    0  0.00000000000E+00  0.00000000000E+00  0.80989472430E+03  0.80989472430E+03  0.00000000000E+00 0. -1.
         -2   -1    0    0    0  501 -0.00000000000E+00 -0.00000000000E+00 -0.77114732882E+03  0.77114732882E+03  0.00000000000E+00 0.  1.
        -24    2    1    2    0    0 -0.32428341159E+03  0.42003628943E+03  0.72763648460E+02  0.54148471079E+03  0.79504264079E+02 0.  0.
        254    2    1    2    0    0  0.32428341159E+03 -0.42003628943E+03 -0.34016252977E+02  0.10395573423E+04  0.89327047810E+03 0.  0.
         23    2    4    4    0    0  0.51363626815E+03 -0.55564043027E+03  0.74249821449E+02  0.76511047240E+03  0.85571579895E+02 0.  0.
         23    2    4    4    0    0 -0.18935285655E+03  0.13560414084E+03 -0.10826607443E+03  0.27444686993E+03  0.96729283291E+02 0.  0.
          1    1    3    3  502    0 -0.27616629188E+03  0.33956388881E+03  0.30827786896E+02  0.43877307095E+03  0.00000000000E+00 0. -1.
         -2    1    3    3    0  502 -0.48117119716E+02  0.80472400624E+02  0.41935861565E+02  0.10271163983E+03  0.00000000000E+00 0.  1.
         11    1    5    5    0    0  0.45353527234E+03 -0.47849649976E+03  0.92157275381E+02  0.66569220135E+03  0.00000000000E+00 0.  1.
        -11    1    5    5    0    0  0.60100995809E+02 -0.77143930505E+02 -0.17907453932E+02  0.99418271043E+02  0.00000000000E+00 0. -1.
          4    1    6    6  503    0 -0.55975175099E+02  0.42640235040E+02  0.13085065375E+02  0.71572542274E+02  0.00000000000E+00 0. -1.
         -4    1    6    6    0  503 -0.13337768145E+03  0.92963905798E+02 -0.12135113980E+03  0.20287432766E+03  0.00000000000E+00 0.  1.
<mgrwt>
<rscale>  0 0.15805672E+04</rscale>
<asrwt>0</asrwt>
<pdfrwt beam="1">  1        1 0.12459919E+00 0.15805672E+04</pdfrwt>
<pdfrwt beam="2">  1       -2 0.11863805E+00 0.15805672E+04</pdfrwt>
<totfact> 0.99675930E+00</totfact>
</mgrwt>
</event>
<event>
12    4  0.4398275E-008  0.1508557E+04  0.7818608E-02  0.8878783E-01
         -4   -1    0    0    0  501 -0.00000000000E+00  0.00000000000E+00  0.22143595222E+03  0.22143595222E+03  0.00000000000E+00 0.  1.
          3   -1    0    0  501    0  0.00000000000E+00 -0.00000000000E+00 -0.25693027132E+04  0.25693027132E+04  0.00000000000E+00 0. -1.
        -24    2    1    2    0    0  0.36220978569E+03  0.11952519148E+03 -0.13072011865E+04  0.13631315819E+04  0.62213883468E+02 0.  0.
        254    2    1    2    0    0 -0.36220978569E+03 -0.11952519148E+03 -0.10406655745E+04  0.14276070835E+04  0.89977494230E+03 0.  0.
         23    2    4    4    0    0 -0.59306776105E+03  0.11013106389E+03 -0.82622129210E+03  0.10271995890E+04  0.92947037284E+02 0.  0.
         23    2    4    4    0    0  0.23085797536E+03 -0.22965625537E+03 -0.21444428237E+03  0.40040749450E+03  0.91117566878E+02 0.  0.
          1    1    3    3  502    0  0.17733207603E+03  0.28798757915E+02 -0.65477283906E+03  0.67897238856E+03  0.00000000000E+00 0. -1.
         -2    1    3    3    0  502  0.18487770966E+03  0.90726433567E+02 -0.65242834741E+03  0.68415919330E+03  0.00000000000E+00 0.  1.
         11    1    5    5    0    0 -0.55829621223E+03  0.90507744450E+02 -0.79882058222E+03  0.97877506863E+03  0.00000000000E+00 0. -1.
        -11    1    5    5    0    0 -0.34771548824E+02  0.19623319438E+02 -0.27400709876E+02  0.48424520391E+02  0.00000000000E+00 0.  1.
          3    1    6    6  503    0  0.96933903068E+02 -0.13064847257E+03 -0.60369125399E+02  0.17352128472E+03  0.00000000000E+00 0. -1.
         -3    1    6    6    0  503  0.13392407229E+03 -0.99007782803E+02 -0.15407515698E+03  0.22688620979E+03  0.00000000000E+00 0.  1.
<mgrwt>
<rscale>  0 0.15085569E+04</rscale>
<asrwt>0</asrwt>
<pdfrwt beam="1">  1        3 0.39527734E+00 0.15085569E+04</pdfrwt>
<pdfrwt beam="2">  1       -4 0.34067070E-01 0.15085569E+04</pdfrwt>
<totfact> 0.22143028E-01</totfact>
</mgrwt>
</event>
<event>
12    4  0.4398275E-008  0.1786609E+04  0.7818608E-02  0.8713453E-01
          1   -1    0    0  501    0  0.00000000000E+00  0.00000000000E+00  0.18033550492E+04  0.18033550492E+04  0.00000000000E+00 0. -1.
         -2   -1    0    0    0  501 -0.00000000000E+00 -0.00000000000E+00 -0.44250450565E+03  0.44250450565E+03  0.00000000000E+00 0.  1.
        -24    2    1    2    0    0 -0.77629690422E+02  0.48442373982E+03 -0.51264850882E+02  0.49904346076E+03  0.75654228272E+02 0.  0.
        254    2    1    2    0    0  0.77629690422E+02 -0.48442373982E+03  0.14121153945E+04  0.17468160941E+04  0.90366135850E+03 0.  0.
         23    2    4    4    0    0 -0.23711461897E+03 -0.59237722559E+03  0.11285605635E+04  0.12998239443E+04  0.93590709209E+02 0.  0.
         23    2    4    4    0    0  0.31474430940E+03  0.10795348577E+03  0.28355483100E+03  0.44699214981E+03  0.93170297955E+02 0.  0.
          1    1    3    3  502    0 -0.36713197519E+02  0.10105761993E+03  0.12566782698E+02  0.10825167641E+03  0.00000000000E+00 0. -1.
         -2    1    3    3    0  502 -0.40916492903E+02  0.38336611989E+03 -0.63831633580E+02  0.39079178435E+03  0.00000000000E+00 0.  1.
         11    1    5    5    0    0 -0.16357458452E+03 -0.38044592060E+03  0.81631142940E+03  0.91534697955E+03  0.00000000000E+00 0.  1.
        -11    1    5    5    0    0 -0.73540034460E+02 -0.21193130500E+03  0.31224913407E+03  0.38447696476E+03  0.00000000000E+00 0. -1.
          3    1    6    6  503    0  0.40919761274E+02  0.41766525608E+02  0.81532241247E+02  0.10033133053E+03  0.00000000000E+00 0. -1.
         -3    1    6    6    0  503  0.27382454812E+03  0.66186960162E+02  0.20202258975E+03  0.34666081927E+03  0.00000000000E+00 0.  1.
<mgrwt>
<rscale>  0 0.17866088E+04</rscale>
<asrwt>0</asrwt>
<pdfrwt beam="1">  1        1 0.27743923E+00 0.17866088E+04</pdfrwt>
<pdfrwt beam="2">  1       -2 0.68077618E-01 0.17866088E+04</pdfrwt>
<totfact> 0.66389580E+00</totfact>
</mgrwt>
</event>
<event>
12    4  0.4398275E-008  0.1576464E+04  0.7818608E-02  0.8835139E-01
         -2   -1    0    0    0  501 -0.00000000000E+00  0.00000000000E+00  0.25331735171E+03  0.25331735171E+03  0.00000000000E+00 0.  1.
          1   -1    0    0  501    0  0.00000000000E+00 -0.00000000000E+00 -0.24526941347E+04  0.24526941347E+04  0.00000000000E+00 0. -1.
        -24    2    1    2    0    0 -0.41497420296E+03  0.23459359390E+02 -0.18926045940E+03  0.46316025142E+03  0.77097122775E+02 0.  0.
        254    2    1    2    0    0  0.41497420296E+03 -0.23459359390E+02 -0.20101163236E+04  0.22428512350E+04  0.90391376649E+03 0.  0.
         23    2    4    4    0    0  0.11333631313E+03 -0.58131595521E+02  0.46201098026E+02  0.16213274642E+03  0.89039787343E+02 0.  0.
         23    2    4    4    0    0  0.30163788983E+03  0.34672236131E+02 -0.20563174216E+04  0.20807184886E+04  0.93597594525E+02 0.  0.
          3    1    3    3  502    0 -0.56297275379E+02 -0.79499700230E+01 -0.10042696799E+01  0.56864697274E+02  0.00000000000E+00 0. -1.
         -4    1    3    3    0  502 -0.35867692758E+03  0.31409329413E+02 -0.18825618972E+03  0.40629555415E+03  0.00000000000E+00 0.  1.
         11    1    5    5    0    0 -0.19689654797E+01 -0.86268304481E+01  0.35056078604E+02  0.36155603656E+02  0.00000000000E+00 0. -1.
        -11    1    5    5    0    0  0.11530527861E+03 -0.49504765072E+02  0.11145019422E+02  0.12597714276E+03  0.00000000000E+00 0.  1.
          4    1    6    6  503    0  0.22400823772E+03 -0.92864455807E+01 -0.16136743520E+04  0.16291748964E+04  0.00000000000E+00 0. -1.
         -4    1    6    6    0  503  0.77629652116E+02  0.43958681712E+02 -0.44264306960E+03  0.45154359219E+03  0.00000000000E+00 0.  1.
<mgrwt>
<rscale>  0 0.15764644E+04</rscale>
<asrwt>0</asrwt>
<pdfrwt beam="1">  1        1 0.37733756E+00 0.15764644E+04</pdfrwt>
<pdfrwt beam="2">  1       -2 0.38971900E-01 0.15764644E+04</pdfrwt>
<totfact> 0.76903050E+00</totfact>
</mgrwt>
</event>
<event>
12    4  0.4398275E-008  0.3276412E+04  0.7818608E-02  0.8168923E-01
         -2   -1    0    0    0  501 -0.00000000000E+00  0.00000000000E+00  0.81933009506E+03  0.81933009506E+03  0.00000000000E+00 0.  1.
          1   -1    0    0  501    0  0.00000000000E+00 -0.00000000000E+00 -0.32755043108E+04  0.32755043108E+04  0.00000000000E+00 0. -1.
        -24    2    1    2    0    0 -0.11551129617E+04  0.31995736441E+03 -0.22909318136E+04  0.25867991122E+04  0.80637479147E+02 0.  0.
        254    2    1    2    0    0  0.11551129617E+04 -0.31995736441E+03 -0.16524240214E+03  0.15080352936E+04  0.90011484043E+03 0.  0.
         23    2    4    4    0    0  0.10048851858E+04 -0.15907919177E+03  0.22929587428E+03  0.10470126301E+04  0.92511749653E+02 0.  0.
         23    2    4    4    0    0  0.15022777596E+03 -0.16087817264E+03 -0.39453827641E+03  0.46102266351E+03  0.91821966959E+02 0.  0.
          1    1    3    3  502    0 -0.91968746282E+03  0.28802788412E+03 -0.18388711488E+04  0.20761098702E+04  0.00000000000E+00 0. -1.
         -2    1    3    3    0  502 -0.23542549891E+03  0.31929480289E+02 -0.45206066482E+03  0.51068924203E+03  0.00000000000E+00 0.  1.
         11    1    5    5    0    0  0.60048944756E+02 -0.32227094690E+02  0.11118385584E+02  0.69051284539E+02  0.00000000000E+00 0. -1.
        -11    1    5    5    0    0  0.94483624101E+03 -0.12685209708E+03  0.21817748869E+03  0.97796134557E+03  0.00000000000E+00 0.  1.
          4    1    6    6  503    0  0.65483665786E+02 -0.95944033789E+02 -0.28640975211E+03  0.30906943266E+03  0.00000000000E+00 0.  1.
         -4    1    6    6    0  503  0.84744110174E+02 -0.64934138846E+02 -0.10812852431E+03  0.15195323085E+03  0.00000000000E+00 0. -1.
<mgrwt>
<rscale>  0 0.32764122E+04</rscale>
<asrwt>0</asrwt>
<pdfrwt beam="1">  1        1 0.50392373E+00 0.32764122E+04</pdfrwt>
<pdfrwt beam="2">  1       -2 0.12605079E+00 0.32764122E+04</pdfrwt>
<totfact> 0.12797266E-01</totfact>
</mgrwt>
</event>
<event>
12    4  0.4398275E-008  0.1722887E+04  0.7818608E-02  0.8748418E-01
         -2   -1    0    0    0  501 -0.00000000000E+00  0.00000000000E+00  0.44255672479E+03  0.44255672479E+03  0.00000000000E+00 0.  1.
          1   -1    0    0  501    0  0.00000000000E+00 -0.00000000000E+00 -0.16768131577E+04  0.16768131577E+04  0.00000000000E+00 0. -1.
        -24    2    1    2    0    0  0.30395478793E+03  0.17954762344E+03  0.17901859542E+03  0.40323123644E+03  0.76953949550E+02 0.  0.
        254    2    1    2    0    0 -0.30395478793E+03 -0.17954762344E+03 -0.14132750283E+04  0.17161386461E+04  0.90728148034E+03 0.  0.
         23    2    4    4    0    0  0.28017588231E+03 -0.88119680227E+02 -0.21021782478E+03  0.37248457320E+03  0.91047352209E+02 0.  0.
         23    2    4    4    0    0 -0.58413067024E+03 -0.91427943210E+02 -0.12030572035E+04  0.13436540729E+04  0.92151634627E+02 0.  0.
          1    1    3    3  502    0  0.99249669057E+02  0.30479881046E+02  0.81037658082E+02  0.13170657533E+03  0.00000000000E+00 0. -1.
         -2    1    3    3    0  502  0.20470511887E+03  0.14906774239E+03  0.97980937336E+02  0.27152466112E+03  0.00000000000E+00 0.  1.
         11    1    5    5    0    0  0.17853176943E+03 -0.93966988144E+01 -0.12803540690E+03  0.21989760359E+03  0.00000000000E+00 0. -1.
        -11    1    5    5    0    0  0.10164411287E+03 -0.78722981413E+02 -0.82182417887E+02  0.15258696961E+03  0.00000000000E+00 0.  1.
          4    1    6    6  503    0 -0.36971684987E+03 -0.10254411939E+03 -0.76877512105E+03  0.85919790051E+03  0.00000000000E+00 0. -1.
         -4    1    6    6    0  503 -0.21441382037E+03  0.11116176175E+02 -0.43428208250E+03  0.48445617234E+03  0.00000000000E+00 0.  1.
<mgrwt>
<rscale>  0 0.17228870E+04</rscale>
<asrwt>0</asrwt>
<pdfrwt beam="1">  1        1 0.25797126E+00 0.17228870E+04</pdfrwt>
<pdfrwt beam="2">  1       -2 0.68085649E-01 0.17228870E+04</pdfrwt>
<totfact> 0.81376014E+00</totfact>
</mgrwt>
</event>
<event>
12    4  0.4398275E-008  0.1321480E+04  0.7818608E-02  0.9012702E-01
         -4   -1    0    0    0  501 -0.00000000000E+00  0.00000000000E+00  0.46941313772E+03  0.46941313772E+03  0.00000000000E+00 0.  1.
          3   -1    0    0  501    0  0.00000000000E+00 -0.00000000000E+00 -0.93004979927E+03  0.93004979927E+03  0.00000000000E+00 0. -1.
        -24    2    1    2    0    0  0.27083434480E+03  0.14317445395E+03  0.91546765387E+02  0.32613118409E+03  0.64269529267E+02 0.  0.
        254    2    1    2    0    0 -0.27083434480E+03 -0.14317445395E+03 -0.55218342694E+03  0.10733317529E+04  0.86791955170E+03 0.  0.
         23    2    4    4    0    0 -0.10045633069E+03  0.60036568293E+00 -0.74934630949E+03  0.76166112432E+03  0.92281861399E+02 0.  0.
         23    2    4    4    0    0 -0.17037801411E+03 -0.14377481963E+03  0.19716288255E+03  0.31167062858E+03  0.92550051400E+02 0.  0.
          3    1    3    3  502    0  0.84998464124E+02  0.47857717465E+02  0.61016249365E+02  0.11505686729E+03  0.00000000000E+00 0. -1.
         -4    1    3    3    0  502  0.18583588068E+03  0.95316736487E+02  0.30530516022E+02  0.21107431680E+03  0.00000000000E+00 0.  1.
         11    1    5    5    0    0 -0.21806106344E+02 -0.45311319160E+01 -0.26879154998E+02  0.34907397550E+02  0.00000000000E+00 0. -1.
        -11    1    5    5    0    0 -0.78650224349E+02  0.51314975990E+01 -0.72246715449E+03  0.72675372677E+03  0.00000000000E+00 0.  1.
          1    1    6    6  503    0 -0.73239552181E+01  0.13163239770E+02  0.12952042642E+02  0.19866217805E+02  0.00000000000E+00 0. -1.
         -1    1    6    6    0  503 -0.16305405889E+03 -0.15693805940E+03  0.18421083990E+03  0.29180441078E+03  0.00000000000E+00 0.  1.
<mgrwt>
<rscale>  0 0.13214804E+04</rscale>
<asrwt>0</asrwt>
<pdfrwt beam="1">  1        3 0.14308458E+00 0.13214804E+04</pdfrwt>
<pdfrwt beam="2">  1       -4 0.72217407E-01 0.13214804E+04</pdfrwt>
<totfact> 0.14303369E+00</totfact>
</mgrwt>
</event>
<event>
12    4  0.4398275E-008  0.1359286E+04  0.7818608E-02  0.8983828E-01
          1   -1    0    0  501    0  0.00000000000E+00  0.00000000000E+00  0.67640048575E+03  0.67640048575E+03  0.00000000000E+00 0. -1.
         -2   -1    0    0    0  501 -0.00000000000E+00 -0.00000000000E+00 -0.68290106859E+03  0.68290106859E+03  0.00000000000E+00 0.  1.
        -24    2    1    2    0    0 -0.30878060942E+03 -0.16331678596E+03  0.17524512091E+03  0.39886909894E+03  0.79798924566E+02 0.  0.
        254    2    1    2    0    0  0.30878060942E+03  0.16331678596E+03 -0.18174570374E+03  0.96043245540E+03  0.87600294704E+03 0.  0.
         23    2    4    4    0    0 -0.27051696728E+03 -0.90450523410E+02 -0.10540143982E+03  0.31721310794E+03  0.90299310962E+02 0.  0.
         23    2    4    4    0    0  0.57929757670E+03  0.25376730937E+03 -0.76344263913E+02  0.64321934745E+03  0.88989620898E+02 0.  0.
          3    1    3    3  502    0 -0.20506811856E+03 -0.13481489859E+03  0.89175666213E+02  0.26111355686E+03  0.00000000000E+00 0. -1.
         -4    1    3    3    0  502 -0.10371249086E+03 -0.28501887370E+02  0.86069454692E+02  0.13775554208E+03  0.00000000000E+00 0.  1.
         11    1    5    5    0    0 -0.14191606470E+03 -0.63479301707E+02 -0.10167364116E+03  0.18576146121E+03  0.00000000000E+00 0. -1.
        -11    1    5    5    0    0 -0.12860090258E+03 -0.26971221703E+02 -0.37277986648E+01  0.13145164673E+03  0.00000000000E+00 0.  1.
          4    1    6    6  503    0  0.56076335833E+03  0.25412255283E+03 -0.87099145345E+02  0.62178780707E+03  0.00000000000E+00 0. -1.
         -4    1    6    6    0  503  0.18534218374E+02 -0.35524345705E+00  0.10754881432E+02  0.21431540385E+02  0.00000000000E+00 0.  1.
<mgrwt>
<rscale>  0 0.13592860E+04</rscale>
<asrwt>0</asrwt>
<pdfrwt beam="1">  1        1 0.10406161E+00 0.13592860E+04</pdfrwt>
<pdfrwt beam="2">  1       -2 0.10506170E+00 0.13592860E+04</pdfrwt>
<totfact> 0.18039079E+01</totfact>
</mgrwt>
</event>
<event>
12    4  0.4398275E-008  0.2192425E+04  0.7818608E-02  0.8521587E-01
         -2   -1    0    0    0  501 -0.00000000000E+00  0.00000000000E+00  0.10177551676E+04  0.10177551676E+04  0.00000000000E+00 0.  1.
          1   -1    0    0  501    0  0.00000000000E+00 -0.00000000000E+00 -0.11807183863E+04  0.11807183863E+04  0.00000000000E+00 0. -1.
        -24    2    1    2    0    0  0.85938294517E+03  0.89957823104E+02 -0.37294469548E+03  0.94445202315E+03  0.79185994764E+02 0.  0.
        254    2    1    2    0    0 -0.85938294517E+03 -0.89957823104E+02  0.20998147672E+03  0.12540215308E+04  0.88422074320E+03 0.  0.
         23    2    4    4    0    0 -0.65517265310E+03 -0.32259071894E+03  0.43971050506E+03  0.85798360414E+03  0.97337348464E+02 0.  0.
         23    2    4    4    0    0 -0.20421029207E+03  0.23263289583E+03 -0.22972902834E+03  0.39603792664E+03  0.90833392888E+02 0.  0.
          3    1    3    3  502    0  0.23525207531E+03  0.36544304894E+02 -0.67016321026E+02  0.24732612567E+03  0.00000000000E+00 0. -1.
         -4    1    3    3    0  502  0.62413086986E+03  0.53413518209E+02 -0.30592837445E+03  0.69712589748E+03  0.00000000000E+00 0.  1.
         11    1    5    5    0    0 -0.10082081412E+03 -0.18869644906E+02  0.84623282326E+02  0.13297368150E+03  0.00000000000E+00 0.  1.
        -11    1    5    5    0    0 -0.55435183898E+03 -0.30372107403E+03  0.35508722273E+03  0.72500992265E+03  0.00000000000E+00 0. -1.
          1    1    6    6  503    0 -0.67063471715E+02  0.10063694047E+03 -0.40244919204E+02  0.12745570425E+03  0.00000000000E+00 0. -1.
         -1    1    6    6    0  503 -0.13714682035E+03  0.13199595536E+03 -0.18948410913E+03  0.26858222238E+03  0.00000000000E+00 0.  1.
<mgrwt>
<rscale>  0 0.21924254E+04</rscale>
<asrwt>0</asrwt>
<pdfrwt beam="1">  1        1 0.18164898E+00 0.21924254E+04</pdfrwt>
<pdfrwt beam="2">  1       -2 0.15657772E+00 0.21924254E+04</pdfrwt>
<totfact> 0.23600917E+00</totfact>
</mgrwt>
</event>
<event>
12    4  0.4398275E-008  0.2554066E+04  0.7818608E-02  0.8383974E-01
         -2   -1    0    0    0  501 -0.00000000000E+00  0.00000000000E+00  0.83739194101E+03  0.83739194101E+03  0.00000000000E+00 0.  1.
          1   -1    0    0  501    0  0.00000000000E+00 -0.00000000000E+00 -0.19474907942E+04  0.19474907942E+04  0.00000000000E+00 0. -1.
        -24    2    1    2    0    0 -0.75514960977E+03  0.62580951606E+03 -0.10777119882E+04  0.14595736730E+04  0.83688075594E+02 0.  0.
        254    2    1    2    0    0  0.75514960977E+03 -0.62580951606E+03 -0.32386864971E+02  0.13253090621E+04  0.89078994025E+03 0.  0.
         23    2    4    4    0    0  0.48519629825E+03  0.11184141970E+03  0.11840988001E+03  0.52021368801E+03  0.93152726826E+02 0.  0.
         23    2    4    4    0    0  0.26995331153E+03 -0.73765093576E+03 -0.15079674498E+03  0.80509537414E+03  0.91843397840E+02 0.  0.
          3    1    3    3  502    0 -0.63440733793E+03  0.54048531884E+03 -0.95420078162E+03  0.12669239054E+04  0.00000000000E+00 0. -1.
         -2    1    3    3    0  502 -0.12074227184E+03  0.85324197220E+02 -0.12351120657E+03  0.19264976769E+03  0.00000000000E+00 0.  1.
         11    1    5    5    0    0  0.58274217984E+02 -0.12240321781E+02 -0.20976818726E+01  0.59582801446E+02  0.00000000000E+00 0.  1.
        -11    1    5    5    0    0  0.42692208026E+03  0.12408174148E+03  0.12050756188E+03  0.46063088656E+03  0.00000000000E+00 0. -1.
          1    1    6    6  503    0  0.13297420080E+03 -0.30244934377E+03 -0.10440091619E+03  0.34649284975E+03  0.00000000000E+00 0. -1.
         -1    1    6    6    0  503  0.13697911073E+03 -0.43520159199E+03 -0.46395828790E+02  0.45860252439E+03  0.00000000000E+00 0.  1.
<mgrwt>
<rscale>  0 0.25540659E+04</rscale>
<asrwt>0</asrwt>
<pdfrwt beam="1">  1        1 0.29961396E+00 0.25540659E+04</pdfrwt>
<pdfrwt beam="2">  1       -2 0.12882953E+00 0.25540659E+04</pdfrwt>
<totfact> 0.11169416E+00</totfact>
</mgrwt>
</event>
<event>
12    4  0.4398275E-008  0.1323808E+04  0.7818608E-02  0.9010895E-01
         -2   -1    0    0    0  501 -0.00000000000E+00  0.00000000000E+00  0.38143306045E+03  0.38143306045E+03  0.00000000000E+00 0.  1.
          1   -1    0    0  501    0  0.00000000000E+00 -0.00000000000E+00 -0.11486075586E+04  0.11486075586E+04  0.00000000000E+00 0. -1.
        -24    2    1    2    0    0  0.16592542646E+03 -0.14505151078E+03 -0.52820307863E+03  0.57787599897E+03  0.79818481455E+02 0.  0.
        254    2    1    2    0    0 -0.16592542646E+03  0.14505151078E+03 -0.23897141953E+03  0.95216462010E+03  0.89495191854E+03 0.  0.
         23    2    4    4    0    0 -0.26701466528E+03 -0.25368603611E+03  0.12044061782E+03  0.39817082610E+03  0.91545769660E+02 0.  0.
         23    2    4    4    0    0  0.10108923882E+03  0.39873754688E+03 -0.35941203735E+03  0.55399379401E+03  0.92311676957E+02 0.  0.
          3    1    3    3  502    0  0.68572967481E+02 -0.10147323531E+03 -0.34227656833E+03  0.36352760361E+03  0.00000000000E+00 0. -1.
         -4    1    3    3    0  502  0.97352458982E+02 -0.43578275461E+02 -0.18592651030E+03  0.21434839536E+03  0.00000000000E+00 0.  1.
         11    1    5    5    0    0 -0.23083181628E+02 -0.29349415757E+02  0.44657915627E+02  0.58211261003E+02  0.00000000000E+00 0. -1.
        -11    1    5    5    0    0 -0.24393148365E+03 -0.22433662035E+03  0.75782702195E+02  0.33995956509E+03  0.00000000000E+00 0.  1.
          4    1    6    6  503    0 -0.16653472329E+02  0.75891585007E+02 -0.59167321579E+02  0.97660855814E+02  0.00000000000E+00 0. -1.
         -4    1    6    6    0  503  0.11774271115E+03  0.32284596188E+03 -0.30024471578E+03  0.45633293819E+03  0.00000000000E+00 0.  1.
<mgrwt>
<rscale>  0 0.13238080E+04</rscale>
<asrwt>0</asrwt>
<pdfrwt beam="1">  1        1 0.17670885E+00 0.13238080E+04</pdfrwt>
<pdfrwt beam="2">  1       -2 0.58682010E-01 0.13238080E+04</pdfrwt>
<totfact> 0.27221267E+01</totfact>
</mgrwt>
</event>
<event>
12    4  0.4398275E-008  0.2133464E+04  0.7818608E-02  0.8546644E-01
         -2   -1    0    0    0  501 -0.00000000000E+00  0.00000000000E+00  0.46831282179E+03  0.46831282179E+03  0.00000000000E+00 0.  1.
          1   -1    0    0  501    0  0.00000000000E+00 -0.00000000000E+00 -0.24298226427E+04  0.24298226427E+04  0.00000000000E+00 0. -1.
        -24    2    1    2    0    0  0.34743660131E+03 -0.31328321829E+03  0.19660497917E+03  0.51375518981E+03  0.80201685933E+02 0.  0.
        254    2    1    2    0    0 -0.34743660131E+03  0.31328321829E+03 -0.21581148001E+04  0.23843802746E+04  0.89941716524E+03 0.  0.
         23    2    4    4    0    0  0.22462093596E+03  0.33282965605E+03 -0.11578006644E+04  0.12283455584E+04  0.84263204506E+02 0.  0.
         23    2    4    4    0    0 -0.57205753727E+03 -0.19546437760E+02 -0.10003141357E+04  0.11560347162E+04  0.90310607995E+02 0.  0.
          3    1    3    3  502    0  0.83967845713E+02 -0.58783023665E+02  0.10955714105E+02  0.10308283396E+03  0.00000000000E+00 0. -1.
         -4    1    3    3    0  502  0.26346875560E+03 -0.25450019463E+03  0.18564926507E+03  0.41067235585E+03  0.00000000000E+00 0.  1.
         11    1    5    5    0    0  0.18513804061E+03  0.24513887414E+03 -0.96793554481E+03  0.10155138505E+04  0.00000000000E+00 0. -1.
        -11    1    5    5    0    0  0.39482895358E+02  0.87690781912E+02 -0.18986511957E+03  0.21283170790E+03  0.00000000000E+00 0.  1.
          2    1    6    6  503    0 -0.32174668526E+03 -0.40572603752E+02 -0.62995016991E+03  0.70852260530E+03  0.00000000000E+00 0. -1.
         -2    1    6    6    0  503 -0.25031085201E+03  0.21026165991E+02 -0.37036396577E+03  0.44751211093E+03  0.00000000000E+00 0.  1.
<mgrwt>
<rscale>  0 0.21334639E+04</rscale>
<asrwt>0</asrwt>
<pdfrwt beam="1">  1        1 0.37381887E+00 0.21334639E+04</pdfrwt>
<pdfrwt beam="2">  1       -2 0.72048126E-01 0.21334639E+04</pdfrwt>
<totfact> 0.21304490E+00</totfact>
</mgrwt>
</event>
<event>
12    4  0.4398275E-008  0.1286048E+04  0.7818608E-02  0.9040703E-01
         -2   -1    0    0    0  501 -0.00000000000E+00  0.00000000000E+00  0.42702971976E+03  0.42702971976E+03  0.00000000000E+00 0.  1.
          1   -1    0    0  501    0  0.00000000000E+00 -0.00000000000E+00 -0.96826920715E+03  0.96826920715E+03  0.00000000000E+00 0. -1.
        -24    2    1    2    0    0 -0.19510863246E+03 -0.31272700411E+02 -0.28144402549E+03  0.35307373788E+03  0.80031023028E+02 0.  0.
        254    2    1    2    0    0  0.19510863246E+03  0.31272700411E+02 -0.25979546190E+03  0.10422251890E+04  0.98979508099E+03 0.  0.
         23    2    4    4    0    0 -0.83854778374E+00 -0.38239420988E+03  0.15103244257E+03  0.42036781528E+03  0.87591475059E+02 0.  0.
         23    2    4    4    0    0  0.19594718024E+03  0.41366691029E+03 -0.41082790448E+03  0.62185737375E+03  0.91713772566E+02 0.  0.
          1    1    3    3  502    0 -0.17271288994E+03 -0.51388041638E+02 -0.25903092976E+03  0.31554317572E+03  0.00000000000E+00 0. -1.
         -2    1    3    3    0  502 -0.22395742516E+02  0.20115341227E+02 -0.22413095735E+02  0.37530562159E+02  0.00000000000E+00 0.  1.
         11    1    5    5    0    0 -0.34992766222E+02 -0.76520082426E+02  0.40128631517E+02  0.93220833346E+02  0.00000000000E+00 0.  1.
        -11    1    5    5    0    0  0.34154218438E+02 -0.30587412745E+03  0.11090381105E+03  0.32714698193E+03  0.00000000000E+00 0. -1.
          4    1    6    6  503    0  0.11792668348E+03  0.33135099125E+03 -0.33268743886E+03  0.48412923280E+03  0.00000000000E+00 0. -1.
         -4    1    6    6    0  503  0.78020496761E+02  0.82315919035E+02 -0.78140465619E+02  0.13772814095E+03  0.00000000000E+00 0.  1.
<mgrwt>
<rscale>  0 0.12860478E+04</rscale>
<asrwt>0</asrwt>
<pdfrwt beam="1">  1        1 0.14896449E+00 0.12860478E+04</pdfrwt>
<pdfrwt beam="2">  1       -2 0.65696880E-01 0.12860478E+04</pdfrwt>
<totfact> 0.29486266E+01</totfact>
</mgrwt>
</event>
<event>
12    4  0.4398275E-008  0.2052815E+04  0.7818608E-02  0.8582318E-01
          1   -1    0    0  501    0  0.00000000000E+00  0.00000000000E+00  0.14928150450E+04  0.14928150450E+04  0.00000000000E+00 0. -1.
         -2   -1    0    0    0  501 -0.00000000000E+00 -0.00000000000E+00 -0.70572215842E+03  0.70572215842E+03  0.00000000000E+00 0.  1.
        -24    2    1    2    0    0  0.59744308848E+03  0.51427064013E+03  0.57522305499E+02  0.79441540648E+03  0.79840385445E+02 0.  0.
        254    2    1    2    0    0 -0.59744308848E+03 -0.51427064013E+03  0.72957058108E+03  0.14041217969E+04  0.90436289872E+03 0.  0.
         23    2    4    4    0    0 -0.63188711171E+03 -0.43833758331E+03  0.90291547946E+03  0.11896858339E+04  0.93138936429E+02 0.  0.
         23    2    4    4    0    0  0.34444023229E+02 -0.75933056826E+02 -0.17334489838E+03  0.21443596303E+03  0.94773986876E+02 0.  0.
          3    1    3    3  502    0  0.22821889954E+02  0.43592044729E+02 -0.20423749669E+01  0.49247094536E+02  0.00000000000E+00 0. -1.
         -4    1    3    3    0  502  0.57462119853E+03  0.47067859540E+03  0.59564680466E+02  0.74516831195E+03  0.00000000000E+00 0.  1.
         11    1    5    5    0    0 -0.47130752426E+01 -0.20516744200E+02  0.24960089527E+02  0.32652043428E+02  0.00000000000E+00 0.  1.
        -11    1    5    5    0    0 -0.62717403647E+03 -0.41782083910E+03  0.87795538994E+03  0.11570337905E+04  0.00000000000E+00 0. -1.
          1    1    6    6  503    0  0.46061402375E+02 -0.44012664519E+02 -0.16847707212E+03  0.18012021335E+03  0.00000000000E+00 0. -1.
         -1    1    6    6    0  503 -0.11617379146E+02 -0.31920392307E+02 -0.48678262604E+01  0.34315749675E+02  0.00000000000E+00 0.  1.
<mgrwt>
<rscale>  0 0.20528153E+04</rscale>
<asrwt>0</asrwt>
<pdfrwt beam="1">  1        1 0.22966385E+00 0.20528153E+04</pdfrwt>
<pdfrwt beam="2">  1       -2 0.10857264E+00 0.20528153E+04</pdfrwt>
<totfact> 0.36372762E+00</totfact>
</mgrwt>
</event>
<event>
12    4  0.4398275E-008  0.1217606E+04  0.7818608E-02  0.9097584E-01
          1   -1    0    0  501    0  0.00000000000E+00  0.00000000000E+00  0.27637368458E+04  0.27637368458E+04  0.00000000000E+00 0. -1.
         -2   -1    0    0    0  501 -0.00000000000E+00 -0.00000000000E+00 -0.13410877612E+03  0.13410877612E+03  0.00000000000E+00 0.  1.
        -24    2    1    2    0    0  0.22377702220E+03 -0.88559953970E+02  0.30885484937E+03  0.39956981787E+03  0.79659903749E+02 0.  0.
        254    2    1    2    0    0 -0.22377702220E+03  0.88559953970E+02  0.23207732203E+04  0.24982758040E+04  0.89301435141E+03 0.  0.
         23    2    4    4    0    0  0.21081664524E+03 -0.20731667673E+03  0.14005917866E+04  0.14345419169E+04  0.93964333764E+02 0.  0.
         23    2    4    4    0    0 -0.43459366744E+03  0.29587663070E+03  0.92018143362E+03  0.10637338872E+04  0.91549306499E+02 0.  0.
          1    1    3    3  502    0  0.66143116817E+02 -0.10063042372E+02  0.14202848057E+03  0.15699766246E+03  0.00000000000E+00 0. -1.
         -2    1    3    3    0  502  0.15763390538E+03 -0.78496911598E+02  0.16682636880E+03  0.24257215542E+03  0.00000000000E+00 0.  1.
         11    1    5    5    0    0  0.18757737179E+03 -0.20109831628E+03  0.11340609686E+04  0.11669276258E+04  0.00000000000E+00 0.  1.
        -11    1    5    5    0    0  0.23239273445E+02 -0.62183604493E+01  0.26653081802E+03  0.26761429108E+03  0.00000000000E+00 0. -1.
          2    1    6    6  503    0 -0.17710813036E+03  0.17537400082E+03  0.41821002176E+03  0.48685003061E+03  0.00000000000E+00 0.  1.
         -2    1    6    6    0  503 -0.25748553708E+03  0.12050262988E+03  0.50197141187E+03  0.57688385654E+03  0.00000000000E+00 0. -1.
<mgrwt>
<rscale>  0 0.12176064E+04</rscale>
<asrwt>0</asrwt>
<pdfrwt beam="1">  1        1 0.42519024E+00 0.12176064E+04</pdfrwt>
<pdfrwt beam="2">  1       -2 0.20632121E-01 0.12176064E+04</pdfrwt>
<totfact> 0.15674295E+01</totfact>
</mgrwt>
</event>
<event>
12    4  0.4398275E-008  0.1511436E+04  0.7818608E-02  0.8876883E-01
         -2   -1    0    0    0  501 -0.00000000000E+00  0.00000000000E+00  0.59476374174E+03  0.59476374174E+03  0.00000000000E+00 0.  1.
          1   -1    0    0  501    0  0.00000000000E+00 -0.00000000000E+00 -0.96023004059E+03  0.96023004059E+03  0.00000000000E+00 0. -1.
        -24    2    1    2    0    0 -0.31165315115E+03 -0.29837989162E+03  0.99760762522E+02  0.44995695262E+03  0.79691926352E+02 0.  0.
        254    2    1    2    0    0  0.31165315115E+03  0.29837989162E+03 -0.46522706138E+03  0.11050368297E+04  0.90471649152E+03 0.  0.
         23    2    4    4    0    0  0.25783163859E+03  0.10919385996E+03 -0.71575756638E+03  0.77424412678E+03  0.93512678910E+02 0.  0.
         23    2    4    4    0    0  0.53821512568E+02  0.18918603165E+03  0.25053050500E+03  0.33079270293E+03  0.89275800699E+02 0.  0.
          1    1    3    3  502    0 -0.11846442702E+02 -0.13650669506E+02  0.23285759958E+02  0.29477204743E+02  0.00000000000E+00 0. -1.
         -2    1    3    3    0  502 -0.29980670845E+03 -0.28472922211E+03  0.76475002564E+02  0.42047974787E+03  0.00000000000E+00 0.  1.
         11    1    5    5    0    0  0.14165500236E+03  0.59967673318E+02 -0.26758204052E+03  0.30864609174E+03  0.00000000000E+00 0.  1.
        -11    1    5    5    0    0  0.11617663623E+03  0.49226186647E+02 -0.44817552586E+03  0.46559803505E+03  0.00000000000E+00 0. -1.
          1    1    6    6  503    0  0.34008738924E+02  0.31040902648E+02  0.19234720583E+02  0.49900966286E+02  0.00000000000E+00 0. -1.
         -1    1    6    6    0  503  0.19812773644E+02  0.15814512900E+03  0.23129578442E+03  0.28089173664E+03  0.00000000000E+00 0.  1.
<mgrwt>
<rscale>  0 0.15114364E+04</rscale>
<asrwt>0</asrwt>
<pdfrwt beam="1">  1        1 0.14772770E+00 0.15114364E+04</pdfrwt>
<pdfrwt beam="2">  1       -2 0.91502115E-01 0.15114364E+04</pdfrwt>
<totfact> 0.14015823E+01</totfact>
</mgrwt>
</event>
<event>
12    4  0.4398275E-008  0.1851009E+04  0.7818608E-02  0.8679634E-01
          1   -1    0    0  501    0  0.00000000000E+00  0.00000000000E+00  0.19872929400E+04  0.19872929400E+04  0.00000000000E+00 0. -1.
         -2   -1    0    0    0  501 -0.00000000000E+00 -0.00000000000E+00 -0.43101790781E+03  0.43101790781E+03  0.00000000000E+00 0.  1.
        -24    2    1    2    0    0  0.19377515793E+03  0.23538199875E+03 -0.23245972623E+03  0.39158899279E+03  0.79692645774E+02 0.  0.
        254    2    1    2    0    0 -0.19377515793E+03 -0.23538199875E+03  0.17887347584E+04  0.20267218550E+04  0.90281556502E+03 0.  0.
         23    2    4    4    0    0  0.34706176080E+03 -0.55292332113E+02  0.85231005280E+03  0.92640540115E+03  0.91024356002E+02 0.  0.
         23    2    4    4    0    0 -0.54083691873E+03 -0.18008966663E+03  0.93642470561E+03  0.11003164538E+04  0.94171166701E+02 0.  0.
          3    1    3    3  502    0  0.10598510635E+03  0.13609779476E+03 -0.81729008857E+02  0.19087976162E+03  0.00000000000E+00 0. -1.
         -4    1    3    3    0  502  0.87790051573E+02  0.99284203988E+02 -0.15073071737E+03  0.20070923117E+03  0.00000000000E+00 0.  1.
         11    1    5    5    0    0  0.46170535049E+02 -0.38263368350E+02  0.11068417818E+03  0.12588403776E+03  0.00000000000E+00 0.  1.
        -11    1    5    5    0    0  0.30089122575E+03 -0.17028963763E+02  0.74162587462E+03  0.80052136339E+03  0.00000000000E+00 0. -1.
          1    1    6    6  503    0 -0.29405590893E+03 -0.76440937173E+02  0.57784874458E+03  0.65285623691E+03  0.00000000000E+00 0. -1.
         -1    1    6    6    0  503 -0.24678100980E+03 -0.10364872946E+03  0.35857596103E+03  0.44746021694E+03  0.00000000000E+00 0.  1.
<mgrwt>
<rscale>  0 0.18510093E+04</rscale>
<asrwt>0</asrwt>
<pdfrwt beam="1">  1        1 0.30573737E+00 0.18510093E+04</pdfrwt>
<pdfrwt beam="2">  1       -2 0.66310448E-01 0.18510093E+04</pdfrwt>
<totfact> 0.52443912E+00</totfact>
</mgrwt>
</event>
<event>
12    4  0.4398275E-008  0.2229763E+04  0.7818608E-02  0.8506141E-01
         -2   -1    0    0    0  501 -0.00000000000E+00  0.00000000000E+00  0.11350127421E+04  0.11350127421E+04  0.00000000000E+00 0.  1.
          1   -1    0    0  501    0  0.00000000000E+00 -0.00000000000E+00 -0.10951072343E+04  0.10951072343E+04  0.00000000000E+00 0. -1.
        -24    2    1    2    0    0 -0.31448031489E+03 -0.82962112504E+03  0.28698515629E+03  0.93570227541E+03  0.77518957070E+02 0.  0.
        254    2    1    2    0    0  0.31448031489E+03  0.82962112504E+03 -0.24707964843E+03  0.12944177010E+04  0.90956019731E+03 0.  0.
         23    2    4    4    0    0 -0.61116330232E+02  0.62013491794E+03 -0.48487654673E+03  0.79468913372E+03  0.90127861562E+02 0.  0.
         23    2    4    4    0    0  0.37559664512E+03  0.20948620710E+03  0.23779689829E+03  0.49972856731E+03  0.90686081385E+02 0.  0.
          1    1    3    3  502    0 -0.10475950395E+03 -0.25348335933E+03  0.52413561118E+02  0.27924102227E+03  0.00000000000E+00 0. -1.
         -2    1    3    3    0  502 -0.20972081094E+03 -0.57613776571E+03  0.23457159517E+03  0.65646125314E+03  0.00000000000E+00 0.  1.
         11    1    5    5    0    0  0.23861361172E+02  0.12960628548E+03 -0.10034009477E+03  0.16563601182E+03  0.00000000000E+00 0.  1.
        -11    1    5    5    0    0 -0.84977691404E+02  0.49052863246E+03 -0.38453645195E+03  0.62905312190E+03  0.00000000000E+00 0. -1.
          3    1    6    6  503    0  0.24160076653E+03  0.10135156112E+03  0.18090951579E+03  0.31838863395E+03  0.00000000000E+00 0. -1.
         -3    1    6    6    0  503  0.13399587860E+03  0.10813464599E+03  0.56887382508E+02  0.18133993336E+03  0.00000000000E+00 0.  1.
<mgrwt>
<rscale>  0 0.22297629E+04</rscale>
<asrwt>0</asrwt>
<pdfrwt beam="1">  1        1 0.16847804E+00 0.22297629E+04</pdfrwt>
<pdfrwt beam="2">  1       -2 0.17461734E+00 0.22297629E+04</pdfrwt>
<totfact> 0.20160738E+00</totfact>
</mgrwt>
</event>
<event>
12    4  0.4398275E-008  0.1775014E+04  0.7818608E-02  0.8719701E-01
          1   -1    0    0  501    0  0.00000000000E+00  0.00000000000E+00  0.79893865317E+03  0.79893865317E+03  0.00000000000E+00 0. -1.
         -2   -1    0    0    0  501 -0.00000000000E+00 -0.00000000000E+00 -0.98589408608E+03  0.98589408608E+03  0.00000000000E+00 0.  1.
        -24    2    1    2    0    0  0.61319296869E+03 -0.34077893264E+02 -0.32601045644E+03  0.70023399281E+03  0.82933149736E+02 0.  0.
        254    2    1    2    0    0 -0.61319296869E+03  0.34077893264E+02  0.13905502353E+03  0.10845987464E+04  0.88309185341E+03 0.  0.
         23    2    4    4    0    0  0.30147386844E+02  0.16221174518E+03  0.34328806149E+03  0.39162104513E+03  0.91097939698E+02 0.  0.
         23    2    4    4    0    0 -0.64334035553E+03 -0.12813385192E+03 -0.20423303797E+03  0.69297770131E+03  0.90564141124E+02 0.  0.
          3    1    3    3  502    0  0.47171888578E+03 -0.48318312733E+02 -0.28050216895E+03  0.55093995438E+03  0.00000000000E+00 0. -1.
         -4    1    3    3    0  502  0.14147408291E+03  0.14240419470E+02 -0.45508287490E+02  0.14929403843E+03  0.00000000000E+00 0.  1.
         11    1    5    5    0    0  0.36482242236E+02  0.36682734325E+02  0.47491481250E+02  0.70228326105E+02  0.00000000000E+00 0.  1.
        -11    1    5    5    0    0 -0.63348553919E+01  0.12552901085E+03  0.29579658024E+03  0.32139271903E+03  0.00000000000E+00 0. -1.
          4    1    6    6  503    0 -0.34779494670E+03 -0.57621625726E+02 -0.15528088964E+03  0.38521906935E+03  0.00000000000E+00 0. -1.
         -4    1    6    6    0  503 -0.29554540883E+03 -0.70512226190E+02 -0.48952148327E+02  0.30775863196E+03  0.00000000000E+00 0.  1.
<mgrwt>
<rscale>  0 0.17750142E+04</rscale>
<asrwt>0</asrwt>
<pdfrwt beam="1">  1        1 0.12291364E+00 0.17750142E+04</pdfrwt>
<pdfrwt beam="2">  1       -2 0.15167601E+00 0.17750142E+04</pdfrwt>
<totfact> 0.53370965E+00</totfact>
</mgrwt>
</event>
<event>
12    4  0.4398275E-008  0.1203406E+04  0.7818608E-02  0.9109881E-01
         -2   -1    0    0    0  501 -0.00000000000E+00  0.00000000000E+00  0.32067909915E+03  0.32067909915E+03  0.00000000000E+00 0.  1.
          1   -1    0    0  501    0  0.00000000000E+00 -0.00000000000E+00 -0.11289992109E+04  0.11289992109E+04  0.00000000000E+00 0. -1.
        -24    2    1    2    0    0 -0.16570034154E+03 -0.14305772311E+03 -0.34386640372E+03  0.41555831264E+03  0.80761948144E+02 0.  0.
        254    2    1    2    0    0  0.16570034154E+03  0.14305772311E+03 -0.46445370799E+03  0.10341199974E+04  0.89764403121E+03 0.  0.
         23    2    4    4    0    0 -0.34183248187E+03 -0.54641381041E+02 -0.97993922278E+02  0.37089256959E+03  0.90129702043E+02 0.  0.
         23    2    4    4    0    0  0.50753282341E+03  0.19769910415E+03 -0.36645978571E+03  0.66322742779E+03  0.94357531780E+02 0.  0.
          1    1    3    3  502    0 -0.14382055864E+03 -0.11506991230E+03 -0.32899639067E+03  0.37704649962E+03  0.00000000000E+00 0. -1.
         -2    1    3    3    0  502 -0.21879782900E+02 -0.27987810811E+02 -0.14870013052E+02  0.38511813017E+02  0.00000000000E+00 0.  1.
         11    1    5    5    0    0 -0.11631752442E+03 -0.38391585283E+02  0.46652871504E+01  0.12257832277E+03  0.00000000000E+00 0. -1.
        -11    1    5    5    0    0 -0.22551495745E+03 -0.16249795758E+02 -0.10265920943E+03  0.24831424682E+03  0.00000000000E+00 0.  1.
          4    1    6    6  503    0  0.37209342334E+02  0.44641246740E+02 -0.41899873695E+02  0.71644786852E+02  0.00000000000E+00 0. -1.
         -4    1    6    6    0  503  0.47032348107E+03  0.15305785741E+03 -0.32455991202E+03  0.59158264093E+03  0.00000000000E+00 0.  1.
<mgrwt>
<rscale>  0 0.12034059E+04</rscale>
<asrwt>0</asrwt>
<pdfrwt beam="1">  1        1 0.17369219E+00 0.12034059E+04</pdfrwt>
<pdfrwt beam="2">  1       -2 0.49335245E-01 0.12034059E+04</pdfrwt>
<totfact> 0.40687049E+01</totfact>
</mgrwt>
</event>
<event>
12    4  0.4398275E-008  0.1662172E+04  0.7818608E-02  0.8783238E-01
         -2   -1    0    0    0  501 -0.00000000000E+00  0.00000000000E+00  0.82077131891E+03  0.82077131891E+03  0.00000000000E+00 0.  1.
          1   -1    0    0  501    0  0.00000000000E+00 -0.00000000000E+00 -0.84153056407E+03  0.84153056407E+03  0.00000000000E+00 0. -1.
        -24    2    1    2    0    0  0.55076934116E+03  0.11409685377E+03  0.15573730616E+03  0.58872794820E+03  0.77340346869E+02 0.  0.
        254    2    1    2    0    0 -0.55076934116E+03 -0.11409685377E+03 -0.17649655133E+03  0.10735739348E+04  0.89724300030E+03 0.  0.
         23    2    4    4    0    0 -0.24968141061E+03 -0.18961691999E+03 -0.51215101247E+03  0.60729671534E+03  0.90638059018E+02 0.  0.
         23    2    4    4    0    0 -0.30108793056E+03  0.75520066221E+02  0.33565446115E+03  0.46627721943E+03  0.91614986462E+02 0.  0.
          3    1    3    3  502    0  0.66176332538E+02 -0.74998899065E+01  0.32652643619E+02  0.74173785613E+02  0.00000000000E+00 0. -1.
         -4    1    3    3    0  502  0.48459300863E+03  0.12159674368E+03  0.12308466254E+03  0.51455416259E+03  0.00000000000E+00 0.  1.
         11    1    5    5    0    0 -0.90111247797E+02 -0.85959789520E+02 -0.28470900076E+03  0.31075446499E+03  0.00000000000E+00 0.  1.
        -11    1    5    5    0    0 -0.15957016281E+03 -0.10365713047E+03 -0.22744201171E+03  0.29654225036E+03  0.00000000000E+00 0. -1.
          3    1    6    6  503    0 -0.11678725328E+02 -0.38434526789E+01 -0.41069228975E+01  0.12962699158E+02  0.00000000000E+00 0. -1.
         -3    1    6    6    0  503 -0.28940920523E+03  0.79363518900E+02  0.33976138404E+03  0.45331452027E+03  0.00000000000E+00 0.  1.
<mgrwt>
<rscale>  0 0.16621723E+04</rscale>
<asrwt>0</asrwt>
<pdfrwt beam="1">  1        1 0.12946624E+00 0.16621723E+04</pdfrwt>
<pdfrwt beam="2">  1       -2 0.12627251E+00 0.16621723E+04</pdfrwt>
<totfact> 0.79588141E+00</totfact>
</mgrwt>
</event>
<event>
12    4  0.4398275E-008  0.1564836E+04  0.7818608E-02  0.8842447E-01
          1   -1    0    0  501    0  0.00000000000E+00  0.00000000000E+00  0.54976815451E+03  0.54976815451E+03  0.00000000000E+00 0. -1.
         -2   -1    0    0    0  501 -0.00000000000E+00 -0.00000000000E+00 -0.11135197049E+04  0.11135197049E+04  0.00000000000E+00 0.  1.
        -24    2    1    2    0    0 -0.44462356738E+03  0.24188306685E+02  0.11188165709E+03  0.46641690886E+03  0.82170778441E+02 0.  0.
        254    2    1    2    0    0  0.44462356738E+03 -0.24188306685E+02 -0.67563320745E+03  0.11968709505E+04  0.88189832200E+03 0.  0.
         23    2    4    4    0    0  0.36290111217E+03  0.36787444390E+02  0.11489635467E+03  0.39491462820E+03  0.98518312847E+02 0.  0.
         23    2    4    4    0    0  0.81722455209E+02 -0.60975751075E+02 -0.79052956212E+03  0.80195632233E+03  0.88319603856E+02 0.  0.
          3    1    3    3  502    0 -0.40041036176E+03  0.12420462316E+02  0.12350876033E+03  0.41921013772E+03  0.00000000000E+00 0. -1.
         -4    1    3    3    0  502 -0.44213205620E+02  0.11767844369E+02 -0.11627103233E+02  0.47206771144E+02  0.00000000000E+00 0.  1.
         11    1    5    5    0    0  0.13857751798E+03  0.60397682775E+02  0.60937925025E+02  0.16298785010E+03  0.00000000000E+00 0.  1.
        -11    1    5    5    0    0  0.22432359419E+03 -0.23610238385E+02  0.53958429646E+02  0.23192677810E+03  0.00000000000E+00 0. -1.
          4    1    6    6  503    0  0.90731656099E+02 -0.74753989906E+02 -0.71974259663E+03  0.72928032870E+03  0.00000000000E+00 0. -1.
         -4    1    6    6    0  503 -0.90092008898E+01  0.13778238831E+02 -0.70786965496E+02  0.72675993629E+02  0.00000000000E+00 0.  1.
<mgrwt>
<rscale>  0 0.15648357E+04</rscale>
<asrwt>0</asrwt>
<pdfrwt beam="1">  1        1 0.84579716E-01 0.15648357E+04</pdfrwt>
<pdfrwt beam="2">  1       -2 0.17131072E+00 0.15648357E+04</pdfrwt>
<totfact> 0.68108842E+00</totfact>
</mgrwt>
</event>
<event>
12    4  0.4398275E-008  0.2016995E+04  0.7818608E-02  0.8598716E-01
         -2   -1    0    0    0  501 -0.00000000000E+00  0.00000000000E+00  0.93384308726E+03  0.93384308726E+03  0.00000000000E+00 0.  1.
          1   -1    0    0  501    0  0.00000000000E+00 -0.00000000000E+00 -0.10891204598E+04  0.10891204598E+04  0.00000000000E+00 0. -1.
        -24    2    1    2    0    0 -0.56872045233E+03  0.16269284913E+02  0.51097869396E+03  0.76890597096E+03  0.80059502615E+02 0.  0.
        254    2    1    2    0    0  0.56872045233E+03 -0.16269284913E+02 -0.66625606654E+03  0.12540575761E+04  0.89724891505E+03 0.  0.
         23    2    4    4    0    0  0.24521273830E+02 -0.38164689681E+03 -0.18347706800E+03  0.43492892668E+03  0.96144110906E+02 0.  0.
         23    2    4    4    0    0  0.54419917850E+03  0.36537761190E+03 -0.48277899854E+03  0.81912864947E+03  0.90788973973E+02 0.  0.
          1    1    3    3  502    0 -0.61516203673E+02 -0.11583932222E+02  0.87405294495E+02  0.10750868014E+03  0.00000000000E+00 0. -1.
         -2    1    3    3    0  502 -0.50720424866E+03  0.27853217136E+02  0.42357339947E+03  0.66139729081E+03  0.00000000000E+00 0.  1.
         11    1    5    5    0    0  0.82726333564E+01 -0.23044096329E+02  0.10797445352E+02  0.26759141698E+02  0.00000000000E+00 0.  1.
        -11    1    5    5    0    0  0.16248640473E+02 -0.35860280048E+03 -0.19427451335E+03  0.40816978498E+03  0.00000000000E+00 0. -1.
          4    1    6    6  503    0  0.39388524684E+03  0.27518716148E+03 -0.40033579576E+03  0.62541371178E+03  0.00000000000E+00 0. -1.
         -4    1    6    6    0  503  0.15031393166E+03  0.90190450416E+02 -0.82443202781E+02  0.19371493769E+03  0.00000000000E+00 0.  1.
<mgrwt>
<rscale>  0 0.20169954E+04</rscale>
<asrwt>0</asrwt>
<pdfrwt beam="1">  1        1 0.16755699E+00 0.20169954E+04</pdfrwt>
<pdfrwt beam="2">  1       -2 0.14366817E+00 0.20169954E+04</pdfrwt>
<totfact> 0.35232855E+00</totfact>
</mgrwt>
</event>
<event>
12    4  0.4398275E-008  0.1240059E+04  0.7818608E-02  0.9078498E-01
          1   -1    0    0  501    0  0.00000000000E+00  0.00000000000E+00  0.13293141603E+04  0.13293141603E+04  0.00000000000E+00 0. -1.
         -2   -1    0    0    0  501 -0.00000000000E+00 -0.00000000000E+00 -0.28919927048E+03  0.28919927048E+03  0.00000000000E+00 0.  1.
        -24    2    1    2    0    0 -0.96034546212E+02  0.12082986193E+03 -0.65439372504E+02  0.18548811492E+03  0.79379088575E+02 0.  0.
        254    2    1    2    0    0  0.96034546212E+02 -0.12082986193E+03  0.11055542624E+04  0.14330253159E+04  0.89860382781E+03 0.  0.
         23    2    4    4    0    0  0.35225916295E+03  0.25525978433E+03  0.49194347304E+03  0.66318194057E+03  0.92508541505E+02 0.  0.
         23    2    4    4    0    0 -0.25622461674E+03 -0.37608964627E+03  0.61361078932E+03  0.76984337531E+03  0.95111226983E+02 0.  0.
          1    1    3    3  502    0 -0.61282343397E+02  0.29713759901E+02 -0.10429516336E+00  0.68106123199E+02  0.00000000000E+00 0. -1.
         -2    1    3    3    0  502 -0.34752202815E+02  0.91116102031E+02 -0.65335077341E+02  0.11738199172E+03  0.00000000000E+00 0.  1.
         11    1    5    5    0    0  0.22082819089E+03  0.21253334393E+03  0.34402181969E+03  0.46074561810E+03  0.00000000000E+00 0. -1.
        -11    1    5    5    0    0  0.13143097206E+03  0.42726440403E+02  0.14792165335E+03  0.20243632247E+03  0.00000000000E+00 0.  1.
          2    1    6    6  503    0 -0.14492193542E+03 -0.25831479863E+03  0.45627303195E+03  0.54397976271E+03  0.00000000000E+00 0. -1.
         -2    1    6    6    0  503 -0.11130268131E+03 -0.11777484764E+03  0.15733775737E+03  0.22586361260E+03  0.00000000000E+00 0.  1.
<mgrwt>
<rscale>  0 0.12400592E+04</rscale>
<asrwt>0</asrwt>
<pdfrwt beam="1">  1        1 0.20450987E+00 0.12400592E+04</pdfrwt>
<pdfrwt beam="2">  1       -2 0.44492196E-01 0.12400592E+04</pdfrwt>
<totfact> 0.35745271E+01</totfact>
</mgrwt>
</event>
<event>
12    4  0.4398275E-008  0.2603647E+04  0.7818608E-02  0.8366963E-01
         -2   -1    0    0    0  501 -0.00000000000E+00  0.00000000000E+00  0.11695666618E+04  0.11695666618E+04  0.00000000000E+00 0.  1.
          1   -1    0    0  501    0  0.00000000000E+00 -0.00000000000E+00 -0.14490365214E+04  0.14490365214E+04  0.00000000000E+00 0. -1.
        -24    2    1    2    0    0 -0.10835671620E+04  0.77786824621E+02 -0.46945204593E+03  0.11859055151E+04  0.76276357150E+02 0.  0.
        254    2    1    2    0    0  0.10835671620E+04 -0.77786824621E+02  0.18998218633E+03  0.14326976681E+04  0.91452763349E+03 0.  0.
         23    2    4    4    0    0  0.11896074407E+04 -0.12503588731E+02  0.73173686905E+01  0.11928300566E+04  0.86416417021E+02 0.  0.
         23    2    4    4    0    0 -0.10604027873E+03 -0.65283235890E+02  0.18266481764E+03  0.23986761156E+03  0.93078428613E+02 0.  0.
          3    1    3    3  502    0 -0.62191493004E+03  0.17925900312E+02 -0.23935082099E+03  0.66662458222E+03  0.00000000000E+00 0. -1.
         -4    1    3    3    0  502 -0.46165223197E+03  0.59860924309E+02 -0.23010122494E+03  0.51928093289E+03  0.00000000000E+00 0.  1.
         11    1    5    5    0    0  0.11339498855E+04 -0.30316992603E+02  0.81988515287E+01  0.11343847161E+04  0.00000000000E+00 0. -1.
        -11    1    5    5    0    0  0.55657555209E+02  0.17813403872E+02 -0.88148283824E+00  0.58445340458E+02  0.00000000000E+00 0.  1.
          2    1    6    6  503    0 -0.12206701561E+03 -0.64616953350E+02  0.17206947245E+03  0.22064362739E+03  0.00000000000E+00 0. -1.
         -2    1    6    6    0  503  0.16026736885E+02 -0.66628253974E+00  0.10595345190E+02  0.19223984168E+02  0.00000000000E+00 0.  1.
<mgrwt>
<rscale>  0 0.26036473E+04</rscale>
<asrwt>0</asrwt>
<pdfrwt beam="1">  1        1 0.22292870E+00 0.26036473E+04</pdfrwt>
<pdfrwt beam="2">  1       -2 0.17993333E+00 0.26036473E+04</pdfrwt>
<totfact> 0.99615186E-01</totfact>
</mgrwt>
</event>
<event>
12    4  0.4398275E-008  0.2125889E+04  0.7818608E-02  0.8549924E-01
          1   -1    0    0  501    0  0.00000000000E+00  0.00000000000E+00  0.63781444035E+03  0.63781444035E+03  0.00000000000E+00 0. -1.
         -2   -1    0    0    0  501 -0.00000000000E+00 -0.00000000000E+00 -0.17714422667E+04  0.17714422667E+04  0.00000000000E+00 0.  1.
        -24    2    1    2    0    0 -0.53498947815E+03 -0.32557407778E+03 -0.11745570637E+04  0.13335100144E+04  0.80327087240E+02 0.  0.
        254    2    1    2    0    0  0.53498947815E+03  0.32557407778E+03  0.40929237295E+02  0.10757466926E+04  0.87369532584E+03 0.  0.
         23    2    4    4    0    0  0.18745113044E+01  0.46067966800E+03  0.17826260438E+03  0.50239636026E+03  0.91625740798E+02 0.  0.
         23    2    4    4    0    0  0.53311496684E+03 -0.13510559022E+03 -0.13733336709E+03  0.57335033238E+03  0.86052667257E+02 0.  0.
          1    1    3    3  502    0 -0.23654143157E+03 -0.11445029004E+03 -0.42754387093E+03  0.50184108970E+03  0.00000000000E+00 0. -1.
         -2    1    3    3    0  502 -0.29844804658E+03 -0.21112378773E+03 -0.74701319273E+03  0.83166892474E+03  0.00000000000E+00 0.  1.
         11    1    5    5    0    0  0.87794962361E+00  0.60080154100E+02 -0.79886793356E+01  0.60615300954E+02  0.00000000000E+00 0.  1.
        -11    1    5    5    0    0  0.99656168084E+00  0.40059951390E+03  0.18625128372E+03  0.44178105930E+03  0.00000000000E+00 0. -1.
          1    1    6    6  503    0  0.35094779257E+03 -0.10693272236E+03 -0.12876689780E+03  0.38881856205E+03  0.00000000000E+00 0. -1.
         -1    1    6    6    0  503  0.18216717427E+03 -0.28172867861E+02 -0.85664692819E+01  0.18453177033E+03  0.00000000000E+00 0.  1.
<mgrwt>
<rscale>  0 0.21258894E+04</rscale>
<asrwt>0</asrwt>
<pdfrwt beam="1">  1        1 0.98125299E-01 0.21258894E+04</pdfrwt>
<pdfrwt beam="2">  1       -2 0.27252958E+00 0.21258894E+04</pdfrwt>
<totfact> 0.11777633E+00</totfact>
</mgrwt>
</event>
<event>
12    4  0.4398275E-008  0.1238912E+04  0.7818608E-02  0.9079462E-01
          1   -1    0    0  501    0  0.00000000000E+00  0.00000000000E+00  0.10576213393E+04  0.10576213393E+04  0.00000000000E+00 0. -1.
         -2   -1    0    0    0  501 -0.00000000000E+00 -0.00000000000E+00 -0.36281969314E+03  0.36281969314E+03  0.00000000000E+00 0.  1.
        -24    2    1    2    0    0  0.32841368991E+02 -0.14770549119E+03 -0.11400106271E+03  0.20549144891E+03  0.79592874238E+02 0.  0.
        254    2    1    2    0    0 -0.32841368991E+02  0.14770549119E+03  0.80880270885E+03  0.12149495835E+04  0.89389328280E+03 0.  0.
         23    2    4    4    0    0 -0.25883541373E+03  0.21398843775E+03  0.88477039432E+03  0.95074067587E+03  0.91117282683E+02 0.  0.
         23    2    4    4    0    0  0.22599404474E+03 -0.66282946556E+02 -0.75967685464E+02  0.26420890766E+03  0.92566302670E+02 0.  0.
          3    1    3    3  502    0  0.73240317272E+01  0.73201916946E+01  0.15398387140E+01  0.10468894424E+02  0.00000000000E+00 0. -1.
         -4    1    3    3    0  502  0.25517337263E+02 -0.15502568289E+03 -0.11554090142E+03  0.19502255448E+03  0.00000000000E+00 0.  1.
         11    1    5    5    0    0 -0.15229089928E+03  0.14022253044E+03  0.42006451890E+03  0.46830446943E+03  0.00000000000E+00 0. -1.
        -11    1    5    5    0    0 -0.10654451445E+03  0.73765907307E+02  0.46470587541E+03  0.48243620644E+03  0.00000000000E+00 0.  1.
          1    1    6    6  503    0  0.14131988236E+03 -0.82711535184E+02 -0.29998077016E+02  0.16647039325E+03  0.00000000000E+00 0. -1.
         -1    1    6    6    0  503  0.84674162376E+02  0.16428588628E+02 -0.45969608449E+02  0.97738514411E+02  0.00000000000E+00 0.  1.
<mgrwt>
<rscale>  0 0.12389122E+04</rscale>
<asrwt>0</asrwt>
<pdfrwt beam="1">  1        1 0.16271097E+00 0.12389122E+04</pdfrwt>
<pdfrwt beam="2">  1       -2 0.55818415E-01 0.12389122E+04</pdfrwt>
<totfact> 0.35620437E+01</totfact>
</mgrwt>
</event>
<event>
12    4  0.4398275E-008  0.1537653E+04  0.7818608E-02  0.8859793E-01
         -2   -1    0    0    0  501 -0.00000000000E+00  0.00000000000E+00  0.41057544032E+03  0.41057544032E+03  0.00000000000E+00 0.  1.
          1   -1    0    0  501    0  0.00000000000E+00 -0.00000000000E+00 -0.14396718906E+04  0.14396718906E+04  0.00000000000E+00 0. -1.
        -24    2    1    2    0    0 -0.46091132981E+03 -0.84869564159E+02 -0.17937890045E+03  0.50805756043E+03  0.79395200795E+02 0.  0.
        254    2    1    2    0    0  0.46091132981E+03  0.84869564159E+02 -0.84971754979E+03  0.13421897704E+04  0.92726014073E+03 0.  0.
         23    2    4    4    0    0  0.37324795051E+03  0.42233787341E+03 -0.21431835185E+03  0.61166729495E+03  0.10257295894E+03 0.  0.
         23    2    4    4    0    0  0.87663379308E+02 -0.33746830925E+03 -0.63539919794E+03  0.73052247549E+03  0.91439699469E+02 0.  0.
          3    1    3    3  502    0 -0.25153104755E+03 -0.43773777364E+02 -0.55311343255E+02  0.26123429361E+03  0.00000000000E+00 0. -1.
         -4    1    3    3    0  502 -0.20938028227E+03 -0.41095786795E+02 -0.12406755719E+03  0.24682326682E+03  0.00000000000E+00 0.  1.
         11    1    5    5    0    0  0.14492563437E+02  0.24742538542E+02  0.10945954477E+02  0.30692695025E+02  0.00000000000E+00 0. -1.
        -11    1    5    5    0    0  0.35875538707E+03  0.39759533487E+03 -0.22526430633E+03  0.58097459993E+03  0.00000000000E+00 0.  1.
          2    1    6    6  503    0  0.29611782169E+02 -0.48044672757E+02 -0.52215087583E+02  0.76886693223E+02  0.00000000000E+00 0. -1.
         -2    1    6    6    0  503  0.58051597140E+02 -0.28942363649E+03 -0.58318411035E+03  0.65363578227E+03  0.00000000000E+00 0.  1.
<mgrwt>
<rscale>  0 0.15376527E+04</rscale>
<asrwt>0</asrwt>
<pdfrwt beam="1">  1        1 0.22148798E+00 0.15376527E+04</pdfrwt>
<pdfrwt beam="2">  1       -2 0.63165454E-01 0.15376527E+04</pdfrwt>
<totfact> 0.14155370E+01</totfact>
</mgrwt>
</event>
<event>
12    4  0.4398275E-008  0.1882168E+04  0.7818608E-02  0.8663784E-01
         -2   -1    0    0    0  501 -0.00000000000E+00  0.00000000000E+00  0.13433246465E+04  0.13433246465E+04  0.00000000000E+00 0.  1.
          1   -1    0    0  501    0  0.00000000000E+00 -0.00000000000E+00 -0.65928900046E+03  0.65928900046E+03  0.00000000000E+00 0. -1.
        -24    2    1    2    0    0  0.90140965280E+02  0.51440578354E+03  0.79857224465E+03  0.95754042764E+03  0.80170673396E+02 0.  0.
        254    2    1    2    0    0 -0.90140965280E+02 -0.51440578354E+03 -0.11453659861E+03  0.10450732193E+04  0.89795361661E+03 0.  0.
         23    2    4    4    0    0 -0.14592717682E+03 -0.48854464632E+03  0.31198833890E+03  0.60473704266E+03  0.91649084967E+02 0.  0.
         23    2    4    4    0    0  0.55786211538E+02 -0.25861137218E+02 -0.42652493751E+03  0.44033617667E+03  0.90507051363E+02 0.  0.
          1    1    3    3  502    0  0.93160697659E+02  0.33725329123E+03  0.56119566361E+03  0.66133143800E+03  0.00000000000E+00 0. -1.
         -2    1    3    3    0  502 -0.30197323789E+01  0.17715249231E+03  0.23737658105E+03  0.29620898964E+03  0.00000000000E+00 0.  1.
         11    1    5    5    0    0 -0.12923851295E+02 -0.19084369047E+03  0.10026127509E+03  0.21596449571E+03  0.00000000000E+00 0.  1.
        -11    1    5    5    0    0 -0.13300332552E+03 -0.29770095585E+03  0.21172706381E+03  0.38877254695E+03  0.00000000000E+00 0. -1.
          3    1    6    6  503    0  0.27117959808E+00 -0.36909838686E-01 -0.29771335855E+03  0.29771348434E+03  0.00000000000E+00 0. -1.
         -3    1    6    6    0  503  0.55515031940E+02 -0.25824227380E+02 -0.12881157896E+03  0.14262269232E+03  0.00000000000E+00 0.  1.
<mgrwt>
<rscale>  0 0.18821681E+04</rscale>
<asrwt>0</asrwt>
<pdfrwt beam="1">  1        1 0.10142908E+00 0.18821681E+04</pdfrwt>
<pdfrwt beam="2">  1       -2 0.20666533E+00 0.18821681E+04</pdfrwt>
<totfact> 0.29423530E+00</totfact>
</mgrwt>
</event>
<event>
12    4  0.4398275E-008  0.2231877E+04  0.7818608E-02  0.8505276E-01
         -2   -1    0    0    0  501 -0.00000000000E+00  0.00000000000E+00  0.41214739415E+03  0.41214739415E+03  0.00000000000E+00 0.  1.
          1   -1    0    0  501    0  0.00000000000E+00 -0.00000000000E+00 -0.30215381222E+04  0.30215381222E+04  0.00000000000E+00 0. -1.
        -24    2    1    2    0    0 -0.16722535005E+03 -0.69595866290E+03 -0.20163842967E+04  0.21410795476E+04  0.78059074567E+02 0.  0.
        254    2    1    2    0    0  0.16722535005E+03  0.69595866290E+03 -0.59300643132E+03  0.12926059687E+04  0.89824873200E+03 0.  0.
         23    2    4    4    0    0 -0.80326348624E+02  0.50749853048E+03 -0.76407804687E+03  0.92553795177E+03  0.93798495407E+02 0.  0.
         23    2    4    4    0    0  0.24755169868E+03  0.18846013242E+03  0.17107161555E+03  0.36706801692E+03  0.93136278488E+02 0.  0.
          3    1    3    3  502    0 -0.16339097305E+03 -0.69699608694E+03 -0.20016069862E+04  0.21257776654E+04  0.00000000000E+00 0. -1.
         -4    1    3    3    0  502 -0.38343770048E+01  0.10374240450E+01 -0.14777310478E+02  0.15301882258E+02  0.00000000000E+00 0.  1.
         11    1    5    5    0    0 -0.47119717490E+02  0.38470475945E+03 -0.50190126208E+03  0.63413160826E+03  0.00000000000E+00 0. -1.
        -11    1    5    5    0    0 -0.33206631134E+02  0.12279377103E+03 -0.26217678479E+03  0.29140634351E+03  0.00000000000E+00 0.  1.
          2    1    6    6  503    0  0.86849376698E+02  0.14700552774E+02  0.46906103031E+02  0.99795305432E+02  0.00000000000E+00 0. -1.
         -2    1    6    6    0  503  0.16070232198E+03  0.17375957965E+03  0.12416551252E+03  0.26727271149E+03  0.00000000000E+00 0.  1.
<mgrwt>
<rscale>  0 0.22318773E+04</rscale>
<asrwt>0</asrwt>
<pdfrwt beam="1">  1        1 0.46485201E+00 0.22318773E+04</pdfrwt>
<pdfrwt beam="2">  1       -2 0.63407293E-01 0.22318773E+04</pdfrwt>
<totfact> 0.10615341E+00</totfact>
</mgrwt>
</event>
<event>
12    4  0.4398275E-008  0.1700286E+04  0.7818608E-02  0.8761201E-01
          1   -1    0    0  501    0  0.00000000000E+00  0.00000000000E+00  0.11246630561E+04  0.11246630561E+04  0.00000000000E+00 0. -1.
         -2   -1    0    0    0  501 -0.00000000000E+00 -0.00000000000E+00 -0.64263094064E+03  0.64263094064E+03  0.00000000000E+00 0.  1.
        -24    2    1    2    0    0 -0.24011983569E+03  0.34718284289E+03  0.62833690251E+03  0.76123329974E+03  0.80469942807E+02 0.  0.
        254    2    1    2    0    0  0.24011983569E+03 -0.34718284289E+03 -0.14630478703E+03  0.10060606970E+04  0.90142086368E+03 0.  0.
         23    2    4    4    0    0  0.54391552778E+03 -0.18270906893E+03  0.75212928242E+02  0.58600814638E+03  0.92313909113E+02 0.  0.
         23    2    4    4    0    0 -0.30379569210E+03 -0.16447377396E+03 -0.22151771527E+03  0.42005255063E+03  0.89613627638E+02 0.  0.
          3    1    3    3  502    0 -0.22026492212E+03  0.34547213107E+03  0.59586920975E+03  0.72313743119E+03  0.00000000000E+00 0. -1.
         -4    1    3    3    0  502 -0.19854913572E+02  0.17107118258E+01  0.32467692756E+02  0.38095868553E+02  0.00000000000E+00 0.  1.
         11    1    5    5    0    0  0.28697216392E+03 -0.12500613640E+03  0.33452687807E+01  0.31303473901E+03  0.00000000000E+00 0.  1.
        -11    1    5    5    0    0  0.25694336387E+03 -0.57702932533E+02  0.71867659461E+02  0.27297340738E+03  0.00000000000E+00 0. -1.
          1    1    6    6  503    0 -0.12136568985E+03 -0.90606741794E+02 -0.14253273846E+03  0.20797786868E+03  0.00000000000E+00 0. -1.
         -1    1    6    6    0  503 -0.18243000225E+03 -0.73867032166E+02 -0.78984976813E+02  0.21207468195E+03  0.00000000000E+00 0.  1.
<mgrwt>
<rscale>  0 0.17002862E+04</rscale>
<asrwt>0</asrwt>
<pdfrwt beam="1">  1        1 0.17302509E+00 0.17002862E+04</pdfrwt>
<pdfrwt beam="2">  1       -2 0.98866299E-01 0.17002862E+04</pdfrwt>
<totfact> 0.86036644E+00</totfact>
</mgrwt>
</event>
<event>
12    4  0.4398275E-008  0.1155489E+04  0.7818608E-02  0.9152735E-01
         -2   -1    0    0    0  501 -0.00000000000E+00  0.00000000000E+00  0.16304565443E+04  0.16304565443E+04  0.00000000000E+00 0.  1.
          1   -1    0    0  501    0  0.00000000000E+00 -0.00000000000E+00 -0.20472088408E+03  0.20472088408E+03  0.00000000000E+00 0. -1.
        -24    2    1    2    0    0  0.21879055442E+02 -0.55112237624E+02  0.62763720891E+03  0.63564635543E+03  0.81251285311E+02 0.  0.
        254    2    1    2    0    0 -0.21879055442E+02  0.55112237624E+02  0.79809845127E+03  0.11995310729E+04  0.89353097605E+03 0.  0.
         23    2    4    4    0    0  0.25447864636E+03  0.17521665802E+03  0.82150895157E+03  0.88247524601E+03  0.91789670490E+02 0.  0.
         23    2    4    4    0    0 -0.27635770180E+03 -0.12010442039E+03 -0.23410500300E+02  0.31705582691E+03  0.95800285549E+02 0.  0.
          1    1    3    3  502    0 -0.13136193803E+02 -0.63200734891E+02  0.41649036460E+03  0.42146306633E+03  0.00000000000E+00 0. -1.
         -2    1    3    3    0  502  0.35015249245E+02  0.80884972672E+01  0.21114684431E+03  0.21418328910E+03  0.00000000000E+00 0.  1.
         11    1    5    5    0    0  0.21214390694E+03  0.15812456153E+03  0.59154395986E+03  0.64802212204E+03  0.00000000000E+00 0. -1.
        -11    1    5    5    0    0  0.42334739411E+02  0.17092096483E+02  0.22996499171E+03  0.23445312396E+03  0.00000000000E+00 0.  1.
          1    1    6    6  503    0 -0.19615197448E+03 -0.12315150886E+03 -0.40159977304E+02  0.23506321491E+03  0.00000000000E+00 0. -1.
         -1    1    6    6    0  503 -0.80205727312E+02  0.30470884644E+01  0.16749477004E+02  0.81992611995E+02  0.00000000000E+00 0.  1.
<mgrwt>
<rscale>  0 0.11554887E+04</rscale>
<asrwt>0</asrwt>
<pdfrwt beam="1">  1        1 0.31495522E-01 0.11554887E+04</pdfrwt>
<pdfrwt beam="2">  1       -2 0.25083946E+00 0.11554887E+04</pdfrwt>
<totfact> 0.79572208E+00</totfact>
</mgrwt>
</event>
<event>
12    4  0.4398275E-008  0.1295893E+04  0.7818608E-02  0.9032829E-01
          1   -1    0    0  501    0  0.00000000000E+00  0.00000000000E+00  0.53291743228E+03  0.53291743228E+03  0.00000000000E+00 0. -1.
         -2   -1    0    0    0  501 -0.00000000000E+00 -0.00000000000E+00 -0.78780399785E+03  0.78780399785E+03  0.00000000000E+00 0.  1.
        -24    2    1    2    0    0  0.12129381635E+03 -0.67782825650E+02  0.24371682794E+03  0.29139477720E+03  0.78780217204E+02 0.  0.
        254    2    1    2    0    0 -0.12129381635E+03  0.67782825650E+02 -0.49860339351E+03  0.10293266529E+04  0.88971979470E+03 0.  0.
         23    2    4    4    0    0  0.24100383365E+03  0.27334080399E+03 -0.47055355784E+03  0.60204755710E+03  0.90788585484E+02 0.  0.
         23    2    4    4    0    0 -0.36229765000E+03 -0.20555797834E+03 -0.28049835668E+02  0.42727909583E+03  0.90922839783E+02 0.  0.
          3    1    3    3  502    0  0.10554423473E+03 -0.18541717953E+02  0.14970855439E+03  0.18410875060E+03  0.00000000000E+00 0. -1.
         -4    1    3    3    0  502  0.15749581613E+02 -0.49241107697E+02  0.94008273547E+02  0.10728602660E+03  0.00000000000E+00 0.  1.
         11    1    5    5    0    0  0.23507433127E+03  0.27950124560E+03 -0.46684662146E+03  0.59272814635E+03  0.00000000000E+00 0.  1.
        -11    1    5    5    0    0  0.59295023855E+01 -0.61604416093E+01 -0.37069363836E+01  0.93194107492E+01  0.00000000000E+00 0. -1.
          1    1    6    6  503    0 -0.42285730459E+01 -0.17541001898E+02 -0.13592771009E+02  0.22590506884E+02  0.00000000000E+00 0. -1.
         -1    1    6    6    0  503 -0.35806907695E+03 -0.18801697645E+03 -0.14457064659E+02  0.40468858894E+03  0.00000000000E+00 0.  1.
<mgrwt>
<rscale>  0 0.12958927E+04</rscale>
<asrwt>0</asrwt>
<pdfrwt beam="1">  1        1 0.81987297E-01 0.12958927E+04</pdfrwt>
<pdfrwt beam="2">  1       -2 0.12120061E+00 0.12958927E+04</pdfrwt>
<totfact> 0.18053515E+01</totfact>
</mgrwt>
</event>
<event>
12    4  0.4398275E-008  0.9959372E+03  0.7818608E-02  0.9313012E-01
          1   -1    0    0  501    0  0.00000000000E+00  0.00000000000E+00  0.84843371812E+03  0.84843371812E+03  0.00000000000E+00 0. -1.
         -2   -1    0    0    0  501 -0.00000000000E+00 -0.00000000000E+00 -0.29227117407E+03  0.29227117407E+03  0.00000000000E+00 0.  1.
        -24    2    1    2    0    0  0.28414804695E+02  0.10936141725E+02  0.96587397061E+02  0.12897645949E+03  0.79867399538E+02 0.  0.
        254    2    1    2    0    0 -0.28414804695E+02 -0.10936141725E+02  0.45957514699E+03  0.10117284327E+04  0.90080969437E+03 0.  0.
         23    2    4    4    0    0  0.15623776005E+03  0.66851027632E+02  0.67608211973E+03  0.70286770638E+03  0.89759024584E+02 0.  0.
         23    2    4    4    0    0 -0.18465256474E+03 -0.77787169358E+02 -0.21650697274E+03  0.30886072632E+03  0.91500085459E+02 0.  0.
          3    1    3    3  502    0  0.38840906066E+02 -0.20160341326E+02  0.82280405413E+02  0.93193993698E+02  0.00000000000E+00 0. -1.
         -4    1    3    3    0  502 -0.10426101371E+02  0.31096483051E+02  0.14306991648E+02  0.35782465789E+02  0.00000000000E+00 0.  1.
         11    1    5    5    0    0  0.14521509538E+03  0.38016983921E+02  0.62829175810E+03  0.64597464988E+03  0.00000000000E+00 0.  1.
        -11    1    5    5    0    0  0.11022664664E+02  0.28834043711E+02  0.47790361628E+02  0.56893056497E+02  0.00000000000E+00 0. -1.
          1    1    6    6  503    0 -0.42625926572E+02 -0.64284964502E+02 -0.66472409779E+02  0.10182390456E+03  0.00000000000E+00 0. -1.
         -1    1    6    6    0  503 -0.14202663817E+03 -0.13502204855E+02 -0.15003456296E+03  0.20703682177E+03  0.00000000000E+00 0.  1.
<mgrwt>
<rscale>  0 0.99593718E+03</rscale>
<asrwt>0</asrwt>
<pdfrwt beam="1">  1        1 0.13052826E+00 0.99593718E+03</pdfrwt>
<pdfrwt beam="2">  1       -2 0.44964796E-01 0.99593718E+03</pdfrwt>
<totfact> 0.82792098E+01</totfact>
</mgrwt>
</event>
<event>
12    4  0.4398275E-008  0.1228025E+04  0.7818608E-02  0.9088674E-01
          1   -1    0    0  501    0  0.00000000000E+00  0.00000000000E+00  0.31512551954E+03  0.31512551954E+03  0.00000000000E+00 0. -1.
         -2   -1    0    0    0  501 -0.00000000000E+00 -0.00000000000E+00 -0.11963841185E+04  0.11963841185E+04  0.00000000000E+00 0.  1.
        -24    2    1    2    0    0 -0.82624549201E+02  0.20046883278E+03 -0.59393803116E+03  0.63679123783E+03  0.75671174693E+02 0.  0.
        254    2    1    2    0    0  0.82624549201E+02 -0.20046883278E+03 -0.28732056781E+03  0.87471840021E+03  0.79722305658E+03 0.  0.
         23    2    4    4    0    0 -0.44443653241E+02  0.26493769054E+03  0.38645877749E+02  0.28645202376E+03  0.91618992955E+02 0.  0.
         23    2    4    4    0    0  0.12706820244E+03 -0.46540652332E+03 -0.32596644556E+03  0.58826637645E+03  0.83985987023E+02 0.  0.
          1    1    3    3  502    0 -0.27310935096E+02  0.84655290875E+02 -0.35027678000E+03  0.36139483678E+03  0.00000000000E+00 0. -1.
         -2    1    3    3    0  502 -0.55313614105E+02  0.11581354191E+03 -0.24366125116E+03  0.27539640105E+03  0.00000000000E+00 0.  1.
         11    1    5    5    0    0 -0.38840327369E+02  0.30651016842E+02  0.71074498188E+01  0.49985715024E+02  0.00000000000E+00 0. -1.
        -11    1    5    5    0    0 -0.56033258722E+01  0.23428667369E+03  0.31538427930E+02  0.23646630874E+03  0.00000000000E+00 0.  1.
          1    1    6    6  503    0  0.25423770946E+02 -0.18677269929E+02 -0.21522626111E+02  0.38189422303E+02  0.00000000000E+00 0. -1.
         -1    1    6    6    0  503  0.10164443150E+03 -0.44672925339E+03 -0.30444381945E+03  0.55007695415E+03  0.00000000000E+00 0.  1.
<mgrwt>
<rscale>  0 0.12280247E+04</rscale>
<asrwt>0</asrwt>
<pdfrwt beam="1">  1        1 0.48480848E-01 0.12280247E+04</pdfrwt>
<pdfrwt beam="2">  1       -2 0.18405910E+00 0.12280247E+04</pdfrwt>
<totfact> 0.12040928E+01</totfact>
</mgrwt>
</event>
<event>
12    4  0.4398275E-008  0.1542601E+04  0.7818608E-02  0.8856608E-01
         -2   -1    0    0    0  501 -0.00000000000E+00  0.00000000000E+00  0.33402420321E+03  0.33402420321E+03  0.00000000000E+00 0.  1.
          1   -1    0    0  501    0  0.00000000000E+00 -0.00000000000E+00 -0.17810215415E+04  0.17810215415E+04  0.00000000000E+00 0. -1.
        -24    2    1    2    0    0 -0.16228480592E+03 -0.12527496144E+03  0.15507470031E+03  0.26871261247E+03  0.78282381340E+02 0.  0.
        254    2    1    2    0    0  0.16228480592E+03  0.12527496144E+03 -0.16020720386E+04  0.18463331322E+04  0.89458428564E+03 0.  0.
         23    2    4    4    0    0  0.19393605187E+03 -0.88937461554E+02 -0.15950522874E+04  0.16118316281E+04  0.91040285023E+02 0.  0.
         23    2    4    4    0    0 -0.31651245951E+02  0.21421242300E+03 -0.70197511815E+01  0.23450150412E+03  0.89738035357E+02 0.  0.
          3    1    3    3  502    0 -0.10986211856E+03 -0.84297521038E+02  0.56006568326E+02  0.14937366850E+03  0.00000000000E+00 0. -1.
         -4    1    3    3    0  502 -0.52422687367E+02 -0.40977440406E+02  0.99068131985E+02  0.11933894397E+03  0.00000000000E+00 0.  1.
         11    1    5    5    0    0  0.10309079582E+03  0.87173508941E+00 -0.79219139249E+03  0.79887150058E+03  0.00000000000E+00 0. -1.
        -11    1    5    5    0    0  0.90845256052E+02 -0.89809196644E+02 -0.80286089495E+03  0.81296012755E+03  0.00000000000E+00 0.  1.
          1    1    6    6  503    0 -0.42925204602E+02  0.17061958548E+03  0.27094698679E+02  0.17801050204E+03  0.00000000000E+00 0. -1.
         -1    1    6    6    0  503  0.11273958651E+02  0.43592837517E+02 -0.34114449861E+02  0.56491002078E+02  0.00000000000E+00 0.  1.
<mgrwt>
<rscale>  0 0.15426008E+04</rscale>
<asrwt>0</asrwt>
<pdfrwt beam="1">  1        1 0.27400331E+00 0.15426008E+04</pdfrwt>
<pdfrwt beam="2">  1       -2 0.51388339E-01 0.15426008E+04</pdfrwt>
<totfact> 0.12707922E+01</totfact>
</mgrwt>
</event>
<event>
12    4  0.4398275E-008  0.1022940E+04  0.7818608E-02  0.9283736E-01
         -2   -1    0    0    0  501 -0.00000000000E+00  0.00000000000E+00  0.16207461008E+04  0.16207461008E+04  0.00000000000E+00 0.  1.
          1   -1    0    0  501    0  0.00000000000E+00 -0.00000000000E+00 -0.16140810462E+03  0.16140810462E+03  0.00000000000E+00 0. -1.
        -24    2    1    2    0    0 -0.59969404881E+02  0.30649624271E+02  0.28481399818E+03  0.30415926285E+03  0.82813734563E+02 0.  0.
        254    2    1    2    0    0  0.59969404881E+02 -0.30649624271E+02  0.11745239980E+04  0.14779949425E+04  0.89466569140E+03 0.  0.
         23    2    4    4    0    0 -0.19476978302E+02 -0.23219770490E+03  0.12131837634E+04  0.12386485733E+04  0.90223708052E+02 0.  0.
         23    2    4    4    0    0  0.79446383183E+02  0.20154808063E+03 -0.38659765413E+02  0.23934636926E+03  0.94120935018E+02 0.  0.
          3    1    3    3  502    0 -0.73367244274E+02  0.16605412746E+02  0.14845029022E+03  0.16642109521E+03  0.00000000000E+00 0. -1.
         -2    1    3    3    0  502  0.13397839393E+02  0.14044211525E+02  0.13636370796E+03  0.13773816764E+03  0.00000000000E+00 0.  1.
         11    1    5    5    0    0 -0.38751067204E+02 -0.16847201779E+03  0.69367743219E+03  0.71489359063E+03  0.00000000000E+00 0.  1.
        -11    1    5    5    0    0  0.19274088901E+02 -0.63725687115E+02  0.51950633120E+03  0.52375498266E+03  0.00000000000E+00 0. -1.
          1    1    6    6  503    0  0.57301964286E+02  0.65648317100E+02  0.20444062636E+02  0.89505174969E+02  0.00000000000E+00 0. -1.
         -1    1    6    6    0  503  0.22144418897E+02  0.13589976353E+03 -0.59103828050E+02  0.14984119429E+03  0.00000000000E+00 0.  1.
<mgrwt>
<rscale>  0 0.10229400E+04</rscale>
<asrwt>0</asrwt>
<pdfrwt beam="1">  1        1 0.24832017E-01 0.10229400E+04</pdfrwt>
<pdfrwt beam="2">  1       -2 0.24934554E+00 0.10229400E+04</pdfrwt>
<totfact> 0.11208475E+01</totfact>
</mgrwt>
</event>
<event>
12    4  0.4398275E-008  0.1193548E+04  0.7818608E-02  0.9118523E-01
         -2   -1    0    0    0  501 -0.00000000000E+00  0.00000000000E+00  0.61460713882E+03  0.61460713882E+03  0.00000000000E+00 0.  1.
          1   -1    0    0  501    0  0.00000000000E+00 -0.00000000000E+00 -0.57945839101E+03  0.57945839101E+03  0.00000000000E+00 0. -1.
        -24    2    1    2    0    0  0.34587462192E+02  0.11876661033E+03  0.67138764776E+02  0.16143472192E+03  0.79068043077E+02 0.  0.
        254    2    1    2    0    0 -0.34587462192E+02 -0.11876661033E+03 -0.31990016967E+02  0.10326308079E+04  0.10246956738E+04 0.  0.
         23    2    4    4    0    0 -0.40049637301E+03 -0.39039499599E+03 -0.46416799035E+00  0.56699422388E+03  0.93148466290E+02 0.  0.
         23    2    4    4    0    0  0.36590891082E+03  0.27162838566E+03 -0.31525848977E+02  0.46563658403E+03  0.90289746471E+02 0.  0.
          1    1    3    3  502    0  0.15310486279E+02  0.50128573507E+02 -0.13172477515E+02  0.54044417249E+02  0.00000000000E+00 0. -1.
         -2    1    3    3    0  502  0.19276975913E+02  0.68638036827E+02  0.80311242291E+02  0.10739030468E+03  0.00000000000E+00 0.  1.
         11    1    5    5    0    0 -0.18605951287E+03 -0.22687167523E+03  0.32977414230E+02  0.29525651424E+03  0.00000000000E+00 0. -1.
        -11    1    5    5    0    0 -0.21443686014E+03 -0.16352332076E+03 -0.33441582220E+02  0.27173770965E+03  0.00000000000E+00 0.  1.
          2    1    6    6  503    0  0.33135726975E+03  0.26040639769E+03 -0.64357230801E+01  0.42148612161E+03  0.00000000000E+00 0. -1.
         -2    1    6    6    0  503  0.34551641065E+02  0.11221987970E+02 -0.25090125897E+02  0.44150462419E+02  0.00000000000E+00 0.  1.
<mgrwt>
<rscale>  0 0.11935481E+04</rscale>
<asrwt>0</asrwt>
<pdfrwt beam="1">  1        1 0.89147444E-01 0.11935481E+04</pdfrwt>
<pdfrwt beam="2">  1       -2 0.94554945E-01 0.11935481E+04</pdfrwt>
<totfact> 0.29407686E+01</totfact>
</mgrwt>
</event>
<event>
12    4  0.4398275E-008  0.1654481E+04  0.7818608E-02  0.8787760E-01
         -2   -1    0    0    0  501 -0.00000000000E+00  0.00000000000E+00  0.71933040919E+03  0.71933040919E+03  0.00000000000E+00 0.  1.
          1   -1    0    0  501    0  0.00000000000E+00 -0.00000000000E+00 -0.95133883261E+03  0.95133883261E+03  0.00000000000E+00 0. -1.
        -24    2    1    2    0    0  0.10210750529E+03 -0.42373680194E+03  0.30379185945E+03  0.53717157346E+03  0.79277900475E+02 0.  0.
        254    2    1    2    0    0 -0.10210750529E+03  0.42373680194E+03 -0.53580028287E+03  0.11334976683E+04  0.89875258055E+03 0.  0.
         23    2    4    4    0    0 -0.21001795478E+03 -0.20331924484E+03 -0.34836947793E+03  0.46386911391E+03  0.91471334460E+02 0.  0.
         23    2    4    4    0    0  0.10791044949E+03  0.62705604679E+03 -0.18743080494E+03  0.66962855443E+03  0.91804920064E+02 0.  0.
          1    1    3    3  502    0  0.42932785234E+02 -0.12237433801E+03  0.50843465247E+02  0.13929738192E+03  0.00000000000E+00 0. -1.
         -2    1    3    3    0  502  0.59174720060E+02 -0.30136246394E+03  0.25294839420E+03  0.39787419154E+03  0.00000000000E+00 0.  1.
         11    1    5    5    0    0 -0.11355485018E+03 -0.55588588999E+02 -0.11195097158E+03  0.16887218617E+03  0.00000000000E+00 0. -1.
        -11    1    5    5    0    0 -0.96463104609E+02 -0.14773065585E+03 -0.23641850635E+03  0.29499692774E+03  0.00000000000E+00 0.  1.
          3    1    6    6  503    0  0.10101373027E+03  0.33078227758E+03 -0.11588864889E+03  0.36476138475E+03  0.00000000000E+00 0. -1.
         -3    1    6    6    0  503  0.68967192183E+01  0.29627376921E+03 -0.71542156049E+02  0.30486716968E+03  0.00000000000E+00 0.  1.
<mgrwt>
<rscale>  0 0.16544811E+04</rscale>
<asrwt>0</asrwt>
<pdfrwt beam="1">  1        1 0.14635982E+00 0.16544811E+04</pdfrwt>
<pdfrwt beam="2">  1       -2 0.11066622E+00 0.16544811E+04</pdfrwt>
<totfact> 0.89627944E+00</totfact>
</mgrwt>
</event>
<event>
12    4  0.4398275E-008  0.2056607E+04  0.7818608E-02  0.8580603E-01
         -2   -1    0    0    0  501 -0.00000000000E+00  0.00000000000E+00  0.12763507869E+04  0.12763507869E+04  0.00000000000E+00 0.  1.
          1   -1    0    0  501    0  0.00000000000E+00 -0.00000000000E+00 -0.82846195502E+03  0.82846195502E+03  0.00000000000E+00 0. -1.
        -24    2    1    2    0    0  0.57149632028E+03 -0.20252807091E+03  0.82121677264E+03  0.10237991351E+04  0.78371026367E+02 0.  0.
        254    2    1    2    0    0 -0.57149632028E+03  0.20252807091E+03 -0.37332794081E+03  0.10810136068E+04  0.81338244573E+03 0.  0.
         23    2    4    4    0    0 -0.35467529956E+03 -0.28556304390E+03 -0.24053166588E+03  0.52331318348E+03  0.93061192539E+02 0.  0.
         23    2    4    4    0    0 -0.21682102072E+03  0.48809111480E+03 -0.13279627493E+03  0.55770042329E+03  0.90280784916E+02 0.  0.
          1    1    3    3  502    0  0.93374948499E+02 -0.54811507598E+02  0.11170901264E+03  0.15557019598E+03  0.00000000000E+00 0. -1.
         -2    1    3    3    0  502  0.47812137178E+03 -0.14771656331E+03  0.70950776000E+03  0.86822893913E+03  0.00000000000E+00 0.  1.
         11    1    5    5    0    0 -0.26129923124E+03 -0.15488170764E+03 -0.14703682764E+03  0.33746919903E+03  0.00000000000E+00 0.  1.
        -11    1    5    5    0    0 -0.93376068317E+02 -0.13068133626E+03 -0.93494838238E+02  0.18584398445E+03  0.00000000000E+00 0. -1.
          3    1    6    6  503    0 -0.13045447085E+01 -0.40813117017E+01 -0.19462902910E+01  0.47060586481E+01  0.00000000000E+00 0. -1.
         -3    1    6    6    0  503 -0.21551647601E+03  0.49217242650E+03 -0.13084998464E+03  0.55299436464E+03  0.00000000000E+00 0.  1.
<mgrwt>
<rscale>  0 0.20566070E+04</rscale>
<asrwt>0</asrwt>
<pdfrwt beam="1">  1        1 0.12745568E+00 0.20566070E+04</pdfrwt>
<pdfrwt beam="2">  1       -2 0.19636166E+00 0.20566070E+04</pdfrwt>
<totfact> 0.23744486E+00</totfact>
</mgrwt>
</event>
<event>
12    4  0.4398275E-008  0.1394736E+04  0.7818608E-02  0.8957638E-01
          1   -1    0    0  501    0  0.00000000000E+00  0.00000000000E+00  0.17653708259E+04  0.17653708259E+04  0.00000000000E+00 0. -1.
         -2   -1    0    0    0  501 -0.00000000000E+00 -0.00000000000E+00 -0.27547854206E+03  0.27547854206E+03  0.00000000000E+00 0.  1.
        -24    2    1    2    0    0  0.25161935288E+03 -0.21979422328E+03  0.70251879881E+03  0.78199059729E+03  0.79717201638E+02 0.  0.
        254    2    1    2    0    0 -0.25161935288E+03  0.21979422328E+03  0.78737348508E+03  0.12588587707E+04  0.92365935294E+03 0.  0.
         23    2    4    4    0    0 -0.19793228781E+03 -0.12045426214E+03  0.86042219620E+03  0.89500618123E+03  0.83805064833E+02 0.  0.
         23    2    4    4    0    0 -0.53687065075E+02  0.34024848543E+03 -0.73048711123E+02  0.36385258949E+03  0.91658386900E+02 0.  0.
          1    1    3    3  502    0  0.20957270990E+03 -0.16189007949E+03  0.61018693879E+03  0.66517457772E+03  0.00000000000E+00 0. -1.
         -2    1    3    3    0  502  0.42046642985E+02 -0.57904143788E+02  0.92331860019E+02  0.11681601957E+03  0.00000000000E+00 0.  1.
         11    1    5    5    0    0 -0.16699578368E+03 -0.95492837197E+02  0.56342426454E+03  0.59535987066E+03  0.00000000000E+00 0. -1.
        -11    1    5    5    0    0 -0.30936504125E+02 -0.24961424948E+02  0.29699793166E+03  0.29964631056E+03  0.00000000000E+00 0.  1.
          1    1    6    6  503    0  0.97152835755E+01  0.12204022295E+03  0.77772951569E+01  0.12267309840E+03  0.00000000000E+00 0. -1.
         -1    1    6    6    0  503 -0.63402348651E+02  0.21820826248E+03 -0.80826006280E+02  0.24117949108E+03  0.00000000000E+00 0.  1.
<mgrwt>
<rscale>  0 0.13947355E+04</rscale>
<asrwt>0</asrwt>
<pdfrwt beam="1">  1        1 0.27159551E+00 0.13947355E+04</pdfrwt>
<pdfrwt beam="2">  1       -2 0.42381315E-01 0.13947355E+04</pdfrwt>
<totfact> 0.19439325E+01</totfact>
</mgrwt>
</event>
<event>
12    4  0.4398275E-008  0.2426191E+04  0.7818608E-02  0.8429763E-01
         -2   -1    0    0    0  501 -0.00000000000E+00  0.00000000000E+00  0.12667123878E+04  0.12667123878E+04  0.00000000000E+00 0.  1.
          1   -1    0    0  501    0  0.00000000000E+00 -0.00000000000E+00 -0.11617477795E+04  0.11617477795E+04  0.00000000000E+00 0. -1.
        -24    2    1    2    0    0 -0.96454672926E+03 -0.35972335106E+03  0.21183058144E+03  0.10541031753E+04  0.80684736399E+02 0.  0.
        254    2    1    2    0    0  0.96454672926E+03  0.35972335106E+03 -0.10686597313E+03  0.13743569920E+04  0.90425965470E+03 0.  0.
         23    2    4    4    0    0  0.30553307097E+03 -0.29353048165E+03  0.24430066369E+02  0.43334316206E+03  0.87629143859E+02 0.  0.
         23    2    4    4    0    0  0.65901365829E+03  0.65325383270E+03 -0.13129603950E+03  0.94101382997E+03  0.85022387946E+02 0.  0.
          1    1    3    3  502    0 -0.32893529313E+03 -0.12172574718E+03  0.11141691063E+03  0.36800721809E+03  0.00000000000E+00 0. -1.
         -2    1    3    3    0  502 -0.63561143613E+03 -0.23799760388E+03  0.10041367081E+03  0.68609595720E+03  0.00000000000E+00 0.  1.
         11    1    5    5    0    0  0.27742916011E+02 -0.24544319841E+02  0.28347246051E+02  0.46643964067E+02  0.00000000000E+00 0.  1.
        -11    1    5    5    0    0  0.27779015496E+03 -0.26898616181E+03 -0.39171796822E+01  0.38669919800E+03  0.00000000000E+00 0. -1.
          1    1    6    6  503    0  0.25706469838E+03  0.30535373575E+03 -0.34148673896E+02  0.40061115189E+03  0.00000000000E+00 0. -1.
         -1    1    6    6    0  503  0.40194895991E+03  0.34790009695E+03 -0.97147365599E+02  0.54040267808E+03  0.00000000000E+00 0.  1.
<mgrwt>
<rscale>  0 0.24261907E+04</rscale>
<asrwt>0</asrwt>
<pdfrwt beam="1">  1        1 0.17873043E+00 0.24261907E+04</pdfrwt>
<pdfrwt beam="2">  1       -2 0.19487883E+00 0.24261907E+04</pdfrwt>
<totfact> 0.12858539E+00</totfact>
</mgrwt>
</event>
<event>
12    4  0.4398275E-008  0.1728734E+04  0.7818608E-02  0.8745144E-01
          1   -1    0    0  501    0  0.00000000000E+00  0.00000000000E+00  0.10142572917E+04  0.10142572917E+04  0.00000000000E+00 0. -1.
         -2   -1    0    0    0  501 -0.00000000000E+00 -0.00000000000E+00 -0.73662822503E+03  0.73662822503E+03  0.00000000000E+00 0.  1.
        -24    2    1    2    0    0  0.45010747670E+03 -0.42403060317E+03  0.19310707142E+03  0.65282472984E+03  0.80567324987E+02 0.  0.
        254    2    1    2    0    0 -0.45010747670E+03  0.42403060317E+03  0.84521995219E+02  0.10980607868E+04  0.90343501755E+03 0.  0.
         23    2    4    4    0    0 -0.10382929365E+03  0.36583691973E+03  0.44029209199E+03  0.59012442338E+03  0.98856131548E+02 0.  0.
         23    2    4    4    0    0 -0.34627818306E+03  0.58193683441E+02 -0.35577009677E+03  0.50793636347E+03  0.90177063198E+02 0.  0.
          1    1    3    3  502    0  0.18444232419E+03 -0.17608405771E+03  0.12140210984E+03  0.28242350930E+03  0.00000000000E+00 0. -1.
         -2    1    3    3    0  502  0.26566515251E+03 -0.24794654546E+03  0.71704961581E+02  0.37040122054E+03  0.00000000000E+00 0.  1.
         11    1    5    5    0    0 -0.86731648411E+02  0.21175778833E+03  0.19863940283E+03  0.30302038233E+03  0.00000000000E+00 0. -1.
        -11    1    5    5    0    0 -0.17097645234E+02  0.15407913140E+03  0.24165268916E+03  0.28710404104E+03  0.00000000000E+00 0.  1.
          3    1    6    6  503    0 -0.19788112726E+03  0.27721726360E+02 -0.26300129775E+03  0.33029549990E+03  0.00000000000E+00 0. -1.
         -3    1    6    6    0  503 -0.14839705580E+03  0.30471957081E+02 -0.92768799021E+02  0.17764086357E+03  0.00000000000E+00 0.  1.
<mgrwt>
<rscale>  0 0.17287343E+04</rscale>
<asrwt>0</asrwt>
<pdfrwt beam="1">  1        1 0.15603958E+00 0.17287343E+04</pdfrwt>
<pdfrwt beam="2">  1       -2 0.11332742E+00 0.17287343E+04</pdfrwt>
<totfact> 0.75007645E+00</totfact>
</mgrwt>
</event>
<event>
12    4  0.4398275E-008  0.2374033E+04  0.7818608E-02  0.8449290E-01
          1   -1    0    0  501    0  0.00000000000E+00  0.00000000000E+00  0.18445575284E+04  0.18445575284E+04  0.00000000000E+00 0. -1.
         -2   -1    0    0    0  501 -0.00000000000E+00 -0.00000000000E+00 -0.76387318591E+03  0.76387318591E+03  0.00000000000E+00 0.  1.
        -24    2    1    2    0    0 -0.19805158565E+03 -0.26883310129E+03  0.15119021415E+04  0.15504336269E+04  0.80626788344E+02 0.  0.
        254    2    1    2    0    0  0.19805158565E+03  0.26883310129E+03 -0.43121779907E+03  0.10579970874E+04  0.90659438542E+03 0.  0.
         23    2    4    4    0    0 -0.12907018157E+03  0.48358266601E+02 -0.59724860637E+03  0.62060632897E+03  0.97204341600E+02 0.  0.
         23    2    4    4    0    0  0.32712176722E+03  0.22047483469E+03  0.16603080730E+03  0.43739075838E+03  0.90147896390E+02 0.  0.
          1    1    3    3  502    0 -0.17024098183E+03 -0.22828324113E+03  0.13921931604E+04  0.14210197134E+04  0.00000000000E+00 0. -1.
         -2    1    3    3    0  502 -0.27810603822E+02 -0.40549860163E+02  0.11970898116E+03  0.12941391353E+03  0.00000000000E+00 0.  1.
         11    1    5    5    0    0 -0.91899492470E+02 -0.31337018584E+01 -0.46366919588E+03  0.47269912207E+03  0.00000000000E+00 0.  1.
        -11    1    5    5    0    0 -0.37170689096E+02  0.51491968459E+02 -0.13357941049E+03  0.14790720689E+03  0.00000000000E+00 0. -1.
          1    1    6    6  503    0  0.67672883051E+02  0.26134540503E+02  0.66184373006E+02  0.98198801102E+02  0.00000000000E+00 0. -1.
         -1    1    6    6    0  503  0.25944888417E+03  0.19434029419E+03  0.99846434296E+02  0.33919195728E+03  0.00000000000E+00 0.  1.
<mgrwt>
<rscale>  0 0.23740329E+04</rscale>
<asrwt>0</asrwt>
<pdfrwt beam="1">  1        1 0.28377808E+00 0.23740329E+04</pdfrwt>
<pdfrwt beam="2">  1       -2 0.11751895E+00 0.23740329E+04</pdfrwt>
<totfact> 0.16762973E+00</totfact>
</mgrwt>
</event>
<event>
12    4  0.4398275E-008  0.1405874E+04  0.7818608E-02  0.8949577E-01
          1   -1    0    0  501    0  0.00000000000E+00  0.00000000000E+00  0.70682647781E+03  0.70682647781E+03  0.00000000000E+00 0. -1.
         -2   -1    0    0    0  501 -0.00000000000E+00 -0.00000000000E+00 -0.69906937782E+03  0.69906937782E+03  0.00000000000E+00 0.  1.
        -24    2    1    2    0    0 -0.32360116918E+03 -0.68286655653E+02  0.23408254231E+03  0.41331863650E+03  0.81589672299E+02 0.  0.
        254    2    1    2    0    0  0.32360116918E+03  0.68286655653E+02 -0.22632544233E+03  0.99257721914E+03  0.90807794052E+03 0.  0.
         23    2    4    4    0    0 -0.23382536542E+03 -0.56348142546E+02 -0.31540280265E+03  0.40748511812E+03  0.93358335968E+02 0.  0.
         23    2    4    4    0    0  0.55742653460E+03  0.12463479820E+03  0.89077360317E+02  0.58509210101E+03  0.90220929651E+02 0.  0.
          1    1    3    3  502    0 -0.28754851661E+03 -0.82669152281E+02  0.22234386530E+03  0.37276686090E+03  0.00000000000E+00 0. -1.
         -2    1    3    3    0  502 -0.36052652571E+02  0.14382496628E+02  0.11738677010E+02  0.40551775603E+02  0.00000000000E+00 0.  1.
         11    1    5    5    0    0 -0.21559400552E+03 -0.22198254345E+02 -0.28614719502E+03  0.35896205221E+03  0.00000000000E+00 0. -1.
        -11    1    5    5    0    0 -0.18231359901E+02 -0.34149888201E+02 -0.29255607630E+02  0.48523065915E+02  0.00000000000E+00 0.  1.
          4    1    6    6  503    0  0.10375663213E+03 -0.69076296639E+01  0.34668746636E+02  0.10961330235E+03  0.00000000000E+00 0. -1.
         -4    1    6    6    0  503  0.45366990247E+03  0.13154242786E+03  0.54408613681E+02  0.47547879866E+03  0.00000000000E+00 0.  1.
<mgrwt>
<rscale>  0 0.14058745E+04</rscale>
<asrwt>0</asrwt>
<pdfrwt beam="1">  1        1 0.10874254E+00 0.14058745E+04</pdfrwt>
<pdfrwt beam="2">  1       -2 0.10754913E+00 0.14058745E+04</pdfrwt>
<totfact> 0.15894107E+01</totfact>
</mgrwt>
</event>
<event>
12    4  0.4398275E-008  0.2069743E+04  0.7818608E-02  0.8574690E-01
          1   -1    0    0  501    0  0.00000000000E+00  0.00000000000E+00  0.95556469810E+03  0.95556469810E+03  0.00000000000E+00 0. -1.
         -4   -1    0    0    0  501 -0.00000000000E+00 -0.00000000000E+00 -0.11207599779E+04  0.11207599779E+04  0.00000000000E+00 0.  1.
        -24    2    1    2    0    0 -0.71141687980E+03 -0.83663184951E+02  0.36909146396E+03  0.80969095449E+03  0.79103904089E+02 0.  0.
        254    2    1    2    0    0  0.71141687980E+03  0.83663184951E+02 -0.53428674375E+03  0.12666337215E+04  0.89765536513E+03 0.  0.
         23    2    4    4    0    0  0.66529539078E+03  0.37928325603E+03 -0.17598853877E+03  0.79116384558E+03  0.92165717468E+02 0.  0.
         23    2    4    4    0    0  0.46121489013E+02 -0.29562007108E+03 -0.35829820499E+03  0.47546987593E+03  0.90418919733E+02 0.  0.
          3    1    3    3  502    0 -0.58739632660E+03 -0.85821662621E+02  0.27629466338E+03  0.65478129424E+03  0.00000000000E+00 0. -1.
         -4    1    3    3    0  502 -0.12402055320E+03  0.21584776691E+01  0.92796800573E+02  0.15490966025E+03  0.00000000000E+00 0.  1.
         11    1    5    5    0    0  0.23879763035E+03  0.17174422002E+03 -0.10075611725E+03  0.31092150221E+03  0.00000000000E+00 0. -1.
        -11    1    5    5    0    0  0.42649776043E+03  0.20753903601E+03 -0.75232421514E+02  0.48024234337E+03  0.00000000000E+00 0.  1.
          2    1    6    6  503    0  0.52920529148E+02 -0.28789283456E+03 -0.31109209656E+03  0.42715472506E+03  0.00000000000E+00 0. -1.
         -2    1    6    6    0  503 -0.67990401345E+01 -0.77272365166E+01 -0.47206108423E+02  0.48315150868E+02  0.00000000000E+00 0.  1.
<mgrwt>
<rscale>  0 0.20697427E+04</rscale>
<asrwt>0</asrwt>
<pdfrwt beam="1">  1        1 0.14700995E+00 0.20697427E+04</pdfrwt>
<pdfrwt beam="2">  1       -4 0.17242461E+00 0.20697427E+04</pdfrwt>
<totfact> 0.14867077E+00</totfact>
</mgrwt>
</event>
<event>
12    4  0.4398275E-008  0.2592975E+04  0.7818608E-02  0.8370591E-01
         -2   -1    0    0    0  501 -0.00000000000E+00  0.00000000000E+00  0.12645907623E+04  0.12645907623E+04  0.00000000000E+00 0.  1.
          1   -1    0    0  501    0  0.00000000000E+00 -0.00000000000E+00 -0.13291891473E+04  0.13291891473E+04  0.00000000000E+00 0. -1.
        -24    2    1    2    0    0 -0.37850020494E+03 -0.70862950156E+03  0.77798930987E+03  0.11212077070E+04  0.80132268033E+02 0.  0.
        254    2    1    2    0    0  0.37850020494E+03  0.70862950156E+03 -0.84258769481E+03  0.14725722026E+04  0.90171874373E+03 0.  0.
         23    2    4    4    0    0 -0.52591420740E+02 -0.56151495782E+02  0.11738389661E+03  0.16870849402E+03  0.93620130082E+02 0.  0.
         23    2    4    4    0    0  0.43109162568E+03  0.76478099735E+03 -0.95997159142E+03  0.13038637086E+04  0.88233500357E+02 0.  0.
          1    1    3    3  502    0 -0.20841764913E+02 -0.45316029012E+02  0.24623027180E+02  0.55625669592E+02  0.00000000000E+00 0. -1.
         -2    1    3    3    0  502 -0.35765844002E+03 -0.66331347255E+03  0.75336628269E+03  0.10655820374E+04  0.00000000000E+00 0.  1.
         11    1    5    5    0    0 -0.37089422491E+02 -0.70672635064E+02  0.12310164617E+03  0.14671149205E+03  0.00000000000E+00 0.  1.
        -11    1    5    5    0    0 -0.15501998249E+02  0.14521139282E+02 -0.57177495625E+01  0.21997001974E+02  0.00000000000E+00 0. -1.
          4    1    6    6  503    0  0.83524773703E+02  0.11974244615E+03 -0.11805667548E+03  0.18775521260E+03  0.00000000000E+00 0. -1.
         -4    1    6    6    0  503  0.34756685197E+03  0.64503855120E+03 -0.84191491594E+03  0.11161084960E+04  0.00000000000E+00 0.  1.
<mgrwt>
<rscale>  0 0.25929754E+04</rscale>
<asrwt>0</asrwt>
<pdfrwt beam="1">  1        1 0.20449064E+00 0.25929754E+04</pdfrwt>
<pdfrwt beam="2">  1       -2 0.19455242E+00 0.25929754E+04</pdfrwt>
<totfact> 0.96382009E-01</totfact>
</mgrwt>
</event>
<event>
12    4  0.4398275E-008  0.3077050E+04  0.7818608E-02  0.8222065E-01
         -2   -1    0    0    0  501 -0.00000000000E+00  0.00000000000E+00  0.10246002747E+04  0.10246002747E+04  0.00000000000E+00 0.  1.
          1   -1    0    0  501    0  0.00000000000E+00 -0.00000000000E+00 -0.23102276367E+04  0.23102276367E+04  0.00000000000E+00 0. -1.
        -24    2    1    2    0    0 -0.11446293916E+04  0.72897062089E+03 -0.10087687612E+04  0.16930126550E+04  0.84278266401E+02 0.  0.
        254    2    1    2    0    0  0.11446293916E+04 -0.72897062089E+03 -0.27685860087E+03  0.16418152564E+04  0.88166435858E+03 0.  0.
         23    2    4    4    0    0 -0.12758590686E+03 -0.77080395657E+02 -0.89885782358E+02  0.19699282352E+03  0.92234308270E+02 0.  0.
         23    2    4    4    0    0  0.12722152985E+04 -0.65189022523E+03 -0.18697281851E+03  0.14448224329E+04  0.95186114738E+02 0.  0.
          3    1    3    3  502    0 -0.78564056500E+02  0.32928008553E+02 -0.82119820522E+02  0.11832256608E+03  0.00000000000E+00 0. -1.
         -4    1    3    3    0  502 -0.10660653351E+04  0.69604261233E+03 -0.92664894067E+03  0.15746900889E+04  0.00000000000E+00 0.  1.
         11    1    5    5    0    0 -0.12679686863E+02  0.61319829084E+01  0.14987354706E+02  0.20566878091E+02  0.00000000000E+00 0. -1.
        -11    1    5    5    0    0 -0.11490622000E+03 -0.83212378565E+02 -0.10487313706E+03  0.17642594542E+03  0.00000000000E+00 0.  1.
          4    1    6    6  503    0  0.45870814685E+03 -0.18459133606E+03 -0.70122552029E+02  0.49940394236E+03  0.00000000000E+00 0. -1.
         -4    1    6    6    0  503  0.81350715160E+03 -0.46729888917E+03 -0.11685026648E+03  0.94541849056E+03  0.00000000000E+00 0.  1.
<mgrwt>
<rscale>  0 0.30770505E+04</rscale>
<asrwt>0</asrwt>
<pdfrwt beam="1">  1        1 0.35541964E+00 0.30770505E+04</pdfrwt>
<pdfrwt beam="2">  1       -2 0.15763081E+00 0.30770505E+04</pdfrwt>
<totfact> 0.35720512E-01</totfact>
</mgrwt>
</event>
<event>
12    4  0.4398275E-008  0.2039011E+04  0.7818608E-02  0.8588596E-01
         -2   -1    0    0    0  501 -0.00000000000E+00  0.00000000000E+00  0.35597035264E+03  0.35597035264E+03  0.00000000000E+00 0.  1.
          1   -1    0    0  501    0  0.00000000000E+00 -0.00000000000E+00 -0.29198821751E+04  0.29198821751E+04  0.00000000000E+00 0. -1.
        -24    2    1    2    0    0 -0.68314496599E+03 -0.38437061416E+03 -0.13977602417E+04  0.16045506637E+04  0.80133173737E+02 0.  0.
        254    2    1    2    0    0  0.68314496599E+03  0.38437061416E+03 -0.11661515807E+04  0.16713018640E+04  0.90493789718E+03 0.  0.
         23    2    4    4    0    0  0.46114864345E+03  0.85386846825E+02 -0.11948851060E+04  0.12870567014E+04  0.93891165963E+02 0.  0.
         23    2    4    4    0    0  0.22199632254E+03  0.29898376733E+03  0.28733525321E+02  0.38424516258E+03  0.90250036777E+02 0.  0.
          1    1    3    3  502    0 -0.27777763483E+03 -0.14567992967E+03 -0.63822875620E+03  0.71113922797E+03  0.00000000000E+00 0. -1.
         -2    1    3    3    0  502 -0.40536733117E+03 -0.23869068449E+03 -0.75953148554E+03  0.89341143577E+03  0.00000000000E+00 0.  1.
         11    1    5    5    0    0  0.36216744857E+03  0.29659618984E+02 -0.94938451117E+03  0.10165509844E+04  0.00000000000E+00 0. -1.
        -11    1    5    5    0    0  0.98981194877E+02  0.55727227842E+02 -0.24550059482E+03  0.27050571698E+03  0.00000000000E+00 0.  1.
          1    1    6    6  503    0  0.14996874651E+03  0.22550284393E+03 -0.17621706673E+02  0.27139027635E+03  0.00000000000E+00 0. -1.
         -1    1    6    6    0  503  0.72027576033E+02  0.73480923403E+02  0.46355231995E+02  0.11285488623E+03  0.00000000000E+00 0.  1.
<mgrwt>
<rscale>  0 0.20390110E+04</rscale>
<asrwt>0</asrwt>
<pdfrwt beam="1">  1        1 0.44921266E+00 0.20390110E+04</pdfrwt>
<pdfrwt beam="2">  1       -2 0.54764667E-01 0.20390110E+04</pdfrwt>
<totfact> 0.17440896E+00</totfact>
</mgrwt>
</event>
<event>
12    4  0.4398275E-008  0.2242568E+04  0.7818608E-02  0.8500916E-01
         -2   -1    0    0    0  501 -0.00000000000E+00  0.00000000000E+00  0.93331991481E+03  0.93331991481E+03  0.00000000000E+00 0.  1.
          1   -1    0    0  501    0  0.00000000000E+00 -0.00000000000E+00 -0.13471031228E+04  0.13471031228E+04  0.00000000000E+00 0. -1.
        -24    2    1    2    0    0  0.11134885453E+03 -0.69731742615E+03 -0.78559409853E+03  0.10592813743E+04  0.79175640518E+02 0.  0.
        254    2    1    2    0    0 -0.11134885453E+03  0.69731742615E+03  0.37181089059E+03  0.12211416633E+04  0.92427997014E+03 0.  0.
         23    2    4    4    0    0  0.15044053857E+03 -0.16325706014E+03 -0.91901803806E+01  0.23989878214E+03  0.90452987380E+02 0.  0.
         23    2    4    4    0    0 -0.26178939311E+03  0.86057448629E+03  0.38100107097E+03  0.98124288114E+03  0.92485906516E+02 0.  0.
          1    1    3    3  502    0  0.39990278770E+02 -0.44987866816E+03 -0.46791818878E+03  0.65033642821E+03  0.00000000000E+00 0. -1.
         -2    1    3    3    0  502  0.71358575762E+02 -0.24743875799E+03 -0.31767590975E+03  0.40894494608E+03  0.00000000000E+00 0.  1.
         11    1    5    5    0    0  0.12765336219E+03 -0.17205125701E+03 -0.13302275935E+01  0.21424001826E+03  0.00000000000E+00 0. -1.
        -11    1    5    5    0    0  0.22787176384E+02  0.87941968735E+01 -0.78599527871E+01  0.25658763884E+02  0.00000000000E+00 0.  1.
          4    1    6    6  503    0 -0.51588133729E+02  0.26192311339E+03  0.14866784987E+03  0.30556043994E+03  0.00000000000E+00 0.  1.
         -4    1    6    6    0  503 -0.21020125938E+03  0.59865137290E+03  0.23233322110E+03  0.67568244120E+03  0.00000000000E+00 0. -1.
<mgrwt>
<rscale>  0 0.22425683E+04</rscale>
<asrwt>0</asrwt>
<pdfrwt beam="1">  1        1 0.20724664E+00 0.22425683E+04</pdfrwt>
<pdfrwt beam="2">  1       -2 0.14358768E+00 0.22425683E+04</pdfrwt>
<totfact> 0.22442469E+00</totfact>
</mgrwt>
</event>
<event>
12    4  0.4398275E-008  0.2453341E+04  0.7818608E-02  0.8419799E-01
         -2   -1    0    0    0  501 -0.00000000000E+00  0.00000000000E+00  0.18446191910E+04  0.18446191910E+04  0.00000000000E+00 0.  1.
          1   -1    0    0  501    0  0.00000000000E+00 -0.00000000000E+00 -0.81573478632E+03  0.81573478632E+03  0.00000000000E+00 0. -1.
        -24    2    1    2    0    0 -0.99848673109E+03  0.17999752334E+03  0.79233341415E+03  0.12897811584E+04  0.79801860399E+02 0.  0.
        254    2    1    2    0    0  0.99848673109E+03 -0.17999752334E+03  0.23655099058E+03  0.13705728189E+04  0.89058330337E+03 0.  0.
         23    2    4    4    0    0  0.11515921263E+04 -0.12304764561E+03  0.22381037001E+03  0.11830413800E+04  0.90502357138E+02 0.  0.
         23    2    4    4    0    0 -0.15310539520E+03 -0.56949877733E+02  0.12740620567E+02  0.18753143892E+03  0.91220428406E+02 0.  0.
          3    1    3    3  502    0 -0.45417872608E+03  0.71789330920E+02  0.31048812873E+03  0.55482871351E+03  0.00000000000E+00 0. -1.
         -4    1    3    3    0  502 -0.54430800501E+03  0.10820819242E+03  0.48184528542E+03  0.73495244493E+03  0.00000000000E+00 0.  1.
         11    1    5    5    0    0  0.11483278890E+04 -0.12670846253E+03  0.21843762596E+03  0.11757665464E+04  0.00000000000E+00 0.  1.
        -11    1    5    5    0    0  0.32642372821E+01  0.36608169191E+01  0.53727440559E+01  0.72748336228E+01  0.00000000000E+00 0. -1.
          2    1    6    6  503    0 -0.26930841335E+02 -0.41767637586E+01 -0.33476637798E+02  0.43167126946E+02  0.00000000000E+00 0. -1.
         -2    1    6    6    0  503 -0.12617455386E+03 -0.52773113975E+02  0.46217258365E+02  0.14436431197E+03  0.00000000000E+00 0.  1.
<mgrwt>
<rscale>  0 0.24533406E+04</rscale>
<asrwt>0</asrwt>
<pdfrwt beam="1">  1        1 0.12549766E+00 0.24533406E+04</pdfrwt>
<pdfrwt beam="2">  1       -2 0.28378757E+00 0.24533406E+04</pdfrwt>
<totfact> 0.66909182E-01</totfact>
</mgrwt>
</event>
<event>
12    4  0.4398275E-008  0.1508672E+04  0.7818608E-02  0.8878706E-01
          1   -1    0    0  501    0  0.00000000000E+00  0.00000000000E+00  0.28912801702E+04  0.28912801702E+04  0.00000000000E+00 0. -1.
         -2   -1    0    0    0  501 -0.00000000000E+00 -0.00000000000E+00 -0.19680662579E+03  0.19680662579E+03  0.00000000000E+00 0.  1.
        -24    2    1    2    0    0  0.44459505795E+03  0.14143206153E+03  0.92397285853E+03  0.10380835756E+04  0.78891527570E+02 0.  0.
        254    2    1    2    0    0 -0.44459505795E+03 -0.14143206153E+03  0.17705006859E+04  0.20500032204E+04  0.92204811759E+03 0.  0.
         23    2    4    4    0    0 -0.68477767044E+02 -0.22756914770E+03  0.15975548374E+04  0.16177126636E+04  0.91301049813E+02 0.  0.
         23    2    4    4    0    0 -0.37611729090E+03  0.86137086172E+02  0.17294584846E+03  0.43229055679E+03  0.89894631982E+02 0.  0.
          3    1    3    3  502    0  0.31676542944E+03  0.10319353477E+03  0.57598401175E+03  0.66539223373E+03  0.00000000000E+00 0. -1.
         -4    1    3    3    0  502  0.12782962851E+03  0.38238526751E+02  0.34798884677E+03  0.37269134190E+03  0.00000000000E+00 0.  1.
         11    1    5    5    0    0 -0.66301325521E+02 -0.12255576282E+03  0.11267663975E+04  0.11353494155E+04  0.00000000000E+00 0.  1.
        -11    1    5    5    0    0 -0.21764415232E+01 -0.10501338487E+03  0.47078843993E+03  0.48236324806E+03  0.00000000000E+00 0. -1.
          1    1    6    6  503    0 -0.35480382460E+03  0.10150845350E+03  0.16830352155E+03  0.40560546772E+03  0.00000000000E+00 0. -1.
         -1    1    6    6    0  503 -0.21313466302E+02 -0.15371367324E+02  0.46423269113E+01  0.26685089064E+02  0.00000000000E+00 0.  1.
<mgrwt>
<rscale>  0 0.15086724E+04</rscale>
<asrwt>0</asrwt>
<pdfrwt beam="1">  1        1 0.44481230E+00 0.15086724E+04</pdfrwt>
<pdfrwt beam="2">  1       -2 0.30277944E-01 0.15086724E+04</pdfrwt>
<totfact> 0.61647737E+00</totfact>
</mgrwt>
</event>
<event>
12    4  0.4398275E-008  0.1435487E+04  0.7818608E-02  0.8928525E-01
          1   -1    0    0  501    0  0.00000000000E+00  0.00000000000E+00  0.12262121936E+04  0.12262121936E+04  0.00000000000E+00 0. -1.
         -2   -1    0    0    0  501 -0.00000000000E+00 -0.00000000000E+00 -0.42011940621E+03  0.42011940621E+03  0.00000000000E+00 0.  1.
        -24    2    1    2    0    0  0.26572254177E+03  0.24566556892E+03  0.57905465597E+03  0.68785953995E+03  0.82984403002E+02 0.  0.
        254    2    1    2    0    0 -0.26572254177E+03 -0.24566556892E+03  0.22703813145E+03  0.95847205989E+03  0.85799903002E+03 0.  0.
         23    2    4    4    0    0  0.24653819613E+03 -0.23603432263E+03  0.25769966886E+03  0.43719334615E+03  0.90750311142E+02 0.  0.
         23    2    4    4    0    0 -0.51226073790E+03 -0.96312462851E+01 -0.30661537413E+02  0.52127871375E+03  0.91035943649E+02 0.  0.
          1    1    3    3  502    0  0.25248168581E+03  0.24645024192E+03  0.57379346048E+03  0.67359012664E+03  0.00000000000E+00 0. -1.
         -2    1    3    3    0  502  0.13240855963E+02 -0.78467300615E+00  0.52611954945E+01  0.14269413316E+02  0.00000000000E+00 0.  1.
         11    1    5    5    0    0  0.15221519740E+03 -0.95092861282E+02  0.16561683914E+03  0.24421518379E+03  0.00000000000E+00 0. -1.
        -11    1    5    5    0    0  0.94322998724E+02 -0.14094146135E+03  0.92082829718E+02  0.19297816235E+03  0.00000000000E+00 0.  1.
          4    1    6    6  503    0  0.38130321448E+01  0.74063250661E+00  0.13419155875E+01  0.41095605716E+01  0.00000000000E+00 0. -1.
         -4    1    6    6    0  503 -0.51607377004E+03 -0.10371878792E+02 -0.32003453000E+02  0.51716915318E+03  0.00000000000E+00 0.  1.
<mgrwt>
<rscale>  0 0.14354867E+04</rscale>
<asrwt>0</asrwt>
<pdfrwt beam="1">  1        1 0.18864803E+00 0.14354867E+04</pdfrwt>
<pdfrwt beam="2">  1       -2 0.64633755E-01 0.14354867E+04</pdfrwt>
<totfact> 0.19270667E+01</totfact>
</mgrwt>
</event>
<event>
12    4  0.4398275E-008  0.1283350E+04  0.7818608E-02  0.9042874E-01
          1   -1    0    0  501    0  0.00000000000E+00  0.00000000000E+00  0.54787161071E+03  0.54787161071E+03  0.00000000000E+00 0. -1.
         -2   -1    0    0    0  501 -0.00000000000E+00 -0.00000000000E+00 -0.75153932806E+03  0.75153932806E+03  0.00000000000E+00 0.  1.
        -24    2    1    2    0    0 -0.21633321089E+03 -0.67737753473E+01  0.18450540557E+03  0.29582720778E+03  0.81397481593E+02 0.  0.
        254    2    1    2    0    0  0.21633321089E+03  0.67737753473E+01 -0.38817312292E+03  0.10035837310E+04  0.89980886280E+03 0.  0.
         23    2    4    4    0    0  0.40241797988E+03  0.28989519217E+03 -0.34538240389E+02  0.50532027665E+03  0.90422557825E+02 0.  0.
         23    2    4    4    0    0 -0.18608476899E+03 -0.28312141683E+03 -0.35363488254E+03  0.49826345434E+03  0.91779964409E+02 0.  0.
          3    1    3    3  502    0 -0.19617322966E+03  0.15168403317E+02  0.13702216758E+03  0.23976882805E+03  0.00000000000E+00 0. -1.
         -4    1    3    3    0  502 -0.20159981227E+02 -0.21942178665E+02  0.47483237992E+02  0.56058379729E+02  0.00000000000E+00 0.  1.
         11    1    5    5    0    0  0.38904606867E+03  0.25201751056E+03 -0.26098441728E+02  0.46427448544E+03  0.00000000000E+00 0. -1.
        -11    1    5    5    0    0  0.13371911216E+02  0.37877681616E+02 -0.84397986613E+01  0.41045791205E+02  0.00000000000E+00 0.  1.
          1    1    6    6  503    0 -0.14469236040E+03 -0.14189143397E+03 -0.22487235656E+03  0.30271543558E+03  0.00000000000E+00 0. -1.
         -1    1    6    6    0  503 -0.41392408598E+02 -0.14122998285E+03 -0.12876252598E+03  0.19554801877E+03  0.00000000000E+00 0.  1.
<mgrwt>
<rscale>  0 0.12833504E+04</rscale>
<asrwt>0</asrwt>
<pdfrwt beam="1">  1        1 0.84287940E-01 0.12833504E+04</pdfrwt>
<pdfrwt beam="2">  1       -2 0.11562143E+00 0.12833504E+04</pdfrwt>
<totfact> 0.19529217E+01</totfact>
</mgrwt>
</event>
<event>
12    4  0.4398275E-008  0.1245943E+04  0.7818608E-02  0.9073566E-01
          1   -1    0    0  501    0  0.00000000000E+00  0.00000000000E+00  0.24059572981E+04  0.24059572981E+04  0.00000000000E+00 0. -1.
         -2   -1    0    0    0  501 -0.00000000000E+00 -0.00000000000E+00 -0.16130534072E+03  0.16130534072E+03  0.00000000000E+00 0.  1.
        -24    2    1    2    0    0  0.16152180703E+03  0.21950753048E+03  0.73377184048E+03  0.78690603056E+03  0.80790698585E+02 0.  0.
        254    2    1    2    0    0 -0.16152180703E+03 -0.21950753048E+03  0.15108801170E+04  0.17803566083E+04  0.90146440576E+03 0.  0.
         23    2    4    4    0    0 -0.63475715399E+02  0.45843851981E+01  0.15136151276E+04  0.15176945048E+04  0.91190308433E+02 0.  0.
         23    2    4    4    0    0 -0.98046091628E+02 -0.22409191568E+03 -0.27350106719E+01  0.26266210348E+03  0.95674853364E+02 0.  0.
          1    1    3    3  502    0 -0.79001877621E+01  0.27476216247E+01  0.33545997951E+02  0.34573058439E+02  0.00000000000E+00 0. -1.
         -2    1    3    3    0  502  0.16942199479E+03  0.21675990886E+03  0.70022584253E+03  0.75233297213E+03  0.00000000000E+00 0.  1.
         11    1    5    5    0    0 -0.43996402911E+02  0.31585243508E+02  0.40810378907E+03  0.41168193272E+03  0.00000000000E+00 0. -1.
        -11    1    5    5    0    0 -0.19479312488E+02 -0.27000858310E+02  0.11055113386E+04  0.11060125721E+04  0.00000000000E+00 0.  1.
          1    1    6    6  503    0 -0.44231297449E+02 -0.62993205672E+02  0.41086795205E+02  0.87250652577E+02  0.00000000000E+00 0. -1.
         -1    1    6    6    0  503 -0.53814794179E+02 -0.16109871001E+03 -0.43821805877E+02  0.17541145091E+03  0.00000000000E+00 0.  1.
<mgrwt>
<rscale>  0 0.12459434E+04</rscale>
<asrwt>0</asrwt>
<pdfrwt beam="1">  1        1 0.37014725E+00 0.12459434E+04</pdfrwt>
<pdfrwt beam="2">  1       -2 0.24816208E-01 0.12459434E+04</pdfrwt>
<totfact> 0.19907481E+01</totfact>
</mgrwt>
</event>
<event>
12    4  0.4398275E-008  0.1724599E+04  0.7818608E-02  0.8747458E-01
         -2   -1    0    0    0  501 -0.00000000000E+00  0.00000000000E+00  0.22540293202E+04  0.22540293202E+04  0.00000000000E+00 0.  1.
          1   -1    0    0  501    0  0.00000000000E+00 -0.00000000000E+00 -0.32988048487E+03  0.32988048487E+03  0.00000000000E+00 0. -1.
        -24    2    1    2    0    0 -0.57113734979E+03 -0.88945491193E+02  0.10200531317E+04  0.11751681914E+04  0.80016959285E+02 0.  0.
        254    2    1    2    0    0  0.57113734979E+03  0.88945491193E+02  0.90409570362E+03  0.14087416137E+04  0.91271831369E+03 0.  0.
         23    2    4    4    0    0  0.69501534940E+03  0.33929800203E+03  0.72926163991E+03  0.10669908682E+04  0.92073357761E+02 0.  0.
         23    2    4    4    0    0 -0.12387799962E+03 -0.25035251083E+03  0.17483406371E+03  0.34175074554E+03  0.90578605503E+02 0.  0.
          1    1    3    3  502    0 -0.63645406876E+02  0.14562093213E+02  0.10263733851E+03  0.12164380638E+03  0.00000000000E+00 0. -1.
         -2    1    3    3    0  502 -0.50749194291E+03 -0.10350758441E+03  0.91741579322E+03  0.10535243850E+04  0.00000000000E+00 0.  1.
         11    1    5    5    0    0  0.19425970206E+03  0.10197079549E+03  0.15272866546E+03  0.26732175413E+03  0.00000000000E+00 0. -1.
        -11    1    5    5    0    0  0.50075564734E+03  0.23732720654E+03  0.57653297446E+03  0.79966911404E+03  0.00000000000E+00 0.  1.
          2    1    6    6  503    0 -0.91966631835E+01 -0.15223908471E+02  0.47662501212E+02  0.50872979318E+02  0.00000000000E+00 0. -1.
         -2    1    6    6    0  503 -0.11468133643E+03 -0.23512860236E+03  0.12717156250E+03  0.29087776622E+03  0.00000000000E+00 0.  1.
<mgrwt>
<rscale>  0 0.17245988E+04</rscale>
<asrwt>0</asrwt>
<pdfrwt beam="1">  1        1 0.50750845E-01 0.17245988E+04</pdfrwt>
<pdfrwt beam="2">  1       -2 0.34677373E+00 0.17245988E+04</pdfrwt>
<totfact> 0.10521629E+00</totfact>
</mgrwt>
</event>
<event>
12    4  0.4398275E-008  0.1694085E+04  0.7818608E-02  0.8764745E-01
          1   -1    0    0  501    0  0.00000000000E+00  0.00000000000E+00  0.31803211299E+04  0.31803211299E+04  0.00000000000E+00 0. -1.
         -2   -1    0    0    0  501 -0.00000000000E+00 -0.00000000000E+00 -0.22560027291E+03  0.22560027291E+03  0.00000000000E+00 0.  1.
        -24    2    1    2    0    0  0.68167589875E+02  0.51972833005E+03  0.46099198565E+03  0.70275057688E+03  0.81119696180E+02 0.  0.
        254    2    1    2    0    0 -0.68167589875E+02 -0.51972833005E+03  0.24937288714E+04  0.27031708259E+04  0.90204460700E+03 0.  0.
         23    2    4    4    0    0 -0.37108284189E+03 -0.38179750412E+02  0.51805881934E+03  0.64518874449E+03  0.93399180084E+02 0.  0.
         23    2    4    4    0    0  0.30291525202E+03 -0.48154857964E+03  0.19756700520E+04  0.20579820814E+04  0.91495402315E+02 0.  0.
          1    1    3    3  502    0 -0.70478368033E+01  0.23517148800E+03  0.18555138691E+03  0.29964081491E+03  0.00000000000E+00 0. -1.
         -2    1    3    3    0  502  0.75215426679E+02  0.28455684204E+03  0.27544059874E+03  0.40310976197E+03  0.00000000000E+00 0.  1.
         11    1    5    5    0    0 -0.28303008439E+03 -0.59458997781E+01  0.43989866479E+03  0.52311778566E+03  0.00000000000E+00 0. -1.
        -11    1    5    5    0    0 -0.88052757507E+02 -0.32233850634E+02  0.78160154542E+02  0.12207095883E+03  0.00000000000E+00 0.  1.
          3    1    6    6  503    0  0.29260505363E+02 -0.10377777663E+03  0.44058139958E+03  0.45358348047E+03  0.00000000000E+00 0.  1.
         -3    1    6    6    0  503  0.27365474666E+03 -0.37777080301E+03  0.15350886524E+04  0.16043986010E+04  0.00000000000E+00 0. -1.
<mgrwt>
<rscale>  0 0.16940854E+04</rscale>
<asrwt>0</asrwt>
<pdfrwt beam="1">  1        1 0.48928014E+00 0.16940854E+04</pdfrwt>
<pdfrwt beam="2">  1       -2 0.34707737E-01 0.16940854E+04</pdfrwt>
<totfact> 0.28780162E+00</totfact>
</mgrwt>
</event>
<event>
12    4  0.4398275E-008  0.1379406E+04  0.7818608E-02  0.8968862E-01
         -2   -1    0    0    0  501 -0.00000000000E+00  0.00000000000E+00  0.58565221266E+03  0.58565221266E+03  0.00000000000E+00 0.  1.
          1   -1    0    0  501    0  0.00000000000E+00 -0.00000000000E+00 -0.81224070183E+03  0.81224070183E+03  0.00000000000E+00 0. -1.
        -24    2    1    2    0    0  0.16983646854E+03  0.31721314802E+03  0.68028961779E+02  0.37439519679E+03  0.77943674655E+02 0.  0.
        254    2    1    2    0    0 -0.16983646854E+03 -0.31721314802E+03 -0.29461745094E+03  0.10234977177E+04  0.91174531993E+03 0.  0.
         23    2    4    4    0    0  0.24845558421E+03 -0.43243164893E+02  0.18432903148E+03  0.32522464141E+03  0.90519207359E+02 0.  0.
         23    2    4    4    0    0 -0.41829205275E+03 -0.27396998312E+03 -0.47894648242E+03  0.69827307629E+03  0.90375677007E+02 0.  0.
          3    1    3    3  502    0  0.92259861835E+01  0.22184924884E+01 -0.83751997677E+01  0.12656401587E+02  0.00000000000E+00 0. -1.
         -4    1    3    3    0  502  0.16061048236E+03  0.31499465553E+03  0.76404161547E+02  0.36173879520E+03  0.00000000000E+00 0.  1.
         11    1    5    5    0    0  0.15389229007E+03 -0.65404013893E+02  0.90291138632E+02  0.19003423821E+03  0.00000000000E+00 0.  1.
        -11    1    5    5    0    0  0.94563294139E+02  0.22160849000E+02  0.94037892852E+02  0.13519040321E+03  0.00000000000E+00 0. -1.
          4    1    6    6  503    0 -0.19814149630E+03 -0.18363900708E+03 -0.25714655185E+03  0.37297142867E+03  0.00000000000E+00 0. -1.
         -4    1    6    6    0  503 -0.22015055645E+03 -0.90330976040E+02 -0.22179993058E+03  0.32530164761E+03  0.00000000000E+00 0.  1.
<mgrwt>
<rscale>  0 0.13794065E+04</rscale>
<asrwt>0</asrwt>
<pdfrwt beam="1">  1        1 0.12496011E+00 0.13794065E+04</pdfrwt>
<pdfrwt beam="2">  1       -2 0.90100340E-01 0.13794065E+04</pdfrwt>
<totfact> 0.19459923E+01</totfact>
</mgrwt>
</event>
<event>
12    4  0.4398275E-008  0.1173594E+04  0.7818608E-02  0.9136289E-01
          1   -1    0    0  501    0  0.00000000000E+00  0.00000000000E+00  0.76399411767E+03  0.76399411767E+03  0.00000000000E+00 0. -1.
         -2   -1    0    0    0  501 -0.00000000000E+00 -0.00000000000E+00 -0.45069805975E+03  0.45069805975E+03  0.00000000000E+00 0.  1.
        -24    2    1    2    0    0  0.10990251308E+03 -0.14520545093E+02  0.24815446070E+03  0.28388767372E+03  0.81988818222E+02 0.  0.
        254    2    1    2    0    0 -0.10990251308E+03  0.14520545093E+02  0.65141597222E+02  0.93080450371E+03  0.92188078830E+03 0.  0.
         23    2    4    4    0    0 -0.15071446262E+03 -0.33632130903E+03  0.31135715722E+03  0.49109669525E+03  0.91683218666E+02 0.  0.
         23    2    4    4    0    0  0.40811949545E+02  0.35084185412E+03 -0.24621556000E+03  0.43970780846E+03  0.89248154072E+02 0.  0.
          3    1    3    3  502    0  0.51099902672E+02 -0.46333411374E+02  0.15032724181E+03  0.16539729349E+03  0.00000000000E+00 0. -1.
         -4    1    3    3    0  502  0.58802610405E+02  0.31812866281E+02  0.97827218883E+02  0.11849038022E+03  0.00000000000E+00 0.  1.
         11    1    5    5    0    0 -0.14265870132E+03 -0.33915878780E+03  0.29128721353E+03  0.46928501912E+03  0.00000000000E+00 0.  1.
        -11    1    5    5    0    0 -0.80557613065E+01  0.28374787710E+01  0.20069943692E+02  0.21811676135E+02  0.00000000000E+00 0. -1.
          2    1    6    6  503    0  0.10937961038E+02  0.74438262529E+02 -0.10132482719E+03  0.12620386097E+03  0.00000000000E+00 0. -1.
         -2    1    6    6    0  503  0.29873988507E+02  0.27640359159E+03 -0.14489073281E+03  0.31350394749E+03  0.00000000000E+00 0.  1.
<mgrwt>
<rscale>  0 0.11735939E+04</rscale>
<asrwt>0</asrwt>
<pdfrwt beam="1">  1        1 0.11753756E+00 0.11735939E+04</pdfrwt>
<pdfrwt beam="2">  1       -2 0.69338163E-01 0.11735939E+04</pdfrwt>
<totfact> 0.39232138E+01</totfact>
</mgrwt>
</event>
<event>
12    4  0.4398275E-008  0.1280620E+04  0.7818608E-02  0.9045076E-01
         -2   -1    0    0    0  501 -0.00000000000E+00  0.00000000000E+00  0.17836810740E+03  0.17836810740E+03  0.00000000000E+00 0.  1.
          1   -1    0    0  501    0  0.00000000000E+00 -0.00000000000E+00 -0.22985997968E+04  0.22985997968E+04  0.00000000000E+00 0. -1.
        -24    2    1    2    0    0  0.71510274436E+02 -0.76493868482E+02 -0.10781848714E+04  0.10862280767E+04  0.80273198502E+02 0.  0.
        254    2    1    2    0    0 -0.71510274436E+02  0.76493868482E+02 -0.10420468179E+04  0.13907398274E+04  0.91505773895E+03 0.  0.
         23    2    4    4    0    0  0.26385386948E+03  0.31421958248E+02  0.10996323656E+02  0.28092343868E+03  0.90503344488E+02 0.  0.
         23    2    4    4    0    0 -0.33536414392E+03  0.45071910234E+02 -0.10530431416E+04  0.11098163888E+04  0.91060269139E+02 0.  0.
          1    1    3    3  502    0  0.86954563736E+02 -0.48086565906E+02 -0.78407185697E+03  0.79034302102E+03  0.00000000000E+00 0. -1.
         -2    1    3    3    0  502 -0.15444289299E+02 -0.28407302575E+02 -0.29411301447E+03  0.29588505571E+03  0.00000000000E+00 0.  1.
         11    1    5    5    0    0  0.16838994125E+01  0.15458252088E+02 -0.81777447274E+01  0.17568966494E+02  0.00000000000E+00 0. -1.
        -11    1    5    5    0    0  0.26216997007E+03  0.15963706160E+02  0.19174068383E+02  0.26335447218E+03  0.00000000000E+00 0.  1.
          4    1    6    6  503    0 -0.98178659526E+02  0.11127244227E+02 -0.45410531906E+03  0.46473057308E+03  0.00000000000E+00 0. -1.
         -4    1    6    6    0  503 -0.23718548439E+03  0.33944666006E+02 -0.59893782253E+03  0.64508581570E+03  0.00000000000E+00 0.  1.
<mgrwt>
<rscale>  0 0.12806200E+04</rscale>
<asrwt>0</asrwt>
<pdfrwt beam="1">  1        1 0.35363072E+00 0.12806200E+04</pdfrwt>
<pdfrwt beam="2">  1       -2 0.27441249E-01 0.12806200E+04</pdfrwt>
<totfact> 0.19558331E+01</totfact>
</mgrwt>
</event>
<event>
12    4  0.4398275E-008  0.1265829E+04  0.7818608E-02  0.9057111E-01
          1   -1    0    0  501    0  0.00000000000E+00  0.00000000000E+00  0.97950007079E+03  0.97950007079E+03  0.00000000000E+00 0. -1.
         -2   -1    0    0    0  501 -0.00000000000E+00 -0.00000000000E+00 -0.40896458120E+03  0.40896458120E+03  0.00000000000E+00 0.  1.
        -24    2    1    2    0    0  0.25919615784E+03 -0.87959795534E+02  0.28355002796E+03  0.40137725977E+03  0.76049407845E+02 0.  0.
        254    2    1    2    0    0 -0.25919615784E+03  0.87959795534E+02  0.28698546163E+03  0.98708739223E+03  0.90391442672E+03 0.  0.
         23    2    4    4    0    0  0.19510866726E+03  0.34416628455E+03  0.56909626999E+02  0.40979728383E+03  0.90428340289E+02 0.  0.
         23    2    4    4    0    0 -0.45430482509E+03 -0.25620648902E+03  0.23007583463E+03  0.57729010840E+03  0.91073269727E+02 0.  0.
          3    1    3    3  502    0  0.22272022041E+03 -0.10170399486E+03  0.25034208110E+03  0.35017018251E+03  0.00000000000E+00 0. -1.
         -4    1    3    3    0  502  0.36475937422E+02  0.13744199329E+02  0.33207946865E+02  0.51207077255E+02  0.00000000000E+00 0.  1.
         11    1    5    5    0    0  0.19220789991E+03  0.34919984447E+03  0.60195734888E+02  0.40312272903E+03  0.00000000000E+00 0. -1.
        -11    1    5    5    0    0  0.29007673471E+01 -0.50335599179E+01 -0.32861078890E+01  0.66745547947E+01  0.00000000000E+00 0.  1.
          4    1    6    6  503    0 -0.64799644960E+02 -0.91474579263E+01  0.99109959999E+01  0.66188351053E+02  0.00000000000E+00 0.  1.
         -4    1    6    6    0  503 -0.38950518013E+03 -0.24705903109E+03  0.22016483863E+03  0.51110175735E+03  0.00000000000E+00 0. -1.
<mgrwt>
<rscale>  0 0.12658291E+04</rscale>
<asrwt>0</asrwt>
<pdfrwt beam="1">  1        1 0.15069232E+00 0.12658291E+04</pdfrwt>
<pdfrwt beam="2">  1       -2 0.62917628E-01 0.12658291E+04</pdfrwt>
<totfact> 0.31746408E+01</totfact>
</mgrwt>
</event>
<event>
12    4  0.4398275E-008  0.3190914E+04  0.7818608E-02  0.8191221E-01
         -2   -1    0    0    0  501 -0.00000000000E+00  0.00000000000E+00  0.86424455749E+03  0.86424455749E+03  0.00000000000E+00 0.  1.
          1   -1    0    0  501    0  0.00000000000E+00 -0.00000000000E+00 -0.29453281555E+04  0.29453281555E+04  0.00000000000E+00 0. -1.
        -24    2    1    2    0    0 -0.80560285303E+03 -0.11210075117E+04 -0.36721722334E+03  0.14306496697E+04  0.79096082461E+02 0.  0.
        254    2    1    2    0    0  0.80560285303E+03  0.11210075117E+04 -0.17138663747E+04  0.23789230433E+04  0.90348386677E+03 0.  0.
         23    2    4    4    0    0 -0.15403619264E+03  0.15533999502E+03 -0.49596649628E+03  0.54984610634E+03  0.92142891912E+02 0.  0.
         23    2    4    4    0    0  0.95963904567E+03  0.96566751668E+03 -0.12178998784E+04  0.18290769370E+04  0.93922716660E+02 0.  0.
          3    1    3    3  502    0 -0.69288117988E+03 -0.10048140598E+04 -0.31481489081E+03  0.12604935699E+04  0.00000000000E+00 0. -1.
         -4    1    3    3    0  502 -0.11272167316E+03 -0.11619345189E+03 -0.52402332527E+02  0.17015609985E+03  0.00000000000E+00 0.  1.
         11    1    5    5    0    0 -0.15280402918E+03  0.15172009792E+03 -0.49993369142E+03  0.54433606831E+03  0.00000000000E+00 0.  1.
        -11    1    5    5    0    0 -0.12321634582E+01  0.36198971040E+01  0.39671951396E+01  0.55100380314E+01  0.00000000000E+00 0. -1.
          4    1    6    6  503    0  0.88906537205E+03  0.89414302424E+03 -0.10924352543E+04  0.16683356282E+04  0.00000000000E+00 0.  1.
         -4    1    6    6    0  503  0.70573673624E+02  0.71524492440E+02 -0.12546462410E+03  0.16074130872E+03  0.00000000000E+00 0. -1.
<mgrwt>
<rscale>  0 0.31909145E+04</rscale>
<asrwt>0</asrwt>
<pdfrwt beam="1">  1        1 0.45312740E+00 0.31909145E+04</pdfrwt>
<pdfrwt beam="2">  1       -2 0.13296070E+00 0.31909145E+04</pdfrwt>
<totfact> 0.19789666E-01</totfact>
</mgrwt>
</event>
<event>
12    4  0.4398275E-008  0.1649526E+04  0.7818608E-02  0.8790687E-01
         -2   -1    0    0    0  501 -0.00000000000E+00  0.00000000000E+00  0.36005062690E+03  0.36005062690E+03  0.00000000000E+00 0.  1.
          1   -1    0    0  501    0  0.00000000000E+00 -0.00000000000E+00 -0.18892725194E+04  0.18892725194E+04  0.00000000000E+00 0. -1.
        -24    2    1    2    0    0 -0.50691024998E+03  0.26948835891E+03 -0.47948108263E+03  0.75193064874E+03  0.76913033994E+02 0.  0.
        254    2    1    2    0    0  0.50691024998E+03 -0.26948835891E+03 -0.10497408099E+04  0.14973924976E+04  0.90035912099E+03 0.  0.
         23    2    4    4    0    0 -0.14340398915E+03 -0.12223472133E+03 -0.71614530663E+03  0.74601439347E+03  0.90373358060E+02 0.  0.
         23    2    4    4    0    0  0.65031423912E+03 -0.14725363758E+03 -0.33359550327E+03  0.75137810412E+03  0.93224740106E+02 0.  0.
          3    1    3    3  502    0 -0.72398832447E+01  0.17238532023E+02 -0.90936907785E+01  0.20791298845E+02  0.00000000000E+00 0. -1.
         -4    1    3    3    0  502 -0.49967036673E+03  0.25224982689E+03 -0.47038739185E+03  0.73113934990E+03  0.00000000000E+00 0.  1.
         11    1    5    5    0    0 -0.14350758730E+03 -0.78049923220E+02 -0.59674254424E+03  0.61869853906E+03  0.00000000000E+00 0. -1.
        -11    1    5    5    0    0  0.10359815812E+00 -0.44184798109E+02 -0.11940276239E+03  0.12731585440E+03  0.00000000000E+00 0.  1.
          3    1    6    6  503    0  0.39792729756E+03 -0.45561511922E+02 -0.18260689094E+03  0.44019002957E+03  0.00000000000E+00 0. -1.
         -3    1    6    6    0  503  0.25238694156E+03 -0.10169212566E+03 -0.15098861233E+03  0.31118807456E+03  0.00000000000E+00 0.  1.
<mgrwt>
<rscale>  0 0.16495257E+04</rscale>
<asrwt>0</asrwt>
<pdfrwt beam="1">  1        1 0.29065731E+00 0.16495257E+04</pdfrwt>
<pdfrwt beam="2">  1       -2 0.55392405E-01 0.16495257E+04</pdfrwt>
<totfact> 0.91067871E+00</totfact>
</mgrwt>
</event>
<event>
12    4  0.4398275E-008  0.2756661E+04  0.7818608E-02  0.8316851E-01
          1   -1    0    0  501    0  0.00000000000E+00  0.00000000000E+00  0.22393986672E+04  0.22393986672E+04  0.00000000000E+00 0. -1.
         -2   -1    0    0    0  501 -0.00000000000E+00 -0.00000000000E+00 -0.84835045582E+03  0.84835045582E+03  0.00000000000E+00 0.  1.
        -24    2    1    2    0    0 -0.26989291298E+01 -0.46483555454E+03 -0.65325707237E+03  0.80553229113E+03  0.77833748917E+02 0.  0.
        254    2    1    2    0    0  0.26989291298E+01  0.46483555454E+03  0.20443052837E+04  0.22822168319E+04  0.90180385762E+03 0.  0.
         23    2    4    4    0    0 -0.39454888959E+03  0.10016787098E+03  0.12503664408E+04  0.13180639223E+04  0.90409282869E+02 0.  0.
         23    2    4    4    0    0  0.39724781872E+03  0.36466768356E+03  0.79393884293E+03  0.96415290954E+03  0.91997813821E+02 0.  0.
          1    1    3    3  502    0  0.11879015470E+02 -0.98225414396E+01 -0.29863063664E+02  0.33606485985E+02  0.00000000000E+00 0. -1.
         -2    1    3    3    0  502 -0.14577944600E+02 -0.45501301310E+03 -0.62339400870E+03  0.77192580515E+03  0.00000000000E+00 0.  1.
         11    1    5    5    0    0 -0.16762621826E+02  0.24710829825E+02  0.62080441486E+02  0.68888256010E+02  0.00000000000E+00 0. -1.
        -11    1    5    5    0    0 -0.37778626776E+03  0.75457041159E+02  0.11882859993E+04  0.12491756663E+04  0.00000000000E+00 0.  1.
          1    1    6    6  503    0  0.10156954896E+03  0.62808172301E+02  0.12451470031E+03  0.17252579626E+03  0.00000000000E+00 0. -1.
         -1    1    6    6    0  503  0.29567826976E+03  0.30185951126E+03  0.66942414262E+03  0.79162711327E+03  0.00000000000E+00 0.  1.
<mgrwt>
<rscale>  0 0.27566609E+04</rscale>
<asrwt>0</asrwt>
<pdfrwt beam="1">  1        1 0.34452287E+00 0.27566609E+04</pdfrwt>
<pdfrwt beam="2">  1       -2 0.13051546E+00 0.27566609E+04</pdfrwt>
<totfact> 0.67256328E-01</totfact>
</mgrwt>
</event>
<event>
12    4  0.4398275E-008  0.1944781E+04  0.7818608E-02  0.8632882E-01
          1   -1    0    0  501    0  0.00000000000E+00  0.00000000000E+00  0.99153935704E+03  0.99153935704E+03  0.00000000000E+00 0. -1.
         -2   -1    0    0    0  501 -0.00000000000E+00 -0.00000000000E+00 -0.95361143304E+03  0.95361143304E+03  0.00000000000E+00 0.  1.
        -24    2    1    2    0    0 -0.20527711222E+02  0.63156025626E+03 -0.36852722146E+03  0.73584193061E+03  0.79757693502E+02 0.  0.
        254    2    1    2    0    0  0.20527711222E+02 -0.63156025626E+03  0.40645514546E+03  0.12093088595E+04  0.94759294430E+03 0.  0.
         23    2    4    4    0    0 -0.34275321160E+03 -0.48337231763E+03  0.51768581785E+03  0.79214691099E+03  0.91485305251E+02 0.  0.
         23    2    4    4    0    0  0.36328092282E+03 -0.14818793863E+03 -0.11123067239E+03  0.41716194847E+03  0.87858606475E+02 0.  0.
          3    1    3    3  502    0 -0.13874956390E+02  0.57719170966E+03 -0.36002421735E+03  0.68041180265E+03  0.00000000000E+00 0. -1.
         -4    1    3    3    0  502 -0.66527548316E+01  0.54368546605E+02 -0.85030041134E+01  0.55430127961E+02  0.00000000000E+00 0.  1.
         11    1    5    5    0    0 -0.31745714498E+03 -0.39112496407E+03  0.42775547530E+03  0.66085741508E+03  0.00000000000E+00 0. -1.
        -11    1    5    5    0    0 -0.25296066619E+02 -0.92247353560E+02  0.89930342549E+02  0.13128949591E+03  0.00000000000E+00 0.  1.
          1    1    6    6  503    0  0.36044974744E+03 -0.14122955134E+03 -0.12029469890E+03  0.40538946851E+03  0.00000000000E+00 0. -1.
         -1    1    6    6    0  503  0.28311753865E+01 -0.69583872944E+01  0.90640265125E+01  0.11772479961E+02  0.00000000000E+00 0.  1.
<mgrwt>
<rscale>  0 0.19447810E+04</rscale>
<asrwt>0</asrwt>
<pdfrwt beam="1">  1        1 0.15254452E+00 0.19447810E+04</pdfrwt>
<pdfrwt beam="2">  1       -2 0.14670945E+00 0.19447810E+04</pdfrwt>
<totfact> 0.39880300E+00</totfact>
</mgrwt>
</event>
<event>
12    4  0.4398275E-008  0.1341304E+04  0.7818608E-02  0.8997437E-01
         -2   -1    0    0    0  501 -0.00000000000E+00  0.00000000000E+00  0.12822939008E+03  0.12822939008E+03  0.00000000000E+00 0.  1.
          1   -1    0    0  501    0  0.00000000000E+00 -0.00000000000E+00 -0.35075754585E+04  0.35075754585E+04  0.00000000000E+00 0. -1.
        -24    2    1    2    0    0 -0.42228728067E+02  0.14331654240E+03 -0.47718937322E+02  0.17569243435E+03  0.79169676696E+02 0.  0.
        254    2    1    2    0    0  0.42228728067E+02 -0.14331654240E+03 -0.33316271311E+04  0.34601124142E+04  0.92212563227E+03 0.  0.
         23    2    4    4    0    0  0.40214962744E+03 -0.31996876399E+03 -0.19523245389E+04  0.20208571341E+04  0.90488221847E+02 0.  0.
         23    2    4    4    0    0 -0.35992089937E+03  0.17665222159E+03 -0.13793025922E+04  0.14392552802E+04  0.90725186616E+02 0.  0.
          3    1    3    3  502    0 -0.12386609462E+02 -0.48130485671E+01  0.69560073534E+01  0.14999318944E+02  0.00000000000E+00 0. -1.
         -2    1    3    3    0  502 -0.29842118604E+02  0.14812959097E+03 -0.54674944675E+02  0.16069311540E+03  0.00000000000E+00 0.  1.
         11    1    5    5    0    0  0.35448595172E+03 -0.25916983233E+03 -0.15412273863E+04  0.16025639295E+04  0.00000000000E+00 0.  1.
        -11    1    5    5    0    0  0.47663675720E+02 -0.60798931658E+02 -0.41109715263E+03  0.41829320455E+03  0.00000000000E+00 0. -1.
          2    1    6    6  503    0 -0.67487060624E+01  0.94428193272E+01 -0.10101075252E+02  0.15386474307E+02  0.00000000000E+00 0. -1.
         -2    1    6    6    0  503 -0.35317219331E+03  0.16720940226E+03 -0.13692015169E+04  0.14238688059E+04  0.00000000000E+00 0.  1.
<mgrwt>
<rscale>  0 0.13413042E+04</rscale>
<asrwt>0</asrwt>
<pdfrwt beam="1">  1        1 0.53962692E+00 0.13413042E+04</pdfrwt>
<pdfrwt beam="2">  1       -2 0.19727601E-01 0.13413042E+04</pdfrwt>
<totfact> 0.47190065E+00</totfact>
</mgrwt>
</event>
<event>
12    4  0.4398275E-008  0.1519964E+04  0.7818608E-02  0.8871284E-01
          1   -1    0    0  501    0  0.00000000000E+00  0.00000000000E+00  0.32444182681E+04  0.32444182681E+04  0.00000000000E+00 0. -1.
         -2   -1    0    0    0  501 -0.00000000000E+00 -0.00000000000E+00 -0.17802043724E+03  0.17802043724E+03  0.00000000000E+00 0.  1.
        -24    2    1    2    0    0 -0.25454663630E+03  0.32250884554E+03  0.16036118939E+04  0.16573726453E+04  0.80666187353E+02 0.  0.
        254    2    1    2    0    0  0.25454663630E+03 -0.32250884554E+03  0.14627859369E+04  0.17650660600E+04  0.89828144433E+03 0.  0.
         23    2    4    4    0    0  0.37602990768E+03 -0.37773594923E+03  0.35846639357E+03  0.64827450410E+03  0.87628411752E+02 0.  0.
         23    2    4    4    0    0 -0.12148327137E+03  0.55227103692E+02  0.11043195434E+04  0.11167915559E+04  0.99466110631E+02 0.  0.
          3    1    3    3  502    0 -0.18665329462E+03  0.22921733942E+03  0.12835465226E+04  0.13171452906E+04  0.00000000000E+00 0. -1.
         -4    1    3    3    0  502 -0.67893341685E+02  0.93291506115E+02  0.32006537134E+03  0.34022735470E+03  0.00000000000E+00 0.  1.
         11    1    5    5    0    0  0.31908669391E+03 -0.34871938173E+03  0.33827787191E+03  0.58125161853E+03  0.00000000000E+00 0. -1.
        -11    1    5    5    0    0  0.56943213763E+02 -0.29016567501E+02  0.20188521657E+02  0.67022885569E+02  0.00000000000E+00 0.  1.
          2    1    6    6  503    0 -0.82856102386E+02  0.75924213562E+02  0.58994880768E+03  0.60055742073E+03  0.00000000000E+00 0. -1.
         -2    1    6    6    0  503 -0.38627168985E+02 -0.20697109870E+02  0.51437073570E+03  0.51623413514E+03  0.00000000000E+00 0.  1.
<mgrwt>
<rscale>  0 0.15199642E+04</rscale>
<asrwt>0</asrwt>
<pdfrwt beam="1">  1        1 0.49914123E+00 0.15199642E+04</pdfrwt>
<pdfrwt beam="2">  1       -2 0.27387762E-01 0.15199642E+04</pdfrwt>
<totfact> 0.40867332E+00</totfact>
</mgrwt>
</event>
<event>
12    4  0.4398275E-008  0.1411429E+04  0.7818608E-02  0.8945587E-01
         -2   -1    0    0    0  501 -0.00000000000E+00  0.00000000000E+00  0.39588288427E+03  0.39588288427E+03  0.00000000000E+00 0.  1.
          1   -1    0    0  501    0  0.00000000000E+00 -0.00000000000E+00 -0.12580305159E+04  0.12580305159E+04  0.00000000000E+00 0. -1.
        -24    2    1    2    0    0 -0.37086781107E+03  0.48978072540E+01 -0.48267455066E+03  0.61420222032E+03  0.81870164179E+02 0.  0.
        254    2    1    2    0    0  0.37086781107E+03 -0.48978072540E+01 -0.37947308095E+03  0.10397111798E+04  0.89410994655E+03 0.  0.
         23    2    4    4    0    0  0.39708430557E+03  0.32326451568E+03 -0.45293373739E+03  0.68982606457E+03  0.92385800177E+02 0.  0.
         23    2    4    4    0    0 -0.26216494494E+02 -0.32816232293E+03  0.73460656439E+02  0.34988511527E+03  0.92980164912E+02 0.  0.
          3    1    3    3  502    0 -0.30943063083E+03  0.14107986530E+02 -0.44278402048E+03  0.54037398103E+03  0.00000000000E+00 0. -1.
         -4    1    3    3    0  502 -0.61437180244E+02 -0.92101792758E+01 -0.39890530179E+02  0.73828239290E+02  0.00000000000E+00 0.  1.
         11    1    5    5    0    0  0.21411820451E+03  0.22419328389E+03 -0.30184569172E+03  0.43268932925E+03  0.00000000000E+00 0. -1.
        -11    1    5    5    0    0  0.18296610106E+03  0.99071231792E+02 -0.15108804567E+03  0.25713673532E+03  0.00000000000E+00 0.  1.
          3    1    6    6  503    0 -0.27998567629E+02 -0.23096055535E+03  0.93301835377E+02  0.25066298172E+03  0.00000000000E+00 0. -1.
         -3    1    6    6    0  503  0.17820731345E+01 -0.97201767580E+02 -0.19841178938E+02  0.99222133554E+02  0.00000000000E+00 0.  1.
<mgrwt>
<rscale>  0 0.14114287E+04</rscale>
<asrwt>0</asrwt>
<pdfrwt beam="1">  1        1 0.19354315E+00 0.14114287E+04</pdfrwt>
<pdfrwt beam="2">  1       -2 0.60905061E-01 0.14114287E+04</pdfrwt>
<totfact> 0.20788045E+01</totfact>
</mgrwt>
</event>
<event>
12    4  0.4398275E-008  0.1939250E+04  0.7818608E-02  0.8635562E-01
          1   -1    0    0  501    0  0.00000000000E+00  0.00000000000E+00  0.18917087233E+04  0.18917087233E+04  0.00000000000E+00 0. -1.
         -2   -1    0    0    0  501 -0.00000000000E+00 -0.00000000000E+00 -0.49699645451E+03  0.49699645451E+03  0.00000000000E+00 0.  1.
        -24    2    1    2    0    0  0.42299243338E+02 -0.42077346774E+01  0.14799747369E+04  0.14827227053E+04  0.79589370288E+02 0.  0.
        254    2    1    2    0    0 -0.42299243338E+02  0.42077346774E+01 -0.85262468151E+02  0.90598247250E+03  0.90095927820E+03 0.  0.
         23    2    4    4    0    0  0.81959191167E+02 -0.41125439197E+03 -0.15838901919E+03  0.45762257740E+03  0.92107860749E+02 0.  0.
         23    2    4    4    0    0 -0.12425843450E+03  0.41546212665E+03  0.73126551034E+02  0.44835989510E+03  0.87350820518E+02 0.  0.
          1    1    3    3  502    0 -0.10562999595E+01 -0.29231582517E+02  0.93399187294E+03  0.93444979529E+03  0.00000000000E+00 0. -1.
         -2    1    3    3    0  502  0.43355543297E+02  0.25023847839E+02  0.54598286397E+03  0.54827291000E+03  0.00000000000E+00 0.  1.
         11    1    5    5    0    0  0.37356539120E+02 -0.19837539249E+03 -0.27374271597E+02  0.20370973984E+03  0.00000000000E+00 0. -1.
        -11    1    5    5    0    0  0.44602652047E+02 -0.21287899948E+03 -0.13101474759E+03  0.25391283756E+03  0.00000000000E+00 0.  1.
          2    1    6    6  503    0 -0.70481827646E+02  0.30732470790E+03  0.18602948353E+02  0.31585160092E+03  0.00000000000E+00 0. -1.
         -2    1    6    6    0  503 -0.53776606859E+02  0.10813741875E+03  0.54523602681E+02  0.13250829419E+03  0.00000000000E+00 0.  1.
<mgrwt>
<rscale>  0 0.19392499E+04</rscale>
<asrwt>0</asrwt>
<pdfrwt beam="1">  1        1 0.29103211E+00 0.19392499E+04</pdfrwt>
<pdfrwt beam="2">  1       -2 0.76460994E-01 0.19392499E+04</pdfrwt>
<totfact> 0.44208697E+00</totfact>
</mgrwt>
</event>
<event>
12    4  0.4398275E-008  0.2225709E+04  0.7818608E-02  0.8507803E-01
         -2   -1    0    0    0  501 -0.00000000000E+00  0.00000000000E+00  0.84089489807E+03  0.84089489807E+03  0.00000000000E+00 0.  1.
          1   -1    0    0  501    0  0.00000000000E+00 -0.00000000000E+00 -0.14727698681E+04  0.14727698681E+04  0.00000000000E+00 0. -1.
        -24    2    1    2    0    0 -0.27030353789E+03 -0.81351550669E+03 -0.64097400228E+03  0.10731996837E+04  0.77707188892E+02 0.  0.
        254    2    1    2    0    0  0.27030353789E+03  0.81351550669E+03  0.90990322805E+01  0.12404650825E+04  0.89654857438E+03 0.  0.
         23    2    4    4    0    0  0.52605811624E+03  0.80774271611E+03 -0.19044302145E+02  0.96845638785E+03  0.91431136066E+02 0.  0.
         23    2    4    4    0    0 -0.25575457836E+03  0.57727905786E+01  0.28143334425E+02  0.27200869462E+03  0.88050855839E+02 0.  0.
          1    1    3    3  502    0 -0.18305322374E+03 -0.52639166653E+03 -0.46109635363E+03  0.72333015743E+03  0.00000000000E+00 0. -1.
         -2    1    3    3    0  502 -0.87250314141E+02 -0.28712384015E+03 -0.17987764864E+03  0.34986952623E+03  0.00000000000E+00 0.  1.
         11    1    5    5    0    0  0.11246988603E+03  0.24296269131E+03  0.88516567916E+01  0.26787813733E+03  0.00000000000E+00 0.  1.
        -11    1    5    5    0    0  0.41358823021E+03  0.56478002480E+03 -0.27895958936E+02  0.70057825053E+03  0.00000000000E+00 0. -1.
          1    1    6    6  503    0 -0.21661930522E+03  0.37672647375E+02  0.26836421064E+02  0.22150247233E+03  0.00000000000E+00 0. -1.
         -1    1    6    6    0  503 -0.39135273140E+02 -0.31899856796E+02  0.13069133615E+01  0.50506222289E+02  0.00000000000E+00 0.  1.
<mgrwt>
<rscale>  0 0.22257086E+04</rscale>
<asrwt>0</asrwt>
<pdfrwt beam="1">  1        1 0.22657998E+00 0.22257086E+04</pdfrwt>
<pdfrwt beam="2">  1       -2 0.12936845E+00 0.22257086E+04</pdfrwt>
<totfact> 0.23993689E+00</totfact>
</mgrwt>
</event>
<event>
12    4  0.4398275E-008  0.1836786E+04  0.7818608E-02  0.8686978E-01
          1   -1    0    0  501    0  0.00000000000E+00  0.00000000000E+00  0.69385759975E+03  0.69385759975E+03  0.00000000000E+00 0. -1.
         -2   -1    0    0    0  501 -0.00000000000E+00 -0.00000000000E+00 -0.12155884110E+04  0.12155884110E+04  0.00000000000E+00 0.  1.
        -24    2    1    2    0    0  0.65863889501E+03  0.23509094595E+03 -0.25830281099E+03  0.75009456017E+03  0.82756027856E+02 0.  0.
        254    2    1    2    0    0 -0.65863889501E+03 -0.23509094595E+03 -0.26342800027E+03  0.11593514506E+04  0.88635688511E+03 0.  0.
         23    2    4    4    0    0 -0.78758290502E+03 -0.40528722654E+03 -0.15982491742E+03  0.90518514984E+03  0.96289059518E+02 0.  0.
         23    2    4    4    0    0  0.12894401002E+03  0.17019628059E+03 -0.10360308285E+03  0.25416630076E+03  0.90959210747E+02 0.  0.
          1    1    3    3  502    0  0.63041192379E+02  0.49717487841E+02 -0.24558155241E+02  0.83959058609E+02  0.00000000000E+00 0. -1.
         -2    1    3    3    0  502  0.59559770263E+03  0.18537345811E+03 -0.23374465575E+03  0.66613550156E+03  0.00000000000E+00 0.  1.
         11    1    5    5    0    0 -0.42927269077E+03 -0.23584806265E+03 -0.13497983742E+03  0.50805404064E+03  0.00000000000E+00 0. -1.
        -11    1    5    5    0    0 -0.35831021425E+03 -0.16943916389E+03 -0.24845079999E+02  0.39713110920E+03  0.00000000000E+00 0.  1.
          3    1    6    6  503    0 -0.84952953308E+01  0.25959676481E+01  0.65476631692E+01  0.11035442164E+02  0.00000000000E+00 0. -1.
         -3    1    6    6    0  503  0.13743930535E+03  0.16760031294E+03 -0.11015074602E+03  0.24313085859E+03  0.00000000000E+00 0.  1.
<mgrwt>
<rscale>  0 0.18367855E+04</rscale>
<asrwt>0</asrwt>
<pdfrwt beam="1">  1        1 0.10674732E+00 0.18367855E+04</pdfrwt>
<pdfrwt beam="2">  1       -2 0.18701360E+00 0.18367855E+04</pdfrwt>
<totfact> 0.36904657E+00</totfact>
</mgrwt>
</event>
<event>
12    4  0.4398275E-008  0.1458413E+04  0.7818608E-02  0.8912589E-01
         -2   -1    0    0    0  501 -0.00000000000E+00  0.00000000000E+00  0.77134856229E+03  0.77134856229E+03  0.00000000000E+00 0.  1.
          1   -1    0    0  501    0  0.00000000000E+00 -0.00000000000E+00 -0.68936674139E+03  0.68936674139E+03  0.00000000000E+00 0. -1.
        -24    2    1    2    0    0  0.34905567743E+03 -0.13752979658E+03 -0.23849319455E+03  0.45202314967E+03  0.81802280535E+02 0.  0.
        254    2    1    2    0    0 -0.34905567743E+03  0.13752979658E+03  0.32047501544E+03  0.10086921540E+04  0.87977344535E+03 0.  0.
         23    2    4    4    0    0  0.61481740437E+02 -0.55278661808E+02  0.49852925929E+03  0.51309220527E+03  0.88861993464E+02 0.  0.
         23    2    4    4    0    0 -0.41053741787E+03  0.19280845839E+03 -0.17805424385E+03  0.49559994874E+03  0.90553422562E+02 0.  0.
          3    1    3    3  502    0  0.22447457504E+03 -0.12904977447E+03 -0.15416915186E+03  0.30134831427E+03  0.00000000000E+00 0. -1.
         -4    1    3    3    0  502  0.12458110239E+03 -0.84800221125E+01 -0.84324042691E+02  0.15067483540E+03  0.00000000000E+00 0.  1.
         11    1    5    5    0    0  0.26409337702E+02  0.16032856627E+02  0.60710387085E+02  0.68119429750E+02  0.00000000000E+00 0.  1.
        -11    1    5    5    0    0  0.35072402735E+02 -0.71311518435E+02  0.43781887220E+03  0.44497277552E+03  0.00000000000E+00 0. -1.
          4    1    6    6  503    0 -0.10392674380E+03  0.75372713672E+01 -0.36497999561E+02  0.11040689520E+03  0.00000000000E+00 0.  1.
         -4    1    6    6    0  503 -0.30661067407E+03  0.18527118702E+03 -0.14155624429E+03  0.38519305354E+03  0.00000000000E+00 0. -1.
<mgrwt>
<rscale>  0 0.14584129E+04</rscale>
<asrwt>0</asrwt>
<pdfrwt beam="1">  1        1 0.10605642E+00 0.14584129E+04</pdfrwt>
<pdfrwt beam="2">  1       -2 0.11866901E+00 0.14584129E+04</pdfrwt>
<totfact> 0.12933925E+01</totfact>
</mgrwt>
</event>
<event>
12    4  0.4398275E-008  0.1200835E+04  0.7818608E-02  0.9112126E-01
          1   -1    0    0  501    0  0.00000000000E+00  0.00000000000E+00  0.10084073121E+04  0.10084073121E+04  0.00000000000E+00 0. -1.
         -2   -1    0    0    0  501 -0.00000000000E+00 -0.00000000000E+00 -0.35749564851E+03  0.35749564851E+03  0.00000000000E+00 0.  1.
        -24    2    1    2    0    0  0.13290840682E+03  0.15796257674E+03  0.30778052099E+03  0.37917402933E+03  0.80170288500E+02 0.  0.
        254    2    1    2    0    0 -0.13290840682E+03 -0.15796257674E+03  0.34313114255E+03  0.98672893123E+03  0.90181937354E+03 0.  0.
         23    2    4    4    0    0 -0.55404617254E+02 -0.49961480697E+03  0.34911855984E+02  0.51232463932E+03  0.92590881894E+02 0.  0.
         23    2    4    4    0    0 -0.77503789566E+02  0.34165223023E+03  0.30821928657E+03  0.47440429191E+03  0.85599180793E+02 0.  0.
          3    1    3    3  502    0  0.62095506735E+02  0.12790570375E+03  0.22507257985E+03  0.26622056120E+03  0.00000000000E+00 0. -1.
         -4    1    3    3    0  502  0.70812900085E+02  0.30056872996E+02  0.82707941147E+02  0.11295346813E+03  0.00000000000E+00 0.  1.
         11    1    5    5    0    0 -0.28277256807E+02 -0.35414177235E+02 -0.51462465044E+01  0.45609769292E+02  0.00000000000E+00 0.  1.
        -11    1    5    5    0    0 -0.27127360447E+02 -0.46420062974E+03  0.40058102488E+02  0.46671487003E+03  0.00000000000E+00 0. -1.
          1    1    6    6  503    0 -0.87525916551E+02  0.24706053718E+03  0.19594230465E+03  0.32725079350E+03  0.00000000000E+00 0. -1.
         -1    1    6    6    0  503  0.10022126985E+02  0.94591693050E+02  0.11227698192E+03  0.14715349841E+03  0.00000000000E+00 0.  1.
<mgrwt>
<rscale>  0 0.12008351E+04</rscale>
<asrwt>0</asrwt>
<pdfrwt beam="1">  1        1 0.15513959E+00 0.12008351E+04</pdfrwt>
<pdfrwt beam="2">  1       -2 0.54999331E-01 0.12008351E+04</pdfrwt>
<totfact> 0.40202421E+01</totfact>
</mgrwt>
</event>
<event>
12    4  0.4398275E-008  0.1448252E+04  0.7818608E-02  0.8919613E-01
         -2   -1    0    0    0  501 -0.00000000000E+00  0.00000000000E+00  0.29155551502E+03  0.29155551502E+03  0.00000000000E+00 0.  1.
          1   -1    0    0  501    0  0.00000000000E+00 -0.00000000000E+00 -0.17984863263E+04  0.17984863263E+04  0.00000000000E+00 0. -1.
        -24    2    1    2    0    0 -0.34548368593E+01 -0.71826923326E+02  0.15434877698E+03  0.18859915211E+03  0.81086696871E+02 0.  0.
        254    2    1    2    0    0  0.34548368593E+01  0.71826923326E+02 -0.16612795883E+04  0.19014426892E+04  0.92220571848E+03 0.  0.
         23    2    4    4    0    0  0.40289216468E+03 -0.10310131456E+03 -0.11395123876E+04  0.12157948265E+04  0.81954873083E+02 0.  0.
         23    2    4    4    0    0 -0.39943732782E+03  0.17492823789E+03 -0.52176720069E+03  0.68564786275E+03  0.87874414412E+02 0.  0.
          3    1    3    3  502    0 -0.16392134524E+02 -0.52425260219E+01 -0.28003047551E+01  0.17436394698E+02  0.00000000000E+00 0. -1.
         -4    1    3    3    0  502  0.12937297664E+02 -0.66584397304E+02  0.15714908173E+03  0.17116275741E+03  0.00000000000E+00 0.  1.
         11    1    5    5    0    0  0.16630491036E+03 -0.78937832111E+02 -0.43984577576E+03  0.47681527975E+03  0.00000000000E+00 0.  1.
        -11    1    5    5    0    0  0.23658725432E+03 -0.24163482451E+02 -0.69966661182E+03  0.73897954673E+03  0.00000000000E+00 0. -1.
          3    1    6    6  503    0 -0.27642409076E+03  0.10317472862E+03 -0.29056496324E+03  0.41410542189E+03  0.00000000000E+00 0. -1.
         -3    1    6    6    0  503 -0.12301323706E+03  0.71753509263E+02 -0.23120223745E+03  0.27154244085E+03  0.00000000000E+00 0.  1.
<mgrwt>
<rscale>  0 0.14482522E+04</rscale>
<asrwt>0</asrwt>
<pdfrwt beam="1">  1        1 0.27669021E+00 0.14482522E+04</pdfrwt>
<pdfrwt beam="2">  1       -2 0.44854694E-01 0.14482522E+04</pdfrwt>
<totfact> 0.16416622E+01</totfact>
</mgrwt>
</event>
<event>
12    4  0.4398275E-008  0.2124778E+04  0.7818608E-02  0.8550406E-01
          1   -1    0    0  501    0  0.00000000000E+00  0.00000000000E+00  0.93580825011E+03  0.93580825011E+03  0.00000000000E+00 0. -1.
         -2   -1    0    0    0  501 -0.00000000000E+00 -0.00000000000E+00 -0.12060917856E+04  0.12060917856E+04  0.00000000000E+00 0.  1.
        -24    2    1    2    0    0 -0.48342222557E+03 -0.54024403048E+03 -0.59881248539E+03  0.94366549639E+03  0.79796715256E+02 0.  0.
        254    2    1    2    0    0  0.48342222557E+03  0.54024403048E+03  0.32852894987E+03  0.11982345393E+04  0.89569753809E+03 0.  0.
         23    2    4    4    0    0 -0.87172417801E+02 -0.15366780053E+03  0.21048951492E+03  0.28765474635E+03  0.85009375148E+02 0.  0.
         23    2    4    4    0    0  0.57059464337E+03  0.69391183101E+03  0.11803943495E+03  0.91057979300E+03  0.90168591820E+02 0.  0.
          3    1    3    3  502    0 -0.49301753579E+02 -0.39961404019E+02 -0.28393568533E+02  0.69525329566E+02  0.00000000000E+00 0. -1.
         -4    1    3    3    0  502 -0.43412047199E+03 -0.50028262646E+03 -0.57041891686E+03  0.87414016682E+03  0.00000000000E+00 0.  1.
         11    1    5    5    0    0  0.55606357354E+01 -0.84198633304E+01  0.53815214552E+02  0.54753009831E+02  0.00000000000E+00 0.  1.
        -11    1    5    5    0    0 -0.92733053536E+02 -0.14524793720E+03  0.15667430036E+03  0.23290173652E+03  0.00000000000E+00 0. -1.
          1    1    6    6  503    0  0.48585788972E+03  0.60327514192E+03  0.13184385775E+03  0.78573633534E+03  0.00000000000E+00 0. -1.
         -1    1    6    6    0  503  0.84736753649E+02  0.90636689100E+02 -0.13804422801E+02  0.12484345765E+03  0.00000000000E+00 0.  1.
<mgrwt>
<rscale>  0 0.21247782E+04</rscale>
<asrwt>0</asrwt>
<pdfrwt beam="1">  1        1 0.14397050E+00 0.21247782E+04</pdfrwt>
<pdfrwt beam="2">  1       -2 0.18555258E+00 0.21247782E+04</pdfrwt>
<totfact> 0.22731824E+00</totfact>
</mgrwt>
</event>
<event>
12    4  0.4398275E-008  0.1610366E+04  0.7818608E-02  0.8814205E-01
         -2   -1    0    0    0  501 -0.00000000000E+00  0.00000000000E+00  0.29959811197E+03  0.29959811197E+03  0.00000000000E+00 0.  1.
          1   -1    0    0  501    0  0.00000000000E+00 -0.00000000000E+00 -0.21639657378E+04  0.21639657378E+04  0.00000000000E+00 0. -1.
        -24    2    1    2    0    0 -0.26168362373E+03  0.36374615176E+03 -0.15715206398E+03  0.47943686471E+03  0.66131340351E+02 0.  0.
        254    2    1    2    0    0  0.26168362373E+03 -0.36374615176E+03 -0.17072155619E+04  0.19841269851E+04  0.90630311506E+03 0.  0.
         23    2    4    4    0    0  0.24029061511E+03  0.17563706609E+03 -0.11938790766E+04  0.12337446285E+04  0.90501934564E+02 0.  0.
         23    2    4    4    0    0  0.21393008626E+02 -0.53938321785E+03 -0.51333648528E+03  0.75038235657E+03  0.90373765102E+02 0.  0.
          1    1    3    3  502    0 -0.10184547467E+03  0.17017223686E+03 -0.99430602364E+02  0.22185025489E+03  0.00000000000E+00 0. -1.
         -2    1    3    3    0  502 -0.15983814906E+03  0.19357391490E+03 -0.57721461620E+02  0.25758660982E+03  0.00000000000E+00 0.  1.
         11    1    5    5    0    0  0.24482325991E+03  0.16840503759E+03 -0.11838592644E+04  0.12205824197E+04  0.00000000000E+00 0. -1.
        -11    1    5    5    0    0 -0.45326448052E+01  0.72320284941E+01 -0.10019812132E+02  0.13162208790E+02  0.00000000000E+00 0.  1.
          2    1    6    6  503    0 -0.25747925562E+02 -0.80438584415E+02 -0.10054420104E+03  0.13131053993E+03  0.00000000000E+00 0.  1.
         -2    1    6    6    0  503  0.47140934188E+02 -0.45894463343E+03 -0.41279228424E+03  0.61907181664E+03  0.00000000000E+00 0. -1.
<mgrwt>
<rscale>  0 0.16103665E+04</rscale>
<asrwt>0</asrwt>
<pdfrwt beam="1">  1        1 0.33291781E+00 0.16103665E+04</pdfrwt>
<pdfrwt beam="2">  1       -2 0.46092017E-01 0.16103665E+04</pdfrwt>
<totfact> 0.86678332E+00</totfact>
</mgrwt>
</event>
<event>
12    4  0.4398275E-008  0.1588074E+04  0.7818608E-02  0.8827909E-01
          1   -1    0    0  501    0  0.00000000000E+00  0.00000000000E+00  0.84730381360E+03  0.84730381360E+03  0.00000000000E+00 0. -1.
         -2   -1    0    0    0  501 -0.00000000000E+00 -0.00000000000E+00 -0.74411841247E+03  0.74411841247E+03  0.00000000000E+00 0.  1.
        -24    2    1    2    0    0 -0.54261531833E+02 -0.46404480066E+03  0.29964189690E+03  0.56057110589E+03  0.78567216642E+02 0.  0.
        254    2    1    2    0    0  0.54261531833E+02  0.46404480066E+03 -0.19645649577E+03  0.10308511202E+04  0.89765081539E+03 0.  0.
         23    2    4    4    0    0  0.31890409741E+03  0.25087411509E+03 -0.43828117607E+03  0.60410732208E+03  0.90651102197E+02 0.  0.
         23    2    4    4    0    0 -0.26464256558E+03  0.21317068557E+03  0.24182468030E+03  0.42674379809E+03  0.90297643971E+02 0.  0.
          3    1    3    3  502    0 -0.67336486423E+02 -0.42395528136E+03  0.25562967601E+03  0.49961866883E+03  0.00000000000E+00 0. -1.
         -4    1    3    3    0  502  0.13074954590E+02 -0.40089519302E+02  0.44012220895E+02  0.60952437060E+02  0.00000000000E+00 0.  1.
         11    1    5    5    0    0  0.20679136013E+02  0.49742254562E+02 -0.79696086439E+02  0.96194515170E+02  0.00000000000E+00 0.  1.
        -11    1    5    5    0    0  0.29822496140E+03  0.20113186053E+03 -0.35858508963E+03  0.50791280691E+03  0.00000000000E+00 0. -1.
          3    1    6    6  503    0 -0.17859865223E+03  0.88341857323E+02  0.12347429283E+03  0.23440917926E+03  0.00000000000E+00 0. -1.
         -3    1    6    6    0  503 -0.86043913348E+02  0.12482882824E+03  0.11835038747E+03  0.19233461883E+03  0.00000000000E+00 0.  1.
<mgrwt>
<rscale>  0 0.15880735E+04</rscale>
<asrwt>0</asrwt>
<pdfrwt beam="1">  1        1 0.13035443E+00 0.15880735E+04</pdfrwt>
<pdfrwt beam="2">  1       -2 0.11447976E+00 0.15880735E+04</pdfrwt>
<totfact> 0.10100799E+01</totfact>
</mgrwt>
</event>
<event>
12    4  0.4398275E-008  0.2707912E+04  0.7818608E-02  0.8332443E-01
          1   -1    0    0  501    0  0.00000000000E+00  0.00000000000E+00  0.14490974126E+04  0.14490974126E+04  0.00000000000E+00 0. -1.
         -4   -1    0    0    0  501 -0.00000000000E+00 -0.00000000000E+00 -0.12650607587E+04  0.12650607587E+04  0.00000000000E+00 0.  1.
        -24    2    1    2    0    0  0.97630227944E+03 -0.25772824990E+03 -0.57855239747E+03  0.11665306526E+04  0.80504006651E+02 0.  0.
        254    2    1    2    0    0 -0.97630227944E+03  0.25772824990E+03  0.76258905139E+03  0.15476275188E+04  0.89107737260E+03 0.  0.
         23    2    4    4    0    0 -0.75939571160E+03  0.35840063384E+03  0.91866789358E+03  0.12479943150E+04  0.91685606323E+02 0.  0.
         23    2    4    4    0    0 -0.21690656784E+03 -0.10067238395E+03 -0.15607884219E+03  0.29963320380E+03  0.90752761829E+02 0.  0.
          3    1    3    3  502    0  0.53409715920E+03 -0.12842381141E+03 -0.27049998416E+03  0.61230931092E+03  0.00000000000E+00 0. -1.
         -4    1    3    3    0  502  0.44220512024E+03 -0.12930443849E+03 -0.30805241330E+03  0.55422134163E+03  0.00000000000E+00 0.  1.
         11    1    5    5    0    0 -0.13610838887E+02 -0.28108560786E+01  0.29191499544E+02  0.32331091735E+02  0.00000000000E+00 0. -1.
        -11    1    5    5    0    0 -0.74578487271E+03  0.36121148992E+03  0.88947639403E+03  0.12156632232E+04  0.00000000000E+00 0.  1.
          3    1    6    6  503    0 -0.86249826280E+02 -0.31625254018E+02 -0.10963556476E+02  0.92516964907E+02  0.00000000000E+00 0. -1.
         -3    1    6    6    0  503 -0.13065674156E+03 -0.69047129927E+02 -0.14511528571E+03  0.20711623890E+03  0.00000000000E+00 0.  1.
<mgrwt>
<rscale>  0 0.27079116E+04</rscale>
<asrwt>0</asrwt>
<pdfrwt beam="1">  1        1 0.22293806E+00 0.27079116E+04</pdfrwt>
<pdfrwt beam="2">  1       -4 0.19462473E+00 0.27079116E+04</pdfrwt>
<totfact> 0.42973762E-01</totfact>
</mgrwt>
</event>
<event>
12    4  0.4398275E-008  0.2579672E+04  0.7818608E-02  0.8375139E-01
          1   -1    0    0  501    0  0.00000000000E+00  0.00000000000E+00  0.19140671341E+04  0.19140671341E+04  0.00000000000E+00 0. -1.
         -2   -1    0    0    0  501 -0.00000000000E+00 -0.00000000000E+00 -0.86918415100E+03  0.86918415100E+03  0.00000000000E+00 0.  1.
        -24    2    1    2    0    0 -0.65437431925E+03  0.14162343460E+03  0.14474697696E+04  0.15967999720E+04  0.79614505973E+02 0.  0.
        254    2    1    2    0    0  0.65437431925E+03 -0.14162343460E+03 -0.40258678649E+03  0.11864513132E+04  0.89293205283E+03 0.  0.
         23    2    4    4    0    0  0.23105766053E+03 -0.21543838087E+03  0.24087085465E+03  0.40709420007E+03  0.88913332328E+02 0.  0.
         23    2    4    4    0    0  0.42331665872E+03  0.73814946264E+02 -0.64345764114E+03  0.77935711311E+03  0.93349525882E+02 0.  0.
          3    1    3    3  502    0 -0.62352621907E+03  0.12689037837E+03  0.14042951835E+04  0.15417298973E+04  0.00000000000E+00 0. -1.
         -4    1    3    3    0  502 -0.30848100185E+02  0.14733056239E+02  0.43174586151E+02  0.55070074636E+02  0.00000000000E+00 0.  1.
         11    1    5    5    0    0  0.10170073358E+03 -0.38344312728E+02  0.73323541782E+02  0.13110937155E+03  0.00000000000E+00 0.  1.
        -11    1    5    5    0    0  0.12935692696E+03 -0.17709406814E+03  0.16754731287E+03  0.27598482852E+03  0.00000000000E+00 0. -1.
          2    1    6    6  503    0  0.40396315524E+03  0.48744153499E+02 -0.58077683399E+03  0.70912901096E+03  0.00000000000E+00 0. -1.
         -2    1    6    6    0  503  0.19353503477E+02  0.25070792766E+02 -0.62680807150E+02  0.70228102151E+02  0.00000000000E+00 0.  1.
<mgrwt>
<rscale>  0 0.25796719E+04</rscale>
<asrwt>0</asrwt>
<pdfrwt beam="1">  1        1 0.29447187E+00 0.25796719E+04</pdfrwt>
<pdfrwt beam="2">  1       -2 0.13372064E+00 0.25796719E+04</pdfrwt>
<totfact> 0.10681740E+00</totfact>
</mgrwt>
</event>
<event>
12    4  0.4398275E-008  0.1863639E+04  0.7818608E-02  0.8673170E-01
          3   -1    0    0  501    0  0.00000000000E+00  0.00000000000E+00  0.91041781587E+03  0.91041781587E+03  0.00000000000E+00 0. -1.
         -4   -1    0    0    0  501 -0.00000000000E+00 -0.00000000000E+00 -0.95372462751E+03  0.95372462751E+03  0.00000000000E+00 0.  1.
        -24    2    1    2    0    0  0.12358273013E+02 -0.67238874683E+02  0.69183507657E+03  0.69971442445E+03  0.79313992704E+02 0.  0.
        254    2    1    2    0    0 -0.12358273013E+02  0.67238874683E+02 -0.73514188820E+03  0.11644280189E+04  0.90043612894E+03 0.  0.
         23    2    4    4    0    0  0.13066857997E+03  0.39183706984E+03 -0.10553229153E+03  0.43622590250E+03  0.92441367173E+02 0.  0.
         23    2    4    4    0    0 -0.14302685299E+03 -0.32459819515E+03 -0.62960959667E+03  0.72820211643E+03  0.89718499658E+02 0.  0.
          1    1    3    3  502    0  0.19579011738E+02 -0.30923227516E+02  0.96163118062E+02  0.10289280332E+03  0.00000000000E+00 0. -1.
         -2    1    3    3    0  502 -0.72207387245E+01 -0.36315647167E+02  0.59567195850E+03  0.59682162113E+03  0.00000000000E+00 0.  1.
         11    1    5    5    0    0  0.66097044014E+02  0.30072376908E+03 -0.51545047648E+02  0.31218663721E+03  0.00000000000E+00 0. -1.
        -11    1    5    5    0    0  0.64571535958E+02  0.91113300758E+02 -0.53987243883E+02  0.12403926529E+03  0.00000000000E+00 0.  1.
          1    1    6    6  503    0 -0.14447080725E+02 -0.14084759496E+03 -0.23944160258E+03  0.27817089027E+03  0.00000000000E+00 0. -1.
         -1    1    6    6    0  503 -0.12857977226E+03 -0.18375060019E+03 -0.39016799409E+03  0.45003122616E+03  0.00000000000E+00 0.  1.
<mgrwt>
<rscale>  0 0.18636393E+04</rscale>
<asrwt>0</asrwt>
<pdfrwt beam="1">  1        3 0.14006428E+00 0.18636393E+04</pdfrwt>
<pdfrwt beam="2">  1       -4 0.14672687E+00 0.18636393E+04</pdfrwt>
<totfact> 0.26190222E-01</totfact>
</mgrwt>
</event>
<event>
12    4  0.4398275E-008  0.3245140E+04  0.7818608E-02  0.8176997E-01
         -2   -1    0    0    0  501 -0.00000000000E+00  0.00000000000E+00  0.12353135498E+04  0.12353135498E+04  0.00000000000E+00 0.  1.
          1   -1    0    0  501    0  0.00000000000E+00 -0.00000000000E+00 -0.21312264301E+04  0.21312264301E+04  0.00000000000E+00 0. -1.
        -24    2    1    2    0    0  0.77071821031E+03 -0.60059387267E+03  0.76495035350E+03  0.12434272922E+04  0.79011569096E+02 0.  0.
        254    2    1    2    0    0 -0.77071821031E+03  0.60059387267E+03 -0.16608632338E+04  0.21231126877E+04  0.89130311554E+03 0.  0.
         23    2    4    4    0    0 -0.83633957911E+03  0.37040344420E+03 -0.16206003410E+04  0.18630606931E+04  0.89370453191E+02 0.  0.
         23    2    4    4    0    0  0.65621368804E+02  0.23019042847E+03 -0.40262892823E+02  0.26005199462E+03  0.93338855600E+02 0.  0.
          1    1    3    3  502    0  0.10270269163E+03 -0.55366698109E+02  0.70896287555E+02  0.13652691206E+03  0.00000000000E+00 0. -1.
         -2    1    3    3    0  502  0.66801551868E+03 -0.54522717456E+03  0.69405406594E+03  0.11069003801E+04  0.00000000000E+00 0.  1.
         11    1    5    5    0    0 -0.76366260409E+03  0.35783090696E+03 -0.15205442965E+04  0.17387577429E+04  0.00000000000E+00 0.  1.
        -11    1    5    5    0    0 -0.72676975028E+02  0.12572537235E+02 -0.10005604450E+03  0.12430295022E+03  0.00000000000E+00 0. -1.
          4    1    6    6  503    0 -0.13883935454E+02  0.78598839835E+02 -0.39086374640E+02  0.88872301476E+02  0.00000000000E+00 0. -1.
         -4    1    6    6    0  503  0.79505304258E+02  0.15159158864E+03 -0.11765181833E+01  0.17117969315E+03  0.00000000000E+00 0.  1.
<mgrwt>
<rscale>  0 0.32451397E+04</rscale>
<asrwt>0</asrwt>
<pdfrwt beam="1">  1        1 0.32788099E+00 0.32451397E+04</pdfrwt>
<pdfrwt beam="2">  1       -2 0.19004824E+00 0.32451397E+04</pdfrwt>
<totfact> 0.27549518E-01</totfact>
</mgrwt>
</event>
<event>
12    4  0.4398275E-008  0.1732038E+04  0.7818608E-02  0.8743300E-01
          1   -1    0    0  501    0  0.00000000000E+00  0.00000000000E+00  0.33941553249E+04  0.33941553249E+04  0.00000000000E+00 0. -1.
         -2   -1    0    0    0  501 -0.00000000000E+00 -0.00000000000E+00 -0.22096471077E+03  0.22096471077E+03  0.00000000000E+00 0.  1.
        -24    2    1    2    0    0 -0.23584000496E+03 -0.21834253705E+03  0.31148675442E+02  0.33201476170E+03  0.77263125637E+02 0.  0.
        254    2    1    2    0    0  0.23584000496E+03  0.21834253705E+03  0.31420419387E+04  0.32831052740E+04  0.89613543846E+03 0.  0.
         23    2    4    4    0    0  0.25127865272E+03  0.49845836833E+03  0.26496374293E+04  0.27092795406E+04  0.89528857255E+02 0.  0.
         23    2    4    4    0    0 -0.15438647762E+02 -0.28011583128E+03  0.49240450943E+03  0.57382573337E+03  0.90058539843E+02 0.  0.
          3    1    3    3  502    0 -0.14995238246E+01 -0.60061238373E+01 -0.11361976839E+02  0.12938957182E+02  0.00000000000E+00 0. -1.
         -4    1    3    3    0  502 -0.23434048113E+03 -0.21233641321E+03  0.42510652281E+02  0.31907580452E+03  0.00000000000E+00 0.  1.
         11    1    5    5    0    0  0.21164329635E+03  0.33031850684E+03  0.17988276270E+04  0.18411094570E+04  0.00000000000E+00 0.  1.
        -11    1    5    5    0    0  0.39635356368E+02  0.16813986148E+03  0.85080980229E+03  0.86817008366E+03  0.00000000000E+00 0. -1.
          1    1    6    6  503    0  0.29665344622E+02 -0.17474673321E+03  0.25963425317E+03  0.31436666308E+03  0.00000000000E+00 0. -1.
         -1    1    6    6    0  503 -0.45103992384E+02 -0.10536909807E+03  0.23277025626E+03  0.25945907029E+03  0.00000000000E+00 0.  1.
<mgrwt>
<rscale>  0 0.17320376E+04</rscale>
<asrwt>0</asrwt>
<pdfrwt beam="1">  1        1 0.52217770E+00 0.17320376E+04</pdfrwt>
<pdfrwt beam="2">  1       -2 0.33994573E-01 0.17320376E+04</pdfrwt>
<totfact> 0.20547720E+00</totfact>
</mgrwt>
</event>
<event>
12    4  0.4398275E-008  0.1224145E+04  0.7818608E-02  0.9091981E-01
          1   -1    0    0  501    0  0.00000000000E+00  0.00000000000E+00  0.91452508938E+03  0.91452508938E+03  0.00000000000E+00 0. -1.
         -2   -1    0    0    0  501 -0.00000000000E+00 -0.00000000000E+00 -0.40964751803E+03  0.40964751803E+03  0.00000000000E+00 0.  1.
        -24    2    1    2    0    0  0.19908834541E+03  0.58255288100E+02  0.30204149988E+03  0.37485929564E+03  0.79123801789E+02 0.  0.
        254    2    1    2    0    0 -0.19908834541E+03 -0.58255288100E+02  0.20283607147E+03  0.94931331177E+03  0.90389349159E+03 0.  0.
         23    2    4    4    0    0 -0.29668010316E+03 -0.40598141633E+03  0.25657843218E+03  0.57301587171E+03  0.98360069934E+02 0.  0.
         23    2    4    4    0    0  0.97591757749E+02  0.34772612823E+03 -0.53742360711E+02  0.37629744006E+03  0.90961039047E+02 0.  0.
          3    1    3    3  502    0  0.18600125554E+03  0.61354535975E+02  0.23237365831E+03  0.30390518789E+03  0.00000000000E+00 0. -1.
         -4    1    3    3    0  502  0.13087089868E+02 -0.30992478744E+01  0.69667841561E+02  0.70954107749E+02  0.00000000000E+00 0.  1.
         11    1    5    5    0    0 -0.18234089771E+02 -0.17591682779E+02  0.42249644716E+02  0.49264407145E+02  0.00000000000E+00 0. -1.
        -11    1    5    5    0    0 -0.27844601339E+03 -0.38838973355E+03  0.21432878747E+03  0.52375146456E+03  0.00000000000E+00 0.  1.
          2    1    6    6  503    0  0.88718661451E+01  0.45271029775E+00  0.87433109524E+01  0.12464366888E+02  0.00000000000E+00 0. -1.
         -2    1    6    6    0  503  0.88719891603E+02  0.34727341793E+03 -0.62485671663E+02  0.36383307317E+03  0.00000000000E+00 0.  1.
<mgrwt>
<rscale>  0 0.12241453E+04</rscale>
<asrwt>0</asrwt>
<pdfrwt beam="1">  1        1 0.14069617E+00 0.12241453E+04</pdfrwt>
<pdfrwt beam="2">  1       -2 0.63022695E-01 0.12241453E+04</pdfrwt>
<totfact> 0.35770443E+01</totfact>
</mgrwt>
</event>
<event>
12    4  0.4398275E-008  0.1238847E+04  0.7818608E-02  0.9079517E-01
          1   -1    0    0  501    0  0.00000000000E+00  0.00000000000E+00  0.17674314104E+04  0.17674314104E+04  0.00000000000E+00 0. -1.
         -2   -1    0    0    0  501 -0.00000000000E+00 -0.00000000000E+00 -0.21708645821E+03  0.21708645821E+03  0.00000000000E+00 0.  1.
        -24    2    1    2    0    0  0.10813739704E+03  0.13840483435E+03  0.79220390064E+01  0.19346114394E+03  0.80714687023E+02 0.  0.
        254    2    1    2    0    0 -0.10813739704E+03 -0.13840483435E+03  0.15424229131E+04  0.17910567246E+04  0.89328951242E+03 0.  0.
         23    2    4    4    0    0 -0.11083309530E+02 -0.47390121386E+03  0.11953529226E+04  0.12891013425E+04  0.90600560067E+02 0.  0.
         23    2    4    4    0    0 -0.97054087510E+02  0.33549637950E+03  0.34706999052E+03  0.50195538208E+03  0.97592575088E+02 0.  0.
          3    1    3    3  502    0  0.52278098830E+02  0.56458074614E+02  0.43147420446E+02  0.88216856085E+02  0.00000000000E+00 0. -1.
         -4    1    3    3    0  502  0.55859298211E+02  0.81946759741E+02 -0.35225381440E+02  0.10524428786E+03  0.00000000000E+00 0.  1.
         11    1    5    5    0    0  0.18911941397E+02 -0.31256761884E+03  0.87142661030E+03  0.92598083944E+03  0.00000000000E+00 0. -1.
        -11    1    5    5    0    0 -0.29995250927E+02 -0.16133359501E+03  0.32392631232E+03  0.36312050310E+03  0.00000000000E+00 0.  1.
          3    1    6    6  503    0 -0.98067836758E+02  0.33016035259E+03  0.35349638962E+03  0.49354113962E+03  0.00000000000E+00 0. -1.
         -3    1    6    6    0  503  0.10137492481E+01  0.53360269118E+01 -0.64263990936E+01  0.84142424527E+01  0.00000000000E+00 0.  1.
<mgrwt>
<rscale>  0 0.12388469E+04</rscale>
<asrwt>0</asrwt>
<pdfrwt beam="1">  1        1 0.27191252E+00 0.12388469E+04</pdfrwt>
<pdfrwt beam="2">  1       -2 0.33397918E-01 0.12388469E+04</pdfrwt>
<totfact> 0.31129835E+01</totfact>
</mgrwt>
</event>
<event>
12    4  0.4398275E-008  0.1937406E+04  0.7818608E-02  0.8636458E-01
          1   -1    0    0  501    0  0.00000000000E+00  0.00000000000E+00  0.35784768896E+04  0.35784768896E+04  0.00000000000E+00 0. -1.
         -2   -1    0    0    0  501 -0.00000000000E+00 -0.00000000000E+00 -0.26223041560E+03  0.26223041560E+03  0.00000000000E+00 0.  1.
        -24    2    1    2    0    0  0.69545046998E+03  0.41305834781E+01  0.71780144670E+03  0.10026614521E+04  0.80141454596E+02 0.  0.
        254    2    1    2    0    0 -0.69545046998E+03 -0.41305834781E+01  0.25984450273E+04  0.28380458531E+04  0.90494159286E+03 0.  0.
         23    2    4    4    0    0 -0.25226984130E+03 -0.39299607885E+03  0.68816116161E+03  0.83678453920E+03  0.92501837116E+02 0.  0.
         23    2    4    4    0    0 -0.44318062868E+03  0.38886549537E+03  0.19102838657E+04  0.20012613139E+04  0.90757676812E+02 0.  0.
          3    1    3    3  502    0  0.66215802929E+03  0.25721197626E+01  0.70432019445E+03  0.96670926749E+03  0.00000000000E+00 0. -1.
         -4    1    3    3    0  502  0.33292440688E+02  0.15584637155E+01  0.13481252252E+02  0.35952184613E+02  0.00000000000E+00 0.  1.
         11    1    5    5    0    0 -0.74132504048E+02 -0.14284581835E+03  0.31308504800E+03  0.35202670816E+03  0.00000000000E+00 0.  1.
        -11    1    5    5    0    0 -0.17813733725E+03 -0.25015026050E+03  0.37507611361E+03  0.48475783104E+03  0.00000000000E+00 0. -1.
          2    1    6    6  503    0 -0.25899060999E+03  0.27510046717E+03  0.11294818804E+04  0.11910019821E+04  0.00000000000E+00 0. -1.
         -2    1    6    6    0  503 -0.18419001869E+03  0.11376502820E+03  0.78080198529E+03  0.81025933185E+03  0.00000000000E+00 0.  1.
<mgrwt>
<rscale>  0 0.19374060E+04</rscale>
<asrwt>0</asrwt>
<pdfrwt beam="1">  1        1 0.55053487E+00 0.19374060E+04</pdfrwt>
<pdfrwt beam="2">  1       -2 0.40343143E-01 0.19374060E+04</pdfrwt>
<totfact> 0.10372733E+00</totfact>
</mgrwt>
</event>
<event>
12    4  0.4398275E-008  0.1792287E+04  0.7818608E-02  0.8710412E-01
          1   -1    0    0  501    0  0.00000000000E+00  0.00000000000E+00  0.13497363074E+04  0.13497363074E+04  0.00000000000E+00 0. -1.
         -2   -1    0    0    0  501 -0.00000000000E+00 -0.00000000000E+00 -0.59498533251E+03  0.59498533251E+03  0.00000000000E+00 0.  1.
        -24    2    1    2    0    0  0.29748733001E+03 -0.18957880649E+02  0.93161798821E+03  0.98138435289E+03  0.79655881091E+02 0.  0.
        254    2    1    2    0    0 -0.29748733001E+03  0.18957880649E+02 -0.17686701327E+03  0.96333728707E+03  0.89882071378E+03 0.  0.
         23    2    4    4    0    0 -0.18015425004E+03 -0.32184572444E+03 -0.38193640698E+03  0.53862925296E+03  0.90586031020E+02 0.  0.
         23    2    4    4    0    0 -0.11733307997E+03  0.34080360509E+03  0.20506939371E+03  0.42470803411E+03  0.91702285136E+02 0.  0.
          3    1    3    3  502    0  0.26687172695E+03 -0.36969649955E+02  0.86359267915E+03  0.90464334914E+03  0.00000000000E+00 0. -1.
         -4    1    3    3    0  502  0.30615603057E+02  0.18011769306E+02  0.68025309057E+02  0.76741003749E+02  0.00000000000E+00 0.  1.
         11    1    5    5    0    0 -0.12929781568E+03 -0.22656050233E+03 -0.32433441219E+03  0.41622157235E+03  0.00000000000E+00 0. -1.
        -11    1    5    5    0    0 -0.50856434359E+02 -0.95285222112E+02 -0.57601994788E+02  0.12240768061E+03  0.00000000000E+00 0.  1.
          1    1    6    6  503    0 -0.75943748751E+02  0.31255263112E+03  0.18161962383E+03  0.36938095234E+03  0.00000000000E+00 0. -1.
         -1    1    6    6    0  503 -0.41389331220E+02  0.28250973977E+02  0.23449769884E+02  0.55327081769E+02  0.00000000000E+00 0.  1.
<mgrwt>
<rscale>  0 0.17922871E+04</rscale>
<asrwt>0</asrwt>
<pdfrwt beam="1">  1        1 0.20765174E+00 0.17922871E+04</pdfrwt>
<pdfrwt beam="2">  1       -2 0.91536205E-01 0.17922871E+04</pdfrwt>
<totfact> 0.70188857E+00</totfact>
</mgrwt>
</event>
<event>
12    4  0.4398275E-008  0.2324150E+04  0.7818608E-02  0.8468459E-01
          1   -1    0    0  501    0  0.00000000000E+00  0.00000000000E+00  0.32575681723E+04  0.32575681723E+04  0.00000000000E+00 0. -1.
         -2   -1    0    0    0  501 -0.00000000000E+00 -0.00000000000E+00 -0.41454815518E+03  0.41454815518E+03  0.00000000000E+00 0.  1.
        -24    2    1    2    0    0  0.80462516715E+03 -0.18761828341E+03  0.36058253112E+03  0.90565921666E+03  0.87043524091E+02 0.  0.
        254    2    1    2    0    0 -0.80462516715E+03  0.18761828341E+03  0.24824374860E+04  0.27664571109E+04  0.89898097546E+03 0.  0.
         23    2    4    4    0    0 -0.53226178020E+03 -0.23819956197E+03  0.18995870166E+04  0.19893253775E+04  0.94567382287E+02 0.  0.
         23    2    4    4    0    0 -0.27236338695E+03  0.42581784538E+03  0.58285046940E+03  0.77713173336E+03  0.93361712269E+02 0.  0.
          3    1    3    3  502    0  0.50426809426E+03 -0.78809458263E+02  0.20078453015E+03  0.54846300618E+03  0.00000000000E+00 0. -1.
         -4    1    3    3    0  502  0.30035707289E+03 -0.10880882515E+03  0.15979800097E+03  0.35719621047E+03  0.00000000000E+00 0.  1.
         11    1    5    5    0    0 -0.14589026001E+01  0.53817911293E+01  0.89968211204E+01  0.10584652230E+02  0.00000000000E+00 0.  1.
        -11    1    5    5    0    0 -0.53080287760E+03 -0.24358135310E+03  0.18905901955E+04  0.19787407253E+04  0.00000000000E+00 0. -1.
          1    1    6    6  503    0 -0.21106921799E+03  0.26560165595E+03  0.34482827262E+03  0.48373649028E+03  0.00000000000E+00 0. -1.
         -1    1    6    6    0  503 -0.61294168962E+02  0.16021618944E+03  0.23802219677E+03  0.29339524308E+03  0.00000000000E+00 0.  1.
<mgrwt>
<rscale>  0 0.23241505E+04</rscale>
<asrwt>0</asrwt>
<pdfrwt beam="1">  1        1 0.50116432E+00 0.23241505E+04</pdfrwt>
<pdfrwt beam="2">  1       -2 0.63776641E-01 0.23241505E+04</pdfrwt>
<totfact> 0.69433532E-01</totfact>
</mgrwt>
</event>
<event>
12    4  0.4398275E-008  0.1148111E+04  0.7818608E-02  0.9159528E-01
          1   -1    0    0  501    0  0.00000000000E+00  0.00000000000E+00  0.88328908371E+03  0.88328908371E+03  0.00000000000E+00 0. -1.
         -2   -1    0    0    0  501 -0.00000000000E+00 -0.00000000000E+00 -0.37308237779E+03  0.37308237779E+03  0.00000000000E+00 0.  1.
        -24    2    1    2    0    0  0.86309575983E+02 -0.18057305422E+02 -0.11128967797E+03  0.16292875532E+03  0.79906055489E+02 0.  0.
        254    2    1    2    0    0 -0.86309575983E+02  0.18057305422E+02  0.62149638389E+03  0.10934427062E+04  0.89531211726E+03 0.  0.
         23    2    4    4    0    0 -0.23245421330E+03 -0.28909476522E+03  0.63564435501E+03  0.74140974534E+03  0.89632136317E+02 0.  0.
         23    2    4    4    0    0  0.14614463731E+03  0.30715207065E+03 -0.14147971126E+02  0.35203296083E+03  0.89590127293E+02 0.  0.
          1    1    3    3  502    0  0.67405779754E+01  0.15012239908E+02  0.58897158966E+01  0.17478314903E+02  0.00000000000E+00 0. -1.
         -2    1    3    3    0  502  0.79568998008E+02 -0.33069545330E+02 -0.11717939387E+03  0.14545044042E+03  0.00000000000E+00 0.  1.
         11    1    5    5    0    0 -0.22875352311E+03 -0.25721987264E+03  0.53864798160E+03  0.63924321295E+03  0.00000000000E+00 0.  1.
        -11    1    5    5    0    0 -0.37006901832E+01 -0.31874892584E+02  0.96996373416E+02  0.10216653239E+03  0.00000000000E+00 0. -1.
          1    1    6    6  503    0  0.23875137977E+02  0.31986318861E+01 -0.22434064771E+01  0.24192691706E+02  0.00000000000E+00 0. -1.
         -1    1    6    6    0  503  0.12226949934E+03  0.30395343876E+03 -0.11904564649E+02  0.32784026913E+03  0.00000000000E+00 0.  1.
<mgrwt>
<rscale>  0 0.11481108E+04</rscale>
<asrwt>0</asrwt>
<pdfrwt beam="1">  1        1 0.13589063E+00 0.11481108E+04</pdfrwt>
<pdfrwt beam="2">  1       -2 0.57397289E-01 0.11481108E+04</pdfrwt>
<totfact> 0.46502838E+01</totfact>
</mgrwt>
</event>
<event>
12    4  0.4398275E-008  0.2083956E+04  0.7818608E-02  0.8568344E-01
         -2   -1    0    0    0  501 -0.00000000000E+00  0.00000000000E+00  0.53002923998E+03  0.53002923998E+03  0.00000000000E+00 0.  1.
          1   -1    0    0  501    0  0.00000000000E+00 -0.00000000000E+00 -0.20484125341E+04  0.20484125341E+04  0.00000000000E+00 0. -1.
        -24    2    1    2    0    0 -0.10152136795E+02  0.74275025421E+03 -0.11193706448E+04  0.13457246038E+04  0.78759525843E+02 0.  0.
        254    2    1    2    0    0  0.10152136795E+02 -0.74275025421E+03 -0.39901264929E+03  0.12327171702E+04  0.89922161977E+03 0.  0.
         23    2    4    4    0    0  0.17549989088E+03 -0.89110948143E+03 -0.23736010340E+03  0.94348720587E+03  0.94614847464E+02 0.  0.
         23    2    4    4    0    0 -0.16534775409E+03  0.14835922722E+03 -0.16165254588E+03  0.28922996435E+03  0.90399594054E+02 0.  0.
          1    1    3    3  502    0  0.90631557059E+01  0.18135374444E+02 -0.48731777646E+02  0.52780855905E+02  0.00000000000E+00 0. -1.
         -2    1    3    3    0  502 -0.19215292501E+02  0.72461487976E+03 -0.10706388671E+04  0.12929437479E+04  0.00000000000E+00 0.  1.
         11    1    5    5    0    0 -0.96396098903E+01 -0.87063082639E+02 -0.31712525395E+02  0.93158932499E+02  0.00000000000E+00 0. -1.
        -11    1    5    5    0    0  0.18513950077E+03 -0.80404639879E+03 -0.20564757801E+03  0.85032827337E+03  0.00000000000E+00 0.  1.
          4    1    6    6  503    0 -0.36725720355E+02  0.85305343209E+02 -0.39317470886E+02  0.10085456674E+03  0.00000000000E+00 0. -1.
         -4    1    6    6    0  503 -0.12862203373E+03  0.63053884012E+02 -0.12233507500E+03  0.18837539761E+03  0.00000000000E+00 0.  1.
<mgrwt>
<rscale>  0 0.20839564E+04</rscale>
<asrwt>0</asrwt>
<pdfrwt beam="1">  1        1 0.31514039E+00 0.20839564E+04</pdfrwt>
<pdfrwt beam="2">  1       -2 0.81542960E-01 0.20839564E+04</pdfrwt>
<totfact> 0.29587870E+00</totfact>
</mgrwt>
</event>
<event>
12    4  0.4398275E-008  0.1820089E+04  0.7818608E-02  0.8695689E-01
         -2   -1    0    0    0  501 -0.00000000000E+00  0.00000000000E+00  0.10003594389E+04  0.10003594389E+04  0.00000000000E+00 0.  1.
          1   -1    0    0  501    0  0.00000000000E+00 -0.00000000000E+00 -0.82788375169E+03  0.82788375169E+03  0.00000000000E+00 0. -1.
        -24    2    1    2    0    0  0.49686330498E+02  0.24177782116E+03  0.70275134484E+03  0.74907587047E+03  0.79561050784E+02 0.  0.
        254    2    1    2    0    0 -0.49686330498E+02 -0.24177782116E+03 -0.53027565764E+03  0.10791673201E+04  0.90690935900E+03 0.  0.
         23    2    4    4    0    0 -0.16754858415E+03  0.31122350203E+03 -0.22837822544E+03  0.43165160192E+03  0.96093159585E+02 0.  0.
         23    2    4    4    0    0  0.11786225365E+03 -0.55300132319E+03 -0.30189743220E+03  0.64751571818E+03  0.91829033745E+02 0.  0.
          1    1    3    3  502    0 -0.46216113907E+01 -0.14640920743E+00  0.89330024206E+00  0.47094280784E+01  0.00000000000E+00 0. -1.
         -2    1    3    3    0  502  0.54307941889E+02  0.24192423037E+03  0.70185804460E+03  0.74436644239E+03  0.00000000000E+00 0.  1.
         11    1    5    5    0    0 -0.72844799776E+02  0.18502467993E+03 -0.77729439630E+02  0.21350026422E+03  0.00000000000E+00 0.  1.
        -11    1    5    5    0    0 -0.94703784376E+02  0.12619882210E+03 -0.15064878581E+03  0.21815133770E+03  0.00000000000E+00 0. -1.
          1    1    6    6  503    0  0.11253754562E+03 -0.48611701465E+03 -0.23082959231E+03  0.54977882079E+03  0.00000000000E+00 0. -1.
         -1    1    6    6    0  503  0.53247080347E+01 -0.66884308538E+02 -0.71067839894E+02  0.97736897390E+02  0.00000000000E+00 0.  1.
<mgrwt>
<rscale>  0 0.18200894E+04</rscale>
<asrwt>0</asrwt>
<pdfrwt beam="1">  1        1 0.12736673E+00 0.18200894E+04</pdfrwt>
<pdfrwt beam="2">  1       -2 0.15390145E+00 0.18200894E+04</pdfrwt>
<totfact> 0.48280791E+00</totfact>
</mgrwt>
</event>
<event>
12    4  0.4398275E-008  0.1948848E+04  0.7818608E-02  0.8630916E-01
         -2   -1    0    0    0  501 -0.00000000000E+00  0.00000000000E+00  0.74810418403E+03  0.74810418403E+03  0.00000000000E+00 0.  1.
          1   -1    0    0  501    0  0.00000000000E+00 -0.00000000000E+00 -0.12692113545E+04  0.12692113545E+04  0.00000000000E+00 0. -1.
        -24    2    1    2    0    0 -0.35549703504E+03  0.38626231387E+03 -0.75963704510E+03  0.92678006416E+03  0.79348156821E+02 0.  0.
        254    2    1    2    0    0  0.35549703504E+03 -0.38626231387E+03  0.23852987466E+03  0.10905354744E+04  0.92563189372E+03 0.  0.
         23    2    4    4    0    0  0.15180947656E+03  0.10610132948E+03  0.46121983228E+03  0.50567828071E+03  0.93183585492E+02 0.  0.
         23    2    4    4    0    0  0.20368755847E+03 -0.49236364335E+03 -0.22268995762E+03  0.58485719364E+03  0.92501572695E+02 0.  0.
          1    1    3    3  502    0 -0.30373410823E+03  0.28469173918E+03 -0.61422516654E+03  0.74200832210E+03  0.00000000000E+00 0. -1.
         -2    1    3    3    0  502 -0.51762926806E+02  0.10157057469E+03 -0.14541187856E+03  0.18477174205E+03  0.00000000000E+00 0.  1.
         11    1    5    5    0    0  0.52123915477E+02  0.29883323735E+01  0.21008804145E+03  0.21647821566E+03  0.00000000000E+00 0.  1.
        -11    1    5    5    0    0  0.99685561087E+02  0.10311299711E+03  0.25113179083E+03  0.28920006505E+03  0.00000000000E+00 0. -1.
          2    1    6    6  503    0  0.13597178682E+03 -0.29028171240E+03 -0.17954807047E+03  0.36740891249E+03  0.00000000000E+00 0. -1.
         -2    1    6    6    0  503  0.67715771648E+02 -0.20208193095E+03 -0.43141887150E+02  0.21744828115E+03  0.00000000000E+00 0.  1.
<mgrwt>
<rscale>  0 0.19488482E+04</rscale>
<asrwt>0</asrwt>
<pdfrwt beam="1">  1        1 0.19526328E+00 0.19488482E+04</pdfrwt>
<pdfrwt beam="2">  1       -2 0.11509295E+00 0.19488482E+04</pdfrwt>
<totfact> 0.45786568E+00</totfact>
</mgrwt>
</event>
<event>
12    4  0.4398275E-008  0.1578903E+04  0.7818608E-02  0.8833615E-01
          1   -1    0    0  501    0  0.00000000000E+00  0.00000000000E+00  0.40935642993E+03  0.40935642993E+03  0.00000000000E+00 0. -1.
         -2   -1    0    0    0  501 -0.00000000000E+00 -0.00000000000E+00 -0.15224709890E+04  0.15224709890E+04  0.00000000000E+00 0.  1.
        -24    2    1    2    0    0  0.41810916072E+03 -0.22406607976E+03 -0.93792744515E+02  0.49070996888E+03  0.83536317043E+02 0.  0.
        254    2    1    2    0    0 -0.41810916072E+03  0.22406607976E+03 -0.10193218146E+04  0.14411174501E+04  0.90154404488E+03 0.  0.
         23    2    4    4    0    0  0.20333659511E+03  0.28581563544E+03 -0.22712397871E+03  0.42827317420E+03  0.93788387673E+02 0.  0.
         23    2    4    4    0    0 -0.62144575583E+03 -0.61749555679E+02 -0.79219783589E+03  0.10128442759E+04  0.90930088235E+02 0.  0.
          1    1    3    3  502    0  0.19516158731E+03 -0.14712353531E+03 -0.28985440452E+02  0.24611691442E+03  0.00000000000E+00 0. -1.
         -2    1    3    3    0  502  0.22294757340E+03 -0.76942544446E+02 -0.64807304063E+02  0.24459305446E+03  0.00000000000E+00 0.  1.
         11    1    5    5    0    0  0.15753065656E+03  0.16343441290E+03 -0.10769813258E+03  0.25124809022E+03  0.00000000000E+00 0. -1.
        -11    1    5    5    0    0  0.45805938558E+02  0.12238122254E+03 -0.11942584613E+03  0.17702508399E+03  0.00000000000E+00 0.  1.
          3    1    6    6  503    0 -0.61304431431E+03 -0.48901911419E+02 -0.77970014111E+03  0.99304936348E+03  0.00000000000E+00 0. -1.
         -3    1    6    6    0  503 -0.84014415157E+01 -0.12847644260E+02 -0.12497694775E+02  0.19794912409E+02  0.00000000000E+00 0.  1.
<mgrwt>
<rscale>  0 0.15789025E+04</rscale>
<asrwt>0</asrwt>
<pdfrwt beam="1">  1        1 0.62977914E-01 0.15789025E+04</pdfrwt>
<pdfrwt beam="2">  1       -2 0.23422630E+00 0.15789025E+04</pdfrwt>
<totfact> 0.39318563E+00</totfact>
</mgrwt>
</event>
<event>
12    4  0.4398275E-008  0.1091251E+04  0.7818608E-02  0.9213762E-01
          1   -1    0    0  501    0  0.00000000000E+00  0.00000000000E+00  0.89498571123E+03  0.89498571123E+03  0.00000000000E+00 0. -1.
         -2   -1    0    0    0  501 -0.00000000000E+00 -0.00000000000E+00 -0.33263883642E+03  0.33263883642E+03  0.00000000000E+00 0.  1.
        -24    2    1    2    0    0 -0.14666131866E+03 -0.48276786274E+00  0.58885484679E+02  0.17925488155E+03  0.84587450602E+02 0.  0.
        254    2    1    2    0    0  0.14666131866E+03  0.48276786274E+00  0.50346139013E+03  0.10483696661E+04  0.90779722955E+03 0.  0.
         23    2    4    4    0    0 -0.69192330665E+01 -0.34109165071E+03  0.55699182775E+03  0.65982944241E+03  0.93507256019E+02 0.  0.
         23    2    4    4    0    0  0.15358055172E+03  0.34157441858E+03 -0.53530437615E+02  0.38854022368E+03  0.88532075392E+02 0.  0.
          1    1    3    3  502    0 -0.69747956276E+02 -0.23919984399E+01  0.73045679942E+02  0.10102559289E+03  0.00000000000E+00 0. -1.
         -2    1    3    3    0  502 -0.76913362381E+02  0.19092305771E+01 -0.14160195263E+02  0.78229288659E+02  0.00000000000E+00 0.  1.
         11    1    5    5    0    0 -0.27399326170E+01 -0.16016232052E+01  0.47326313919E+02  0.47432609214E+02  0.00000000000E+00 0. -1.
        -11    1    5    5    0    0 -0.41793004494E+01 -0.33949002751E+03  0.50966551383E+03  0.61239683320E+03  0.00000000000E+00 0.  1.
          1    1    6    6  503    0 -0.48158288151E+01  0.33088269655E+02  0.12194894317E+02  0.35591308536E+02  0.00000000000E+00 0. -1.
         -1    1    6    6    0  503  0.15839638054E+03  0.30848614892E+03 -0.65725331932E+02  0.35294891515E+03  0.00000000000E+00 0.  1.
<mgrwt>
<rscale>  0 0.10912507E+04</rscale>
<asrwt>0</asrwt>
<pdfrwt beam="1">  1        1 0.13769011E+00 0.10912507E+04</pdfrwt>
<pdfrwt beam="2">  1       -2 0.51175206E-01 0.10912507E+04</pdfrwt>
<totfact> 0.57923124E+01</totfact>
</mgrwt>
</event>
<event>
12    4  0.4398275E-008  0.2478889E+04  0.7818608E-02  0.8410545E-01
         -2   -1    0    0    0  501 -0.00000000000E+00  0.00000000000E+00  0.10784612004E+04  0.10784612004E+04  0.00000000000E+00 0.  1.
          1   -1    0    0  501    0  0.00000000000E+00 -0.00000000000E+00 -0.14244582199E+04  0.14244582199E+04  0.00000000000E+00 0. -1.
        -24    2    1    2    0    0 -0.57755282619E+03  0.64074423974E+03  0.49932122757E+03  0.99924046682E+03  0.70988551313E+02 0.  0.
        254    2    1    2    0    0  0.57755282619E+03 -0.64074423974E+03 -0.84531824702E+03  0.15036789535E+04  0.89574941174E+03 0.  0.
         23    2    4    4    0    0  0.36278179576E+03  0.11114085111E+03 -0.65453850667E+02  0.39551769052E+03  0.90482687986E+02 0.  0.
         23    2    4    4    0    0  0.21477103043E+03 -0.75188509085E+03 -0.77986439635E+03  0.11081612630E+04  0.91515696462E+02 0.  0.
          1    1    3    3  502    0 -0.31455152472E+03  0.35300406946E+03  0.23284965775E+03  0.52704221640E+03  0.00000000000E+00 0. -1.
         -2    1    3    3    0  502 -0.26300130147E+03  0.28774017028E+03  0.26647156982E+03  0.47219825041E+03  0.00000000000E+00 0.  1.
         11    1    5    5    0    0  0.29583339160E+03  0.61365621324E+02 -0.26039781967E+02  0.30325105987E+03  0.00000000000E+00 0.  1.
        -11    1    5    5    0    0  0.66948404157E+02  0.49775229787E+02 -0.39414068700E+02  0.92266630647E+02  0.00000000000E+00 0. -1.
          3    1    6    6  503    0  0.82956057098E+01 -0.20697051196E+02 -0.48019407836E+01  0.22808849984E+02  0.00000000000E+00 0. -1.
         -3    1    6    6    0  503  0.20647542472E+03 -0.73118803966E+03 -0.77506245557E+03  0.10853524130E+04  0.00000000000E+00 0.  1.
<mgrwt>
<rscale>  0 0.24788892E+04</rscale>
<asrwt>0</asrwt>
<pdfrwt beam="1">  1        1 0.21914742E+00 0.24788892E+04</pdfrwt>
<pdfrwt beam="2">  1       -2 0.16591711E+00 0.24788892E+04</pdfrwt>
<totfact> 0.13157439E+00</totfact>
</mgrwt>
</event>
<event>
12    4  0.4398275E-008  0.1895677E+04  0.7818608E-02  0.8657011E-01
          1   -1    0    0  501    0  0.00000000000E+00  0.00000000000E+00  0.17906145150E+04  0.17906145150E+04  0.00000000000E+00 0. -1.
         -2   -1    0    0    0  501 -0.00000000000E+00 -0.00000000000E+00 -0.50172584695E+03  0.50172584695E+03  0.00000000000E+00 0.  1.
        -24    2    1    2    0    0  0.14089197865E+03  0.52110578458E+03  0.11007605576E+04  0.12286303420E+04  0.80354985667E+02 0.  0.
        254    2    1    2    0    0 -0.14089197865E+03 -0.52110578458E+03  0.18812811041E+03  0.10637100199E+04  0.89704238037E+03 0.  0.
         23    2    4    4    0    0 -0.11289047339E+03  0.21242266996E+03 -0.92526137537E+02  0.27264676034E+03  0.88924237984E+02 0.  0.
         23    2    4    4    0    0 -0.28001505258E+02 -0.73352845453E+03  0.28065424795E+03  0.79106325958E+03  0.90367006499E+02 0.  0.
          3    1    3    3  502    0  0.10245513241E+03  0.42505577631E+03  0.95000386262E+03  0.10457900392E+04  0.00000000000E+00 0. -1.
         -4    1    3    3    0  502  0.38436846236E+02  0.96050008262E+02  0.15075669497E+03  0.18284030277E+03  0.00000000000E+00 0.  1.
         11    1    5    5    0    0 -0.34160092571E+02  0.49697948769E+01 -0.14433905324E+02  0.37415884441E+02  0.00000000000E+00 0.  1.
        -11    1    5    5    0    0 -0.78730380818E+02  0.20745287508E+03 -0.78092232213E+02  0.23523087590E+03  0.00000000000E+00 0. -1.
          2    1    6    6  503    0 -0.45828202588E+02 -0.17857269552E+03  0.70867801739E+02  0.19751120743E+03  0.00000000000E+00 0. -1.
         -2    1    6    6    0  503  0.17826697331E+02 -0.55495575901E+03  0.20978644621E+03  0.59355205215E+03  0.00000000000E+00 0.  1.
<mgrwt>
<rscale>  0 0.18956767E+04</rscale>
<asrwt>0</asrwt>
<pdfrwt beam="1">  1        1 0.27547915E+00 0.18956767E+04</pdfrwt>
<pdfrwt beam="2">  1       -2 0.77188593E-01 0.18956767E+04</pdfrwt>
<totfact> 0.50882250E+00</totfact>
</mgrwt>
</event>
<event>
12    4  0.4398275E-008  0.1299551E+04  0.7818608E-02  0.9029921E-01
         -2   -1    0    0    0  501 -0.00000000000E+00  0.00000000000E+00  0.33738726873E+03  0.33738726873E+03  0.00000000000E+00 0.  1.
          1   -1    0    0  501    0  0.00000000000E+00 -0.00000000000E+00 -0.12514050642E+04  0.12514050642E+04  0.00000000000E+00 0. -1.
        -24    2    1    2    0    0 -0.62276949833E+02  0.32318810151E+03 -0.18612174401E+03  0.38574083770E+03  0.76326422961E+02 0.  0.
        254    2    1    2    0    0  0.62276949833E+02 -0.32318810151E+03 -0.72789605148E+03  0.12030514952E+04  0.89953947719E+03 0.  0.
         23    2    4    4    0    0 -0.25158804192E+03  0.49290801324E+01 -0.68834213368E+03  0.73795885092E+03  0.86299096026E+02 0.  0.
         23    2    4    4    0    0  0.31386499175E+03 -0.32811718164E+03 -0.39553917794E+02  0.46509264433E+03  0.92598798379E+02 0.  0.
          3    1    3    3  502    0  0.14705406394E+02  0.36351283315E+02 -0.34781920774E+02  0.52416092840E+02  0.00000000000E+00 0. -1.
         -4    1    3    3    0  502 -0.76982356227E+02  0.28683681819E+03 -0.15133982324E+03  0.33332474486E+03  0.00000000000E+00 0.  1.
         11    1    5    5    0    0 -0.16877316590E+03  0.58354299538E+01 -0.56255015195E+03  0.58735092341E+03  0.00000000000E+00 0. -1.
        -11    1    5    5    0    0 -0.82814876015E+02 -0.90634982137E+00 -0.12579198173E+03  0.15060792751E+03  0.00000000000E+00 0.  1.
          4    1    6    6  503    0  0.30874791722E+03 -0.33444246177E+03 -0.37548445350E+02  0.45671317297E+03  0.00000000000E+00 0. -1.
         -4    1    6    6    0  503  0.51170745344E+01  0.63252801272E+01 -0.20054724439E+01  0.83794713557E+01  0.00000000000E+00 0.  1.
<mgrwt>
<rscale>  0 0.12995509E+04</rscale>
<asrwt>0</asrwt>
<pdfrwt beam="1">  1        1 0.19252386E+00 0.12995509E+04</pdfrwt>
<pdfrwt beam="2">  1       -2 0.51905733E-01 0.12995509E+04</pdfrwt>
<totfact> 0.29610331E+01</totfact>
</mgrwt>
</event>
<event>
12    4  0.4398275E-008  0.1308838E+04  0.7818608E-02  0.9022585E-01
          1   -1    0    0  501    0  0.00000000000E+00  0.00000000000E+00  0.96513330699E+03  0.96513330699E+03  0.00000000000E+00 0. -1.
         -2   -1    0    0    0  501 -0.00000000000E+00 -0.00000000000E+00 -0.44373608923E+03  0.44373608923E+03  0.00000000000E+00 0.  1.
        -24    2    1    2    0    0  0.34409118029E+03  0.58455991277E+01  0.14116827287E+03  0.38042762750E+03  0.79773348409E+02 0.  0.
        254    2    1    2    0    0 -0.34409118029E+03 -0.58455991277E+01  0.38022894490E+03  0.10284417687E+04  0.89145135018E+03 0.  0.
         23    2    4    4    0    0  0.17243554260E+03 -0.41198036283E+02  0.45613711481E+03  0.49813063794E+03  0.92961123075E+02 0.  0.
         23    2    4    4    0    0 -0.51652672289E+03  0.35352437155E+02 -0.75908169915E+02  0.53031113078E+03  0.86128943440E+02 0.  0.
          1    1    3    3  502    0  0.33186434032E+03  0.11841873689E+02  0.14980508037E+03  0.36430170526E+03  0.00000000000E+00 0. -1.
         -2    1    3    3    0  502  0.12226839965E+02 -0.59962745612E+01 -0.86368075018E+01  0.16125922236E+02  0.00000000000E+00 0.  1.
         11    1    5    5    0    0  0.15245162094E+03 -0.37497802505E+02  0.45045206251E+03  0.47702687821E+03  0.00000000000E+00 0. -1.
        -11    1    5    5    0    0  0.19983921663E+02 -0.37002337786E+01  0.56850523026E+01  0.21103759730E+02  0.00000000000E+00 0.  1.
          3    1    6    6  503    0 -0.41648923243E+03  0.65221365098E+01 -0.87269433703E+02  0.42558403760E+03  0.00000000000E+00 0. -1.
         -3    1    6    6    0  503 -0.10003749046E+03  0.28830300646E+02  0.11361263787E+02  0.10472709318E+03  0.00000000000E+00 0.  1.
<mgrwt>
<rscale>  0 0.13088384E+04</rscale>
<asrwt>0</asrwt>
<pdfrwt beam="1">  1        1 0.14848205E+00 0.13088384E+04</pdfrwt>
<pdfrwt beam="2">  1       -2 0.68267091E-01 0.13088384E+04</pdfrwt>
<totfact> 0.27243974E+01</totfact>
</mgrwt>
</event>
<event>
12    4  0.4398275E-008  0.2163338E+04  0.7818608E-02  0.8533844E-01
          1   -1    0    0  501    0  0.00000000000E+00  0.00000000000E+00  0.91871136161E+03  0.91871136161E+03  0.00000000000E+00 0. -1.
         -2   -1    0    0    0  501 -0.00000000000E+00 -0.00000000000E+00 -0.12735315884E+04  0.12735315884E+04  0.00000000000E+00 0.  1.
        -24    2    1    2    0    0 -0.45981414273E+03 -0.14146159678E+03  0.61610763962E+03  0.78569872547E+03  0.79331169068E+02 0.  0.
        254    2    1    2    0    0  0.45981414273E+03  0.14146159678E+03 -0.97092786638E+03  0.14065442245E+04  0.89678609745E+03 0.  0.
         23    2    4    4    0    0  0.49119019229E+03  0.44369159285E+03 -0.48613687021E+03  0.82639176631E+03  0.92001414553E+02 0.  0.
         23    2    4    4    0    0 -0.31376049566E+02 -0.30222999607E+03 -0.48479099617E+03  0.58015245820E+03  0.96057991771E+02 0.  0.
          1    1    3    3  502    0 -0.43048129051E+03 -0.15177485313E+03  0.57454253189E+03  0.73379075251E+03  0.00000000000E+00 0. -1.
         -2    1    3    3    0  502 -0.29332852222E+02  0.10313256347E+02  0.41565107730E+02  0.51907972957E+02  0.00000000000E+00 0.  1.
         11    1    5    5    0    0  0.23742865902E+03  0.26632771905E+03 -0.22928499651E+03  0.42411605922E+03  0.00000000000E+00 0. -1.
        -11    1    5    5    0    0  0.25376153327E+03  0.17736387380E+03 -0.25685187370E+03  0.40227570710E+03  0.00000000000E+00 0.  1.
          2    1    6    6  503    0 -0.43974955205E+02 -0.20406069855E+03 -0.25222566671E+03  0.32740243177E+03  0.00000000000E+00 0. -1.
         -2    1    6    6    0  503  0.12598905640E+02 -0.98169297517E+02 -0.23256532946E+03  0.25275002643E+03  0.00000000000E+00 0.  1.
<mgrwt>
<rscale>  0 0.21633381E+04</rscale>
<asrwt>0</asrwt>
<pdfrwt beam="1">  1        1 0.14134021E+00 0.21633381E+04</pdfrwt>
<pdfrwt beam="2">  1       -2 0.19592794E+00 0.21633381E+04</pdfrwt>
<totfact> 0.19923649E+00</totfact>
</mgrwt>
</event>
<event>
12    4  0.4398275E-008  0.1655632E+04  0.7818608E-02  0.8787082E-01
         -2   -1    0    0    0  501 -0.00000000000E+00  0.00000000000E+00  0.35001698384E+03  0.35001698384E+03  0.00000000000E+00 0.  1.
          1   -1    0    0  501    0  0.00000000000E+00 -0.00000000000E+00 -0.19578450670E+04  0.19578450670E+04  0.00000000000E+00 0. -1.
        -24    2    1    2    0    0  0.14334900625E+02 -0.36359273288E+03  0.65416889190E+02  0.37576104176E+03  0.67170129778E+02 0.  0.
        254    2    1    2    0    0 -0.14334900625E+02  0.36359273288E+03 -0.16732449724E+04  0.19321010091E+04  0.89490804387E+03 0.  0.
         23    2    4    4    0    0 -0.19187271312E+03 -0.20358149196E+03 -0.93694054814E+03  0.98202488731E+03  0.90855526161E+02 0.  0.
         23    2    4    4    0    0  0.17753781250E+03  0.56717422485E+03 -0.73630442421E+03  0.95007612177E+03  0.85405830230E+02 0.  0.
          3    1    3    3  502    0  0.13897667249E+02 -0.26629613461E+03  0.77558911301E+02  0.27770877045E+03  0.00000000000E+00 0. -1.
         -4    1    3    3    0  502  0.43723337591E+00 -0.97296598274E+02 -0.12142022111E+02  0.98052271314E+02  0.00000000000E+00 0.  1.
         11    1    5    5    0    0 -0.29238217722E+02 -0.24413588768E+02 -0.26743280547E+03  0.27013182362E+03  0.00000000000E+00 0. -1.
        -11    1    5    5    0    0 -0.16263449540E+03 -0.17916790319E+03 -0.66950774267E+03  0.71189306369E+03  0.00000000000E+00 0.  1.
          1    1    6    6  503    0  0.37639293781E+02  0.67921407579E+02 -0.13822069192E+03  0.15854019591E+03  0.00000000000E+00 0. -1.
         -1    1    6    6    0  503  0.13989851872E+03  0.49925281727E+03 -0.59808373229E+03  0.79153592586E+03  0.00000000000E+00 0.  1.
<mgrwt>
<rscale>  0 0.16556316E+04</rscale>
<asrwt>0</asrwt>
<pdfrwt beam="1">  1        1 0.30120693E+00 0.16556316E+04</pdfrwt>
<pdfrwt beam="2">  1       -2 0.53848767E-01 0.16556316E+04</pdfrwt>
<totfact> 0.86732012E+00</totfact>
</mgrwt>
</event>
<event>
12    4  0.4398275E-008  0.1178118E+04  0.7818608E-02  0.9132229E-01
          1   -1    0    0  501    0  0.00000000000E+00  0.00000000000E+00  0.18828085486E+04  0.18828085486E+04  0.00000000000E+00 0. -1.
         -2   -1    0    0    0  501 -0.00000000000E+00 -0.00000000000E+00 -0.18429397782E+03  0.18429397782E+03  0.00000000000E+00 0.  1.
        -24    2    1    2    0    0  0.80826079005E+02 -0.21071659529E+03  0.31685381141E+03  0.39907083677E+03  0.89032894882E+02 0.  0.
        254    2    1    2    0    0 -0.80826079005E+02  0.21071659529E+03  0.13816607594E+04  0.16680316897E+04  0.90686764480E+03 0.  0.
         23    2    4    4    0    0 -0.34448396029E+02  0.55922472046E+03  0.91354472458E+03  0.10756027618E+04  0.91860532025E+02 0.  0.
         23    2    4    4    0    0 -0.46377682976E+02 -0.34850812516E+03  0.46811603483E+03  0.59242892794E+03  0.90722708389E+02 0.  0.
          3    1    3    3  502    0  0.78557324949E+02 -0.20769734318E+03  0.32293411067E+03  0.39191310198E+03  0.00000000000E+00 0. -1.
         -4    1    3    3    0  502  0.22687540558E+01 -0.30192521114E+01 -0.60802992555E+01  0.71577347893E+01  0.00000000000E+00 0.  1.
         11    1    5    5    0    0 -0.70771773281E+01  0.51933827440E+03  0.83683213765E+03  0.98491134439E+03  0.00000000000E+00 0. -1.
        -11    1    5    5    0    0 -0.27371218701E+02  0.39886446051E+02  0.76712586929E+02  0.90691417373E+02  0.00000000000E+00 0.  1.
          2    1    6    6  503    0 -0.22754746256E+02 -0.28994623963E+03  0.32577958043E+03  0.43671379114E+03  0.00000000000E+00 0. -1.
         -2    1    6    6    0  503 -0.23622936720E+02 -0.58561885532E+02  0.14233645440E+03  0.15571513680E+03  0.00000000000E+00 0.  1.
<mgrwt>
<rscale>  0 0.11781176E+04</rscale>
<asrwt>0</asrwt>
<pdfrwt beam="1">  1        1 0.28966284E+00 0.11781176E+04</pdfrwt>
<pdfrwt beam="2">  1       -2 0.28352921E-01 0.11781176E+04</pdfrwt>
<totfact> 0.35517267E+01</totfact>
</mgrwt>
</event>
<event>
12    4  0.4398275E-008  0.1377140E+04  0.7818608E-02  0.8970534E-01
          1   -1    0    0  501    0  0.00000000000E+00  0.00000000000E+00  0.15157419008E+04  0.15157419008E+04  0.00000000000E+00 0. -1.
         -2   -1    0    0    0  501 -0.00000000000E+00 -0.00000000000E+00 -0.31280322572E+03  0.31280322572E+03  0.00000000000E+00 0.  1.
        -24    2    1    2    0    0 -0.20045586799E+03 -0.14477643388E+03 -0.51109637738E+02  0.26501446272E+03  0.80484157230E+02 0.  0.
        254    2    1    2    0    0  0.20045586799E+03  0.14477643388E+03  0.12540483128E+04  0.15635306638E+04  0.90047109613E+03 0.  0.
         23    2    4    4    0    0  0.44788487602E+03 -0.17993343964E+03  0.49835539429E+03  0.69979005753E+03  0.91493828941E+02 0.  0.
         23    2    4    4    0    0 -0.24742900804E+03  0.32470987352E+03  0.75569291851E+03  0.86374060626E+03  0.91205437508E+02 0.  0.
          3    1    3    3  502    0 -0.10164747834E+03 -0.53155600313E+02  0.13640111799E+02  0.11551528188E+03  0.00000000000E+00 0. -1.
         -2    1    3    3    0  502 -0.98808389648E+02 -0.91620833566E+02 -0.64749749538E+02  0.14949918085E+03  0.00000000000E+00 0.  1.
         11    1    5    5    0    0  0.30937235412E+03 -0.12597216267E+03  0.28125835826E+03  0.43667665767E+03  0.00000000000E+00 0. -1.
        -11    1    5    5    0    0  0.13851252191E+03 -0.53961276970E+02  0.21709703603E+03  0.26311339987E+03  0.00000000000E+00 0.  1.
          2    1    6    6  503    0 -0.22644325831E+03  0.27146780423E+03  0.69833718983E+03  0.78271715752E+03  0.00000000000E+00 0. -1.
         -2    1    6    6    0  503 -0.20985749731E+02  0.53242069286E+02  0.57355728679E+02  0.81023448741E+02  0.00000000000E+00 0.  1.
<mgrwt>
<rscale>  0 0.13771405E+04</rscale>
<asrwt>0</asrwt>
<pdfrwt beam="1">  1        1 0.23319106E+00 0.13771405E+04</pdfrwt>
<pdfrwt beam="2">  1       -2 0.48123574E-01 0.13771405E+04</pdfrwt>
<totfact> 0.22366437E+01</totfact>
</mgrwt>
</event>
<event>
12    4  0.4398275E-008  0.1550792E+04  0.7818608E-02  0.8851362E-01
         -4   -1    0    0    0  501 -0.00000000000E+00  0.00000000000E+00  0.20379247777E+04  0.20379247777E+04  0.00000000000E+00 0.  1.
          3   -1    0    0  501    0  0.00000000000E+00 -0.00000000000E+00 -0.29502512174E+03  0.29502512174E+03  0.00000000000E+00 0. -1.
        -24    2    1    2    0    0 -0.13065284275E+03  0.16992027848E+03 -0.11988337401E+03  0.25797488353E+03  0.78968036647E+02 0.  0.
        254    2    1    2    0    0  0.13065284275E+03 -0.16992027848E+03  0.18627830299E+04  0.20749750159E+04  0.88860431778E+03 0.  0.
         23    2    4    4    0    0  0.63769232835E+02 -0.15105992810E+03  0.19294734902E+04  0.19389123016E+04  0.98119046228E+02 0.  0.
         23    2    4    4    0    0  0.66883609917E+02 -0.18860350375E+02 -0.66690460252E+02  0.13606271423E+03  0.96105747093E+02 0.  0.
          1    1    3    3  502    0 -0.10625929966E+03  0.13453384670E+03 -0.54801972574E+02  0.17998236266E+03  0.00000000000E+00 0. -1.
         -2    1    3    3    0  502 -0.24393543097E+02  0.35386431771E+02 -0.65081401432E+02  0.77992520864E+02  0.00000000000E+00 0.  1.
         11    1    5    5    0    0 -0.21324957627E+02 -0.13041229761E+02  0.15015670039E+03  0.15222306712E+03  0.00000000000E+00 0.  1.
        -11    1    5    5    0    0  0.85094190462E+02 -0.13801869834E+03  0.17793167898E+04  0.17866892345E+04  0.00000000000E+00 0. -1.
          4    1    6    6  503    0  0.40983208828E+02 -0.64271585922E+01 -0.89977557190E+02  0.99080232999E+02  0.00000000000E+00 0. -1.
         -4    1    6    6    0  503  0.25900401089E+02 -0.12433191783E+02  0.23287096937E+02  0.36982481235E+02  0.00000000000E+00 0.  1.
<mgrwt>
<rscale>  0 0.15507921E+04</rscale>
<asrwt>0</asrwt>
<pdfrwt beam="1">  1        3 0.45388482E-01 0.15507921E+04</pdfrwt>
<pdfrwt beam="2">  1       -4 0.31352688E+00 0.15507921E+04</pdfrwt>
<totfact> 0.27169651E-01</totfact>
</mgrwt>
</event>
<event>
12    4  0.4398275E-008  0.1359914E+04  0.7818608E-02  0.8983357E-01
         -2   -1    0    0    0  501 -0.00000000000E+00  0.00000000000E+00  0.32727049752E+03  0.32727049752E+03  0.00000000000E+00 0.  1.
          1   -1    0    0  501    0  0.00000000000E+00 -0.00000000000E+00 -0.14127206598E+04  0.14127206598E+04  0.00000000000E+00 0. -1.
        -24    2    1    2    0    0  0.17319523961E+03 -0.15880691981E+03 -0.69235627694E+03  0.73442771774E+03  0.69358702221E+02 0.  0.
        254    2    1    2    0    0 -0.17319523961E+03  0.15880691981E+03 -0.39309388532E+03  0.10055634395E+04  0.89521997267E+03 0.  0.
         23    2    4    4    0    0 -0.24190593258E+03 -0.30307769170E+03 -0.17187380659E+02  0.39870874541E+03  0.91097146999E+02 0.  0.
         23    2    4    4    0    0  0.68710692972E+02  0.46188461151E+03 -0.37590650466E+03  0.60685469414E+03  0.94384139911E+02 0.  0.
          1    1    3    3  502    0  0.78512203855E+02 -0.36674198174E+02 -0.18975471272E+03  0.20860492316E+03  0.00000000000E+00 0. -1.
         -2    1    3    3    0  502  0.94683035751E+02 -0.12213272164E+03 -0.50260156421E+03  0.52582279459E+03  0.00000000000E+00 0.  1.
         11    1    5    5    0    0 -0.69404682280E+02 -0.14753711957E+03  0.17021282935E+02  0.16393271683E+03  0.00000000000E+00 0. -1.
        -11    1    5    5    0    0 -0.17250125030E+03 -0.15554057212E+03 -0.34208663594E+02  0.23477602858E+03  0.00000000000E+00 0.  1.
          2    1    6    6  503    0  0.10890961839E+02  0.11474922920E+02  0.21618576947E+01  0.15967483662E+02  0.00000000000E+00 0. -1.
         -2    1    6    6    0  503  0.57819731133E+02  0.45040968859E+03 -0.37806836236E+03  0.59088721047E+03  0.00000000000E+00 0.  1.
<mgrwt>
<rscale>  0 0.13599144E+04</rscale>
<asrwt>0</asrwt>
<pdfrwt beam="1">  1        1 0.21734164E+00 0.13599144E+04</pdfrwt>
<pdfrwt beam="2">  1       -2 0.50349308E-01 0.13599144E+04</pdfrwt>
<totfact> 0.24093750E+01</totfact>
</mgrwt>
</event>
<event>
12    4  0.4398275E-008  0.1282860E+04  0.7818608E-02  0.9043269E-01
         -2   -1    0    0    0  501 -0.00000000000E+00  0.00000000000E+00  0.20714709072E+04  0.20714709072E+04  0.00000000000E+00 0.  1.
          1   -1    0    0  501    0  0.00000000000E+00 -0.00000000000E+00 -0.19861847769E+03  0.19861847769E+03  0.00000000000E+00 0. -1.
        -24    2    1    2    0    0  0.24211983976E+03  0.13841855464E+03  0.84268708123E+03  0.89119148899E+03  0.79492390300E+02 0.  0.
        254    2    1    2    0    0 -0.24211983976E+03 -0.13841855464E+03  0.10301653483E+04  0.13788978959E+04  0.87311914961E+03 0.  0.
         23    2    4    4    0    0 -0.49620601446E+03 -0.12540723717E+03  0.97145093547E+03  0.11021356901E+04  0.95072474749E+02 0.  0.
         23    2    4    4    0    0  0.25408617471E+03 -0.13011317467E+02  0.58714412806E+02  0.27676220578E+03  0.91765231528E+02 0.  0.
          3    1    3    3  502    0 -0.55747949252E+01  0.74705584669E+01  0.37853564213E+02  0.38984354630E+02  0.00000000000E+00 0. -1.
         -4    1    3    3    0  502  0.24769463468E+03  0.13094799617E+03  0.80483351701E+03  0.85220713436E+03  0.00000000000E+00 0.  1.
         11    1    5    5    0    0 -0.37956119677E+03 -0.13618335471E+03  0.74086386302E+03  0.84349977577E+03  0.00000000000E+00 0.  1.
        -11    1    5    5    0    0 -0.11664481769E+03  0.10776117537E+02  0.23058707244E+03  0.25863591433E+03  0.00000000000E+00 0. -1.
          3    1    6    6  503    0  0.83508260826E+02 -0.31925141963E+02 -0.13775483706E+02  0.90457770627E+02  0.00000000000E+00 0. -1.
         -3    1    6    6    0  503  0.17057791388E+03  0.18913824496E+02  0.72489896512E+02  0.18630443515E+03  0.00000000000E+00 0.  1.
<mgrwt>
<rscale>  0 0.12828599E+04</rscale>
<asrwt>0</asrwt>
<pdfrwt beam="1">  1        1 0.30556690E-01 0.12828599E+04</pdfrwt>
<pdfrwt beam="2">  1       -2 0.31868782E+00 0.12828599E+04</pdfrwt>
<totfact> 0.31681045E+00</totfact>
</mgrwt>
</event>
<event>
12    4  0.4398275E-008  0.1200833E+04  0.7818608E-02  0.9112128E-01
          1   -1    0    0  501    0  0.00000000000E+00  0.00000000000E+00  0.87995450414E+03  0.87995450414E+03  0.00000000000E+00 0. -1.
         -2   -1    0    0    0  501 -0.00000000000E+00 -0.00000000000E+00 -0.40968027658E+03  0.40968027658E+03  0.00000000000E+00 0.  1.
        -24    2    1    2    0    0  0.10628207565E+03  0.17584040300E+03  0.23903333694E+03  0.32461737841E+03  0.77613009627E+02 0.  0.
        254    2    1    2    0    0 -0.10628207565E+03 -0.17584040300E+03  0.23124089062E+03  0.96501740231E+03  0.91409546019E+03 0.  0.
         23    2    4    4    0    0 -0.16188197075E+03 -0.26573654008E+03 -0.28431873844E+03  0.43108000511E+03  0.90394383598E+02 0.  0.
         23    2    4    4    0    0  0.55599895100E+02  0.89896137075E+02  0.51555962906E+03  0.53393739721E+03  0.90081902864E+02 0.  0.
          3    1    3    3  502    0  0.77232250048E+02  0.17027193365E+03  0.22287317835E+03  0.29091202358E+03  0.00000000000E+00 0. -1.
         -2    1    3    3    0  502  0.29049825598E+02  0.55684693511E+01  0.16160158590E+02  0.33705354825E+02  0.00000000000E+00 0.  1.
         11    1    5    5    0    0  0.11607635103E+02 -0.14563311500E+02 -0.13524112894E+02  0.23015839418E+02  0.00000000000E+00 0.  1.
        -11    1    5    5    0    0 -0.17348960585E+03 -0.25117322858E+03 -0.27079462555E+03  0.40806416569E+03  0.00000000000E+00 0. -1.
          3    1    6    6  503    0  0.51104646562E+02  0.96191333875E+02  0.51476306511E+03  0.52616106926E+03  0.00000000000E+00 0. -1.
         -3    1    6    6    0  503  0.44952485373E+01 -0.62951968006E+01  0.79656395732E+00  0.77763279450E+01  0.00000000000E+00 0.  1.
<mgrwt>
<rscale>  0 0.12008331E+04</rscale>
<asrwt>0</asrwt>
<pdfrwt beam="1">  1        1 0.13537762E+00 0.12008331E+04</pdfrwt>
<pdfrwt beam="2">  1       -2 0.63027735E-01 0.12008331E+04</pdfrwt>
<totfact> 0.38245432E+01</totfact>
</mgrwt>
</event>
<event>
12    4  0.4398275E-008  0.1186424E+04  0.7818608E-02  0.9124823E-01
          1   -1    0    0  501    0  0.00000000000E+00  0.00000000000E+00  0.12284023029E+04  0.12284023029E+04  0.00000000000E+00 0. -1.
         -2   -1    0    0    0  501 -0.00000000000E+00 -0.00000000000E+00 -0.28647026185E+03  0.28647026185E+03  0.00000000000E+00 0.  1.
        -24    2    1    2    0    0  0.13500389294E+03 -0.63724526928E+02  0.44212080399E+03  0.47590556557E+03  0.93426096895E+02 0.  0.
        254    2    1    2    0    0 -0.13500389294E+03  0.63724526928E+02  0.49981123704E+03  0.10389669992E+04  0.89852895682E+03 0.  0.
         23    2    4    4    0    0 -0.10138186484E+02 -0.38665155771E+03  0.83177350998E+02  0.40589309931E+03  0.90711225590E+02 0.  0.
         23    2    4    4    0    0 -0.12486570645E+03  0.45037608463E+03  0.41663388604E+03  0.63307389985E+03  0.93641365962E+02 0.  0.
          3    1    3    3  502    0  0.14414102600E+03 -0.72825258013E+02  0.42357583820E+03  0.45331737700E+03  0.00000000000E+00 0. -1.
         -4    1    3    3    0  502 -0.91371330634E+01  0.91007310855E+01  0.18544965789E+02  0.22588188574E+02  0.00000000000E+00 0.  1.
         11    1    5    5    0    0 -0.23007683929E+02 -0.21228892515E+02  0.21860233577E+01  0.31381492879E+02  0.00000000000E+00 0.  1.
        -11    1    5    5    0    0  0.12869497445E+02 -0.36542266519E+03  0.80991327640E+02  0.37451160643E+03  0.00000000000E+00 0. -1.
          2    1    6    6  503    0 -0.10763387259E+03  0.29604580231E+03  0.32574249756E+03  0.45314053263E+03  0.00000000000E+00 0. -1.
         -2    1    6    6    0  503 -0.17231833860E+02  0.15433028232E+03  0.90891388479E+02  0.17993336722E+03  0.00000000000E+00 0.  1.
<mgrwt>
<rscale>  0 0.11864244E+04</rscale>
<asrwt>0</asrwt>
<pdfrwt beam="1">  1        1 0.18898497E+00 0.11864244E+04</pdfrwt>
<pdfrwt beam="2">  1       -2 0.44072349E-01 0.11864244E+04</pdfrwt>
<totfact> 0.43208191E+01</totfact>
</mgrwt>
</event>
<event>
12    4  0.4398275E-008  0.1828254E+04  0.7818608E-02  0.8691417E-01
          1   -1    0    0  501    0  0.00000000000E+00  0.00000000000E+00  0.29085911599E+03  0.29085911599E+03  0.00000000000E+00 0. -1.
         -2   -1    0    0    0  501 -0.00000000000E+00 -0.00000000000E+00 -0.28729654705E+04  0.28729654705E+04  0.00000000000E+00 0.  1.
        -24    2    1    2    0    0  0.16049120291E+03 -0.14962753103E+03 -0.21697787417E+04  0.21822983418E+04  0.79626883336E+02 0.  0.
        254    2    1    2    0    0 -0.16049120291E+03  0.14962753103E+03 -0.41232761278E+03  0.98152624464E+03  0.86326930005E+03 0.  0.
         23    2    4    4    0    0  0.46548320500E+02  0.42571359583E+03 -0.30343247267E+01  0.43821155693E+03  0.92851223399E+02 0.  0.
         23    2    4    4    0    0 -0.20703952341E+03 -0.27608606480E+03 -0.40929328805E+03  0.54331468771E+03  0.92633551209E+02 0.  0.
          3    1    3    3  502    0  0.66555229152E+02 -0.53430531259E+02 -0.51092326592E+03  0.51800289947E+03  0.00000000000E+00 0. -1.
         -2    1    3    3    0  502  0.93935973760E+02 -0.96196999768E+02 -0.16588554758E+04  0.16642954424E+04  0.00000000000E+00 0.  1.
         11    1    5    5    0    0 -0.21840654701E+02  0.42451393048E+02 -0.10251854444E+02  0.48828633905E+02  0.00000000000E+00 0. -1.
        -11    1    5    5    0    0  0.68388975201E+02  0.38326220278E+03  0.72175297175E+01  0.38938292302E+03  0.00000000000E+00 0.  1.
          1    1    6    6  503    0 -0.16509591686E+00 -0.49109387382E+02 -0.42653112587E+02  0.65046500283E+02  0.00000000000E+00 0. -1.
         -1    1    6    6    0  503 -0.20687442750E+03 -0.22697667742E+03 -0.36664017547E+03  0.47826818743E+03  0.00000000000E+00 0.  1.
<mgrwt>
<rscale>  0 0.18282540E+04</rscale>
<asrwt>0</asrwt>
<pdfrwt beam="1">  1        1 0.44747558E-01 0.18282540E+04</pdfrwt>
<pdfrwt beam="2">  1       -2 0.44199467E+00 0.18282540E+04</pdfrwt>
<totfact> 0.29555952E-01</totfact>
</mgrwt>
</event>
<event>
12    4  0.4398275E-008  0.1373363E+04  0.7818608E-02  0.8973328E-01
          1   -1    0    0  501    0  0.00000000000E+00  0.00000000000E+00  0.24257987814E+04  0.24257987814E+04  0.00000000000E+00 0. -1.
         -2   -1    0    0    0  501 -0.00000000000E+00 -0.00000000000E+00 -0.19438206323E+03  0.19438206323E+03  0.00000000000E+00 0.  1.
        -24    2    1    2    0    0 -0.17026460721E+03  0.24412292098E+03  0.10979680811E+04  0.11402031460E+04  0.77092607552E+02 0.  0.
        254    2    1    2    0    0  0.17026460721E+03 -0.24412292098E+03  0.11334486371E+04  0.14799776986E+04  0.90390383249E+03 0.  0.
         23    2    4    4    0    0  0.47673234325E+03 -0.36512049666E+03  0.67347305946E+03  0.90696632397E+03  0.91843599766E+02 0.  0.
         23    2    4    4    0    0 -0.30646773604E+03  0.12099757569E+03  0.45997557762E+03  0.57301137461E+03  0.90562778614E+02 0.  0.
          3    1    3    3  502    0 -0.17047904411E+03  0.21248664609E+03  0.92161643162E+03  0.96103617325E+03  0.00000000000E+00 0. -1.
         -4    1    3    3    0  502  0.21443690381E+00  0.31636274886E+02  0.17635164945E+03  0.17916697278E+03  0.00000000000E+00 0.  1.
         11    1    5    5    0    0  0.78027685019E+00 -0.18806021355E+02  0.19158940140E+02  0.26857778360E+02  0.00000000000E+00 0. -1.
        -11    1    5    5    0    0  0.47595206640E+03 -0.34631447531E+03  0.65431411932E+03  0.88010854561E+03  0.00000000000E+00 0.  1.
          3    1    6    6  503    0 -0.39414154384E+02  0.46314508800E+02  0.53752583528E+02  0.81165568606E+02  0.00000000000E+00 0. -1.
         -3    1    6    6    0  503 -0.26705358166E+03  0.74683066887E+02  0.40622299409E+03  0.49184580601E+03  0.00000000000E+00 0.  1.
<mgrwt>
<rscale>  0 0.13733634E+04</rscale>
<asrwt>0</asrwt>
<pdfrwt beam="1">  1        1 0.37319979E+00 0.13733634E+04</pdfrwt>
<pdfrwt beam="2">  1       -2 0.29904934E-01 0.13733634E+04</pdfrwt>
<totfact> 0.13538463E+01</totfact>
</mgrwt>
</event>
<event>
12    4  0.4398275E-008  0.1516895E+04  0.7818608E-02  0.8873295E-01
         -2   -1    0    0    0  501 -0.00000000000E+00  0.00000000000E+00  0.10308759545E+04  0.10308759545E+04  0.00000000000E+00 0.  1.
          1   -1    0    0  501    0  0.00000000000E+00 -0.00000000000E+00 -0.55801317880E+03  0.55801317880E+03  0.00000000000E+00 0. -1.
        -24    2    1    2    0    0  0.28385525601E+03 -0.43047505805E+01  0.57318567104E+03  0.64461584836E+03  0.79971502590E+02 0.  0.
        254    2    1    2    0    0 -0.28385525601E+03  0.43047505805E+01 -0.10032289529E+03  0.94427328499E+03  0.89498324911E+03 0.  0.
         23    2    4    4    0    0 -0.15740194172E+03  0.43918124201E+03 -0.21039658566E+02  0.47566673097E+03  0.90336244835E+02 0.  0.
         23    2    4    4    0    0 -0.12645331428E+03 -0.43487649143E+03 -0.79283236723E+02  0.46860655402E+03  0.90544283940E+02 0.  0.
          1    1    3    3  502    0  0.59830111361E+02  0.29194633763E+02  0.10188238821E+03  0.12170451879E+03  0.00000000000E+00 0. -1.
         -4    1    3    3    0  502  0.22402514464E+03 -0.33499384343E+02  0.47130328283E+03  0.52291132957E+03  0.00000000000E+00 0.  1.
         11    1    5    5    0    0 -0.86431581735E+02  0.24838603716E+03 -0.56602464008E+02  0.26901650638E+03  0.00000000000E+00 0. -1.
        -11    1    5    5    0    0 -0.70970359987E+02  0.19079520485E+03  0.35562805442E+02  0.20665022459E+03  0.00000000000E+00 0.  1.
          1    1    6    6  503    0 -0.30358559150E+02 -0.57107978078E+02  0.17441185219E+02  0.66986253931E+02  0.00000000000E+00 0. -1.
         -1    1    6    6    0  503 -0.96094755134E+02 -0.37776851335E+03 -0.96724421943E+02  0.40162030009E+03  0.00000000000E+00 0.  1.
<mgrwt>
<rscale>  0 0.15168947E+04</rscale>
<asrwt>0</asrwt>
<pdfrwt beam="1">  1        1 0.85848181E-01 0.15168947E+04</pdfrwt>
<pdfrwt beam="2">  1       -2 0.15859630E+00 0.15168947E+04</pdfrwt>
<totfact> 0.82803733E+00</totfact>
</mgrwt>
</event>
<event>
12    4  0.4512195E-008  0.2308924E+04  0.7818608E-02  0.8474411E-01
         -4   -1    0    0    0  501 -0.00000000000E+00  0.00000000000E+00  0.15460000157E+04  0.15460000157E+04  0.00000000000E+00 0.  1.
          3   -1    0    0  501    0  0.00000000000E+00 -0.00000000000E+00 -0.86208446962E+03  0.86208446962E+03  0.00000000000E+00 0. -1.
        -24    2    1    2    0    0 -0.71934251020E+02 -0.49015678810E+03 -0.58549895122E+03  0.77115331683E+03  0.80250874120E+02 0.  0.
        254    2    1    2    0    0  0.71934251020E+02  0.49015678810E+03  0.12694144973E+04  0.16369311685E+04  0.90702936616E+03 0.  0.
         23    2    4    4    0    0 -0.14224967148E+03  0.58461216677E+03  0.39054260479E+03  0.72278763770E+03  0.88837427271E+02 0.  0.
         23    2    4    4    0    0  0.21418392250E+03 -0.94455378669E+02  0.87887189251E+03  0.91414353080E+03  0.91902232025E+02 0.  0.
          3    1    3    3  502    0 -0.57301168848E+02 -0.48030246161E+03 -0.57081307716E+03  0.74819880222E+03  0.00000000000E+00 0. -1.
         -4    1    3    3    0  502 -0.14633082173E+02 -0.98543264815E+01 -0.14685874055E+02  0.22954514611E+02  0.00000000000E+00 0.  1.
         11    1    5    5    0    0 -0.14299619777E+03  0.55725994841E+03  0.39067790796E+03  0.69542489921E+03  0.00000000000E+00 0. -1.
        -11    1    5    5    0    0  0.74652629127E+00  0.27352218359E+02 -0.13530316315E+00  0.27362738489E+02  0.00000000000E+00 0.  1.
          3    1    6    6  503    0  0.18676859702E+03 -0.10422585906E+03  0.67150788306E+03  0.70474702946E+03  0.00000000000E+00 0. -1.
         -3    1    6    6    0  503  0.27415325487E+02  0.97704803885E+01  0.20736400945E+03  0.20939650134E+03  0.00000000000E+00 0.  1.
<mgrwt>
<rscale>  0 0.23089241E+04</rscale>
<asrwt>0</asrwt>
<pdfrwt beam="1">  1        3 0.13262838E+00 0.23089241E+04</pdfrwt>
<pdfrwt beam="2">  1       -4 0.23784615E+00 0.23089241E+04</pdfrwt>
<totfact> 0.68759852E-02</totfact>
</mgrwt>
</event>
<event>
12    4  0.4398275E-008  0.1577730E+04  0.7818608E-02  0.8834347E-01
         -4   -1    0    0    0  501 -0.00000000000E+00  0.00000000000E+00  0.14068689069E+03  0.14068689069E+03  0.00000000000E+00 0.  1.
          1   -1    0    0  501    0  0.00000000000E+00 -0.00000000000E+00 -0.44233535603E+04  0.44233535603E+04  0.00000000000E+00 0. -1.
        -24    2    1    2    0    0 -0.27138198979E+03  0.44286852114E+03 -0.14679889654E+04  0.15591556769E+04  0.78702673110E+02 0.  0.
        254    2    1    2    0    0  0.27138198979E+03 -0.44286852114E+03 -0.28146777042E+04  0.30048847741E+04  0.91495421514E+03 0.  0.
         23    2    4    4    0    0  0.11423570648E+03  0.20695490523E+03 -0.15572369633E+04  0.15777721032E+04  0.92183081852E+02 0.  0.
         23    2    4    4    0    0  0.15714628332E+03 -0.64982342637E+03 -0.12574407410E+04  0.14271126709E+04  0.92346730282E+02 0.  0.
          1    1    3    3  502    0 -0.69351923857E+02  0.16221863195E+03 -0.57887734773E+03  0.60516407495E+03  0.00000000000E+00 0. -1.
         -2    1    3    3    0  502 -0.20203006593E+03  0.28064988919E+03 -0.88911161767E+03  0.95399160191E+03  0.00000000000E+00 0.  1.
         11    1    5    5    0    0  0.10389222036E+02  0.37331572493E+02 -0.10392559112E+03  0.11091488055E+03  0.00000000000E+00 0.  1.
        -11    1    5    5    0    0  0.10384648444E+03  0.16962333274E+03 -0.14533113721E+04  0.14668572227E+04  0.00000000000E+00 0. -1.
          1    1    6    6  503    0  0.16709729680E+03 -0.61521299225E+03 -0.11671516794E+04  0.13299066039E+04  0.00000000000E+00 0. -1.
         -1    1    6    6    0  503 -0.99510134800E+01 -0.34610434121E+02 -0.90289061598E+02  0.97206067010E+02  0.00000000000E+00 0.  1.
<mgrwt>
<rscale>  0 0.15777298E+04</rscale>
<asrwt>0</asrwt>
<pdfrwt beam="1">  1        1 0.68051590E+00 0.15777298E+04</pdfrwt>
<pdfrwt beam="2">  1       -4 0.21644138E-01 0.15777298E+04</pdfrwt>
<totfact> 0.38262964E-01</totfact>
</mgrwt>
</event>
<event>
12    4  0.4398275E-008  0.1218840E+04  0.7818608E-02  0.9096524E-01
          1   -1    0    0  501    0  0.00000000000E+00  0.00000000000E+00  0.12488011674E+04  0.12488011674E+04  0.00000000000E+00 0. -1.
         -2   -1    0    0    0  501 -0.00000000000E+00 -0.00000000000E+00 -0.29739920043E+03  0.29739920043E+03  0.00000000000E+00 0.  1.
        -24    2    1    2    0    0  0.22497305451E+03 -0.14865395121E+03  0.25550318583E+03  0.37936622039E+03  0.76980378943E+02 0.  0.
        254    2    1    2    0    0 -0.22497305451E+03  0.14865395121E+03  0.69589878118E+03  0.11668341475E+04  0.89694812647E+03 0.  0.
         23    2    4    4    0    0 -0.44256978791E+03 -0.21739564545E+03  0.39720064766E+03  0.63922145130E+03  0.87788527026E+02 0.  0.
         23    2    4    4    0    0  0.21759673340E+03  0.36604959666E+03  0.29869813352E+03  0.52761269616E+03  0.88396473793E+02 0.  0.
          3    1    3    3  502    0  0.12916821519E+03 -0.10961988100E+03  0.11447895414E+03  0.20446607804E+03  0.00000000000E+00 0. -1.
         -4    1    3    3    0  502  0.95804839323E+02 -0.39034070205E+02  0.14102423168E+03  0.17490014236E+03  0.00000000000E+00 0.  1.
         11    1    5    5    0    0 -0.25005101866E+03 -0.75956108933E+02  0.22326576541E+03  0.34371855408E+03  0.00000000000E+00 0. -1.
        -11    1    5    5    0    0 -0.19251876925E+03 -0.14143953652E+03  0.17393488225E+03  0.29550289722E+03  0.00000000000E+00 0.  1.
          1    1    6    6  503    0  0.14769974403E+03  0.17264560522E+03  0.18237965691E+03  0.29134868911E+03  0.00000000000E+00 0. -1.
         -1    1    6    6    0  503  0.69896989365E+02  0.19340399144E+03  0.11631847661E+03  0.23626400705E+03  0.00000000000E+00 0.  1.
<mgrwt>
<rscale>  0 0.12188396E+04</rscale>
<asrwt>0</asrwt>
<pdfrwt beam="1">  1        1 0.19212325E+00 0.12188396E+04</pdfrwt>
<pdfrwt beam="2">  1       -2 0.45753724E-01 0.12188396E+04</pdfrwt>
<totfact> 0.38659021E+01</totfact>
</mgrwt>
</event>
<event>
12    4  0.4398275E-008  0.1346529E+04  0.7818608E-02  0.8993460E-01
         -2   -1    0    0    0  501 -0.00000000000E+00  0.00000000000E+00  0.31325073060E+03  0.31325073060E+03  0.00000000000E+00 0.  1.
          1   -1    0    0  501    0  0.00000000000E+00 -0.00000000000E+00 -0.14470365554E+04  0.14470365554E+04  0.00000000000E+00 0. -1.
        -24    2    1    2    0    0 -0.29009118909E+03 -0.22434110888E+03 -0.38184162591E+03  0.53600834067E+03  0.83785934777E+02 0.  0.
        254    2    1    2    0    0  0.29009118909E+03  0.22434110888E+03 -0.75194419887E+03  0.12242789453E+04  0.89384396099E+03 0.  0.
         23    2    4    4    0    0 -0.22819012763E+00 -0.32237846230E+03 -0.20239605991E+03  0.39133368059E+03  0.90829287510E+02 0.  0.
         23    2    4    4    0    0  0.29031937922E+03  0.54671957118E+03 -0.54954813896E+03  0.83294526472E+03  0.92774056362E+02 0.  0.
          3    1    3    3  502    0 -0.74021311081E+02 -0.10582754757E+03 -0.14566285968E+03  0.19466970234E+03  0.00000000000E+00 0. -1.
         -4    1    3    3    0  502 -0.21606987801E+03 -0.11851356131E+03 -0.23617876624E+03  0.34133863833E+03  0.00000000000E+00 0.  1.
         11    1    5    5    0    0  0.41412828694E+02 -0.18731450631E+03 -0.13614954058E+03  0.23524124650E+03  0.00000000000E+00 0. -1.
        -11    1    5    5    0    0 -0.41641018821E+02 -0.13506395599E+03 -0.66246519328E+02  0.15609243408E+03  0.00000000000E+00 0.  1.
          1    1    6    6  503    0  0.88984927093E+02  0.26557094060E+03 -0.24074974072E+03  0.36933274888E+03  0.00000000000E+00 0. -1.
         -1    1    6    6    0  503  0.20133445213E+03  0.28114863058E+03 -0.30879839824E+03  0.46361251584E+03  0.00000000000E+00 0.  1.
<mgrwt>
<rscale>  0 0.13465293E+04</rscale>
<asrwt>0</asrwt>
<pdfrwt beam="1">  1        1 0.22262101E+00 0.13465293E+04</pdfrwt>
<pdfrwt beam="2">  1       -2 0.48192419E-01 0.13465293E+04</pdfrwt>
<totfact> 0.24950743E+01</totfact>
</mgrwt>
</event>
<event>
12    4  0.4398275E-008  0.3305931E+04  0.7818608E-02  0.8161388E-01
         -2   -1    0    0    0  501 -0.00000000000E+00  0.00000000000E+00  0.14014424468E+04  0.14014424468E+04  0.00000000000E+00 0.  1.
          1   -1    0    0  501    0  0.00000000000E+00 -0.00000000000E+00 -0.19496301467E+04  0.19496301467E+04  0.00000000000E+00 0. -1.
        -24    2    1    2    0    0 -0.83500237282E+03 -0.12834433183E+04 -0.17030426184E+03  0.15427023097E+04  0.80443525260E+02 0.  0.
        254    2    1    2    0    0  0.83500237282E+03  0.12834433183E+04 -0.37788343810E+03  0.18083702838E+04  0.88484545355E+03 0.  0.
         23    2    4    4    0    0  0.67443608280E+03  0.13959136505E+04 -0.31175208088E+03  0.15840084711E+04  0.91948502366E+02 0.  0.
         23    2    4    4    0    0  0.16056629002E+03 -0.11247033220E+03 -0.66131357216E+02  0.22436181273E+03  0.86797220500E+02 0.  0.
          3    1    3    3  502    0 -0.82135128643E+03 -0.12624816643E+04 -0.17775919916E+03  0.15166002180E+04  0.00000000000E+00 0. -1.
         -4    1    3    3    0  502 -0.13651086392E+02 -0.20961653974E+02  0.74549373176E+01  0.26102091630E+02  0.00000000000E+00 0.  1.
         11    1    5    5    0    0  0.51016435742E+03  0.10219116786E+04 -0.26787765634E+03  0.11731707417E+04  0.00000000000E+00 0.  1.
        -11    1    5    5    0    0  0.16427172538E+03  0.37400197193E+03 -0.43874424545E+02  0.41083772939E+03  0.00000000000E+00 0. -1.
          4    1    6    6  503    0  0.13593886529E+03 -0.87928485398E+02 -0.87019113356E+02  0.18380184910E+03  0.00000000000E+00 0. -1.
         -4    1    6    6    0  503  0.24627424728E+02 -0.24541846804E+02  0.20887756141E+02  0.40559963633E+02  0.00000000000E+00 0.  1.
<mgrwt>
<rscale>  0 0.33059307E+04</rscale>
<asrwt>0</asrwt>
<pdfrwt beam="1">  1        1 0.29994310E+00 0.33059307E+04</pdfrwt>
<pdfrwt beam="2">  1       -2 0.21560653E+00 0.33059307E+04</pdfrwt>
<totfact> 0.24774782E-01</totfact>
</mgrwt>
</event>
<event>
12    4  0.4753251E-008  0.1664403E+04  0.7818608E-02  0.8781931E-01
          1   -1    0    0  501    0  0.00000000000E+00  0.00000000000E+00  0.22573114286E+04  0.22573114286E+04  0.00000000000E+00 0. -1.
         -2   -1    0    0    0  501 -0.00000000000E+00 -0.00000000000E+00 -0.30680733661E+03  0.30680733661E+03  0.00000000000E+00 0.  1.
        -24    2    1    2    0    0  0.29149581062E+02 -0.52835070992E+03  0.11140707306E+04  0.12359282948E+04  0.79755791534E+02 0.  0.
        254    2    1    2    0    0 -0.29149581062E+02  0.52835070992E+03  0.83643336139E+03  0.13281904704E+04  0.88570028056E+03 0.  0.
         23    2    4    4    0    0 -0.19098384522E+03  0.58513643497E+03  0.18632093375E+03  0.64970362412E+03  0.92411212398E+02 0.  0.
         23    2    4    4    0    0  0.16183426416E+03 -0.56785725053E+02  0.65011242764E+03  0.67848684632E+03  0.91012550990E+02 0.  0.
          1    1    3    3  502    0  0.37194637223E+02 -0.41207049475E+03  0.79472734272E+03  0.89597828263E+03  0.00000000000E+00 0. -1.
         -2    1    3    3    0  502 -0.80450561611E+01 -0.11628021517E+03  0.31934338792E+03  0.33995001218E+03  0.00000000000E+00 0.  1.
         11    1    5    5    0    0 -0.32822416269E+02  0.88127493316E+02  0.64685779005E+02  0.11414033509E+03  0.00000000000E+00 0.  1.
        -11    1    5    5    0    0 -0.15816142895E+03  0.49700894166E+03  0.12163515475E+03  0.53556328904E+03  0.00000000000E+00 0. -1.
          3    1    6    6  503    0  0.63258057500E+02 -0.50167526847E+02  0.16848343389E+03  0.18682887915E+03  0.00000000000E+00 0. -1.
         -3    1    6    6    0  503  0.98576206656E+02 -0.66181982061E+01  0.48162899375E+03  0.49165796717E+03  0.00000000000E+00 0.  1.
<mgrwt>
<rscale>  0 0.16644034E+04</rscale>
<asrwt>0</asrwt>
<pdfrwt beam="1">  1        1 0.34727867E+00 0.16644034E+04</pdfrwt>
<pdfrwt beam="2">  1       -2 0.47201130E-01 0.16644034E+04</pdfrwt>
<totfact> 0.71040217E+00</totfact>
</mgrwt>
</event>
<event>
12    4  0.4398275E-008  0.1600549E+04  0.7818608E-02  0.8820211E-01
          1   -1    0    0  501    0  0.00000000000E+00  0.00000000000E+00  0.41528599895E+03  0.41528599895E+03  0.00000000000E+00 0. -1.
         -2   -1    0    0    0  501 -0.00000000000E+00 -0.00000000000E+00 -0.15421649365E+04  0.15421649365E+04  0.00000000000E+00 0.  1.
        -24    2    1    2    0    0  0.36218161770E+03 -0.20312532082E+03 -0.82546741619E+03  0.92747653782E+03  0.79880240646E+02 0.  0.
        254    2    1    2    0    0 -0.36218161770E+03  0.20312532082E+03 -0.30141152137E+03  0.10299743976E+04  0.89306379078E+03 0.  0.
         23    2    4    4    0    0 -0.34628182379E+03  0.46086212028E+03 -0.43307236466E+03  0.72631231993E+03  0.87595191937E+02 0.  0.
         23    2    4    4    0    0 -0.15899793912E+02 -0.25773679946E+03  0.13166084329E+03  0.30366207770E+03  0.90526341671E+02 0.  0.
          3    1    3    3  502    0  0.67694416179E+02 -0.40404394469E+02 -0.96487659036E+02  0.12459902656E+03  0.00000000000E+00 0. -1.
         -4    1    3    3    0  502  0.29448720153E+03 -0.16272092636E+03 -0.72897975716E+03  0.80287751126E+03  0.00000000000E+00 0.  1.
         11    1    5    5    0    0 -0.23970937245E+03  0.33941037067E+03 -0.35654533365E+03  0.54752585136E+03  0.00000000000E+00 0.  1.
        -11    1    5    5    0    0 -0.10657245134E+03  0.12145174961E+03 -0.76527031009E+02  0.17878646857E+03  0.00000000000E+00 0. -1.
          2    1    6    6  503    0 -0.26047618762E+02 -0.14112964215E+03  0.25740246291E+02  0.14580334226E+03  0.00000000000E+00 0. -1.
         -2    1    6    6    0  503  0.10147824850E+02 -0.11660715731E+03  0.10592059700E+03  0.15785873544E+03  0.00000000000E+00 0.  1.
<mgrwt>
<rscale>  0 0.16005493E+04</rscale>
<asrwt>0</asrwt>
<pdfrwt beam="1">  1        1 0.63890152E-01 0.16005493E+04</pdfrwt>
<pdfrwt beam="2">  1       -2 0.23725615E+00 0.16005493E+04</pdfrwt>
<totfact> 0.36869631E+00</totfact>
</mgrwt>
</event>
<event>
12    4  0.4398275E-008  0.1792373E+04  0.7818608E-02  0.8710366E-01
         -2   -1    0    0    0  501 -0.00000000000E+00  0.00000000000E+00  0.43171044871E+03  0.43171044871E+03  0.00000000000E+00 0.  1.
          1   -1    0    0  501    0  0.00000000000E+00 -0.00000000000E+00 -0.18603901204E+04  0.18603901204E+04  0.00000000000E+00 0. -1.
        -24    2    1    2    0    0 -0.47375038596E+03  0.47501572416E+03 -0.48626201158E+03  0.83250440283E+03  0.80829885785E+02 0.  0.
        254    2    1    2    0    0  0.47375038596E+03 -0.47501572416E+03 -0.94241766016E+03  0.14595961663E+04  0.89005087279E+03 0.  0.
         23    2    4    4    0    0  0.17347622303E+03 -0.33907534541E+03 -0.10338859941E+04  0.11056621395E+04  0.92208612260E+02 0.  0.
         23    2    4    4    0    0  0.30027416294E+03 -0.13594037874E+03  0.91468333898E+02  0.35393402683E+03  0.90876178060E+02 0.  0.
          3    1    3    3  502    0 -0.31960235559E+03  0.36922221906E+03 -0.36489550979E+03  0.60960597587E+03  0.00000000000E+00 0. -1.
         -4    1    3    3    0  502 -0.15414803037E+03  0.10579350510E+03 -0.12136650179E+03  0.22289842697E+03  0.00000000000E+00 0.  1.
         11    1    5    5    0    0  0.18116820122E+03 -0.33867699284E+03 -0.10165885530E+04  0.10867273387E+04  0.00000000000E+00 0. -1.
        -11    1    5    5    0    0 -0.76919781985E+01 -0.39835257075E+00 -0.17297441040E+02  0.18934800762E+02  0.00000000000E+00 0.  1.
          1    1    6    6  503    0  0.18734207922E+03 -0.10739751126E+03  0.98271806706E+02  0.23725224565E+03  0.00000000000E+00 0. -1.
         -1    1    6    6    0  503  0.11293208372E+03 -0.28542867484E+02 -0.68034728084E+01  0.11668178118E+03  0.00000000000E+00 0.  1.
<mgrwt>
<rscale>  0 0.17923726E+04</rscale>
<asrwt>0</asrwt>
<pdfrwt beam="1">  1        1 0.28621386E+00 0.17923726E+04</pdfrwt>
<pdfrwt beam="2">  1       -2 0.66416993E-01 0.17923726E+04</pdfrwt>
<totfact> 0.64035048E+00</totfact>
</mgrwt>
</event>
<event>
12    4  0.4398275E-008  0.2286801E+04  0.7818608E-02  0.8483144E-01
         -2   -1    0    0    0  501 -0.00000000000E+00  0.00000000000E+00  0.84313395301E+03  0.84313395301E+03  0.00000000000E+00 0.  1.
          1   -1    0    0  501    0  0.00000000000E+00 -0.00000000000E+00 -0.15506011999E+04  0.15506011999E+04  0.00000000000E+00 0. -1.
        -24    2    1    2    0    0  0.14184264094E+03 -0.91738348089E+03 -0.49441227922E+02  0.93278276439E+03  0.76990030000E+02 0.  0.
        254    2    1    2    0    0 -0.14184264094E+03  0.91738348089E+03 -0.65802601896E+03  0.14609523885E+04  0.91633610322E+03 0.  0.
         23    2    4    4    0    0  0.13238762963E+03 -0.12412390327E+03 -0.19727848789E+03  0.28531393874E+03  0.97734405442E+02 0.  0.
         23    2    4    4    0    0 -0.27423027058E+03  0.10415073842E+04 -0.46074753107E+03  0.11756384498E+04  0.99486705850E+02 0.  0.
          3    1    3    3  502    0  0.46407557231E+02 -0.40696531932E+03  0.12797438410E+02  0.40980264388E+03  0.00000000000E+00 0. -1.
         -4    1    3    3    0  502  0.95435083711E+02 -0.51041816157E+03 -0.62238666331E+02  0.52298012051E+03  0.00000000000E+00 0.  1.
         11    1    5    5    0    0 -0.19963086317E+01 -0.50144616256E+02 -0.69153628323E+02  0.85444087553E+02  0.00000000000E+00 0. -1.
        -11    1    5    5    0    0  0.13438393827E+03 -0.73979287018E+02 -0.12812485957E+03  0.19986985118E+03  0.00000000000E+00 0.  1.
          3    1    6    6  503    0 -0.29241110076E+02  0.27520816317E+03 -0.10543419936E+03  0.29616033831E+03  0.00000000000E+00 0. -1.
         -3    1    6    6    0  503 -0.24498916050E+03  0.76629922099E+03 -0.35531333171E+03  0.87947811147E+03  0.00000000000E+00 0.  1.
<mgrwt>
<rscale>  0 0.22868008E+04</rscale>
<asrwt>0</asrwt>
<pdfrwt beam="1">  1        1 0.23855403E+00 0.22868008E+04</pdfrwt>
<pdfrwt beam="2">  1       -2 0.12971292E+00 0.22868008E+04</pdfrwt>
<totfact> 0.20942229E+00</totfact>
</mgrwt>
</event>
<event>
12    4  0.4398275E-008  0.1776240E+04  0.7818608E-02  0.8719038E-01
          1   -1    0    0  501    0  0.00000000000E+00  0.00000000000E+00  0.36258818107E+03  0.36258818107E+03  0.00000000000E+00 0. -1.
         -2   -1    0    0    0  501 -0.00000000000E+00 -0.00000000000E+00 -0.21753518997E+04  0.21753518997E+04  0.00000000000E+00 0.  1.
        -24    2    1    2    0    0  0.55330239778E+03 -0.15517556085E+03 -0.21170160255E+03  0.61725180770E+03  0.77196033005E+02 0.  0.
        254    2    1    2    0    0 -0.55330239778E+03  0.15517556085E+03 -0.16010621160E+04  0.19206882730E+04  0.89186352359E+03 0.  0.
         23    2    4    4    0    0 -0.62542139045E+03 -0.13298677767E+03 -0.14221603192E+04  0.15619775854E+04  0.91632991092E+02 0.  0.
         23    2    4    4    0    0  0.72118992672E+02  0.28816233852E+03 -0.17890179687E+03  0.35871068769E+03  0.91808616659E+02 0.  0.
          1    1    3    3  502    0  0.51862996266E+03 -0.12434567715E+03 -0.19182363864E+03  0.56677614093E+03  0.00000000000E+00 0. -1.
         -2    1    3    3    0  502  0.34672435120E+02 -0.30829883694E+02 -0.19877963912E+02  0.50475666762E+02  0.00000000000E+00 0.  1.
         11    1    5    5    0    0 -0.54717273953E+03 -0.91699522695E+02 -0.12713197584E+04  0.13871051645E+04  0.00000000000E+00 0. -1.
        -11    1    5    5    0    0 -0.78248650917E+02 -0.41287254977E+02 -0.15084056080E+03  0.17487242085E+03  0.00000000000E+00 0.  1.
          2    1    6    6  503    0  0.59055361789E+02  0.69540431556E+02 -0.42043852428E+02  0.10045443198E+03  0.00000000000E+00 0. -1.
         -2    1    6    6    0  503  0.13063630883E+02  0.21862190696E+03 -0.13685794444E+03  0.25825625571E+03  0.00000000000E+00 0.  1.
<mgrwt>
<rscale>  0 0.17762397E+04</rscale>
<asrwt>0</asrwt>
<pdfrwt beam="1">  1        1 0.55782796E-01 0.17762397E+04</pdfrwt>
<pdfrwt beam="2">  1       -2 0.33466953E+00 0.17762397E+04</pdfrwt>
<totfact> 0.11007267E+00</totfact>
</mgrwt>
</event>
<event>
12    4  0.4398275E-008  0.1335916E+04  0.7818608E-02  0.9001558E-01
         -2   -1    0    0    0  501 -0.00000000000E+00  0.00000000000E+00  0.26026836288E+03  0.26026836288E+03  0.00000000000E+00 0.  1.
          1   -1    0    0  501    0  0.00000000000E+00 -0.00000000000E+00 -0.17142618489E+04  0.17142618489E+04  0.00000000000E+00 0. -1.
        -24    2    1    2    0    0  0.34491435279E+03  0.85981823149E+02 -0.45317366029E+03  0.58147474823E+03  0.79923286791E+02 0.  0.
        254    2    1    2    0    0 -0.34491435279E+03 -0.85981823149E+02 -0.10008198257E+04  0.13930554636E+04  0.90144573675E+03 0.  0.
         23    2    4    4    0    0  0.67239094047E+02 -0.28068273449E+03 -0.14473613707E+02  0.30263276807E+03  0.89851063473E+02 0.  0.
         23    2    4    4    0    0 -0.41215344684E+03  0.19470091134E+03 -0.98634621203E+03  0.10904226955E+04  0.91454339693E+02 0.  0.
          3    1    3    3  502    0  0.27908804965E+02  0.99255523103E+01 -0.83454932881E+02  0.88555879564E+02  0.00000000000E+00 0. -1.
         -4    1    3    3    0  502  0.31700554783E+03  0.76056270839E+02 -0.36971872740E+03  0.49291886866E+03  0.00000000000E+00 0.  1.
         11    1    5    5    0    0  0.39209909946E+02 -0.20668143611E+03 -0.49472398302E+02  0.21610680523E+03  0.00000000000E+00 0.  1.
        -11    1    5    5    0    0  0.28029184101E+02 -0.74001298373E+02  0.34998784595E+02  0.86525962840E+02  0.00000000000E+00 0. -1.
          2    1    6    6  503    0 -0.10327400220E+03  0.76421461727E+01 -0.20525087770E+03  0.22989529078E+03  0.00000000000E+00 0. -1.
         -2    1    6    6    0  503 -0.30887944464E+03  0.18705876516E+03 -0.78109533433E+03  0.86052740471E+03  0.00000000000E+00 0.  1.
<mgrwt>
<rscale>  0 0.13359164E+04</rscale>
<asrwt>0</asrwt>
<pdfrwt beam="1">  1        1 0.26373260E+00 0.13359164E+04</pdfrwt>
<pdfrwt beam="2">  1       -2 0.40041286E-01 0.13359164E+04</pdfrwt>
<totfact> 0.23661894E+01</totfact>
</mgrwt>
</event>
<event>
12    4  0.4398275E-008  0.2067522E+04  0.7818608E-02  0.8575687E-01
          1   -1    0    0  501    0  0.00000000000E+00  0.00000000000E+00  0.14124279134E+04  0.14124279134E+04  0.00000000000E+00 0. -1.
         -2   -1    0    0    0  501 -0.00000000000E+00 -0.00000000000E+00 -0.75661334579E+03  0.75661334579E+03  0.00000000000E+00 0.  1.
        -24    2    1    2    0    0 -0.29954504836E+03 -0.20217492248E+03 -0.55363711938E+03  0.66536038321E+03  0.74755898082E+02 0.  0.
        254    2    1    2    0    0  0.29954504836E+03  0.20217492248E+03  0.12094516870E+04  0.15036808760E+04  0.81711740795E+03 0.  0.
         23    2    4    4    0    0  0.37700393277E+03  0.32291776786E+02  0.13938742450E+03  0.41358166382E+03  0.91903288089E+02 0.  0.
         23    2    4    4    0    0 -0.77458884408E+02  0.16988314570E+03  0.10700642625E+04  0.10900992122E+04  0.91752953927E+02 0.  0.
          1    1    3    3  502    0 -0.47478168158E+02 -0.17507810363E+02 -0.41594031243E+02  0.65503918283E+02  0.00000000000E+00 0. -1.
         -2    1    3    3    0  502 -0.25206688021E+03 -0.18466711212E+03 -0.51204308814E+03  0.59985646492E+03  0.00000000000E+00 0.  1.
         11    1    5    5    0    0  0.32597608726E+03  0.53309480089E+02  0.97804442030E+02  0.34448224775E+03  0.00000000000E+00 0.  1.
        -11    1    5    5    0    0  0.51027845513E+02 -0.21017703303E+02  0.41582982470E+02  0.69099416068E+02  0.00000000000E+00 0. -1.
          3    1    6    6  503    0 -0.61577588122E+02  0.12119918674E+03  0.51371887155E+03  0.53140203350E+03  0.00000000000E+00 0. -1.
         -3    1    6    6    0  503 -0.15881296286E+02  0.48683958956E+02  0.55634539095E+03  0.55869717868E+03  0.00000000000E+00 0.  1.
<mgrwt>
<rscale>  0 0.20675220E+04</rscale>
<asrwt>0</asrwt>
<pdfrwt beam="1">  1        1 0.21729660E+00 0.20675220E+04</pdfrwt>
<pdfrwt beam="2">  1       -2 0.11640205E+00 0.20675220E+04</pdfrwt>
<totfact> 0.34889574E+00</totfact>
</mgrwt>
</event>
<event>
12    4  0.4398275E-008  0.1654207E+04  0.7818608E-02  0.8787922E-01
          1   -1    0    0  501    0  0.00000000000E+00  0.00000000000E+00  0.56339971301E+03  0.56339971301E+03  0.00000000000E+00 0. -1.
         -2   -1    0    0    0  501 -0.00000000000E+00 -0.00000000000E+00 -0.12142353013E+04  0.12142353013E+04  0.00000000000E+00 0.  1.
        -24    2    1    2    0    0 -0.47105490170E+03 -0.12831292836E+03  0.10277717610E+03  0.50515403662E+03  0.79123478123E+02 0.  0.
        254    2    1    2    0    0  0.47105490170E+03  0.12831292836E+03 -0.75361276439E+03  0.12724809777E+04  0.90162004854E+03 0.  0.
         23    2    4    4    0    0  0.44784806284E+03  0.48241966748E+02  0.47223163690E+02  0.46219765582E+03  0.92203422475E+02 0.  0.
         23    2    4    4    0    0  0.23206838857E+02  0.80070961613E+02 -0.80083592808E+03  0.81028332187E+03  0.90944827912E+02 0.  0.
          1    1    3    3  502    0 -0.29997542760E+03 -0.44634105535E+02  0.77608971030E+02  0.31305049581E+03  0.00000000000E+00 0. -1.
         -2    1    3    3    0  502 -0.17107947409E+03 -0.83678822826E+02  0.25168205074E+02  0.19210354081E+03  0.00000000000E+00 0.  1.
         11    1    5    5    0    0  0.40621845643E+03  0.24506625064E+02  0.20830739827E+02  0.40748978974E+03  0.00000000000E+00 0.  1.
        -11    1    5    5    0    0  0.41629606406E+02  0.23735341684E+02  0.26392423862E+02  0.54707866086E+02  0.00000000000E+00 0. -1.
          3    1    6    6  503    0  0.43665255643E+01 -0.20540161741E+02 -0.13182384495E+03  0.13348592018E+03  0.00000000000E+00 0. -1.
         -3    1    6    6    0  503  0.18840313293E+02  0.10061112335E+03 -0.66901208314E+03  0.67679740169E+03  0.00000000000E+00 0.  1.
<mgrwt>
<rscale>  0 0.16542065E+04</rscale>
<asrwt>0</asrwt>
<pdfrwt beam="1">  1        1 0.86676880E-01 0.16542065E+04</pdfrwt>
<pdfrwt beam="2">  1       -2 0.18680543E+00 0.16542065E+04</pdfrwt>
<totfact> 0.50997089E+00</totfact>
</mgrwt>
</event>
<event>
12    4  0.4398275E-008  0.1439819E+04  0.7818608E-02  0.8925489E-01
         -2   -1    0    0    0  501 -0.00000000000E+00  0.00000000000E+00  0.59950420729E+03  0.59950420729E+03  0.00000000000E+00 0.  1.
          1   -1    0    0  501    0  0.00000000000E+00 -0.00000000000E+00 -0.86449698215E+03  0.86449698215E+03  0.00000000000E+00 0. -1.
        -24    2    1    2    0    0  0.16349387402E+03 -0.37628741674E+02  0.32549548169E+03  0.37487910958E+03  0.80255025742E+02 0.  0.
        254    2    1    2    0    0 -0.16349387402E+03  0.37628741674E+02 -0.59048825654E+03  0.10891220799E+04  0.89964679441E+03 0.  0.
         23    2    4    4    0    0 -0.18767195339E+03 -0.16589322284E+03 -0.76163906836E+03  0.80674528513E+03  0.89457035210E+02 0.  0.
         23    2    4    4    0    0  0.24178079367E+02  0.20352196451E+03  0.17115081182E+03  0.28237679473E+03  0.91860134209E+02 0.  0.
          3    1    3    3  502    0  0.39116482986E+01 -0.70513687007E+01  0.80476709396E+02  0.80879685634E+02  0.00000000000E+00 0. -1.
         -4    1    3    3    0  502  0.15958222573E+03 -0.30577372973E+02  0.24501877229E+03  0.29399942395E+03  0.00000000000E+00 0.  1.
         11    1    5    5    0    0 -0.33336633601E+02  0.68467396998E+01 -0.11106364533E+03  0.11616084667E+03  0.00000000000E+00 0. -1.
        -11    1    5    5    0    0 -0.15433531979E+03 -0.17273996254E+03 -0.65057542303E+03  0.69058443846E+03  0.00000000000E+00 0.  1.
          1    1    6    6  503    0  0.23378892312E+02  0.57174016123E+01  0.62890748224E+01  0.24875967299E+02  0.00000000000E+00 0. -1.
         -1    1    6    6    0  503  0.79918705544E+00  0.19780456290E+03  0.16486173700E+03  0.25750082743E+03  0.00000000000E+00 0.  1.
<mgrwt>
<rscale>  0 0.14398188E+04</rscale>
<asrwt>0</asrwt>
<pdfrwt beam="1">  1        1 0.13299954E+00 0.14398188E+04</pdfrwt>
<pdfrwt beam="2">  1       -2 0.92231417E-01 0.14398188E+04</pdfrwt>
<totfact> 0.16563037E+01</totfact>
</mgrwt>
</event>
<event>
12    4  0.4398275E-008  0.2265531E+04  0.7818608E-02  0.8491637E-01
          1   -1    0    0  501    0  0.00000000000E+00  0.00000000000E+00  0.13175820709E+04  0.13175820709E+04  0.00000000000E+00 0. -1.
         -2   -1    0    0    0  501 -0.00000000000E+00 -0.00000000000E+00 -0.97387281376E+03  0.97387281376E+03  0.00000000000E+00 0.  1.
        -24    2    1    2    0    0  0.15961616574E+03 -0.85069474380E+03  0.55585443266E+03  0.10317669936E+04  0.80063170667E+02 0.  0.
        254    2    1    2    0    0 -0.15961616574E+03  0.85069474380E+03 -0.21214517550E+03  0.12596878911E+04  0.89030845213E+03 0.  0.
         23    2    4    4    0    0 -0.55475185001E+02  0.71446552087E+03 -0.52397751107E+03  0.89239475737E+03  0.90980735294E+02 0.  0.
         23    2    4    4    0    0 -0.10414098074E+03  0.13622922293E+03  0.31183233557E+03  0.36729313371E+03  0.90890568899E+02 0.  0.
          1    1    3    3  502    0  0.20086275353E+02 -0.16661106935E+03  0.14429355548E+03  0.22132179522E+03  0.00000000000E+00 0. -1.
         -2    1    3    3    0  502  0.13952989038E+03 -0.68408367445E+03  0.41156087717E+03  0.81044519838E+03  0.00000000000E+00 0.  1.
         11    1    5    5    0    0 -0.63147165820E+02  0.25069248742E+03 -0.18544666062E+03  0.31815837524E+03  0.00000000000E+00 0. -1.
        -11    1    5    5    0    0  0.76719808191E+01  0.46377303345E+03 -0.33853085045E+03  0.57423638213E+03  0.00000000000E+00 0.  1.
          2    1    6    6  503    0 -0.80019967414E+02  0.40717414702E+02  0.10467283286E+03  0.13790397015E+03  0.00000000000E+00 0. -1.
         -2    1    6    6    0  503 -0.24121013322E+02  0.95511808224E+02  0.20715950271E+03  0.22938916356E+03  0.00000000000E+00 0.  1.
<mgrwt>
<rscale>  0 0.22655307E+04</rscale>
<asrwt>0</asrwt>
<pdfrwt beam="1">  1        1 0.20270493E+00 0.22655307E+04</pdfrwt>
<pdfrwt beam="2">  1       -2 0.14982659E+00 0.22655307E+04</pdfrwt>
<totfact> 0.21012785E+00</totfact>
</mgrwt>
</event>
<event>
12    4  0.4398275E-008  0.1398794E+04  0.7818608E-02  0.8954692E-01
         -2   -1    0    0    0  501 -0.00000000000E+00  0.00000000000E+00  0.21806502318E+03  0.21806502318E+03  0.00000000000E+00 0.  1.
          1   -1    0    0  501    0  0.00000000000E+00 -0.00000000000E+00 -0.22431651162E+04  0.22431651162E+04  0.00000000000E+00 0. -1.
        -24    2    1    2    0    0 -0.14133302514E+03 -0.86855932793E+02 -0.13224826878E+04  0.13352413817E+04  0.79938167735E+02 0.  0.
        254    2    1    2    0    0  0.14133302514E+03  0.86855932793E+02 -0.70261740518E+03  0.11259887577E+04  0.86409518420E+03 0.  0.
         23    2    4    4    0    0  0.72771724026E+02  0.10762872701E+03  0.17622498076E+03  0.23965325259E+03  0.97461638284E+02 0.  0.
         23    2    4    4    0    0  0.68561301113E+02 -0.20772794213E+02 -0.87884238594E+03  0.88633550511E+03  0.89969590977E+02 0.  0.
          1    1    3    3  502    0 -0.71296752811E+02 -0.41171427051E+02 -0.94642204140E+03  0.94999631253E+03  0.00000000000E+00 0. -1.
         -2    1    3    3    0  502 -0.70036272328E+02 -0.45684505742E+02 -0.37606064642E+03  0.38524506913E+03  0.00000000000E+00 0.  1.
         11    1    5    5    0    0  0.80656562345E+02  0.11649201262E+03  0.17816043255E+03  0.22763349881E+03  0.00000000000E+00 0.  1.
        -11    1    5    5    0    0 -0.78848383188E+01 -0.88632856181E+01 -0.19354517874E+01  0.12019753778E+02  0.00000000000E+00 0. -1.
          1    1    6    6  503    0  0.17304737680E+01  0.30631878209E+02 -0.24039944011E+03  0.24234932908E+03  0.00000000000E+00 0. -1.
         -1    1    6    6    0  503  0.66830827345E+02 -0.51404672422E+02 -0.63844294583E+03  0.64398617603E+03  0.00000000000E+00 0.  1.
<mgrwt>
<rscale>  0 0.13987936E+04</rscale>
<asrwt>0</asrwt>
<pdfrwt beam="1">  1        1 0.34510231E+00 0.13987936E+04</pdfrwt>
<pdfrwt beam="2">  1       -2 0.33548467E-01 0.13987936E+04</pdfrwt>
<totfact> 0.14504005E+01</totfact>
</mgrwt>
</event>
<event>
12    4  0.4398275E-008  0.1276833E+04  0.7818608E-02  0.9048141E-01
         -2   -1    0    0    0  501 -0.00000000000E+00  0.00000000000E+00  0.39349441349E+03  0.39349441349E+03  0.00000000000E+00 0.  1.
          1   -1    0    0  501    0  0.00000000000E+00 -0.00000000000E+00 -0.10357853020E+04  0.10357853020E+04  0.00000000000E+00 0. -1.
        -24    2    1    2    0    0  0.14856130174E+01 -0.48559160657E+02  0.18614420258E+03  0.20777998363E+03  0.78502600667E+02 0.  0.
        254    2    1    2    0    0 -0.14856130174E+01  0.48559160657E+02 -0.82843509105E+03  0.12214997318E+04  0.89632399031E+03 0.  0.
         23    2    4    4    0    0 -0.54106679965E+02 -0.32921950133E+03 -0.74319169724E+03  0.81958617713E+03  0.89858722560E+02 0.  0.
         23    2    4    4    0    0  0.52621066948E+02  0.37777866199E+03 -0.85243393809E+02  0.40191355469E+03  0.93714327146E+02 0.  0.
          1    1    3    3  502    0 -0.12024363877E+02  0.17805111354E+02  0.24886236068E+02  0.32877531273E+02  0.00000000000E+00 0. -1.
         -2    1    3    3    0  502  0.13509976895E+02 -0.66364272011E+02  0.16125796651E+03  0.17490245235E+03  0.00000000000E+00 0.  1.
         11    1    5    5    0    0 -0.62176520185E+01 -0.40673527736E+01 -0.70596880910E+02  0.70986774468E+02  0.00000000000E+00 0.  1.
        -11    1    5    5    0    0 -0.47889027947E+02 -0.32515214856E+03 -0.67259481633E+03  0.74859940266E+03  0.00000000000E+00 0. -1.
          1    1    6    6  503    0  0.37886513573E+02  0.17997059364E+03 -0.87217203091E+02  0.20354764307E+03  0.00000000000E+00 0. -1.
         -1    1    6    6    0  503  0.14734553375E+02  0.19780806835E+03  0.19738092821E+01  0.19836591162E+03  0.00000000000E+00 0.  1.
<mgrwt>
<rscale>  0 0.12768332E+04</rscale>
<asrwt>0</asrwt>
<pdfrwt beam="1">  1        1 0.15935158E+00 0.12768332E+04</pdfrwt>
<pdfrwt beam="2">  1       -2 0.60537604E-01 0.12768332E+04</pdfrwt>
<totfact> 0.31125191E+01</totfact>
</mgrwt>
</event>
<event>
12    4  0.4398275E-008  0.2177707E+04  0.7818608E-02  0.8527764E-01
          1   -1    0    0  501    0  0.00000000000E+00  0.00000000000E+00  0.75547271349E+03  0.75547271349E+03  0.00000000000E+00 0. -1.
         -2   -1    0    0    0  501 -0.00000000000E+00 -0.00000000000E+00 -0.15693516759E+04  0.15693516759E+04  0.00000000000E+00 0.  1.
        -24    2    1    2    0    0  0.84019622683E+03 -0.29145102657E+03 -0.50524965105E+03  0.10258091521E+04  0.78318618894E+02 0.  0.
        254    2    1    2    0    0 -0.84019622683E+03  0.29145102657E+03 -0.30862931141E+03  0.12990152374E+04  0.89516207171E+03 0.  0.
         23    2    4    4    0    0  0.17812170625E+03  0.64897850148E+02 -0.12323699891E+02  0.21087195350E+03  0.91520675262E+02 0.  0.
         23    2    4    4    0    0 -0.10183179331E+04  0.22655317642E+03 -0.29630561151E+03  0.10881432839E+04  0.89224639335E+02 0.  0.
          3    1    3    3  502    0  0.77688624921E+03 -0.27198967334E+03 -0.44228616323E+03  0.93442371374E+03  0.00000000000E+00 0. -1.
         -2    1    3    3    0  502  0.63309977623E+02 -0.19461353230E+02 -0.62963487821E+02  0.91385438308E+02  0.00000000000E+00 0.  1.
         11    1    5    5    0    0  0.18598513393E+03  0.53609234524E+02 -0.20865176993E+02  0.19467864721E+03  0.00000000000E+00 0.  1.
        -11    1    5    5    0    0 -0.78634276731E+01  0.11288615625E+02  0.85414771022E+01  0.16193306289E+02  0.00000000000E+00 0. -1.
          1    1    6    6  503    0 -0.12963231703E+02 -0.13836528981E+01  0.52771139166E+01  0.14064416192E+02  0.00000000000E+00 0. -1.
         -1    1    6    6    0  503 -0.10053547014E+04  0.22793682932E+03 -0.30158272543E+03  0.10740788677E+04  0.00000000000E+00 0.  1.
<mgrwt>
<rscale>  0 0.21777074E+04</rscale>
<asrwt>0</asrwt>
<pdfrwt beam="1">  1        1 0.11622657E+00 0.21777074E+04</pdfrwt>
<pdfrwt beam="2">  1       -2 0.24143872E+00 0.21777074E+04</pdfrwt>
<totfact> 0.14063817E+00</totfact>
</mgrwt>
</event>
<event>
12    4  0.4398275E-008  0.1676983E+04  0.7818608E-02  0.8774602E-01
          1   -1    0    0  501    0  0.00000000000E+00  0.00000000000E+00  0.39623056096E+03  0.39623056096E+03  0.00000000000E+00 0. -1.
         -2   -1    0    0    0  501 -0.00000000000E+00 -0.00000000000E+00 -0.17743901569E+04  0.17743901569E+04  0.00000000000E+00 0.  1.
        -24    2    1    2    0    0 -0.55382188166E+03 -0.10649241955E+03 -0.69973901768E+03  0.90210343467E+03  0.78080739986E+02 0.  0.
        254    2    1    2    0    0  0.55382188166E+03  0.10649241955E+03 -0.67842057824E+03  0.12685172832E+04  0.91149454453E+03 0.  0.
         23    2    4    4    0    0  0.10671721137E+02 -0.31622193998E+03 -0.40604912247E+03  0.52331506879E+03  0.94194322571E+02 0.  0.
         23    2    4    4    0    0  0.54315016053E+03  0.42271435953E+03 -0.27237145576E+03  0.74520221438E+03  0.86258934440E+02 0.  0.
          1    1    3    3  502    0 -0.81087463570E+02 -0.11559928008E+02 -0.14971099848E+03  0.17065225387E+03  0.00000000000E+00 0. -1.
         -2    1    3    3    0  502 -0.47273441809E+03 -0.94932491541E+02 -0.55002801920E+03  0.73145118080E+03  0.00000000000E+00 0.  1.
         11    1    5    5    0    0 -0.12193066020E+01 -0.31771674226E+03 -0.38582121549E+03  0.49980338669E+03  0.00000000000E+00 0. -1.
        -11    1    5    5    0    0  0.11891027739E+02  0.14948022763E+01 -0.20227906983E+02  0.23511682106E+02  0.00000000000E+00 0.  1.
          2    1    6    6  503    0  0.24964807789E+03  0.14095626388E+03 -0.10653648570E+03  0.30584776264E+03  0.00000000000E+00 0. -1.
         -2    1    6    6    0  503  0.29350208263E+03  0.28175809565E+03 -0.16583497006E+03  0.43935445174E+03  0.00000000000E+00 0.  1.
<mgrwt>
<rscale>  0 0.16769825E+04</rscale>
<asrwt>0</asrwt>
<pdfrwt beam="1">  1        1 0.60958548E-01 0.16769825E+04</pdfrwt>
<pdfrwt beam="2">  1       -2 0.27298310E+00 0.16769825E+04</pdfrwt>
<totfact> 0.23565809E+00</totfact>
</mgrwt>
</event>
<event>
12    4  0.4398275E-008  0.2232892E+04  0.7818608E-02  0.8504861E-01
          1   -1    0    0  501    0  0.00000000000E+00  0.00000000000E+00  0.14121233752E+04  0.14121233752E+04  0.00000000000E+00 0. -1.
         -2   -1    0    0    0  501 -0.00000000000E+00 -0.00000000000E+00 -0.88267923493E+03  0.88267923493E+03  0.00000000000E+00 0.  1.
        -24    2    1    2    0    0 -0.26424162894E+03 -0.87620547718E+03  0.13501373506E+02  0.91827973735E+03  0.74133071132E+02 0.  0.
        254    2    1    2    0    0  0.26424162894E+03  0.87620547718E+03  0.51594276676E+03  0.13765228728E+04  0.88941475364E+03 0.  0.
         23    2    4    4    0    0  0.11090625502E+03 -0.15029694558E+03  0.19691679042E+03  0.28689642578E+03  0.92972939744E+02 0.  0.
         23    2    4    4    0    0  0.15333537392E+03  0.10265024228E+04  0.31902597633E+03  0.10896264470E+04  0.91045371025E+02 0.  0.
          3    1    3    3  502    0 -0.70413119221E+02 -0.28317305606E+03 -0.27122721342E+02  0.29305396952E+03  0.00000000000E+00 0. -1.
         -4    1    3    3    0  502 -0.19382850972E+03 -0.59303242112E+03  0.40624094848E+02  0.62522576783E+03  0.00000000000E+00 0.  1.
         11    1    5    5    0    0 -0.15176718425E+02 -0.21663887657E+02  0.13013776122E+02  0.29479063410E+02  0.00000000000E+00 0. -1.
        -11    1    5    5    0    0  0.12608297345E+03 -0.12863305792E+03  0.18390301430E+03  0.25741736237E+03  0.00000000000E+00 0.  1.
          2    1    6    6  503    0  0.99410411439E+02  0.39616187700E+03  0.10449718774E+03  0.42159972122E+03  0.00000000000E+00 0. -1.
         -2    1    6    6    0  503  0.53924962482E+02  0.63034054576E+03  0.21452878859E+03  0.66802672577E+03  0.00000000000E+00 0.  1.
<mgrwt>
<rscale>  0 0.22328923E+04</rscale>
<asrwt>0</asrwt>
<pdfrwt beam="1">  1        1 0.21724975E+00 0.22328923E+04</pdfrwt>
<pdfrwt beam="2">  1       -2 0.13579680E+00 0.22328923E+04</pdfrwt>
<totfact> 0.23363668E+00</totfact>
</mgrwt>
</event>
<event>
12    4  0.4398275E-008  0.1794681E+04  0.7818608E-02  0.8709133E-01
         -2   -1    0    0    0  501 -0.00000000000E+00  0.00000000000E+00  0.84503763231E+03  0.84503763231E+03  0.00000000000E+00 0.  1.
          1   -1    0    0  501    0  0.00000000000E+00 -0.00000000000E+00 -0.95288089681E+03  0.95288089681E+03  0.00000000000E+00 0. -1.
        -24    2    1    2    0    0  0.11348749846E+03  0.58657581462E+03  0.26022253337E+03  0.65637247400E+03  0.78475850721E+02 0.  0.
        254    2    1    2    0    0 -0.11348749846E+03 -0.58657581462E+03 -0.36806579787E+03  0.11415460551E+04  0.90039122929E+03 0.  0.
         23    2    4    4    0    0 -0.86115199585E+02 -0.12229743735E+02 -0.52423138863E+03  0.53929220605E+03  0.91935523324E+02 0.  0.
         23    2    4    4    0    0 -0.27372298875E+02 -0.57434607089E+03  0.15616559076E+03  0.60225384906E+03  0.87745969057E+02 0.  0.
          1    1    3    3  502    0  0.36617921331E+02  0.30526911882E+03  0.16885730489E+03  0.35077470901E+03  0.00000000000E+00 0. -1.
         -2    1    3    3    0  502  0.76869577129E+02  0.28130669580E+03  0.91365228481E+02  0.30559776499E+03  0.00000000000E+00 0.  1.
         11    1    5    5    0    0 -0.34910295134E+02  0.36232010776E+02 -0.14291331522E+03  0.15151139554E+03  0.00000000000E+00 0. -1.
        -11    1    5    5    0    0 -0.51204904451E+02 -0.48461754511E+02 -0.38131807341E+03  0.38778081051E+03  0.00000000000E+00 0.  1.
          1    1    6    6  503    0 -0.34434422800E+02 -0.45984958927E+03  0.90038519100E+02  0.46984498416E+03  0.00000000000E+00 0. -1.
         -1    1    6    6    0  503  0.70621239250E+01 -0.11449648162E+03  0.66127071660E+02  0.13240886490E+03  0.00000000000E+00 0.  1.
<mgrwt>
<rscale>  0 0.17946813E+04</rscale>
<asrwt>0</asrwt>
<pdfrwt beam="1">  1        1 0.14659706E+00 0.17946813E+04</pdfrwt>
<pdfrwt beam="2">  1       -2 0.13000579E+00 0.17946813E+04</pdfrwt>
<totfact> 0.59235529E+00</totfact>
</mgrwt>
</event>
<event>
12    4  0.4398275E-008  0.2461900E+04  0.7818608E-02  0.8416686E-01
         -2   -1    0    0    0  501 -0.00000000000E+00  0.00000000000E+00  0.83497742531E+03  0.83497742531E+03  0.00000000000E+00 0.  1.
          1   -1    0    0  501    0  0.00000000000E+00 -0.00000000000E+00 -0.18147049181E+04  0.18147049181E+04  0.00000000000E+00 0. -1.
        -24    2    1    2    0    0  0.44331377919E+03  0.94134517430E+03 -0.70290414332E+03  0.12581342477E+04  0.78547480194E+02 0.  0.
        254    2    1    2    0    0 -0.44331377919E+03 -0.94134517430E+03 -0.27682334950E+03  0.13915480957E+04  0.88154245039E+03 0.  0.
         23    2    4    4    0    0 -0.22760269257E+03 -0.30315299538E+02 -0.37080633590E+03  0.44553676669E+03  0.91014661871E+02 0.  0.
         23    2    4    4    0    0 -0.21571108662E+03 -0.91102987476E+03  0.93982986403E+02  0.94601132901E+03  0.97969011918E+02 0.  0.
          3    1    3    3  502    0  0.43528536732E+03  0.90355379229E+03 -0.69013630948E+03  0.12174444267E+04  0.00000000000E+00 0. -1.
         -4    1    3    3    0  502  0.80284118698E+01  0.37791382008E+02 -0.12767833846E+02  0.40689820991E+02  0.00000000000E+00 0.  1.
         11    1    5    5    0    0 -0.92615640260E+01 -0.24664688143E+02 -0.23742253894E+02  0.35465730351E+02  0.00000000000E+00 0. -1.
        -11    1    5    5    0    0 -0.21834112854E+03 -0.56506113956E+01 -0.34706408201E+03  0.41007103634E+03  0.00000000000E+00 0.  1.
          3    1    6    6  503    0 -0.94161741791E+02 -0.55104122407E+03  0.88682889488E+02  0.56601900951E+03  0.00000000000E+00 0. -1.
         -3    1    6    6    0  503 -0.12154934483E+03 -0.35998865069E+03  0.53000969155E+01  0.37999231950E+03  0.00000000000E+00 0.  1.
<mgrwt>
<rscale>  0 0.24618998E+04</rscale>
<asrwt>0</asrwt>
<pdfrwt beam="1">  1        1 0.27918537E+00 0.24618998E+04</pdfrwt>
<pdfrwt beam="2">  1       -2 0.12845807E+00 0.24618998E+04</pdfrwt>
<totfact> 0.13955037E+00</totfact>
</mgrwt>
</event>
<event>
12    4  0.4398275E-008  0.1807111E+04  0.7818608E-02  0.8702527E-01
          1   -1    0    0  501    0  0.00000000000E+00  0.00000000000E+00  0.75910002974E+03  0.75910002974E+03  0.00000000000E+00 0. -1.
         -2   -1    0    0    0  501 -0.00000000000E+00 -0.00000000000E+00 -0.10755009793E+04  0.10755009793E+04  0.00000000000E+00 0.  1.
        -24    2    1    2    0    0  0.13912189911E+03  0.31237082765E+03  0.47536707316E+03  0.59103702219E+03  0.80127838921E+02 0.  0.
        254    2    1    2    0    0 -0.13912189911E+03 -0.31237082765E+03 -0.79176802275E+03  0.12435639869E+04  0.89589304654E+03 0.  0.
         23    2    4    4    0    0 -0.17341776386E+03 -0.38989122982E+03 -0.94809021277E+03  0.10437046264E+04  0.91407896889E+02 0.  0.
         23    2    4    4    0    0  0.34295864753E+02  0.77520402168E+02  0.15632219002E+03  0.19985936052E+03  0.91222353638E+02 0.  0.
          1    1    3    3  502    0  0.12509334954E+03  0.22123643292E+03  0.38920481880E+03  0.46483792480E+03  0.00000000000E+00 0. -1.
         -2    1    3    3    0  502  0.14028549576E+02  0.91134394730E+02  0.86162254357E+02  0.12619909739E+03  0.00000000000E+00 0.  1.
         11    1    5    5    0    0 -0.92800750622E+02 -0.11338115733E+03 -0.36651333962E+03  0.39471419315E+03  0.00000000000E+00 0. -1.
        -11    1    5    5    0    0 -0.80617013243E+02 -0.27651007249E+03 -0.58157687315E+03  0.64899043320E+03  0.00000000000E+00 0.  1.
          4    1    6    6  503    0  0.39872886742E+01  0.91092113427E+02  0.11869684030E+03  0.14967501961E+03  0.00000000000E+00 0.  1.
         -4    1    6    6    0  503  0.30308576079E+02 -0.13571711260E+02  0.37625349725E+02  0.50184340908E+02  0.00000000000E+00 0. -1.
<mgrwt>
<rscale>  0 0.18071113E+04</rscale>
<asrwt>0</asrwt>
<pdfrwt beam="1">  1        1 0.11678462E+00 0.18071113E+04</pdfrwt>
<pdfrwt beam="2">  1       -2 0.16546169E+00 0.18071113E+04</pdfrwt>
<totfact> 0.45585632E+00</totfact>
</mgrwt>
</event>
<event>
12    4  0.4398275E-008  0.2180919E+04  0.7818608E-02  0.8526412E-01
          1   -1    0    0  501    0  0.00000000000E+00  0.00000000000E+00  0.15431662706E+04  0.15431662706E+04  0.00000000000E+00 0. -1.
         -2   -1    0    0    0  501 -0.00000000000E+00 -0.00000000000E+00 -0.77055985524E+03  0.77055985524E+03  0.00000000000E+00 0.  1.
        -24    2    1    2    0    0  0.16192210517E+03 -0.22228263214E+02 -0.62268904205E+03  0.64856800377E+03  0.78650801661E+02 0.  0.
        254    2    1    2    0    0 -0.16192210517E+03  0.22228263214E+02  0.13952954574E+04  0.16651581220E+04  0.89397387781E+03 0.  0.
         23    2    4    4    0    0  0.10863966874E+03 -0.13096121506E+03  0.13176928808E+04  0.13318251662E+04  0.92142975350E+02 0.  0.
         23    2    4    4    0    0 -0.27056177391E+03  0.15318947828E+03  0.77602576597E+02  0.33333295581E+03  0.91749712674E+02 0.  0.
          1    1    3    3  502    0  0.43777406362E+02  0.62690113004E+01 -0.70964869896E+02  0.83616831857E+02  0.00000000000E+00 0. -1.
         -4    1    3    3    0  502  0.11814469881E+03 -0.28497274514E+02 -0.55172417215E+03  0.56495117191E+03  0.00000000000E+00 0.  1.
         11    1    5    5    0    0  0.56280635010E+02 -0.41993559991E+02  0.84896672530E+03  0.85186587537E+03  0.00000000000E+00 0.  1.
        -11    1    5    5    0    0  0.52359033731E+02 -0.88967655070E+02  0.46872615547E+03  0.47995929086E+03  0.00000000000E+00 0. -1.
          2    1    6    6  503    0 -0.13874444096E+03  0.37900912488E+02  0.54518979665E+01  0.14393131090E+03  0.00000000000E+00 0.  1.
         -2    1    6    6    0  503 -0.13181733295E+03  0.11528856579E+03  0.72150678630E+02  0.18940164491E+03  0.00000000000E+00 0. -1.
<mgrwt>
<rscale>  0 0.21809191E+04</rscale>
<asrwt>0</asrwt>
<pdfrwt beam="1">  1        1 0.23741020E+00 0.21809191E+04</pdfrwt>
<pdfrwt beam="2">  1       -2 0.11854767E+00 0.21809191E+04</pdfrwt>
<totfact> 0.26797459E+00</totfact>
</mgrwt>
</event>
<event>
12    4  0.4398275E-008  0.1804202E+04  0.7818608E-02  0.8704068E-01
          1   -1    0    0  501    0  0.00000000000E+00  0.00000000000E+00  0.10366615609E+04  0.10366615609E+04  0.00000000000E+00 0. -1.
         -2   -1    0    0    0  501 -0.00000000000E+00 -0.00000000000E+00 -0.78500672702E+03  0.78500672702E+03  0.00000000000E+00 0.  1.
        -24    2    1    2    0    0 -0.42438602686E+03  0.34537290765E+03 -0.30556613617E+03  0.63180158986E+03  0.80103933977E+02 0.  0.
        254    2    1    2    0    0  0.42438602686E+03 -0.34537290765E+03  0.55722097004E+03  0.11898666980E+04  0.89772022620E+03 0.  0.
         23    2    4    4    0    0  0.30339292787E+03 -0.49680597155E+03  0.71307641955E+03  0.92501989781E+03  0.91216167374E+02 0.  0.
         23    2    4    4    0    0  0.12099309899E+03  0.15143306390E+03 -0.15585544951E+03  0.26484680023E+03  0.91003316465E+02 0.  0.
          1    1    3    3  502    0 -0.20265677926E+03  0.20738869452E+03 -0.13478646815E+03  0.31976121214E+03  0.00000000000E+00 0. -1.
         -4    1    3    3    0  502 -0.22172924760E+03  0.13798421313E+03 -0.17077966803E+03  0.31204037772E+03  0.00000000000E+00 0.  1.
         11    1    5    5    0    0  0.20132181738E+03 -0.38553977958E+03  0.57017554478E+03  0.71712728833E+03  0.00000000000E+00 0.  1.
        -11    1    5    5    0    0  0.10207111049E+03 -0.11126619196E+03  0.14290087477E+03  0.20789260949E+03  0.00000000000E+00 0. -1.
          2    1    6    6  503    0 -0.57908207301E+01  0.30156134015E+02 -0.82663372816E+00  0.30718224994E+02  0.00000000000E+00 0. -1.
         -2    1    6    6    0  503  0.12678391972E+03  0.12127692988E+03 -0.15502881578E+03  0.23412857524E+03  0.00000000000E+00 0.  1.
<mgrwt>
<rscale>  0 0.18042021E+04</rscale>
<asrwt>0</asrwt>
<pdfrwt beam="1">  1        1 0.15948639E+00 0.18042021E+04</pdfrwt>
<pdfrwt beam="2">  1       -2 0.12077027E+00 0.18042021E+04</pdfrwt>
<totfact> 0.61242186E+00</totfact>
</mgrwt>
</event>
<event>
12    4  0.4398275E-008  0.1204344E+04  0.7818608E-02  0.9109063E-01
          1   -1    0    0  501    0  0.00000000000E+00  0.00000000000E+00  0.17494623891E+04  0.17494623891E+04  0.00000000000E+00 0. -1.
         -2   -1    0    0    0  501 -0.00000000000E+00 -0.00000000000E+00 -0.20726994026E+03  0.20726994026E+03  0.00000000000E+00 0.  1.
        -24    2    1    2    0    0  0.59379045079E+02 -0.23116323089E+01 -0.59241754115E+02  0.11648491735E+03  0.80795642834E+02 0.  0.
        254    2    1    2    0    0 -0.59379045079E+02  0.23116323089E+01  0.16014342030E+04  0.18402474121E+04  0.90464789638E+03 0.  0.
         23    2    4    4    0    0  0.39762747740E+03 -0.11792524964E+03  0.77377700815E+03  0.88253490464E+03  0.90127821839E+02 0.  0.
         23    2    4    4    0    0 -0.45700652248E+03  0.12023688195E+03  0.82765719483E+03  0.95771250741E+03  0.94259987950E+02 0.  0.
          3    1    3    3  502    0 -0.15178576068E+01  0.10187708126E+02 -0.53016227973E+02  0.54007533892E+02  0.00000000000E+00 0. -1.
         -4    1    3    3    0  502  0.60896902686E+02 -0.12499340435E+02 -0.62255261423E+01  0.62477383458E+02  0.00000000000E+00 0.  1.
         11    1    5    5    0    0  0.13454685733E+03 -0.28525715034E+01  0.29508635800E+03  0.32432538084E+03  0.00000000000E+00 0. -1.
        -11    1    5    5    0    0  0.26308062007E+03 -0.11507267814E+03  0.47869065016E+03  0.55820952379E+03  0.00000000000E+00 0.  1.
          1    1    6    6  503    0 -0.38101586507E+02  0.17877564322E+02  0.32594644237E+02  0.53232969421E+02  0.00000000000E+00 0. -1.
         -1    1    6    6    0  503 -0.41890493597E+03  0.10235931763E+03  0.79506255060E+03  0.90447953799E+03  0.00000000000E+00 0.  1.
<mgrwt>
<rscale>  0 0.12043437E+04</rscale>
<asrwt>0</asrwt>
<pdfrwt beam="1">  1        1 0.26914805E+00 0.12043437E+04</pdfrwt>
<pdfrwt beam="2">  1       -2 0.31887684E-01 0.12043437E+04</pdfrwt>
<totfact> 0.35039382E+01</totfact>
</mgrwt>
</event>
<event>
12    4  0.4398275E-008  0.1536451E+04  0.7818608E-02  0.8860569E-01
          1   -1    0    0  501    0  0.00000000000E+00  0.00000000000E+00  0.17160738622E+04  0.17160738622E+04  0.00000000000E+00 0. -1.
         -2   -1    0    0    0  501 -0.00000000000E+00 -0.00000000000E+00 -0.34390733074E+03  0.34390733074E+03  0.00000000000E+00 0.  1.
        -24    2    1    2    0    0 -0.30932971036E+02  0.48760705604E+03  0.36866528278E+03  0.61705616535E+03  0.78273435289E+02 0.  0.
        254    2    1    2    0    0  0.30932971036E+02 -0.48760705604E+03  0.10035012487E+04  0.14429250276E+04  0.91449460870E+03 0.  0.
         23    2    4    4    0    0 -0.73466164767E+02 -0.67914022758E+03  0.40462757897E+03  0.79911962165E+03  0.90774258287E+02 0.  0.
         23    2    4    4    0    0  0.10439913580E+03  0.19153317154E+03  0.59887366970E+03  0.64380540593E+03  0.90838279865E+02 0.  0.
          3    1    3    3  502    0 -0.10752900265E+02  0.45107401114E+02  0.65630299339E+02  0.80359434361E+02  0.00000000000E+00 0. -1.
         -4    1    3    3    0  502 -0.20180070771E+02  0.44249965492E+03  0.30303498344E+03  0.53669673099E+03  0.00000000000E+00 0.  1.
         11    1    5    5    0    0  0.13880644117E+02 -0.10640660289E+03  0.39727480871E+02  0.11442600297E+03  0.00000000000E+00 0.  1.
        -11    1    5    5    0    0 -0.87346808884E+02 -0.57273362469E+03  0.36490009809E+03  0.68469361868E+03  0.00000000000E+00 0. -1.
          1    1    6    6  503    0  0.96087739534E+02  0.20150537743E+03  0.56941534626E+03  0.61161352779E+03  0.00000000000E+00 0. -1.
         -1    1    6    6    0  503  0.83113962695E+01 -0.99722058882E+01  0.29458323445E+02  0.32191878143E+02  0.00000000000E+00 0.  1.
<mgrwt>
<rscale>  0 0.15364510E+04</rscale>
<asrwt>0</asrwt>
<pdfrwt beam="1">  1        1 0.26401136E+00 0.15364510E+04</pdfrwt>
<pdfrwt beam="2">  1       -2 0.52908821E-01 0.15364510E+04</pdfrwt>
<totfact> 0.13255482E+01</totfact>
</mgrwt>
</event>
<event>
12    4  0.4398275E-008  0.2486391E+04  0.7818608E-02  0.8407850E-01
         -2   -1    0    0    0  501 -0.00000000000E+00  0.00000000000E+00  0.99993594180E+03  0.99993594180E+03  0.00000000000E+00 0.  1.
          1   -1    0    0  501    0  0.00000000000E+00 -0.00000000000E+00 -0.15456335883E+04  0.15456335883E+04  0.00000000000E+00 0. -1.
        -24    2    1    2    0    0 -0.27984342067E+03 -0.27224540015E+03 -0.12652576614E+04  0.13257598299E+04  0.65820049666E+02 0.  0.
        254    2    1    2    0    0  0.27984342067E+03  0.27224540015E+03  0.71956001491E+03  0.12198097002E+04  0.90428932956E+03 0.  0.
         23    2    4    4    0    0  0.45935729371E+02 -0.22157615232E+03  0.60778964709E+03  0.65480425432E+03  0.90301018022E+02 0.  0.
         23    2    4    4    0    0  0.23390769130E+03  0.49382155246E+03  0.11177036782E+03  0.56500544585E+03  0.90365950357E+02 0.  0.
          1    1    3    3  502    0 -0.22484547812E+03 -0.17946944452E+03 -0.94592742724E+03  0.98870797921E+03  0.00000000000E+00 0. -1.
         -2    1    3    3    0  502 -0.54997942552E+02 -0.92775955626E+02 -0.31933023412E+03  0.33705185069E+03  0.00000000000E+00 0.  1.
         11    1    5    5    0    0 -0.13553271882E+02 -0.67277742459E-01  0.47265161154E+02  0.49170023021E+02  0.00000000000E+00 0.  1.
        -11    1    5    5    0    0  0.59489001253E+02 -0.22150887458E+03  0.56052448593E+03  0.60563423129E+03  0.00000000000E+00 0. -1.
          3    1    6    6  503    0  0.64640355982E+02  0.96322101939E+02  0.57816002587E+02  0.12961100686E+03  0.00000000000E+00 0.  1.
         -3    1    6    6    0  503  0.16926733532E+03  0.39749945053E+03  0.53954365236E+02  0.43539443899E+03  0.00000000000E+00 0. -1.
<mgrwt>
<rscale>  0 0.24863906E+04</rscale>
<asrwt>0</asrwt>
<pdfrwt beam="1">  1        1 0.23778978E+00 0.24863906E+04</pdfrwt>
<pdfrwt beam="2">  1       -2 0.15383630E+00 0.24863906E+04</pdfrwt>
<totfact> 0.13309275E+00</totfact>
</mgrwt>
</event>
<event>
12    4  0.4398275E-008  0.1340996E+04  0.7818608E-02  0.8997672E-01
          1   -1    0    0  501    0  0.00000000000E+00  0.00000000000E+00  0.12552774099E+04  0.12552774099E+04  0.00000000000E+00 0. -1.
         -2   -1    0    0    0  501 -0.00000000000E+00 -0.00000000000E+00 -0.35814175169E+03  0.35814175169E+03  0.00000000000E+00 0.  1.
        -24    2    1    2    0    0 -0.11067962909E+03  0.60648025632E+02  0.66369338790E+03  0.68169785205E+03  0.91076259452E+02 0.  0.
        254    2    1    2    0    0  0.11067962909E+03 -0.60648025632E+02  0.23344227029E+03  0.93172130952E+03  0.89312996913E+03 0.  0.
         23    2    4    4    0    0 -0.20590702694E+03  0.31054256585E+03  0.20340401625E+03  0.43453776197E+03  0.92819630506E+02 0.  0.
         23    2    4    4    0    0  0.31658665603E+03 -0.37119059148E+03  0.30038254038E+02  0.49718354755E+03  0.90992402225E+02 0.  0.
          1    1    3    3  502    0 -0.75031562707E+02  0.56673555016E+02  0.60949241289E+03  0.61670303113E+03  0.00000000000E+00 0. -1.
         -2    1    3    3    0  502 -0.35648066384E+02  0.39744706160E+01  0.54200975015E+02  0.64994820918E+02  0.00000000000E+00 0.  1.
         11    1    5    5    0    0 -0.12630567500E+03  0.15629391149E+03  0.15659313944E+03  0.25475934060E+03  0.00000000000E+00 0.  1.
        -11    1    5    5    0    0 -0.79601351943E+02  0.15424865436E+03  0.46810876811E+02  0.17977842137E+03  0.00000000000E+00 0. -1.
          2    1    6    6  503    0  0.25061822569E+03 -0.32016358572E+03  0.54608658834E+02  0.41023934756E+03  0.00000000000E+00 0.  1.
         -2    1    6    6    0  503  0.65968430343E+02 -0.51027005761E+02 -0.24570404796E+02  0.86944199983E+02  0.00000000000E+00 0. -1.
<mgrwt>
<rscale>  0 0.13409955E+04</rscale>
<asrwt>0</asrwt>
<pdfrwt beam="1">  1        1 0.19311960E+00 0.13409955E+04</pdfrwt>
<pdfrwt beam="2">  1       -2 0.55098732E-01 0.13409955E+04</pdfrwt>
<totfact> 0.25920076E+01</totfact>
</mgrwt>
</event>
<event>
12    4  0.4398275E-008  0.1584261E+04  0.7818608E-02  0.8830276E-01
         -2   -1    0    0    0  501 -0.00000000000E+00  0.00000000000E+00  0.17266504201E+04  0.17266504201E+04  0.00000000000E+00 0.  1.
          1   -1    0    0  501    0  0.00000000000E+00 -0.00000000000E+00 -0.36340365806E+03  0.36340365806E+03  0.00000000000E+00 0. -1.
        -24    2    1    2    0    0  0.22702154767E+03  0.25798343342E+03 -0.76359869004E+02  0.36142169987E+03  0.81857073709E+02 0.  0.
        254    2    1    2    0    0 -0.22702154767E+03 -0.25798343342E+03  0.14396066310E+04  0.17286323782E+04  0.89308925202E+03 0.  0.
         23    2    4    4    0    0 -0.84583860101E+02  0.95508797628E+02  0.13051985110E+04  0.13144193491E+04  0.88762110077E+02 0.  0.
         23    2    4    4    0    0 -0.14243768757E+03 -0.35349223105E+03  0.13440811996E+03  0.41421302918E+03  0.90893556288E+02 0.  0.
          1    1    3    3  502    0  0.15033698252E+03  0.16513675684E+03 -0.88872317893E+02  0.24035316861E+03  0.00000000000E+00 0. -1.
         -2    1    3    3    0  502  0.76684565152E+02  0.92846676582E+02  0.12512448889E+02  0.12106853126E+03  0.00000000000E+00 0.  1.
         11    1    5    5    0    0 -0.42006113956E+02  0.46937206634E+02  0.10223876528E+04  0.10243261822E+04  0.00000000000E+00 0.  1.
        -11    1    5    5    0    0 -0.42577746145E+02  0.48571590994E+02  0.28281085820E+03  0.29009316682E+03  0.00000000000E+00 0. -1.
          2    1    6    6  503    0 -0.11830997720E+03 -0.18403383078E+03  0.55380385038E+02  0.22568271671E+03  0.00000000000E+00 0. -1.
         -2    1    6    6    0  503 -0.24127710372E+02 -0.16945840027E+03  0.79027734924E+02  0.18853031247E+03  0.00000000000E+00 0.  1.
<mgrwt>
<rscale>  0 0.15842614E+04</rscale>
<asrwt>0</asrwt>
<pdfrwt beam="1">  1        1 0.55908256E-01 0.15842614E+04</pdfrwt>
<pdfrwt beam="2">  1       -2 0.26563852E+00 0.15842614E+04</pdfrwt>
<totfact> 0.29523130E+00</totfact>
</mgrwt>
</event>
<event>
12    4  0.4398275E-008  0.1983654E+04  0.7818608E-02  0.8614301E-01
         -2   -1    0    0    0  501 -0.00000000000E+00  0.00000000000E+00  0.13504249750E+04  0.13504249750E+04  0.00000000000E+00 0.  1.
          1   -1    0    0  501    0  0.00000000000E+00 -0.00000000000E+00 -0.72845268498E+03  0.72845268498E+03  0.00000000000E+00 0. -1.
        -24    2    1    2    0    0  0.66261199599E+03 -0.39972509142E+03  0.41003673306E+03  0.87945131437E+03  0.80434358003E+02 0.  0.
        254    2    1    2    0    0 -0.66261199599E+03  0.39972509142E+03  0.21193555691E+03  0.11994263456E+04  0.89155598378E+03 0.  0.
         23    2    4    4    0    0 -0.64740739483E+03  0.26893126880E+03 -0.21863503395E+03  0.74033853417E+03  0.94018641129E+02 0.  0.
         23    2    4    4    0    0 -0.15204601157E+02  0.13079382262E+03  0.43057059086E+03  0.45908781140E+03  0.89623551196E+02 0.  0.
          3    1    3    3  502    0  0.42051726043E+03 -0.23617933089E+03  0.29559064566E+03  0.56567594297E+03  0.00000000000E+00 0. -1.
         -4    1    3    3    0  502  0.24209473556E+03 -0.16354576053E+03  0.11444608741E+03  0.31377537139E+03  0.00000000000E+00 0.  1.
         11    1    5    5    0    0 -0.31480517054E+03  0.87776731452E+02 -0.12740582451E+03  0.35076957408E+03  0.00000000000E+00 0.  1.
        -11    1    5    5    0    0 -0.33260222429E+03  0.18115453735E+03 -0.91229209441E+02  0.38956896009E+03  0.00000000000E+00 0. -1.
          3    1    6    6  503    0 -0.39337530800E+02  0.12553186319E+03  0.39000635264E+03  0.41159524427E+03  0.00000000000E+00 0. -1.
         -3    1    6    6    0  503  0.24132929642E+02  0.52619594301E+01  0.40564238223E+02  0.47492567132E+02  0.00000000000E+00 0.  1.
<mgrwt>
<rscale>  0 0.19836539E+04</rscale>
<asrwt>0</asrwt>
<pdfrwt beam="1">  1        1 0.11206964E+00 0.19836539E+04</pdfrwt>
<pdfrwt beam="2">  1       -2 0.20775769E+00 0.19836539E+04</pdfrwt>
<totfact> 0.24676020E+00</totfact>
</mgrwt>
</event>
<event>
12    4  0.4398275E-008  0.2493650E+04  0.7818608E-02  0.8405251E-01
          1   -1    0    0  501    0  0.00000000000E+00  0.00000000000E+00  0.14541819511E+04  0.14541819511E+04  0.00000000000E+00 0. -1.
         -2   -1    0    0    0  501 -0.00000000000E+00 -0.00000000000E+00 -0.10690356651E+04  0.10690356651E+04  0.00000000000E+00 0.  1.
        -24    2    1    2    0    0  0.92136425283E+03  0.88187526540E+01  0.74728029367E+03  0.11894706817E+04  0.86155722466E+02 0.  0.
        254    2    1    2    0    0 -0.92136425283E+03 -0.88187526540E+01 -0.36213400765E+03  0.13337469344E+04  0.89372814035E+03 0.  0.
         23    2    4    4    0    0 -0.74145002740E+03 -0.72258746117E+02  0.16311922128E+03  0.76799739390E+03  0.90789025630E+02 0.  0.
         23    2    4    4    0    0 -0.17991422544E+03  0.63439993463E+02 -0.52525322892E+03  0.56574954054E+03  0.88248664821E+02 0.  0.
          3    1    3    3  502    0  0.87474723502E+03 -0.76653441016E+01  0.69274578923E+03  0.11158576124E+04  0.00000000000E+00 0. -1.
         -4    1    3    3    0  502  0.46617017817E+02  0.16484096756E+02  0.54534504441E+02  0.73613069292E+02  0.00000000000E+00 0.  1.
         11    1    5    5    0    0 -0.33699072078E+03 -0.10764795294E+02  0.33380500515E+02  0.33881098642E+03  0.00000000000E+00 0.  1.
        -11    1    5    5    0    0 -0.40445930662E+03 -0.61493950823E+02  0.12973872076E+03  0.42918640748E+03  0.00000000000E+00 0. -1.
          4    1    6    6  503    0 -0.14895404556E+03  0.65963907287E+02 -0.32976816832E+03  0.36781189431E+03  0.00000000000E+00 0. -1.
         -4    1    6    6    0  503 -0.30960179872E+02 -0.25239138239E+01 -0.19548506060E+03  0.19793764623E+03  0.00000000000E+00 0.  1.
<mgrwt>
<rscale>  0 0.24936498E+04</rscale>
<asrwt>0</asrwt>
<pdfrwt beam="1">  1        1 0.22372030E+00 0.24936498E+04</pdfrwt>
<pdfrwt beam="2">  1       -2 0.16446703E+00 0.24936498E+04</pdfrwt>
<totfact> 0.12834501E+00</totfact>
</mgrwt>
</event>
<event>
12    4  0.4398275E-008  0.1855970E+04  0.7818608E-02  0.8677089E-01
          1   -1    0    0  501    0  0.00000000000E+00  0.00000000000E+00  0.31180870089E+04  0.31180870089E+04  0.00000000000E+00 0. -1.
         -2   -1    0    0    0  501 -0.00000000000E+00 -0.00000000000E+00 -0.27618089346E+03  0.27618089346E+03  0.00000000000E+00 0.  1.
        -24    2    1    2    0    0  0.52443762924E+02  0.98061259400E+02 -0.18660082477E+03  0.23152472299E+03  0.80109117367E+02 0.  0.
        254    2    1    2    0    0 -0.52443762924E+02 -0.98061259400E+02  0.30285069402E+04  0.31627431794E+04  0.90483356089E+03 0.  0.
         23    2    4    4    0    0 -0.32232719825E+03 -0.37805667974E+03  0.18928136046E+04  0.19590649089E+04  0.91489342444E+02 0.  0.
         23    2    4    4    0    0  0.26988343532E+03  0.27999542034E+03  0.11356933356E+04  0.12036782704E+04  0.88360184097E+02 0.  0.
          1    1    3    3  502    0  0.15928210840E+02 -0.11569641612E+02 -0.15483561935E+02  0.25046061523E+02  0.00000000000E+00 0. -1.
         -2    1    3    3    0  502  0.36515552084E+02  0.10963090101E+03 -0.17111726283E+03  0.20647866147E+03  0.00000000000E+00 0.  1.
         11    1    5    5    0    0 -0.12877577520E+02 -0.21709757181E+02  0.41792600641E+02  0.48823836678E+02  0.00000000000E+00 0. -1.
        -11    1    5    5    0    0 -0.30944962073E+03 -0.35634692256E+03  0.18510210040E+04  0.19102410723E+04  0.00000000000E+00 0.  1.
          3    1    6    6  503    0  0.13435275737E+03  0.17803110129E+03  0.74717636532E+03  0.77975525476E+03  0.00000000000E+00 0. -1.
         -3    1    6    6    0  503  0.13553067795E+03  0.10196431905E+03  0.38851697028E+03  0.42392301567E+03  0.00000000000E+00 0.  1.
<mgrwt>
<rscale>  0 0.18559699E+04</rscale>
<asrwt>0</asrwt>
<pdfrwt beam="1">  1        1 0.47970567E+00 0.18559699E+04</pdfrwt>
<pdfrwt beam="2">  1       -2 0.42489370E-01 0.18559699E+04</pdfrwt>
<totfact> 0.21266201E+00</totfact>
</mgrwt>
</event>
<event>
12    4  0.4398275E-008  0.1486305E+04  0.7818608E-02  0.8893612E-01
          1   -1    0    0  501    0  0.00000000000E+00  0.00000000000E+00  0.19943615542E+04  0.19943615542E+04  0.00000000000E+00 0. -1.
         -2   -1    0    0    0  501 -0.00000000000E+00 -0.00000000000E+00 -0.27691837852E+03  0.27691837852E+03  0.00000000000E+00 0.  1.
        -24    2    1    2    0    0  0.19344697742E+03 -0.18213725939E+03  0.11276733551E+04  0.11613795217E+04  0.80990637066E+02 0.  0.
        254    2    1    2    0    0 -0.19344697742E+03  0.18213725939E+03  0.58976982067E+03  0.11099004111E+04  0.90191727275E+03 0.  0.
         23    2    4    4    0    0  0.10873901895E+03  0.44255749280E+03  0.51628283939E+03  0.69376961615E+03  0.84184329665E+02 0.  0.
         23    2    4    4    0    0 -0.30218599637E+03 -0.26042023341E+03  0.73486981277E+02  0.41613079496E+03  0.92894713114E+02 0.  0.
          3    1    3    3  502    0  0.18180104887E+03 -0.12934682387E+03  0.87628577707E+03  0.90424498080E+03  0.00000000000E+00 0. -1.
         -4    1    3    3    0  502  0.11645928552E+02 -0.52790435521E+02  0.25138757799E+03  0.25713454085E+03  0.00000000000E+00 0.  1.
         11    1    5    5    0    0  0.10153189092E+02  0.17429865199E+03  0.23508770459E+03  0.29282987584E+03  0.00000000000E+00 0. -1.
        -11    1    5    5    0    0  0.98585829858E+02  0.26825884081E+03  0.28119513480E+03  0.40093974030E+03  0.00000000000E+00 0.  1.
          3    1    6    6  503    0 -0.32486862399E+02 -0.56475337698E+02 -0.14489186198E+02  0.66744262025E+02  0.00000000000E+00 0. -1.
         -3    1    6    6    0  503 -0.26969913397E+03 -0.20394489571E+03  0.87976167475E+02  0.34938653294E+03  0.00000000000E+00 0.  1.
<mgrwt>
<rscale>  0 0.14863046E+04</rscale>
<asrwt>0</asrwt>
<pdfrwt beam="1">  1        1 0.30682485E+00 0.14863046E+04</pdfrwt>
<pdfrwt beam="2">  1       -2 0.42602829E-01 0.14863046E+04</pdfrwt>
<totfact> 0.13358202E+01</totfact>
</mgrwt>
</event>
<event>
12    4  0.4398275E-008  0.1540825E+04  0.7818608E-02  0.8857749E-01
         -2   -1    0    0    0  501 -0.00000000000E+00  0.00000000000E+00  0.42665024878E+03  0.42665024878E+03  0.00000000000E+00 0.  1.
          1   -1    0    0  501    0  0.00000000000E+00 -0.00000000000E+00 -0.13911525850E+04  0.13911525850E+04  0.00000000000E+00 0. -1.
        -24    2    1    2    0    0  0.46182881518E+03 -0.16134128852E+03 -0.39901109362E+03  0.63638742135E+03  0.80388004814E+02 0.  0.
        254    2    1    2    0    0 -0.46182881518E+03  0.16134128852E+03 -0.56549124260E+03  0.11814154124E+04  0.91468309558E+03 0.  0.
         23    2    4    4    0    0 -0.27249744008E+03  0.34228894135E+03 -0.72996581344E+03  0.85619414344E+03  0.93817632915E+02 0.  0.
         23    2    4    4    0    0 -0.18933137509E+03 -0.18094765283E+03  0.16447457084E+03  0.32522126898E+03  0.10064078042E+03 0.  0.
          1    1    3    3  502    0  0.16969597447E+03 -0.80284779762E+02 -0.19673792191E+03  0.27193414558E+03  0.00000000000E+00 0. -1.
         -2    1    3    3    0  502  0.29213284071E+03 -0.81056508762E+02 -0.20227317170E+03  0.36445327578E+03  0.00000000000E+00 0.  1.
         11    1    5    5    0    0 -0.20198116411E+03  0.30820594655E+03 -0.61879788088E+03  0.72020699353E+03  0.00000000000E+00 0.  1.
        -11    1    5    5    0    0 -0.70516275970E+02  0.34082994801E+02 -0.11116793256E+03  0.13598714991E+03  0.00000000000E+00 0. -1.
          4    1    6    6  503    0 -0.67609357254E+01 -0.43748066889E+02  0.84433239220E+00  0.44275461665E+02  0.00000000000E+00 0. -1.
         -4    1    6    6    0  503 -0.18257043937E+03 -0.13719958594E+03  0.16363023845E+03  0.28094580731E+03  0.00000000000E+00 0.  1.
<mgrwt>
<rscale>  0 0.15408252E+04</rscale>
<asrwt>0</asrwt>
<pdfrwt beam="1">  1        1 0.21402347E+00 0.15408252E+04</pdfrwt>
<pdfrwt beam="2">  1       -2 0.65638501E-01 0.15408252E+04</pdfrwt>
<totfact> 0.14092642E+01</totfact>
</mgrwt>
</event>
<event>
12    4  0.4398275E-008  0.1893566E+04  0.7818608E-02  0.8658066E-01
         -2   -1    0    0    0  501 -0.00000000000E+00  0.00000000000E+00  0.80057307476E+03  0.80057307476E+03  0.00000000000E+00 0.  1.
          1   -1    0    0  501    0  0.00000000000E+00 -0.00000000000E+00 -0.11196957556E+04  0.11196957556E+04  0.00000000000E+00 0. -1.
        -24    2    1    2    0    0  0.62702380138E+03  0.27741104238E+03  0.14063248260E+03  0.70504912396E+03  0.84858930614E+02 0.  0.
        254    2    1    2    0    0 -0.62702380138E+03 -0.27741104238E+03 -0.45975516343E+03  0.12152197064E+04  0.89177821826E+03 0.  0.
         23    2    4    4    0    0 -0.59505199229E+03 -0.17059981025E+03 -0.69737204585E+03  0.93703673889E+03  0.92297946341E+02 0.  0.
         23    2    4    4    0    0 -0.31971809086E+02 -0.10681123213E+03  0.23761688242E+03  0.27818296750E+03  0.92158259055E+02 0.  0.
          1    1    3    3  502    0  0.21758964428E+03  0.13637929175E+03  0.71113410390E+02  0.26646140744E+03  0.00000000000E+00 0. -1.
         -2    1    3    3    0  502  0.40943415709E+03  0.14103175063E+03  0.69519072208E+02  0.43858771652E+03  0.00000000000E+00 0.  1.
         11    1    5    5    0    0 -0.46301896330E+02  0.33480263851E+01 -0.83080349374E+02  0.95170475131E+02  0.00000000000E+00 0.  1.
        -11    1    5    5    0    0 -0.54875009596E+03 -0.17394783664E+03 -0.61429169648E+03  0.84186626376E+03  0.00000000000E+00 0. -1.
          4    1    6    6  503    0  0.98230402276E+01 -0.34150031890E+02  0.16014873558E+03  0.16404369633E+03  0.00000000000E+00 0. -1.
         -4    1    6    6    0  503 -0.41794849313E+02 -0.72661200237E+02  0.77468146842E+02  0.11413927117E+03  0.00000000000E+00 0.  1.
<mgrwt>
<rscale>  0 0.18935662E+04</rscale>
<asrwt>0</asrwt>
<pdfrwt beam="1">  1        1 0.17226088E+00 0.18935662E+04</pdfrwt>
<pdfrwt beam="2">  1       -2 0.12316509E+00 0.18935662E+04</pdfrwt>
<totfact> 0.50057358E+00</totfact>
</mgrwt>
</event>
<event>
12    4  0.4398275E-008  0.1294592E+04  0.7818608E-02  0.9033865E-01
         -2   -1    0    0    0  501 -0.00000000000E+00  0.00000000000E+00  0.64517072154E+03  0.64517072154E+03  0.00000000000E+00 0.  1.
          1   -1    0    0  501    0  0.00000000000E+00 -0.00000000000E+00 -0.64942814974E+03  0.64942814974E+03  0.00000000000E+00 0. -1.
        -24    2    1    2    0    0  0.89444307870E+02 -0.24411352463E+03  0.19720277699E+03  0.33588815639E+03  0.79625506149E+02 0.  0.
        254    2    1    2    0    0 -0.89444307870E+02  0.24411352463E+03 -0.20146020519E+03  0.95871071490E+03  0.90052669226E+03 0.  0.
         23    2    4    4    0    0  0.15498914932E+03  0.16710576558E+03  0.29987363944E+03  0.38779274411E+03  0.92266133878E+02 0.  0.
         23    2    4    4    0    0 -0.24443345719E+03  0.77007759054E+02 -0.50133384462E+03  0.57091797079E+03  0.94518758229E+02 0.  0.
          1    1    3    3  502    0  0.20993668833E+02 -0.38738783631E+02  0.15431775564E+01  0.44088648032E+02  0.00000000000E+00 0. -1.
         -2    1    3    3    0  502  0.68450639037E+02 -0.20537474100E+03  0.19565959943E+03  0.29179950835E+03  0.00000000000E+00 0.  1.
         11    1    5    5    0    0  0.24457919447E+01  0.49875439790E+02  0.37525023054E+02  0.62463339229E+02  0.00000000000E+00 0. -1.
        -11    1    5    5    0    0  0.15254335738E+03  0.11723032579E+03  0.26234861638E+03  0.32532940488E+03  0.00000000000E+00 0.  1.
          3    1    6    6  503    0 -0.64051789824E+02 -0.91562701852E+01 -0.68923603510E+02  0.94535348860E+02  0.00000000000E+00 0. -1.
         -3    1    6    6    0  503 -0.18038166737E+03  0.86164029239E+02 -0.43241024111E+03  0.47638262193E+03  0.00000000000E+00 0.  1.
<mgrwt>
<rscale>  0 0.12945919E+04</rscale>
<asrwt>0</asrwt>
<pdfrwt beam="1">  1        1 0.99912024E-01 0.12945919E+04</pdfrwt>
<pdfrwt beam="2">  1       -2 0.99257033E-01 0.12945919E+04</pdfrwt>
<totfact> 0.22063252E+01</totfact>
</mgrwt>
</event>
<event>
12    4  0.4398275E-008  0.1816730E+04  0.7818608E-02  0.8697453E-01
         -2   -1    0    0    0  501 -0.00000000000E+00  0.00000000000E+00  0.85087037232E+03  0.85087037232E+03  0.00000000000E+00 0.  1.
          1   -1    0    0  501    0  0.00000000000E+00 -0.00000000000E+00 -0.96974500666E+03  0.96974500666E+03  0.00000000000E+00 0. -1.
        -24    2    1    2    0    0 -0.64726805412E+03 -0.69580199201E+01 -0.18976885111E+03  0.67834707908E+03  0.71681203375E+02 0.  0.
        254    2    1    2    0    0  0.64726805412E+03  0.69580199201E+01  0.70894216766E+02  0.11422682999E+04  0.93848097001E+03 0.  0.
         23    2    4    4    0    0  0.37935967916E+03 -0.44136048898E+03  0.14555699832E+03  0.60693291609E+03  0.92021070764E+02 0.  0.
         23    2    4    4    0    0  0.26790837496E+03  0.44831850890E+03 -0.74662781558E+02  0.53533538381E+03  0.90802309516E+02 0.  0.
          3    1    3    3  502    0 -0.38814871374E+03 -0.46944154270E+01 -0.76984715334E+02  0.39573742293E+03  0.00000000000E+00 0. -1.
         -4    1    3    3    0  502 -0.25911934038E+03 -0.22636044931E+01 -0.11278413577E+03  0.28260965614E+03  0.00000000000E+00 0.  1.
         11    1    5    5    0    0  0.19470025366E+03 -0.20750712693E+03  0.25510396466E+02  0.28568895119E+03  0.00000000000E+00 0.  1.
        -11    1    5    5    0    0  0.18465942550E+03 -0.23385336205E+03  0.12004660186E+03  0.32124396490E+03  0.00000000000E+00 0. -1.
          2    1    6    6  503    0  0.25598104663E+03  0.41508435591E+03 -0.45957942302E+02  0.48983002277E+03  0.00000000000E+00 0. -1.
         -2    1    6    6    0  503  0.11927328333E+02  0.33234152998E+02 -0.28704839256E+02  0.45505361040E+02  0.00000000000E+00 0.  1.
<mgrwt>
<rscale>  0 0.18167304E+04</rscale>
<asrwt>0</asrwt>
<pdfrwt beam="1">  1        1 0.14919154E+00 0.18167304E+04</pdfrwt>
<pdfrwt beam="2">  1       -2 0.13090313E+00 0.18167304E+04</pdfrwt>
<totfact> 0.56336119E+00</totfact>
</mgrwt>
</event>
<event>
12    4  0.4398275E-008  0.1234413E+04  0.7818608E-02  0.9083257E-01
          1   -1    0    0  501    0  0.00000000000E+00  0.00000000000E+00  0.52238851175E+03  0.52238851175E+03  0.00000000000E+00 0. -1.
         -2   -1    0    0    0  501 -0.00000000000E+00 -0.00000000000E+00 -0.72923529005E+03  0.72923529005E+03  0.00000000000E+00 0.  1.
        -24    2    1    2    0    0  0.15818055316E+03  0.20100836514E+03  0.73555326776E+02  0.27757306871E+03  0.78809720989E+02 0.  0.
        254    2    1    2    0    0 -0.15818055316E+03 -0.20100836514E+03 -0.28040210508E+03  0.97405073309E+03  0.89706412249E+03 0.  0.
         23    2    4    4    0    0  0.73859313532E+02  0.10814206130E+03 -0.49685276596E+03  0.52169765118E+03  0.90309825502E+02 0.  0.
         23    2    4    4    0    0 -0.23203986669E+03 -0.30915042644E+03  0.21645066088E+03  0.45235308192E+03  0.91410810223E+02 0.  0.
          1    1    3    3  502    0  0.12478197933E+03  0.10919218738E+03  0.69497008272E+02  0.17978684688E+03  0.00000000000E+00 0. -1.
         -2    1    3    3    0  502  0.33398573827E+02  0.91816177753E+02  0.40583185043E+01  0.97786221830E+02  0.00000000000E+00 0.  1.
         11    1    5    5    0    0 -0.47321600393E+01  0.43330592003E+02 -0.26347346799E+03  0.26705467956E+03  0.00000000000E+00 0. -1.
        -11    1    5    5    0    0  0.78591473572E+02  0.64811469297E+02 -0.23337929797E+03  0.25464297162E+03  0.00000000000E+00 0.  1.
          4    1    6    6  503    0 -0.15241153687E+03 -0.18720295323E+03  0.18298338636E+03  0.30291441358E+03  0.00000000000E+00 0. -1.
         -4    1    6    6    0  503 -0.79628329818E+02 -0.12194747320E+03  0.33467274517E+02  0.14943866834E+03  0.00000000000E+00 0.  1.
<mgrwt>
<rscale>  0 0.12344134E+04</rscale>
<asrwt>0</asrwt>
<pdfrwt beam="1">  1        1 0.80367464E-01 0.12344134E+04</pdfrwt>
<pdfrwt beam="2">  1       -2 0.11219004E+00 0.12344134E+04</pdfrwt>
<totfact> 0.22551529E+01</totfact>
</mgrwt>
</event>
<event>
12    4  0.4398275E-008  0.1293190E+04  0.7818608E-02  0.9034983E-01
          1   -1    0    0  501    0  0.00000000000E+00  0.00000000000E+00  0.16824777693E+03  0.16824777693E+03  0.00000000000E+00 0. -1.
         -2   -1    0    0    0  501 -0.00000000000E+00 -0.00000000000E+00 -0.24849354118E+04  0.24849354118E+04  0.00000000000E+00 0.  1.
        -24    2    1    2    0    0  0.17015350812E+03  0.35855298052E+02 -0.10706423654E+04  0.10876636779E+04  0.80618750291E+02 0.  0.
        254    2    1    2    0    0 -0.17015350812E+03 -0.35855298052E+02 -0.12460452695E+04  0.15655195109E+04  0.93165696828E+03 0.  0.
         23    2    4    4    0    0  0.23956018051E+02  0.80789513041E+02  0.12364576464E+03  0.17412290470E+03  0.89048720435E+02 0.  0.
         23    2    4    4    0    0 -0.19410952617E+03 -0.11664481109E+03 -0.13696910342E+04  0.13913966062E+04  0.92986378237E+02 0.  0.
          1    1    3    3  502    0  0.82740775208E+02 -0.18431140980E+02 -0.59580994459E+03  0.60180996412E+03  0.00000000000E+00 0. -1.
         -2    1    3    3    0  502  0.87412732911E+02  0.54286439032E+02 -0.47483242078E+03  0.48585371374E+03  0.00000000000E+00 0.  1.
         11    1    5    5    0    0  0.97424534297E+00 -0.76963321714E+01 -0.97165934701E+01  0.12433618602E+02  0.00000000000E+00 0.  1.
        -11    1    5    5    0    0  0.22981772708E+02  0.88485845212E+02  0.13336235811E+03  0.16168928610E+03  0.00000000000E+00 0. -1.
          3    1    6    6  503    0 -0.85500806911E+02 -0.53192545492E+02 -0.88262321323E+03  0.88834878928E+03  0.00000000000E+00 0. -1.
         -3    1    6    6    0  503 -0.10860871926E+03 -0.63452265600E+02 -0.48706782092E+03  0.50304781690E+03  0.00000000000E+00 0.  1.
<mgrwt>
<rscale>  0 0.12931896E+04</rscale>
<asrwt>0</asrwt>
<pdfrwt beam="1">  1        1 0.25884278E-01 0.12931896E+04</pdfrwt>
<pdfrwt beam="2">  1       -2 0.38229768E+00 0.12931896E+04</pdfrwt>
<totfact> 0.15687558E+00</totfact>
</mgrwt>
</event>
<event>
12    4  0.4398275E-008  0.1214632E+04  0.7818608E-02  0.9100145E-01
         -2   -1    0    0    0  501 -0.00000000000E+00  0.00000000000E+00  0.58778279745E+03  0.58778279745E+03  0.00000000000E+00 0.  1.
          1   -1    0    0  501    0  0.00000000000E+00 -0.00000000000E+00 -0.62749811278E+03  0.62749811278E+03  0.00000000000E+00 0. -1.
        -24    2    1    2    0    0  0.82066876145E+02 -0.52118259163E+02  0.23398854210E+03  0.26515480280E+03  0.78135436990E+02 0.  0.
        254    2    1    2    0    0 -0.82066876145E+02  0.52118259163E+02 -0.27370385743E+03  0.95012610744E+03  0.90464055479E+03 0.  0.
         23    2    4    4    0    0 -0.29539708623E+03  0.23782361751E+03  0.16305314571E+03  0.42320305214E+03  0.93246894933E+02 0.  0.
         23    2    4    4    0    0  0.21333021009E+03 -0.18570535835E+03 -0.43675700314E+03  0.52692305530E+03  0.83035942622E+02 0.  0.
          3    1    3    3  502    0  0.69561655140E+02 -0.41272523112E+02  0.93230586351E+02  0.12342684984E+03  0.00000000000E+00 0. -1.
         -4    1    3    3    0  502  0.12505221005E+02 -0.10845736051E+02  0.14075795575E+03  0.14172795296E+03  0.00000000000E+00 0.  1.
         11    1    5    5    0    0 -0.22593933751E+03  0.12553480342E+03  0.10566540514E+03  0.27923600940E+03  0.00000000000E+00 0. -1.
        -11    1    5    5    0    0 -0.69457748728E+02  0.11228881409E+03  0.57387740573E+02  0.14396704274E+03  0.00000000000E+00 0.  1.
          4    1    6    6  503    0  0.18210339887E+03 -0.18350208577E+03 -0.41449966051E+03  0.48851267325E+03  0.00000000000E+00 0. -1.
         -4    1    6    6    0  503  0.31226811217E+02 -0.22032725786E+01 -0.22257342626E+02  0.38410382055E+02  0.00000000000E+00 0.  1.
<mgrwt>
<rscale>  0 0.12146318E+04</rscale>
<asrwt>0</asrwt>
<pdfrwt beam="1">  1        1 0.96538171E-01 0.12146318E+04</pdfrwt>
<pdfrwt beam="2">  1       -2 0.90428123E-01 0.12146318E+04</pdfrwt>
<totfact> 0.29028817E+01</totfact>
</mgrwt>
</event>
<event>
12    4  0.4398275E-008  0.1824942E+04  0.7818608E-02  0.8693147E-01
         -2   -1    0    0    0  501 -0.00000000000E+00  0.00000000000E+00  0.96737924400E+03  0.96737924400E+03  0.00000000000E+00 0.  1.
          1   -1    0    0  501    0  0.00000000000E+00 -0.00000000000E+00 -0.86067900225E+03  0.86067900225E+03  0.00000000000E+00 0. -1.
        -24    2    1    2    0    0  0.81174461760E+02  0.68062601396E+03  0.27837680256E+02  0.69062025594E+03  0.79626235373E+02 0.  0.
        254    2    1    2    0    0 -0.81174461760E+02 -0.68062601396E+03  0.78862561500E+02  0.11374379903E+04  0.90427032135E+03 0.  0.
         23    2    4    4    0    0 -0.17178665837E+03 -0.17354881897E+03  0.43275780093E+03  0.50653320876E+03  0.98319523737E+02 0.  0.
         23    2    4    4    0    0  0.90612196611E+02 -0.50707719498E+03 -0.35389523943E+03  0.63090478155E+03  0.86377954658E+02 0.  0.
          3    1    3    3  502    0  0.34049434316E+02  0.80089345559E+02  0.13493414580E+02  0.88066676367E+02  0.00000000000E+00 0. -1.
         -4    1    3    3    0  502  0.47125027445E+02  0.60053666840E+03  0.14344265676E+02  0.60255357958E+03  0.00000000000E+00 0.  1.
         11    1    5    5    0    0 -0.10965380677E+03 -0.84683805228E+02  0.32666906261E+03  0.35483514577E+03  0.00000000000E+00 0. -1.
        -11    1    5    5    0    0 -0.62132851606E+02 -0.88865013747E+02  0.10608873832E+03  0.15169806299E+03  0.00000000000E+00 0.  1.
          3    1    6    6  503    0  0.79108728722E+01 -0.28805162137E+03 -0.19234937644E+03  0.34646010030E+03  0.00000000000E+00 0. -1.
         -3    1    6    6    0  503  0.82701323739E+02 -0.21902557361E+03 -0.16154586299E+03  0.28444468126E+03  0.00000000000E+00 0.  1.
<mgrwt>
<rscale>  0 0.18249416E+04</rscale>
<asrwt>0</asrwt>
<pdfrwt beam="1">  1        1 0.13241215E+00 0.18249416E+04</pdfrwt>
<pdfrwt beam="2">  1       -2 0.14882758E+00 0.18249416E+04</pdfrwt>
<totfact> 0.49499963E+00</totfact>
</mgrwt>
</event>
<event>
12    4  0.4398275E-008  0.2102689E+04  0.7818608E-02  0.8560060E-01
          3   -1    0    0  501    0  0.00000000000E+00  0.00000000000E+00  0.39607225505E+04  0.39607225505E+04  0.00000000000E+00 0. -1.
         -4   -1    0    0    0  501 -0.00000000000E+00 -0.00000000000E+00 -0.27907158182E+03  0.27907158182E+03  0.00000000000E+00 0.  1.
        -24    2    1    2    0    0 -0.29616521699E+03 -0.48836168147E+03  0.18549843795E+03  0.60595787469E+03  0.81020415548E+02 0.  0.
        254    2    1    2    0    0  0.29616521699E+03  0.48836168147E+03  0.34961525307E+04  0.36338362576E+04  0.80961253780E+03 0.  0.
         23    2    4    4    0    0  0.41221907696E+03  0.47873583519E+03  0.33968351033E+04  0.34564493305E+04  0.97163203045E+02 0.  0.
         23    2    4    4    0    0 -0.11605385997E+03  0.96258462788E+01  0.99317427443E+02  0.17738692713E+03  0.89671707857E+02 0.  0.
          3    1    3    3  502    0 -0.95361636755E+02 -0.16653983068E+03  0.22985251538E+02  0.19328134611E+03  0.00000000000E+00 0. -1.
         -4    1    3    3    0  502 -0.20080358023E+03 -0.32182185079E+03  0.16251318641E+03  0.41267652858E+03  0.00000000000E+00 0.  1.
         11    1    5    5    0    0  0.11498403998E+03  0.19229924990E+03  0.10576361229E+04  0.10811079962E+04  0.00000000000E+00 0. -1.
        -11    1    5    5    0    0  0.29723503698E+03  0.28643658530E+03  0.23391989803E+04  0.23753413343E+04  0.00000000000E+00 0.  1.
          1    1    6    6  503    0 -0.90560869474E+01  0.35637716026E+02  0.27615619440E+02  0.45985671153E+02  0.00000000000E+00 0. -1.
         -1    1    6    6    0  503 -0.10699777303E+03 -0.26011869747E+02  0.71701808003E+02  0.13140125597E+03  0.00000000000E+00 0.  1.
<mgrwt>
<rscale>  0 0.21026889E+04</rscale>
<asrwt>0</asrwt>
<pdfrwt beam="1">  1        3 0.60934189E+00 0.21026889E+04</pdfrwt>
<pdfrwt beam="2">  1       -4 0.42934092E-01 0.21026889E+04</pdfrwt>
<totfact> 0.11419087E-02</totfact>
</mgrwt>
</event>
<event>
12    4  0.4398275E-008  0.1264956E+04  0.7818608E-02  0.9057827E-01
          1   -1    0    0  501    0  0.00000000000E+00  0.00000000000E+00  0.23347127626E+04  0.23347127626E+04  0.00000000000E+00 0. -1.
         -2   -1    0    0    0  501 -0.00000000000E+00 -0.00000000000E+00 -0.17133944185E+03  0.17133944185E+03  0.00000000000E+00 0.  1.
        -24    2    1    2    0    0 -0.34001783364E+02 -0.87550881404E+02  0.10306657332E+04  0.10379970958E+04  0.79654498304E+02 0.  0.
        254    2    1    2    0    0  0.34001783364E+02  0.87550881404E+02  0.11327075875E+04  0.14680551087E+04  0.92915985984E+03 0.  0.
         23    2    4    4    0    0  0.13662296937E+01 -0.74897008350E+02 -0.13680605378E+03  0.18444671225E+03  0.98454379611E+02 0.  0.
         23    2    4    4    0    0  0.32635553670E+02  0.16244788975E+03  0.12695136413E+04  0.12836083964E+04  0.92364677397E+02 0.  0.
          1    1    3    3  502    0 -0.86361177281E+01 -0.59365310367E+02  0.27905223711E+03  0.28542770300E+03  0.00000000000E+00 0. -1.
         -2    1    3    3    0  502 -0.25365665636E+02 -0.28185571038E+02  0.75161349612E+03  0.75256939279E+03  0.00000000000E+00 0.  1.
         11    1    5    5    0    0 -0.89060517244E+01  0.20550883326E+02 -0.79610333807E+01  0.23770456775E+02  0.00000000000E+00 0. -1.
        -11    1    5    5    0    0  0.10272281418E+02 -0.95447891676E+02 -0.12884502040E+03  0.16067625547E+03  0.00000000000E+00 0.  1.
          4    1    6    6  503    0  0.37404348577E+02  0.17929790793E+02  0.19153066175E+03  0.19597080670E+03  0.00000000000E+00 0. -1.
         -4    1    6    6    0  503 -0.47687949069E+01  0.14451809896E+03  0.10779829796E+04  0.10876375897E+04  0.00000000000E+00 0.  1.
<mgrwt>
<rscale>  0 0.12649559E+04</rscale>
<asrwt>0</asrwt>
<pdfrwt beam="1">  1        1 0.35918656E+00 0.12649559E+04</pdfrwt>
<pdfrwt beam="2">  1       -2 0.26359916E-01 0.12649559E+04</pdfrwt>
<totfact> 0.19920755E+01</totfact>
</mgrwt>
</event>
<event>
12    4  0.4398275E-008  0.2977867E+04  0.7818608E-02  0.8250080E-01
          3   -1    0    0  501    0  0.00000000000E+00  0.00000000000E+00  0.16458852734E+04  0.16458852734E+04  0.00000000000E+00 0. -1.
         -2   -1    0    0    0  501 -0.00000000000E+00 -0.00000000000E+00 -0.13469485351E+04  0.13469485351E+04  0.00000000000E+00 0.  1.
        -24    2    1    2    0    0  0.58595043068E+03  0.68162282700E+03  0.11508571176E+04  0.14624759630E+04  0.80101509094E+02 0.  0.
        254    2    1    2    0    0 -0.58595043068E+03 -0.68162282700E+03 -0.85192037931E+03  0.15303578455E+04  0.89904350118E+03 0.  0.
         23    2    4    4    0    0 -0.54808794346E+03 -0.30529280201E+03 -0.45963675523E+02  0.63544255006E+03  0.89835884946E+02 0.  0.
         23    2    4    4    0    0 -0.37862487217E+02 -0.37633002499E+03 -0.80595670379E+03  0.89491529541E+03  0.90825777962E+02 0.  0.
          3    1    3    3  502    0  0.44626696439E+03  0.50292840524E+03  0.91230385136E+03  0.11333090935E+04  0.00000000000E+00 0. -1.
         -4    1    3    3    0  502  0.13968346629E+03  0.17869442177E+03  0.23855326626E+03  0.32916686949E+03  0.00000000000E+00 0.  1.
         11    1    5    5    0    0 -0.12827597408E+02  0.63021010134E+01 -0.30009597588E+01  0.14603749242E+02  0.00000000000E+00 0.  1.
        -11    1    5    5    0    0 -0.53526034606E+03 -0.31159490302E+03 -0.42962715765E+02  0.62083880081E+03  0.00000000000E+00 0. -1.
          1    1    6    6  503    0 -0.54422772376E+02 -0.33705439907E+03 -0.75410157666E+03  0.82779024759E+03  0.00000000000E+00 0. -1.
         -1    1    6    6    0  503  0.16560285159E+02 -0.39275625925E+02 -0.51855127124E+02  0.67125047824E+02  0.00000000000E+00 0.  1.
<mgrwt>
<rscale>  0 0.29778669E+04</rscale>
<asrwt>0</asrwt>
<pdfrwt beam="1">  1        3 0.25321312E+00 0.29778669E+04</pdfrwt>
<pdfrwt beam="2">  1       -2 0.20722285E+00 0.29778669E+04</pdfrwt>
<totfact> 0.29770764E-02</totfact>
</mgrwt>
</event>
<event>
12    4  0.4398275E-008  0.1351976E+04  0.7818608E-02  0.8989334E-01
          1   -1    0    0  501    0  0.00000000000E+00  0.00000000000E+00  0.12657198347E+04  0.12657198347E+04  0.00000000000E+00 0. -1.
         -2   -1    0    0    0  501 -0.00000000000E+00 -0.00000000000E+00 -0.36102766969E+03  0.36102766969E+03  0.00000000000E+00 0.  1.
        -24    2    1    2    0    0 -0.95665091386E+02 -0.23382769282E+03 -0.83844878428E+02  0.27806597459E+03  0.80396038119E+02 0.  0.
        254    2    1    2    0    0  0.95665091386E+02  0.23382769282E+03  0.98853704343E+03  0.13486815298E+04  0.88199160026E+03 0.  0.
         23    2    4    4    0    0 -0.49441818103E+02 -0.29953736572E+03  0.55985655888E+03  0.64328139980E+03  0.90578507231E+02 0.  0.
         23    2    4    4    0    0  0.14510690949E+03  0.53336505854E+03  0.42868048455E+03  0.70540012998E+03  0.91038918574E+02 0.  0.
          1    1    3    3  502    0  0.92580819516E+01 -0.21630666565E+02  0.69453132550E+01  0.24532329561E+02  0.00000000000E+00 0. -1.
         -2    1    3    3    0  502 -0.10492317334E+03 -0.21219702625E+03 -0.90790191683E+02  0.25353364502E+03  0.00000000000E+00 0.  1.
         11    1    5    5    0    0 -0.59604982440E+02 -0.96233451311E+02  0.20608622111E+03  0.23512796859E+03  0.00000000000E+00 0.  1.
        -11    1    5    5    0    0  0.10163164337E+02 -0.20330391441E+03  0.35377033777E+03  0.40815343121E+03  0.00000000000E+00 0. -1.
          1    1    6    6  503    0  0.30628673741E+02  0.30840842524E+02  0.21095009994E+02  0.48314311227E+02  0.00000000000E+00 0. -1.
         -1    1    6    6    0  503  0.11447823575E+03  0.50252421602E+03  0.40758547455E+03  0.65708581876E+03  0.00000000000E+00 0.  1.
<mgrwt>
<rscale>  0 0.13519762E+04</rscale>
<asrwt>0</asrwt>
<pdfrwt beam="1">  1        1 0.19472613E+00 0.13519762E+04</pdfrwt>
<pdfrwt beam="2">  1       -2 0.55542719E-01 0.13519762E+04</pdfrwt>
<totfact> 0.25031211E+01</totfact>
</mgrwt>
</event>
<event>
12    4  0.4398275E-008  0.2013113E+04  0.7818608E-02  0.8600514E-01
         -2   -1    0    0    0  501 -0.00000000000E+00  0.00000000000E+00  0.58285943076E+03  0.58285943076E+03  0.00000000000E+00 0.  1.
          1   -1    0    0  501    0  0.00000000000E+00 -0.00000000000E+00 -0.17382516532E+04  0.17382516532E+04  0.00000000000E+00 0. -1.
        -24    2    1    2    0    0 -0.46457784483E+03  0.60699205165E+02  0.28512123406E+03  0.55423989251E+03  0.79817121795E+02 0.  0.
        254    2    1    2    0    0  0.46457784483E+03 -0.60699205165E+02 -0.14405134565E+04  0.17668711914E+04  0.90952615212E+03 0.  0.
         23    2    4    4    0    0 -0.13061036098E+03 -0.32125823448E+03 -0.40569529703E+03  0.54138173192E+03  0.90772165402E+02 0.  0.
         23    2    4    4    0    0  0.59518820580E+03  0.26055902932E+03 -0.10348181594E+04  0.12254894595E+04  0.93998851855E+02 0.  0.
          1    1    3    3  502    0 -0.24536654496E+03  0.66977560021E+02  0.17591560105E+03  0.30925237852E+03  0.00000000000E+00 0. -1.
         -2    1    3    3    0  502 -0.21921129987E+03 -0.62783548560E+01  0.10920563301E+03  0.24498751399E+03  0.00000000000E+00 0.  1.
         11    1    5    5    0    0 -0.91405070594E+02 -0.14226773842E+03 -0.24484288763E+03  0.29756181870E+03  0.00000000000E+00 0.  1.
        -11    1    5    5    0    0 -0.39205290384E+02 -0.17899049606E+03 -0.16085240940E+03  0.24381991322E+03  0.00000000000E+00 0. -1.
          4    1    6    6  503    0  0.41901646845E+02  0.12927103474E+02 -0.34319293013E+02  0.55683677011E+02  0.00000000000E+00 0. -1.
         -4    1    6    6    0  503  0.55328655896E+03  0.24763192584E+03 -0.10004988664E+04  0.11698057825E+04  0.00000000000E+00 0.  1.
<mgrwt>
<rscale>  0 0.20131134E+04</rscale>
<asrwt>0</asrwt>
<pdfrwt beam="1">  1        1 0.26742333E+00 0.20131134E+04</pdfrwt>
<pdfrwt beam="2">  1       -2 0.89670682E-01 0.20131134E+04</pdfrwt>
<totfact> 0.38914598E+00</totfact>
</mgrwt>
</event>
<event>
12    4  0.4398275E-008  0.3223772E+04  0.7818608E-02  0.8182567E-01
         -2   -1    0    0    0  501 -0.00000000000E+00  0.00000000000E+00  0.17320805350E+04  0.17320805350E+04  0.00000000000E+00 0.  1.
          1   -1    0    0  501    0  0.00000000000E+00 -0.00000000000E+00 -0.15000318119E+04  0.15000318119E+04  0.00000000000E+00 0. -1.
        -24    2    1    2    0    0  0.98744217845E+03 -0.10395148647E+04 -0.27784689972E+03  0.14625686918E+04  0.79215331159E+02 0.  0.
        254    2    1    2    0    0 -0.98744217845E+03  0.10395148647E+04  0.50989562283E+03  0.17695436552E+04  0.90313785856E+03 0.  0.
         23    2    4    4    0    0 -0.72705539450E+03  0.14209847756E+03  0.31874497189E+03  0.81160571144E+03  0.91126010269E+02 0.  0.
         23    2    4    4    0    0 -0.26038678395E+03  0.89741638717E+03  0.19115065094E+03  0.95793794372E+03  0.89157632577E+02 0.  0.
          3    1    3    3  502    0  0.92232110806E+03 -0.99334814762E+03 -0.27196035448E+03  0.13825263843E+04  0.00000000000E+00 0. -1.
         -4    1    3    3    0  502  0.65121070395E+02 -0.46166717102E+02 -0.58865452416E+01  0.80042307515E+02  0.00000000000E+00 0.  1.
         11    1    5    5    0    0 -0.43054407458E+03  0.42621619508E+02  0.20559389215E+03  0.47901320555E+03  0.00000000000E+00 0.  1.
        -11    1    5    5    0    0 -0.29651131992E+03  0.99476858049E+02  0.11315107974E+03  0.33259250589E+03  0.00000000000E+00 0. -1.
          1    1    6    6  503    0 -0.20968023258E+03  0.58189703873E+03  0.14198844961E+03  0.63461065500E+03  0.00000000000E+00 0. -1.
         -1    1    6    6    0  503 -0.50706551375E+02  0.31551934843E+03  0.49162201332E+02  0.32332728872E+03  0.00000000000E+00 0.  1.
<mgrwt>
<rscale>  0 0.32237716E+04</rscale>
<asrwt>0</asrwt>
<pdfrwt beam="1">  1        1 0.23077412E+00 0.32237716E+04</pdfrwt>
<pdfrwt beam="2">  1       -2 0.26647393E+00 0.32237716E+04</pdfrwt>
<totfact> 0.24432953E-01</totfact>
</mgrwt>
</event>
<event>
12    4  0.4398275E-008  0.1522519E+04  0.7818608E-02  0.8869615E-01
         -2   -1    0    0    0  501 -0.00000000000E+00  0.00000000000E+00  0.30196444256E+03  0.30196444256E+03  0.00000000000E+00 0.  1.
          1   -1    0    0  501    0  0.00000000000E+00 -0.00000000000E+00 -0.19191533740E+04  0.19191533740E+04  0.00000000000E+00 0. -1.
        -24    2    1    2    0    0  0.32691793241E+03  0.36029660446E+03 -0.49906191228E+03  0.70187573588E+03  0.82932373773E+02 0.  0.
        254    2    1    2    0    0 -0.32691793241E+03 -0.36029660446E+03 -0.11181270192E+04  0.15192420807E+04  0.90620057990E+03 0.  0.
         23    2    4    4    0    0 -0.21019540681E+03  0.18103509263E+03 -0.26358919646E+02  0.29206126033E+03  0.87459552561E+02 0.  0.
         23    2    4    4    0    0 -0.11672252560E+03 -0.54133169709E+03 -0.10917680995E+04  0.12271808204E+04  0.85738138810E+02 0.  0.
          3    1    3    3  502    0  0.31842373440E+03  0.36132715059E+03 -0.47544333143E+03  0.67675501164E+03  0.00000000000E+00 0. -1.
         -4    1    3    3    0  502  0.84941980107E+01 -0.10305461303E+01 -0.23618580845E+02  0.25120724239E+02  0.00000000000E+00 0.  1.
         11    1    5    5    0    0 -0.32315550491E+02 -0.22392827751E+01 -0.16773859309E+02  0.36478370947E+02  0.00000000000E+00 0.  1.
        -11    1    5    5    0    0 -0.17787985632E+03  0.18327437541E+03 -0.95850603369E+01  0.25558288938E+03  0.00000000000E+00 0. -1.
          3    1    6    6  503    0 -0.57539123076E+02 -0.36845371999E+03 -0.80437716161E+03  0.88661801954E+03  0.00000000000E+00 0. -1.
         -3    1    6    6    0  503 -0.59183402527E+02 -0.17287797710E+03 -0.28739093792E+03  0.34056280082E+03  0.00000000000E+00 0.  1.
<mgrwt>
<rscale>  0 0.15225191E+04</rscale>
<asrwt>0</asrwt>
<pdfrwt beam="1">  1        1 0.29525438E+00 0.15225191E+04</pdfrwt>
<pdfrwt beam="2">  1       -2 0.46456066E-01 0.15225191E+04</pdfrwt>
<totfact> 0.12596011E+01</totfact>
</mgrwt>
</event>
<event>
12    4  0.4398275E-008  0.1498479E+04  0.7818608E-02  0.8885465E-01
          1   -1    0    0  501    0  0.00000000000E+00  0.00000000000E+00  0.14313938582E+04  0.14313938582E+04  0.00000000000E+00 0. -1.
         -2   -1    0    0    0  501 -0.00000000000E+00 -0.00000000000E+00 -0.39217687642E+03  0.39217687642E+03  0.00000000000E+00 0.  1.
        -24    2    1    2    0    0 -0.37870161041E+03 -0.17355188503E+03  0.60450248372E+03  0.73817964349E+03  0.77141212853E+02 0.  0.
        254    2    1    2    0    0  0.37870161041E+03  0.17355188503E+03  0.43471449801E+03  0.10853910911E+04  0.90308469109E+03 0.  0.
         23    2    4    4    0    0  0.65292117270E+03  0.11064328094E+03  0.41641952702E+03  0.78763601146E+03  0.91745684855E+02 0.  0.
         23    2    4    4    0    0 -0.27421956229E+03  0.62908604088E+02  0.18294970992E+02  0.29775507962E+03  0.95757614143E+02 0.  0.
          1    1    3    3  502    0 -0.29375930956E+03 -0.10356483537E+03  0.41281770362E+03  0.51714472201E+03  0.00000000000E+00 0. -1.
         -2    1    3    3    0  502 -0.84942300845E+02 -0.69987049662E+02  0.19168478010E+03  0.22103492149E+03  0.00000000000E+00 0.  1.
         11    1    5    5    0    0  0.46629472616E+03  0.94326984908E+02  0.34267433002E+03  0.58630542227E+03  0.00000000000E+00 0.  1.
        -11    1    5    5    0    0  0.18662644654E+03  0.16316296032E+02  0.73745197002E+02  0.20133058919E+03  0.00000000000E+00 0. -1.
          4    1    6    6  503    0 -0.34028826175E+02 -0.52598232596E+01 -0.27308739250E+02  0.43947627820E+02  0.00000000000E+00 0. -1.
         -4    1    6    6    0  503 -0.24019073611E+03  0.68168427348E+02  0.45603710242E+02  0.25380745180E+03  0.00000000000E+00 0.  1.
<mgrwt>
<rscale>  0 0.14984787E+04</rscale>
<asrwt>0</asrwt>
<pdfrwt beam="1">  1        1 0.22021444E+00 0.14984787E+04</pdfrwt>
<pdfrwt beam="2">  1       -2 0.60334905E-01 0.14984787E+04</pdfrwt>
<totfact> 0.15866506E+01</totfact>
</mgrwt>
</event>
<event>
12    4  0.4398275E-008  0.1478729E+04  0.7818608E-02  0.8898722E-01
         -2   -1    0    0    0  501 -0.00000000000E+00  0.00000000000E+00  0.46930760279E+03  0.46930760279E+03  0.00000000000E+00 0.  1.
          1   -1    0    0  501    0  0.00000000000E+00 -0.00000000000E+00 -0.11648228282E+04  0.11648228282E+04  0.00000000000E+00 0. -1.
        -24    2    1    2    0    0  0.37347021770E+03  0.23512867114E+02  0.66350036574E+02  0.38831348281E+03  0.79700534191E+02 0.  0.
        254    2    1    2    0    0 -0.37347021770E+03 -0.23512867114E+02 -0.76186526199E+03  0.12458169482E+04  0.91191465200E+03 0.  0.
         23    2    4    4    0    0 -0.31026775429E+02 -0.22195587099E+03  0.12243506364E+03  0.27280999770E+03  0.95957702005E+02 0.  0.
         23    2    4    4    0    0 -0.34244344227E+03  0.19844300388E+03 -0.88430032563E+03  0.97300695049E+03  0.90046226141E+02 0.  0.
          3    1    3    3  502    0  0.30478548107E+03  0.22291638459E+02  0.21671961301E+02  0.30636706828E+03  0.00000000000E+00 0. -1.
         -4    1    3    3    0  502  0.68684736632E+02  0.12212286541E+01  0.44678075272E+02  0.81946414538E+02  0.00000000000E+00 0.  1.
         11    1    5    5    0    0  0.93600547070E+01 -0.12923795063E+02 -0.12916104479E+02  0.20529511876E+02  0.00000000000E+00 0.  1.
        -11    1    5    5    0    0 -0.40386830136E+02 -0.20903207593E+03  0.13535116812E+03  0.25228048582E+03  0.00000000000E+00 0. -1.
          3    1    6    6  503    0 -0.18311437200E+03  0.10375087349E+03 -0.57644228521E+03  0.61366181661E+03  0.00000000000E+00 0. -1.
         -3    1    6    6    0  503 -0.15932907028E+03  0.94692130392E+02 -0.30785804042E+03  0.35934513388E+03  0.00000000000E+00 0.  1.
<mgrwt>
<rscale>  0 0.14787295E+04</rscale>
<asrwt>0</asrwt>
<pdfrwt beam="1">  1        1 0.17920351E+00 0.14787295E+04</pdfrwt>
<pdfrwt beam="2">  1       -2 0.72201170E-01 0.14787295E+04</pdfrwt>
<totfact> 0.16740853E+01</totfact>
</mgrwt>
</event>
<event>
12    4  0.4398275E-008  0.1278299E+04  0.7818608E-02  0.9046954E-01
          1   -1    0    0  501    0  0.00000000000E+00  0.00000000000E+00  0.21740589613E+04  0.21740589613E+04  0.00000000000E+00 0. -1.
         -2   -1    0    0    0  501 -0.00000000000E+00 -0.00000000000E+00 -0.18790292762E+03  0.18790292762E+03  0.00000000000E+00 0.  1.
        -24    2    1    2    0    0  0.11661583392E+03  0.28875007462E+03  0.61759596824E+03  0.69601694463E+03  0.77710674301E+02 0.  0.
        254    2    1    2    0    0 -0.11661583392E+03 -0.28875007462E+03  0.13685600654E+04  0.16659449442E+04  0.89746311699E+03 0.  0.
         23    2    4    4    0    0 -0.28210568670E+03 -0.17434094213E+02  0.12937150510E+04  0.13272707898E+04  0.89786135245E+02 0.  0.
         23    2    4    4    0    0  0.16548985277E+03 -0.27131598041E+03  0.74845014359E+02  0.33867415445E+03  0.89995300539E+02 0.  0.
          3    1    3    3  502    0  0.99607990240E+02  0.28292436225E+03  0.55471057367E+03  0.63061221604E+03  0.00000000000E+00 0. -1.
         -4    1    3    3    0  502  0.17007843684E+02  0.58257123783E+01  0.62885394572E+02  0.65404728591E+02  0.00000000000E+00 0.  1.
         11    1    5    5    0    0 -0.26665391327E+03 -0.22498361176E+02  0.12735780320E+04  0.13013882931E+04  0.00000000000E+00 0.  1.
        -11    1    5    5    0    0 -0.15451773427E+02  0.50642669624E+01  0.20137019017E+02  0.25882496726E+02  0.00000000000E+00 0. -1.
          1    1    6    6  503    0 -0.93222276901E+01 -0.30543649731E+02  0.29474164558E+00  0.31935956861E+02  0.00000000000E+00 0. -1.
         -1    1    6    6    0  503  0.17481208046E+03 -0.24077233068E+03  0.74550272713E+02  0.30673819759E+03  0.00000000000E+00 0.  1.
<mgrwt>
<rscale>  0 0.12782989E+04</rscale>
<asrwt>0</asrwt>
<pdfrwt beam="1">  1        1 0.33447059E+00 0.12782989E+04</pdfrwt>
<pdfrwt beam="2">  1       -2 0.28908144E-01 0.12782989E+04</pdfrwt>
<totfact> 0.21592302E+01</totfact>
</mgrwt>
</event>
<event>
12    4  0.4398275E-008  0.1515030E+04  0.7818608E-02  0.8874519E-01
         -2   -1    0    0    0  501 -0.00000000000E+00  0.00000000000E+00  0.13440446938E+04  0.13440446938E+04  0.00000000000E+00 0.  1.
          1   -1    0    0  501    0  0.00000000000E+00 -0.00000000000E+00 -0.42694177988E+03  0.42694177988E+03  0.00000000000E+00 0. -1.
        -24    2    1    2    0    0 -0.24917827204E+03 -0.69913484934E+02 -0.18073789986E+03  0.32560918388E+03  0.79858910259E+02 0.  0.
        254    2    1    2    0    0  0.24917827204E+03  0.69913484934E+02  0.10978408137E+04  0.14453772898E+04  0.90381599388E+03 0.  0.
         23    2    4    4    0    0  0.51654048176E+03 -0.22115903573E+02  0.32775515719E+03  0.61955242349E+03  0.95491255617E+02 0.  0.
         23    2    4    4    0    0 -0.26736220971E+03  0.92029388508E+02  0.77008565655E+03  0.82582486627E+03  0.94883253516E+02 0.  0.
          1    1    3    3  502    0 -0.13342442814E+03 -0.76963337450E+02 -0.90324490388E+02  0.17856076529E+03  0.00000000000E+00 0. -1.
         -2    1    3    3    0  502 -0.11575384390E+03  0.70498525159E+01 -0.90413409469E+02  0.14704841859E+03  0.00000000000E+00 0.  1.
         11    1    5    5    0    0  0.27148666364E+03  0.28247291786E+02  0.20186108466E+03  0.33948610506E+03  0.00000000000E+00 0.  1.
        -11    1    5    5    0    0  0.24505381811E+03 -0.50363195360E+02  0.12589407254E+03  0.28006631843E+03  0.00000000000E+00 0. -1.
          4    1    6    6  503    0 -0.24788141975E+03  0.11008618330E+03  0.68725200665E+03  0.73883657642E+03  0.00000000000E+00 0. -1.
         -4    1    6    6    0  503 -0.19480789964E+02 -0.18056794793E+02  0.82833649897E+02  0.86988289850E+02  0.00000000000E+00 0.  1.
<mgrwt>
<rscale>  0 0.15150298E+04</rscale>
<asrwt>0</asrwt>
<pdfrwt beam="1">  1        1 0.65683351E-01 0.15150298E+04</pdfrwt>
<pdfrwt beam="2">  1       -2 0.20677610E+00 0.15150298E+04</pdfrwt>
<totfact> 0.55736844E+00</totfact>
</mgrwt>
</event>
<event>
12    4  0.4398275E-008  0.1600914E+04  0.7818608E-02  0.8819987E-01
         -2   -1    0    0    0  501 -0.00000000000E+00  0.00000000000E+00  0.21338055150E+03  0.21338055150E+03  0.00000000000E+00 0.  1.
          1   -1    0    0  501    0  0.00000000000E+00 -0.00000000000E+00 -0.30027647380E+04  0.30027647380E+04  0.00000000000E+00 0. -1.
        -24    2    1    2    0    0  0.14659067082E+03 -0.19307664179E+03 -0.19385246247E+04  0.19552680155E+04  0.80174045417E+02 0.  0.
        254    2    1    2    0    0 -0.14659067082E+03  0.19307664179E+03 -0.85085956174E+03  0.12608772739E+04  0.89837747731E+03 0.  0.
         23    2    4    4    0    0  0.21554460851E+02 -0.18158734050E+02 -0.95275301305E+03  0.95875668931E+03  0.10335255682E+03 0.  0.
         23    2    4    4    0    0 -0.16814513167E+03  0.21123537584E+03  0.10189345131E+03  0.30212058463E+03  0.89450561338E+02 0.  0.
          1    1    3    3  502    0  0.15071301213E+02 -0.22925661391E+02 -0.50052734609E+03  0.50127871913E+03  0.00000000000E+00 0. -1.
         -2    1    3    3    0  502  0.13151936961E+03 -0.17015098040E+03 -0.14379972786E+04  0.14539892964E+04  0.00000000000E+00 0.  1.
         11    1    5    5    0    0 -0.35791318276E+02 -0.93748783751E+01 -0.61061610464E+03  0.61173600029E+03  0.00000000000E+00 0. -1.
        -11    1    5    5    0    0  0.57345779127E+02 -0.87838556749E+01 -0.34213690841E+03  0.34702068901E+03  0.00000000000E+00 0.  1.
          1    1    6    6  503    0 -0.17690558478E+03  0.18745074624E+03  0.83980965323E+02  0.27108332802E+03  0.00000000000E+00 0. -1.
         -1    1    6    6    0  503  0.87604531022E+01  0.23784629598E+02  0.17912485989E+02  0.31037256612E+02  0.00000000000E+00 0.  1.
<mgrwt>
<rscale>  0 0.16009142E+04</rscale>
<asrwt>0</asrwt>
<pdfrwt beam="1">  1        1 0.46196377E+00 0.16009142E+04</pdfrwt>
<pdfrwt beam="2">  1       -2 0.32827780E-01 0.16009142E+04</pdfrwt>
<totfact> 0.43610935E+00</totfact>
</mgrwt>
</event>
<event>
12    4  0.4398275E-008  0.1283215E+04  0.7818608E-02  0.9042983E-01
         -2   -1    0    0    0  501 -0.00000000000E+00  0.00000000000E+00  0.11046117031E+04  0.11046117031E+04  0.00000000000E+00 0.  1.
          1   -1    0    0  501    0  0.00000000000E+00 -0.00000000000E+00 -0.37267388324E+03  0.37267388324E+03  0.00000000000E+00 0. -1.
        -24    2    1    2    0    0 -0.19069731664E+02  0.23952357505E+03  0.33322116106E+03  0.41792341601E+03  0.76736183100E+02 0.  0.
        254    2    1    2    0    0  0.19069731664E+02 -0.23952357505E+03  0.39871665882E+03  0.10593621704E+04  0.95159762310E+03 0.  0.
         23    2    4    4    0    0 -0.27554476319E+03 -0.65120418162E+02  0.58688413996E+03  0.65782166750E+03  0.90170766436E+02 0.  0.
         23    2    4    4    0    0  0.29461449486E+03 -0.17440315689E+03 -0.18816748114E+03  0.40154050285E+03  0.92809551015E+02 0.  0.
          1    1    3    3  502    0  0.16376073899E+02  0.97250056817E+02  0.87803958337E+02  0.13204273720E+03  0.00000000000E+00 0. -1.
         -2    1    3    3    0  502 -0.35445805563E+02  0.14227351823E+03  0.24541720273E+03  0.28588067881E+03  0.00000000000E+00 0.  1.
         11    1    5    5    0    0 -0.18534314380E+03 -0.77486687614E+02  0.45700706079E+03  0.49921109895E+03  0.00000000000E+00 0.  1.
        -11    1    5    5    0    0 -0.90201619397E+02  0.12366269452E+02  0.12987707917E+03  0.15861056855E+03  0.00000000000E+00 0. -1.
          3    1    6    6  503    0  0.14440765072E+03 -0.56499558299E+02 -0.40829630038E+02  0.16035220099E+03  0.00000000000E+00 0. -1.
         -3    1    6    6    0  503  0.15020684414E+03 -0.11790359859E+03 -0.14733785110E+03  0.24118830186E+03  0.00000000000E+00 0.  1.
<mgrwt>
<rscale>  0 0.12832146E+04</rscale>
<asrwt>0</asrwt>
<pdfrwt beam="1">  1        1 0.57334444E-01 0.12832146E+04</pdfrwt>
<pdfrwt beam="2">  1       -2 0.16994026E+00 0.12832146E+04</pdfrwt>
<totfact> 0.12070602E+01</totfact>
</mgrwt>
</event>
<event>
12    4  0.4398275E-008  0.1510545E+04  0.7818608E-02  0.8877471E-01
          1   -1    0    0  501    0  0.00000000000E+00  0.00000000000E+00  0.12954129112E+04  0.12954129112E+04  0.00000000000E+00 0. -1.
         -2   -1    0    0    0  501 -0.00000000000E+00 -0.00000000000E+00 -0.44035117489E+03  0.44035117489E+03  0.00000000000E+00 0.  1.
        -24    2    1    2    0    0  0.26175709705E+03 -0.25430882391E+03 -0.83406867379E+02  0.38270132154E+03  0.79459676608E+02 0.  0.
        254    2    1    2    0    0 -0.26175709705E+03  0.25430882391E+03  0.93846860367E+03  0.13530627645E+04  0.90380626736E+03 0.  0.
         23    2    4    4    0    0 -0.22654277656E+03  0.94717700401E+00 -0.11195230929E+03  0.26813459247E+03  0.89667794492E+02 0.  0.
         23    2    4    4    0    0 -0.35214320491E+02  0.25336164691E+03  0.10504209130E+04  0.10849281721E+04  0.90845317193E+02 0.  0.
          3    1    3    3  502    0  0.11471560531E+03 -0.62219025163E+02 -0.15351372311E+02  0.13140221393E+03  0.00000000000E+00 0. -1.
         -4    1    3    3    0  502  0.14704149174E+03 -0.19208979875E+03 -0.68055495068E+02  0.25129910761E+03  0.00000000000E+00 0.  1.
         11    1    5    5    0    0 -0.35522307989E+02 -0.88897716861E+01 -0.59388339845E+02  0.69769888312E+02  0.00000000000E+00 0.  1.
        -11    1    5    5    0    0 -0.19102046857E+03  0.98369486902E+01 -0.52563969444E+02  0.19836470416E+03  0.00000000000E+00 0. -1.
          3    1    6    6  503    0  0.95030363207E+01  0.13933436858E+03  0.69787018420E+03  0.71170722067E+03  0.00000000000E+00 0. -1.
         -3    1    6    6    0  503 -0.44717356812E+02  0.11402727833E+03  0.35255072876E+03  0.37322095138E+03  0.00000000000E+00 0.  1.
<mgrwt>
<rscale>  0 0.15105451E+04</rscale>
<asrwt>0</asrwt>
<pdfrwt beam="1">  1        1 0.19929429E+00 0.15105451E+04</pdfrwt>
<pdfrwt beam="2">  1       -2 0.67746335E-01 0.15105451E+04</pdfrwt>
<totfact> 0.15426292E+01</totfact>
</mgrwt>
</event>
<event>
12    4  0.4398275E-008  0.2223632E+04  0.7818608E-02  0.8508656E-01
          1   -1    0    0  501    0  0.00000000000E+00  0.00000000000E+00  0.25767076741E+04  0.25767076741E+04  0.00000000000E+00 0. -1.
         -2   -1    0    0    0  501 -0.00000000000E+00 -0.00000000000E+00 -0.47973436817E+03  0.47973436817E+03  0.00000000000E+00 0.  1.
        -24    2    1    2    0    0  0.58499227262E+03  0.71572121666E+03  0.77009157873E+03  0.12063784112E+04  0.88515605757E+02 0.  0.
        254    2    1    2    0    0 -0.58499227262E+03 -0.71572121666E+03  0.13268817272E+04  0.18500636311E+04  0.89869210629E+03 0.  0.
         23    2    4    4    0    0 -0.18331411729E+03 -0.62831389144E+03  0.12613448807E+04  0.14238703707E+04  0.89629864292E+02 0.  0.
         23    2    4    4    0    0 -0.40167815533E+03 -0.87407325216E+02  0.65536846486E+02  0.42619326037E+03  0.91434325949E+02 0.  0.
          1    1    3    3  502    0  0.54375337214E+03  0.66495897266E+03  0.68274471867E+03  0.10972595481E+04  0.00000000000E+00 0. -1.
         -2    1    3    3    0  502  0.41238900478E+02  0.50762243999E+02  0.87346860059E+02  0.10911886313E+03  0.00000000000E+00 0.  1.
         11    1    5    5    0    0 -0.10751327264E+03 -0.43431063479E+03  0.93804676830E+03  0.10392865682E+04  0.00000000000E+00 0. -1.
        -11    1    5    5    0    0 -0.75800844649E+02 -0.19400325665E+03  0.32329811243E+03  0.38458380250E+03  0.00000000000E+00 0.  1.
          3    1    6    6  503    0 -0.53463308238E+02 -0.42010545646E+02  0.26070449556E+02  0.72820873472E+02  0.00000000000E+00 0. -1.
         -3    1    6    6    0  503 -0.34821484710E+03 -0.45396779570E+02  0.39466396930E+02  0.35337238690E+03  0.00000000000E+00 0.  1.
<mgrwt>
<rscale>  0 0.22236324E+04</rscale>
<asrwt>0</asrwt>
<pdfrwt beam="1">  1        1 0.39641656E+00 0.22236324E+04</pdfrwt>
<pdfrwt beam="2">  1       -2 0.73805289E-01 0.22236324E+04</pdfrwt>
<totfact> 0.15850091E+00</totfact>
</mgrwt>
</event>
<event>
12    4  0.4398275E-008  0.1351873E+04  0.7818608E-02  0.8989412E-01
          1   -1    0    0  501    0  0.00000000000E+00  0.00000000000E+00  0.84006876061E+03  0.84006876061E+03  0.00000000000E+00 0. -1.
         -2   -1    0    0    0  501 -0.00000000000E+00 -0.00000000000E+00 -0.54387207411E+03  0.54387207411E+03  0.00000000000E+00 0.  1.
        -24    2    1    2    0    0 -0.29421522118E+02  0.27769190500E+03 -0.16685113035E+03  0.33550617388E+03  0.82138133317E+02 0.  0.
        254    2    1    2    0    0  0.29421522118E+02 -0.27769190500E+03  0.46304781686E+03  0.10484346608E+04  0.89823356499E+03 0.  0.
         23    2    4    4    0    0  0.36253664009E+03 -0.27077864757E+03  0.52245107569E+03  0.69808104927E+03  0.98021086907E+02 0.  0.
         23    2    4    4    0    0 -0.33311511797E+03 -0.69132574296E+01 -0.59403258828E+02  0.35035361157E+03  0.90583834278E+02 0.  0.
          3    1    3    3  502    0  0.13528702283E+02  0.15142945370E+03 -0.55773289087E+02  0.16194000435E+03  0.00000000000E+00 0. -1.
         -4    1    3    3    0  502 -0.42950224401E+02  0.12626245130E+03 -0.11107784127E+03  0.17356616953E+03  0.00000000000E+00 0.  1.
         11    1    5    5    0    0  0.33897817424E+03 -0.21236698797E+03  0.45076308461E+03  0.60265520710E+03  0.00000000000E+00 0. -1.
        -11    1    5    5    0    0  0.23558465842E+02 -0.58411659595E+02  0.71687991075E+02  0.95425842170E+02  0.00000000000E+00 0.  1.
          3    1    6    6  503    0 -0.18076718782E+03  0.34599107442E+02 -0.56129627701E+02  0.19241727972E+03  0.00000000000E+00 0. -1.
         -3    1    6    6    0  503 -0.15234793015E+03 -0.41512364872E+02 -0.32736311272E+01  0.15793633185E+03  0.00000000000E+00 0.  1.
<mgrwt>
<rscale>  0 0.13518727E+04</rscale>
<asrwt>0</asrwt>
<pdfrwt beam="1">  1        1 0.12924135E+00 0.13518727E+04</pdfrwt>
<pdfrwt beam="2">  1       -2 0.83672626E-01 0.13518727E+04</pdfrwt>
<totfact> 0.21871287E+01</totfact>
</mgrwt>
</event>
<event>
12    4  0.4398275E-008  0.2039341E+04  0.7818608E-02  0.8588445E-01
         -2   -1    0    0    0  501 -0.00000000000E+00  0.00000000000E+00  0.62582571886E+03  0.62582571886E+03  0.00000000000E+00 0.  1.
          1   -1    0    0  501    0  0.00000000000E+00 -0.00000000000E+00 -0.16613690884E+04  0.16613690884E+04  0.00000000000E+00 0. -1.
        -24    2    1    2    0    0  0.52986342872E+03 -0.38546403887E+02  0.28031931254E+03  0.60619562381E+03  0.81566776291E+02 0.  0.
        254    2    1    2    0    0 -0.52986342872E+03  0.38546403887E+02 -0.13158626821E+04  0.16809991834E+04  0.90112295406E+03 0.  0.
         23    2    4    4    0    0 -0.43465411364E+01 -0.30071554443E+03 -0.82011293153E+03  0.87808228225E+03  0.89412207519E+02 0.  0.
         23    2    4    4    0    0 -0.52551688758E+03  0.33926194832E+03 -0.49574975053E+03  0.80291690119E+03  0.87413193259E+02 0.  0.
          3    1    3    3  502    0  0.23913324866E+03 -0.29888059444E+02  0.17088182036E+03  0.29542952331E+03  0.00000000000E+00 0. -1.
         -4    1    3    3    0  502  0.29073018005E+03 -0.86583444432E+01  0.10943749218E+03  0.31076610049E+03  0.00000000000E+00 0.  1.
         11    1    5    5    0    0 -0.20848190107E+02 -0.13133422614E+03 -0.47540527754E+03  0.49365322231E+03  0.00000000000E+00 0. -1.
        -11    1    5    5    0    0  0.16501648970E+02 -0.16938131828E+03 -0.34470765399E+03  0.38442905993E+03  0.00000000000E+00 0.  1.
          3    1    6    6  503    0 -0.76339100414E+02  0.37832264947E+02 -0.10698302125E+03  0.13676368436E+03  0.00000000000E+00 0. -1.
         -3    1    6    6    0  503 -0.44917778716E+03  0.30142968337E+03 -0.38876672928E+03  0.66615321683E+03  0.00000000000E+00 0.  1.
<mgrwt>
<rscale>  0 0.20393406E+04</rscale>
<asrwt>0</asrwt>
<pdfrwt beam="1">  1        1 0.25559524E+00 0.20393406E+04</pdfrwt>
<pdfrwt beam="2">  1       -2 0.96280882E-01 0.20393406E+04</pdfrwt>
<totfact> 0.37130497E+00</totfact>
</mgrwt>
</event>
<event>
12    4  0.4398275E-008  0.2640550E+04  0.7818608E-02  0.8354556E-01
         -2   -1    0    0    0  501 -0.00000000000E+00  0.00000000000E+00  0.68117643142E+03  0.68117643142E+03  0.00000000000E+00 0.  1.
          1   -1    0    0  501    0  0.00000000000E+00 -0.00000000000E+00 -0.25589938545E+04  0.25589938545E+04  0.00000000000E+00 0. -1.
        -24    2    1    2    0    0  0.32431691762E+03 -0.96970169148E+03 -0.15514764643E+03  0.10372406623E+04  0.79338299612E+02 0.  0.
        254    2    1    2    0    0 -0.32431691762E+03  0.96970169148E+03 -0.17226697766E+04  0.22029296236E+04  0.91640871547E+03 0.  0.
         23    2    4    4    0    0 -0.60615687874E+03  0.83016308740E+03 -0.14295941355E+04  0.17634383956E+04  0.96843530168E+02 0.  0.
         23    2    4    4    0    0  0.28183996112E+03  0.13953860407E+03 -0.29307564107E+03  0.43949122801E+03  0.91402529505E+02 0.  0.
          1    1    3    3  502    0  0.28031210749E+03 -0.86179621245E+03 -0.11270805513E+03  0.91321995986E+03  0.00000000000E+00 0. -1.
         -4    1    3    3    0  502  0.44004810131E+02 -0.10790547903E+03 -0.42439591297E+02  0.12402070242E+03  0.00000000000E+00 0.  1.
         11    1    5    5    0    0 -0.46914594558E+03  0.58692010350E+03 -0.10887135578E+04  0.13228266467E+04  0.00000000000E+00 0.  1.
        -11    1    5    5    0    0 -0.13701093316E+03  0.24324298390E+03 -0.34088057773E+03  0.44061174893E+03  0.00000000000E+00 0. -1.
          2    1    6    6  503    0  0.24083632246E+03  0.81628556244E+02 -0.24933067847E+03  0.35613360223E+03  0.00000000000E+00 0.  1.
         -2    1    6    6    0  503  0.41003638656E+02  0.57910047831E+02 -0.43744962598E+02  0.83357625779E+02  0.00000000000E+00 0. -1.
<mgrwt>
<rscale>  0 0.26405502E+04</rscale>
<asrwt>0</asrwt>
<pdfrwt beam="1">  1        1 0.39369136E+00 0.26405502E+04</pdfrwt>
<pdfrwt beam="2">  1       -2 0.10479637E+00 0.26405502E+04</pdfrwt>
<totfact> 0.70228626E-01</totfact>
</mgrwt>
</event>
<event>
12    4  0.4398275E-008  0.1418028E+04  0.7818608E-02  0.8940871E-01
          1   -1    0    0  501    0  0.00000000000E+00  0.00000000000E+00  0.23596852955E+04  0.23596852955E+04  0.00000000000E+00 0. -1.
         -2   -1    0    0    0  501 -0.00000000000E+00 -0.00000000000E+00 -0.21303728434E+03  0.21303728434E+03  0.00000000000E+00 0.  1.
        -24    2    1    2    0    0  0.21104580853E+03 -0.96146087230E+02  0.13494722729E+02  0.24573531669E+03  0.80120752221E+02 0.  0.
        254    2    1    2    0    0 -0.21104580853E+03  0.96146087230E+02  0.21331532884E+04  0.23269872631E+04  0.90041233194E+03 0.  0.
         23    2    4    4    0    0 -0.36628550874E+03  0.41503729740E+03  0.13851432551E+04  0.14943306718E+04  0.89338050875E+02 0.  0.
         23    2    4    4    0    0  0.15523970020E+03 -0.31889121017E+03  0.74801003328E+03  0.83265659132E+03  0.89481957579E+02 0.  0.
          1    1    3    3  502    0  0.59331180505E+02 -0.54313800795E+02  0.33417948689E+02  0.87103026535E+02  0.00000000000E+00 0. -1.
         -2    1    3    3    0  502  0.15171462803E+03 -0.41832286435E+02 -0.19923225961E+02  0.15863229015E+03  0.00000000000E+00 0.  1.
         11    1    5    5    0    0 -0.23652127958E+02  0.18447308936E+02  0.14359607900E+03  0.14669546778E+03  0.00000000000E+00 0. -1.
        -11    1    5    5    0    0 -0.34263338078E+03  0.39658998846E+03  0.12415471761E+04  0.13476352040E+04  0.00000000000E+00 0.  1.
          3    1    6    6  503    0  0.45829230230E+02 -0.16186670661E+03  0.42673483604E+03  0.45869790640E+03  0.00000000000E+00 0. -1.
         -3    1    6    6    0  503  0.10941046997E+03 -0.15702450356E+03  0.32127519725E+03  0.37395868491E+03  0.00000000000E+00 0.  1.
<mgrwt>
<rscale>  0 0.14180281E+04</rscale>
<asrwt>0</asrwt>
<pdfrwt beam="1">  1        1 0.36302849E+00 0.14180281E+04</pdfrwt>
<pdfrwt beam="2">  1       -2 0.32774969E-01 0.14180281E+04</pdfrwt>
<totfact> 0.12601494E+01</totfact>
</mgrwt>
</event>
<event>
12    4  0.4398275E-008  0.2207054E+04  0.7818608E-02  0.8515498E-01
          1   -1    0    0  501    0  0.00000000000E+00  0.00000000000E+00  0.17543055225E+04  0.17543055225E+04  0.00000000000E+00 0. -1.
         -2   -1    0    0    0  501 -0.00000000000E+00 -0.00000000000E+00 -0.69416208431E+03  0.69416208431E+03  0.00000000000E+00 0.  1.
        -24    2    1    2    0    0  0.56109015035E+03 -0.75342554227E+02 -0.36114063642E+03  0.67631849207E+03  0.80532516039E+02 0.  0.
        254    2    1    2    0    0 -0.56109015035E+03  0.75342554227E+02  0.14212840746E+04  0.17721491147E+04  0.89440785261E+03 0.  0.
         23    2    4    4    0    0 -0.52695989936E+03 -0.73831815110E+02  0.14874858108E+04  0.15825596962E+04  0.93505521074E+02 0.  0.
         23    2    4    4    0    0 -0.34130250993E+02  0.14917436934E+03 -0.66201736194E+02  0.18958941846E+03  0.90241959300E+02 0.  0.
          3    1    3    3  502    0  0.48868878979E+01 -0.85306019209E+01 -0.60125148852E-01  0.98314016037E+01  0.00000000000E+00 0. -1.
         -4    1    3    3    0  502  0.55620326246E+03 -0.66811952306E+02 -0.36108051127E+03  0.66648709047E+03  0.00000000000E+00 0.  1.
         11    1    5    5    0    0 -0.72500820725E+02 -0.23247761485E+02  0.13665280189E+03  0.15643150477E+03  0.00000000000E+00 0.  1.
        -11    1    5    5    0    0 -0.45445907864E+03 -0.50584053625E+02  0.13508330089E+04  0.14261281915E+04  0.00000000000E+00 0. -1.
          1    1    6    6  503    0  0.18017066797E+01  0.12662214649E+03 -0.73683610585E+02  0.14651173535E+03  0.00000000000E+00 0. -1.
         -1    1    6    6    0  503 -0.35931957673E+02  0.22552222851E+02  0.74818743903E+01  0.43077683110E+02  0.00000000000E+00 0.  1.
<mgrwt>
<rscale>  0 0.22070545E+04</rscale>
<asrwt>0</asrwt>
<pdfrwt beam="1">  1        1 0.26989316E+00 0.22070545E+04</pdfrwt>
<pdfrwt beam="2">  1       -2 0.10679417E+00 0.22070545E+04</pdfrwt>
<totfact> 0.24713905E+00</totfact>
</mgrwt>
</event>
<event>
12    4  0.4398275E-008  0.2494670E+04  0.7818608E-02  0.8404887E-01
         -2   -1    0    0    0  501 -0.00000000000E+00  0.00000000000E+00  0.12897282087E+04  0.12897282087E+04  0.00000000000E+00 0.  1.
          1   -1    0    0  501    0  0.00000000000E+00 -0.00000000000E+00 -0.12063352539E+04  0.12063352539E+04  0.00000000000E+00 0. -1.
        -24    2    1    2    0    0 -0.31149457713E+03 -0.56131251457E+03  0.95199125641E+03  0.11509698239E+04  0.79646548528E+02 0.  0.
        254    2    1    2    0    0  0.31149457713E+03  0.56131251457E+03 -0.86859830160E+03  0.13450936387E+04  0.80169400448E+03 0.  0.
         23    2    4    4    0    0  0.25778965454E+03  0.14304521157E+03  0.66077681184E+02  0.31572798221E+03  0.91654024764E+02 0.  0.
         23    2    4    4    0    0  0.53704922588E+02  0.41826730300E+03 -0.93467598279E+03  0.10293656565E+04  0.90236946796E+02 0.  0.
          3    1    3    3  502    0 -0.84114385981E+02 -0.12483679473E+03  0.28178266655E+03  0.31946975822E+03  0.00000000000E+00 0. -1.
         -4    1    3    3    0  502 -0.22738019115E+03 -0.43647571984E+03  0.67020858986E+03  0.83150006570E+03  0.00000000000E+00 0.  1.
         11    1    5    5    0    0  0.64315233628E+02  0.27696929182E+02  0.57005966448E+02  0.90295345248E+02  0.00000000000E+00 0.  1.
        -11    1    5    5    0    0  0.19347442092E+03  0.11534828238E+03  0.90717147359E+01  0.22543263696E+03  0.00000000000E+00 0. -1.
          1    1    6    6  503    0  0.38771776714E+02  0.24143891409E+03 -0.64324527726E+03  0.68815731241E+03  0.00000000000E+00 0. -1.
         -1    1    6    6    0  503  0.14933145873E+02  0.17682838891E+03 -0.29143070553E+03  0.34120834412E+03  0.00000000000E+00 0.  1.
<mgrwt>
<rscale>  0 0.24946700E+04</rscale>
<asrwt>0</asrwt>
<pdfrwt beam="1">  1        1 0.18559004E+00 0.24946700E+04</pdfrwt>
<pdfrwt beam="2">  1       -2 0.19841972E+00 0.24946700E+04</pdfrwt>
<totfact> 0.11231770E+00</totfact>
</mgrwt>
</event>
<event>
12    4  0.4398275E-008  0.1140359E+04  0.7818608E-02  0.9166724E-01
         -2   -1    0    0    0  501 -0.00000000000E+00  0.00000000000E+00  0.14411854885E+03  0.14411854885E+03  0.00000000000E+00 0.  1.
          1   -1    0    0  501    0  0.00000000000E+00 -0.00000000000E+00 -0.22558143195E+04  0.22558143195E+04  0.00000000000E+00 0. -1.
        -24    2    1    2    0    0 -0.57199737248E+02 -0.11396554272E+02 -0.53594861389E+01  0.97561069056E+02  0.78024013696E+02 0.  0.
        254    2    1    2    0    0  0.57199737248E+02  0.11396554272E+02 -0.21063362845E+04  0.23023717993E+04  0.92782631312E+03 0.  0.
         23    2    4    4    0    0  0.34306027666E+03  0.21441772712E+03 -0.47493629685E+03  0.63125808193E+03  0.96213121822E+02 0.  0.
         23    2    4    4    0    0 -0.28586053941E+03 -0.20302117285E+03 -0.16313999876E+04  0.16711137173E+04  0.90671340442E+02 0.  0.
          1    1    3    3  502    0 -0.39808889959E+02 -0.19927526649E+02 -0.38709368506E+02  0.58993806864E+02  0.00000000000E+00 0. -1.
         -2    1    3    3    0  502 -0.17390847289E+02  0.85309723769E+01  0.33349882367E+02  0.38567262193E+02  0.00000000000E+00 0.  1.
         11    1    5    5    0    0  0.13160138931E+03  0.13688695134E+03 -0.19871712273E+03  0.27485534010E+03  0.00000000000E+00 0. -1.
        -11    1    5    5    0    0  0.21145888736E+03  0.77530775784E+02 -0.27621917411E+03  0.35640274183E+03  0.00000000000E+00 0.  1.
          3    1    6    6  503    0 -0.16333975298E+02 -0.32527969682E+02 -0.90304392094E+02  0.97364011791E+02  0.00000000000E+00 0. -1.
         -3    1    6    6    0  503 -0.26952656411E+03 -0.17049320317E+03 -0.15410955955E+04  0.15737497055E+04  0.00000000000E+00 0.  1.
<mgrwt>
<rscale>  0 0.11403590E+04</rscale>
<asrwt>0</asrwt>
<pdfrwt beam="1">  1        1 0.34704837E+00 0.11403590E+04</pdfrwt>
<pdfrwt beam="2">  1       -2 0.22172083E-01 0.11403590E+04</pdfrwt>
<totfact> 0.31150644E+01</totfact>
</mgrwt>
</event>
<event>
12    4  0.4398275E-008  0.3476146E+04  0.7818608E-02  0.8119466E-01
         -2   -1    0    0    0  501 -0.00000000000E+00  0.00000000000E+00  0.14160782230E+04  0.14160782230E+04  0.00000000000E+00 0.  1.
          1   -1    0    0  501    0  0.00000000000E+00 -0.00000000000E+00 -0.21332850711E+04  0.21332850711E+04  0.00000000000E+00 0. -1.
        -24    2    1    2    0    0  0.10718599027E+04  0.10990739005E+04 -0.85406979010E+03  0.17587140166E+04  0.82417812462E+02 0.  0.
        254    2    1    2    0    0 -0.10718599027E+04 -0.10990739005E+04  0.13686294206E+03  0.17906492775E+04  0.91150769617E+03 0.  0.
         23    2    4    4    0    0 -0.84371886926E+03 -0.25726031534E+03  0.20807481841E+03  0.91080638698E+03  0.90712426472E+02 0.  0.
         23    2    4    4    0    0 -0.22814103347E+03 -0.84181358521E+03 -0.71211876350E+02  0.87984289053E+03  0.91399875747E+02 0.  0.
          3    1    3    3  502    0  0.95592064492E+03  0.10042094706E+04 -0.74990566490E+03  0.15762548799E+04  0.00000000000E+00 0. -1.
         -4    1    3    3    0  502  0.11593925780E+03  0.94864429918E+02 -0.10416412519E+03  0.18245913663E+03  0.00000000000E+00 0.  1.
         11    1    5    5    0    0 -0.78656199015E+03 -0.21505747819E+03  0.19709814557E+03  0.83891427587E+03  0.00000000000E+00 0. -1.
        -11    1    5    5    0    0 -0.57156879103E+02 -0.42202837149E+02  0.10976672837E+02  0.71892111103E+02  0.00000000000E+00 0.  1.
          1    1    6    6  503    0 -0.18252234072E+03 -0.73710381967E+03 -0.87816212078E+02  0.76442666943E+03  0.00000000000E+00 0. -1.
         -1    1    6    6    0  503 -0.45618692755E+02 -0.10470976554E+03  0.16604335728E+02  0.11541622110E+03  0.00000000000E+00 0.  1.
<mgrwt>
<rscale>  0 0.34761464E+04</rscale>
<asrwt>0</asrwt>
<pdfrwt beam="1">  1        1 0.32819770E+00 0.34761464E+04</pdfrwt>
<pdfrwt beam="2">  1       -2 0.21785819E+00 0.34761464E+04</pdfrwt>
<totfact> 0.17734914E-01</totfact>
</mgrwt>
</event>
<event>
12    4  0.4398275E-008  0.1736893E+04  0.7818608E-02  0.8740598E-01
         -2   -1    0    0    0  501 -0.00000000000E+00  0.00000000000E+00  0.18440628230E+03  0.18440628230E+03  0.00000000000E+00 0.  1.
          1   -1    0    0  501    0  0.00000000000E+00 -0.00000000000E+00 -0.40898764419E+04  0.40898764419E+04  0.00000000000E+00 0. -1.
        -24    2    1    2    0    0 -0.53969382579E+03  0.27340171509E+03 -0.20486933543E+04  0.21375704421E+04  0.77749670569E+02 0.  0.
        254    2    1    2    0    0  0.53969382579E+03 -0.27340171509E+03 -0.18567768053E+04  0.21367122821E+04  0.86712245309E+03 0.  0.
         23    2    4    4    0    0  0.56202459016E+02 -0.24763718312E+03 -0.15074939200E+04  0.15315300541E+04  0.92539164368E+02 0.  0.
         23    2    4    4    0    0  0.48349136677E+03 -0.25764531970E+02 -0.34928288530E+03  0.60518222806E+03  0.99092292066E+02 0.  0.
          3    1    3    3  502    0 -0.31291770977E+03  0.19185865418E+03 -0.11523324627E+04  0.12093789070E+04  0.00000000000E+00 0. -1.
         -4    1    3    3    0  502 -0.22677611601E+03  0.81543060910E+02 -0.89636089168E+03  0.92819153504E+03  0.00000000000E+00 0.  1.
         11    1    5    5    0    0  0.27073232667E+02 -0.16190408226E+03 -0.70070060767E+03  0.71967161496E+03  0.00000000000E+00 0.  1.
        -11    1    5    5    0    0  0.29129226349E+02 -0.85733100859E+02 -0.80679331230E+03  0.81185843912E+03  0.00000000000E+00 0. -1.
          1    1    6    6  503    0  0.24883965856E+03  0.36347765593E+02 -0.17793874093E+03  0.30806579047E+03  0.00000000000E+00 0.  1.
         -1    1    6    6    0  503  0.23465170821E+03 -0.62112297563E+02 -0.17134414437E+03  0.29711643759E+03  0.00000000000E+00 0. -1.
<mgrwt>
<rscale>  0 0.17368925E+04</rscale>
<asrwt>0</asrwt>
<pdfrwt beam="1">  1        1 0.62921180E+00 0.17368925E+04</pdfrwt>
<pdfrwt beam="2">  1       -2 0.28370195E-01 0.17368925E+04</pdfrwt>
<totfact> 0.76724905E-01</totfact>
</mgrwt>
</event>
<event>
12    4  0.4398275E-008  0.1375933E+04  0.7818608E-02  0.8971426E-01
         -2   -1    0    0    0  501 -0.00000000000E+00  0.00000000000E+00  0.63395149232E+03  0.63395149232E+03  0.00000000000E+00 0.  1.
          1   -1    0    0  501    0  0.00000000000E+00 -0.00000000000E+00 -0.74658403823E+03  0.74658403823E+03  0.00000000000E+00 0. -1.
        -24    2    1    2    0    0  0.19073111538E+02  0.31322296610E+03  0.25464213910E+03  0.41200782635E+03  0.80221068882E+02 0.  0.
        254    2    1    2    0    0 -0.19073111538E+02 -0.31322296610E+03 -0.36727468500E+03  0.96852770420E+03  0.83945387574E+03 0.  0.
         23    2    4    4    0    0 -0.22306403247E+03 -0.23414408432E+02  0.18601856205E+03  0.30539317875E+03  0.91412751269E+02 0.  0.
         23    2    4    4    0    0  0.20399092094E+03 -0.28980855766E+03 -0.55329324706E+03  0.66313452545E+03  0.89513606148E+02 0.  0.
          3    1    3    3  502    0  0.44345988189E+02  0.10360873821E+03  0.84786735567E+02  0.14103236448E+03  0.00000000000E+00 0. -1.
         -4    1    3    3    0  502 -0.25272876651E+02  0.20961422789E+03  0.16985540353E+03  0.27097546187E+03  0.00000000000E+00 0.  1.
         11    1    5    5    0    0  0.45716058230E+01  0.76302536382E+01  0.20165242530E+02  0.22039903736E+02  0.00000000000E+00 0. -1.
        -11    1    5    5    0    0 -0.22763563830E+03 -0.31044662071E+02  0.16585331952E+03  0.28335327502E+03  0.00000000000E+00 0.  1.
          1    1    6    6  503    0  0.11601743290E+03 -0.10970536330E+03 -0.18972216219E+03  0.24797139008E+03  0.00000000000E+00 0. -1.
         -1    1    6    6    0  503  0.87973488038E+02 -0.18010319436E+03 -0.36357108487E+03  0.41516313537E+03  0.00000000000E+00 0.  1.
<mgrwt>
<rscale>  0 0.13759332E+04</rscale>
<asrwt>0</asrwt>
<pdfrwt beam="1">  1        1 0.11485908E+00 0.13759332E+04</pdfrwt>
<pdfrwt beam="2">  1       -2 0.97530998E-01 0.13759332E+04</pdfrwt>
<totfact> 0.18495019E+01</totfact>
</mgrwt>
</event>
<event>
12    4  0.4398275E-008  0.1521530E+04  0.7818608E-02  0.8870261E-01
         -2   -1    0    0    0  501 -0.00000000000E+00  0.00000000000E+00  0.38493125461E+03  0.38493125461E+03  0.00000000000E+00 0.  1.
          1   -1    0    0  501    0  0.00000000000E+00 -0.00000000000E+00 -0.15035496495E+04  0.15035496495E+04  0.00000000000E+00 0. -1.
        -24    2    1    2    0    0  0.23956241479E+03  0.24048212641E+03  0.76720345098E+02  0.35725926598E+03  0.80785939802E+02 0.  0.
        254    2    1    2    0    0 -0.23956241479E+03 -0.24048212641E+03 -0.11953387400E+04  0.15312216381E+04  0.89475314922E+03 0.  0.
         23    2    4    4    0    0 -0.11402998853E+02 -0.41766328948E+03 -0.11451805624E+04  0.12223191874E+04  0.89738640732E+02 0.  0.
         23    2    4    4    0    0 -0.22815941594E+03  0.17718116307E+03 -0.50158177619E+02  0.30890245075E+03  0.97236812310E+02 0.  0.
          3    1    3    3  502    0 -0.11880339663E+01  0.26947757847E+02  0.87291680873E+01  0.28351216080E+02  0.00000000000E+00 0. -1.
         -4    1    3    3    0  502  0.24075044876E+03  0.21353436856E+03  0.67991177011E+02  0.32890804990E+03  0.00000000000E+00 0.  1.
         11    1    5    5    0    0  0.22587966790E+02 -0.15836484780E+03 -0.53639143300E+03  0.55973691200E+03  0.00000000000E+00 0. -1.
        -11    1    5    5    0    0 -0.33990965643E+02 -0.25929844168E+03 -0.60878912937E+03  0.66258227537E+03  0.00000000000E+00 0.  1.
          1    1    6    6  503    0 -0.76424091528E+02  0.45337366020E+02  0.28092997139E+02  0.93195144786E+02  0.00000000000E+00 0. -1.
         -1    1    6    6    0  503 -0.15173532441E+03  0.13184379705E+03 -0.78251174758E+02  0.21570730596E+03  0.00000000000E+00 0.  1.
<mgrwt>
<rscale>  0 0.15215298E+04</rscale>
<asrwt>0</asrwt>
<pdfrwt beam="1">  1        1 0.23131533E+00 0.15215298E+04</pdfrwt>
<pdfrwt beam="2">  1       -2 0.59220192E-01 0.15215298E+04</pdfrwt>
<totfact> 0.14675045E+01</totfact>
</mgrwt>
</event>
<event>
12    4  0.4398275E-008  0.1228338E+04  0.7818608E-02  0.9088407E-01
          1   -1    0    0  501    0  0.00000000000E+00  0.00000000000E+00  0.49651380346E+04  0.49651380346E+04  0.00000000000E+00 0. -1.
         -2   -1    0    0    0  501 -0.00000000000E+00 -0.00000000000E+00 -0.75970465376E+02  0.75970465376E+02  0.00000000000E+00 0.  1.
        -24    2    1    2    0    0 -0.25700492374E+03 -0.58299473061E+02  0.13556126724E+04  0.13834942092E+04  0.83187437779E+02 0.  0.
        254    2    1    2    0    0  0.25700492374E+03  0.58299473061E+02  0.35335548968E+04  0.36576142908E+04  0.90701804401E+03 0.  0.
         23    2    4    4    0    0 -0.32256663893E+03  0.10772860581E+03  0.11596042234E+04  0.12117775500E+04  0.89823085538E+02 0.  0.
         23    2    4    4    0    0  0.57957156268E+03 -0.49429132753E+02  0.23739506734E+04  0.24458367408E+04  0.90161674055E+02 0.  0.
          1    1    3    3  502    0 -0.24984330534E+03 -0.47920868855E+02  0.11644077520E+04  0.11918739446E+04  0.00000000000E+00 0. -1.
         -2    1    3    3    0  502 -0.71616184053E+01 -0.10378604206E+02  0.19120492040E+03  0.19162026455E+03  0.00000000000E+00 0.  1.
         11    1    5    5    0    0 -0.35986490049E+02  0.13952633030E+02  0.26325444618E+03  0.26606880100E+03  0.00000000000E+00 0. -1.
        -11    1    5    5    0    0 -0.28658014888E+03  0.93775972784E+02  0.89634977723E+03  0.94570874900E+03  0.00000000000E+00 0.  1.
          4    1    6    6  503    0  0.28462732785E+03 -0.22006935171E+02  0.13526267273E+04  0.13824239886E+04  0.00000000000E+00 0.  1.
         -4    1    6    6    0  503  0.29494423483E+03 -0.27422197582E+02  0.10213239461E+04  0.10634127522E+04  0.00000000000E+00 0. -1.
<mgrwt>
<rscale>  0 0.12283385E+04</rscale>
<asrwt>0</asrwt>
<pdfrwt beam="1">  1        1 0.76386713E+00 0.12283385E+04</pdfrwt>
<pdfrwt beam="2">  1       -2 0.11687768E-01 0.12283385E+04</pdfrwt>
<totfact> 0.47238928E-01</totfact>
</mgrwt>
</event>
<event>
12    4  0.4398275E-008  0.2103608E+04  0.7818608E-02  0.8559656E-01
          1   -1    0    0  501    0  0.00000000000E+00  0.00000000000E+00  0.14148003432E+04  0.14148003432E+04  0.00000000000E+00 0. -1.
         -2   -1    0    0    0  501 -0.00000000000E+00 -0.00000000000E+00 -0.78194198622E+03  0.78194198622E+03  0.00000000000E+00 0.  1.
        -24    2    1    2    0    0  0.23451191658E+03 -0.78570835723E+03  0.52115179962E+03  0.97493943876E+03  0.81081744938E+02 0.  0.
        254    2    1    2    0    0 -0.23451191658E+03  0.78570835723E+03  0.11170655741E+03  0.12218028907E+04  0.89888291069E+03 0.  0.
         23    2    4    4    0    0  0.76175387504E+02  0.86214335155E+03 -0.13660404610E+01  0.87039677310E+03  0.92167392715E+02 0.  0.
         23    2    4    4    0    0 -0.31068730409E+03 -0.76434994317E+02  0.11307259787E+03  0.35140611761E+03  0.91279449077E+02 0.  0.
          1    1    3    3  502    0  0.17438736018E+03 -0.55418514721E+03  0.41060705203E+03  0.71142833789E+03  0.00000000000E+00 0. -1.
         -2    1    3    3    0  502  0.60124556409E+02 -0.23152321003E+03  0.11054474759E+03  0.26351110088E+03  0.00000000000E+00 0.  1.
         11    1    5    5    0    0 -0.13689437010E+02  0.26494980950E+02  0.24339737530E+01  0.29921713344E+02  0.00000000000E+00 0. -1.
        -11    1    5    5    0    0  0.89864824514E+02  0.83564837060E+03 -0.38000142140E+01  0.84047505976E+03  0.00000000000E+00 0.  1.
          1    1    6    6  503    0 -0.18361022106E+03  0.18016611893E+00  0.51014075621E+02  0.19056542617E+03  0.00000000000E+00 0. -1.
         -1    1    6    6    0  503 -0.12707708302E+03 -0.76615160435E+02  0.62058522246E+02  0.16084069144E+03  0.00000000000E+00 0.  1.
<mgrwt>
<rscale>  0 0.21036081E+04</rscale>
<asrwt>0</asrwt>
<pdfrwt beam="1">  1        1 0.21766159E+00 0.21036081E+04</pdfrwt>
<pdfrwt beam="2">  1       -2 0.12029877E+00 0.21036081E+04</pdfrwt>
<totfact> 0.31943487E+00</totfact>
</mgrwt>
</event>
<event>
12    4  0.4398275E-008  0.2852029E+04  0.7818608E-02  0.8287295E-01
          1   -1    0    0  501    0  0.00000000000E+00  0.00000000000E+00  0.15638359617E+04  0.15638359617E+04  0.00000000000E+00 0. -1.
         -2   -1    0    0    0  501 -0.00000000000E+00 -0.00000000000E+00 -0.13003393930E+04  0.13003393930E+04  0.00000000000E+00 0.  1.
        -24    2    1    2    0    0 -0.22804303543E+03  0.79459348157E+03  0.11052679620E+04  0.13825635914E+04  0.80513287183E+02 0.  0.
        254    2    1    2    0    0  0.22804303543E+03 -0.79459348157E+03 -0.84177139326E+03  0.14816117633E+04  0.89622090562E+03 0.  0.
         23    2    4    4    0    0  0.52729123699E+03 -0.27533759453E+03 -0.32114000509E+03  0.68209979001E+03  0.91007588113E+02 0.  0.
         23    2    4    4    0    0 -0.29924820157E+03 -0.51925588704E+03 -0.52063138817E+03  0.79951197328E+03  0.94795520529E+02 0.  0.
          1    1    3    3  502    0 -0.23428665637E+03  0.77649235452E+03  0.10854979346E+04  0.13550410990E+04  0.00000000000E+00 0. -1.
         -2    1    3    3    0  502  0.62436209417E+01  0.18101127056E+02  0.19770027458E+02  0.27522492417E+02  0.00000000000E+00 0.  1.
         11    1    5    5    0    0  0.15277875380E+03 -0.66498837525E+02 -0.46894069241E+02  0.17309678430E+03  0.00000000000E+00 0.  1.
        -11    1    5    5    0    0  0.37451248320E+03 -0.20883875700E+03 -0.27424593585E+03  0.50900300572E+03  0.00000000000E+00 0. -1.
          3    1    6    6  503    0 -0.83339620908E+02 -0.87771588344E+02 -0.72930498359E+02  0.14130888763E+03  0.00000000000E+00 0.  1.
         -3    1    6    6    0  503 -0.21590858066E+03 -0.43148429870E+03 -0.44770088981E+03  0.65820308565E+03  0.00000000000E+00 0. -1.
<mgrwt>
<rscale>  0 0.28520291E+04</rscale>
<asrwt>0</asrwt>
<pdfrwt beam="1">  1        1 0.24059015E+00 0.28520291E+04</pdfrwt>
<pdfrwt beam="2">  1       -2 0.20005222E+00 0.28520291E+04</pdfrwt>
<totfact> 0.59454201E-01</totfact>
</mgrwt>
</event>
<event>
12    4  0.4398275E-008  0.1482170E+04  0.7818608E-02  0.8896397E-01
          1   -1    0    0  501    0  0.00000000000E+00  0.00000000000E+00  0.13966905217E+04  0.13966905217E+04  0.00000000000E+00 0. -1.
         -2   -1    0    0    0  501 -0.00000000000E+00 -0.00000000000E+00 -0.39322045459E+03  0.39322045459E+03  0.00000000000E+00 0.  1.
        -24    2    1    2    0    0 -0.45979720890E+03  0.51475816994E+02  0.33226588731E+03  0.57505755085E+03  0.78913458122E+02 0.  0.
        254    2    1    2    0    0  0.45979720890E+03 -0.51475816994E+02  0.67120417977E+03  0.12148534254E+04  0.90071669312E+03 0.  0.
         23    2    4    4    0    0  0.98096586995E+02  0.37495182969E+03  0.98422775293E+02  0.40936728559E+03  0.87651108671E+02 0.  0.
         23    2    4    4    0    0  0.36170062190E+03 -0.42642764668E+03  0.57278140448E+03  0.80548613982E+03  0.89785891964E+02 0.  0.
          1    1    3    3  502    0 -0.39610403915E+03  0.49320164593E+02  0.31647959878E+03  0.50940183050E+03  0.00000000000E+00 0. -1.
         -2    1    3    3    0  502 -0.63693169745E+02  0.21556524011E+01  0.15786288529E+02  0.65655720352E+02  0.00000000000E+00 0.  1.
         11    1    5    5    0    0  0.59610619283E+02  0.34057449584E+03  0.86218989980E+02  0.35633990427E+03  0.00000000000E+00 0. -1.
        -11    1    5    5    0    0  0.38485967713E+02  0.34377333851E+02  0.12203785313E+02  0.53027381318E+02  0.00000000000E+00 0.  1.
          2    1    6    6  503    0  0.19365564690E+03 -0.19475410478E+03  0.33648020840E+03  0.43433927010E+03  0.00000000000E+00 0. -1.
         -2    1    6    6    0  503  0.16804497500E+03 -0.23167354190E+03  0.23630119608E+03  0.37114686972E+03  0.00000000000E+00 0.  1.
<mgrwt>
<rscale>  0 0.14821704E+04</rscale>
<asrwt>0</asrwt>
<pdfrwt beam="1">  1        1 0.21487546E+00 0.14821704E+04</pdfrwt>
<pdfrwt beam="2">  1       -2 0.60495455E-01 0.14821704E+04</pdfrwt>
<totfact> 0.16708368E+01</totfact>
</mgrwt>
</event>
<event>
12    4  0.4398275E-008  0.3774549E+04  0.7818608E-02  0.8051639E-01
         -2   -1    0    0    0  501 -0.00000000000E+00  0.00000000000E+00  0.24204626511E+04  0.24204626511E+04  0.00000000000E+00 0.  1.
          1   -1    0    0  501    0  0.00000000000E+00 -0.00000000000E+00 -0.14715391008E+04  0.14715391008E+04  0.00000000000E+00 0. -1.
        -24    2    1    2    0    0  0.85484977008E+03 -0.13333348957E+04  0.12825757585E+04  0.20395771052E+04  0.79524326169E+02 0.  0.
        254    2    1    2    0    0 -0.85484977008E+03  0.13333348957E+04 -0.33365220815E+03  0.18524246466E+04  0.90089022732E+03 0.  0.
         23    2    4    4    0    0 -0.78225462965E+03  0.44639954725E+03 -0.31399974680E+03  0.95781641770E+03  0.87301704648E+02 0.  0.
         23    2    4    4    0    0 -0.72595140433E+02  0.88693534848E+03 -0.19652461346E+02  0.89460822888E+03  0.89517021566E+02 0.  0.
          3    1    3    3  502    0  0.70467074574E+03 -0.10989348176E+04  0.10171342410E+04  0.16549261789E+04  0.00000000000E+00 0. -1.
         -4    1    3    3    0  502  0.15017902434E+03 -0.23440007810E+03  0.26544151745E+03  0.38465092636E+03  0.00000000000E+00 0.  1.
         11    1    5    5    0    0 -0.66483334289E+03  0.39148886797E+03 -0.29850330214E+03  0.82726726573E+03  0.00000000000E+00 0.  1.
        -11    1    5    5    0    0 -0.11742128676E+03  0.54910679279E+02 -0.15496444666E+02  0.13054915197E+03  0.00000000000E+00 0. -1.
          1    1    6    6  503    0  0.19093763703E+02  0.89638109453E+02 -0.76296960317E+01  0.91966160843E+02  0.00000000000E+00 0. -1.
         -1    1    6    6    0  503 -0.91688904135E+02  0.79729723902E+03 -0.12022765315E+02  0.80264206804E+03  0.00000000000E+00 0.  1.
<mgrwt>
<rscale>  0 0.37745492E+04</rscale>
<asrwt>0</asrwt>
<pdfrwt beam="1">  1        1 0.22639063E+00 0.37745492E+04</pdfrwt>
<pdfrwt beam="2">  1       -2 0.37237887E+00 0.37745492E+04</pdfrwt>
<totfact> 0.53706252E-02</totfact>
</mgrwt>
</event>
<event>
12    4  0.4398275E-008  0.1590778E+04  0.7818608E-02  0.8826233E-01
          1   -1    0    0  501    0  0.00000000000E+00  0.00000000000E+00  0.53449617709E+03  0.53449617709E+03  0.00000000000E+00 0. -1.
         -2   -1    0    0    0  501 -0.00000000000E+00 -0.00000000000E+00 -0.11836267327E+04  0.11836267327E+04  0.00000000000E+00 0.  1.
        -24    2    1    2    0    0 -0.37214940754E+03  0.29162156730E+00 -0.64619459745E+03  0.74990717596E+03  0.79360243212E+02 0.  0.
        254    2    1    2    0    0  0.37214940754E+03 -0.29162156730E+00 -0.29359581949E+01  0.96821573386E+03  0.89383321759E+03 0.  0.
         23    2    4    4    0    0  0.41512449028E+03 -0.26329328626E+03 -0.28062781024E+03  0.57380221714E+03  0.94049558687E+02 0.  0.
         23    2    4    4    0    0 -0.42975082741E+02  0.26300166469E+03  0.27769185204E+03  0.39441351673E+03  0.86212087991E+02 0.  0.
          1    1    3    3  502    0 -0.14478106876E+03  0.37647879194E+02 -0.27342666210E+03  0.31167460632E+03  0.00000000000E+00 0. -1.
         -2    1    3    3    0  502 -0.22736833878E+03 -0.37356257626E+02 -0.37276793536E+03  0.43823256964E+03  0.00000000000E+00 0.  1.
         11    1    5    5    0    0  0.17274600138E+03 -0.82749097598E+02 -0.15540618883E+03  0.24665700410E+03  0.00000000000E+00 0.  1.
        -11    1    5    5    0    0  0.24237848891E+03 -0.18054418866E+03 -0.12522162141E+03  0.32714521304E+03  0.00000000000E+00 0. -1.
          4    1    6    6  503    0 -0.63366598621E+02  0.20050806944E+03  0.18077214257E+03  0.27730376712E+03  0.00000000000E+00 0. -1.
         -4    1    6    6    0  503  0.20391515880E+02  0.62493595257E+02  0.96919709472E+02  0.11710974960E+03  0.00000000000E+00 0.  1.
<mgrwt>
<rscale>  0 0.15907784E+04</rscale>
<asrwt>0</asrwt>
<pdfrwt beam="1">  1        1 0.82230183E-01 0.15907784E+04</pdfrwt>
<pdfrwt beam="2">  1       -2 0.18209642E+00 0.15907784E+04</pdfrwt>
<totfact> 0.59452607E+00</totfact>
</mgrwt>
</event>
<event>
12    4  0.4398275E-008  0.1559865E+04  0.7818608E-02  0.8845591E-01
         -2   -1    0    0    0  501 -0.00000000000E+00  0.00000000000E+00  0.45856709031E+03  0.45856709031E+03  0.00000000000E+00 0.  1.
          1   -1    0    0  501    0  0.00000000000E+00 -0.00000000000E+00 -0.13265114526E+04  0.13265114526E+04  0.00000000000E+00 0. -1.
        -24    2    1    2    0    0 -0.43549749875E+03 -0.67076839102E+02 -0.60342467796E+03  0.75161981313E+03  0.81569772306E+02 0.  0.
        254    2    1    2    0    0  0.43549749875E+03  0.67076839102E+02 -0.26451968430E+03  0.10334587298E+04  0.89660967481E+03 0.  0.
         23    2    4    4    0    0 -0.42928862935E+01  0.92279706060E+02  0.29125847768E+03  0.31839236464E+03  0.89488680940E+02 0.  0.
         23    2    4    4    0    0  0.43979038504E+03 -0.25202866958E+02 -0.55577816198E+03  0.71506636512E+03  0.91541105007E+02 0.  0.
          1    1    3    3  502    0 -0.39052442918E+03 -0.51774797061E+02 -0.57247336481E+03  0.69492137168E+03  0.00000000000E+00 0. -1.
         -2    1    3    3    0  502 -0.44973069571E+02 -0.15302042041E+02 -0.30951313149E+02  0.56698441450E+02  0.00000000000E+00 0.  1.
         11    1    5    5    0    0  0.41253362182E+02  0.45545841710E+02  0.11407721957E+03  0.12957575242E+03  0.00000000000E+00 0.  1.
        -11    1    5    5    0    0 -0.45546248475E+02  0.46733864350E+02  0.17718125811E+03  0.18881661222E+03  0.00000000000E+00 0. -1.
          2    1    6    6  503    0  0.34538386264E+03 -0.36524686877E+02 -0.37712620259E+03  0.51268727115E+03  0.00000000000E+00 0. -1.
         -2    1    6    6    0  503  0.94406522405E+02  0.11321819920E+02 -0.17865195939E+03  0.20237909397E+03  0.00000000000E+00 0.  1.
<mgrwt>
<rscale>  0 0.15598647E+04</rscale>
<asrwt>0</asrwt>
<pdfrwt beam="1">  1        1 0.20407868E+00 0.15598647E+04</pdfrwt>
<pdfrwt beam="2">  1       -2 0.70548783E-01 0.15598647E+04</pdfrwt>
<totfact> 0.13364562E+01</totfact>
</mgrwt>
</event>
<event>
12    4  0.4398275E-008  0.1919140E+04  0.7818608E-02  0.8645387E-01
          1   -1    0    0  501    0  0.00000000000E+00  0.00000000000E+00  0.24589602623E+04  0.24589602623E+04  0.00000000000E+00 0. -1.
         -2   -1    0    0    0  501 -0.00000000000E+00 -0.00000000000E+00 -0.37445682367E+03  0.37445682367E+03  0.00000000000E+00 0.  1.
        -24    2    1    2    0    0 -0.15735549514E+03 -0.64107956887E+03  0.30085763120E+03  0.72961395400E+03  0.77957951195E+02 0.  0.
        254    2    1    2    0    0  0.15735549514E+03  0.64107956887E+03  0.17836458074E+04  0.21038031319E+04  0.89936171047E+03 0.  0.
         23    2    4    4    0    0  0.23510005319E+03  0.67017582275E+03  0.18327431222E+04  0.19675805513E+04  0.89544434167E+02 0.  0.
         23    2    4    4    0    0 -0.77744558055E+02 -0.29096253880E+02 -0.49097314755E+02  0.13622258063E+03  0.96204141600E+02 0.  0.
          1    1    3    3  502    0 -0.45665953511E+02 -0.81732575671E+02  0.31125105362E+02  0.98662887753E+02  0.00000000000E+00 0. -1.
         -2    1    3    3    0  502 -0.11168954163E+03 -0.55934699320E+03  0.26973252584E+03  0.63095106625E+03  0.00000000000E+00 0.  1.
         11    1    5    5    0    0  0.31614964691E+02  0.17154318949E+03  0.52764817440E+03  0.55573300046E+03  0.00000000000E+00 0. -1.
        -11    1    5    5    0    0  0.20348508850E+03  0.49863263326E+03  0.13050949478E+04  0.14118475509E+04  0.00000000000E+00 0.  1.
          1    1    6    6  503    0 -0.76541896918E+02 -0.33549865461E+02  0.32860918501E+01  0.83636438566E+02  0.00000000000E+00 0. -1.
         -1    1    6    6    0  503 -0.12026611371E+01  0.44536115812E+01 -0.52383406605E+02  0.52586142066E+02  0.00000000000E+00 0.  1.
<mgrwt>
<rscale>  0 0.19191399E+04</rscale>
<asrwt>0</asrwt>
<pdfrwt beam="1">  1        1 0.37830157E+00 0.19191399E+04</pdfrwt>
<pdfrwt beam="2">  1       -2 0.57608744E-01 0.19191399E+04</pdfrwt>
<totfact> 0.33510255E+00</totfact>
</mgrwt>
</event>
<event>
12    4  0.4398275E-008  0.1760805E+04  0.7818608E-02  0.8727425E-01
         -2   -1    0    0    0  501 -0.00000000000E+00  0.00000000000E+00  0.40453956817E+03  0.40453956817E+03  0.00000000000E+00 0.  1.
          1   -1    0    0  501    0  0.00000000000E+00 -0.00000000000E+00 -0.19160267547E+04  0.19160267547E+04  0.00000000000E+00 0. -1.
        -24    2    1    2    0    0 -0.22118270665E+03  0.47013581132E+02 -0.13608584614E+04  0.13820852256E+04  0.84212541717E+02 0.  0.
        254    2    1    2    0    0  0.22118270665E+03 -0.47013581132E+02 -0.15062872510E+03  0.93848109729E+03  0.89829042665E+03 0.  0.
         23    2    4    4    0    0 -0.57213947507E+02  0.16142078872E+02 -0.48058338482E+03  0.49282530366E+03  0.91555380316E+02 0.  0.
         23    2    4    4    0    0  0.27839665416E+03 -0.63155660005E+02  0.32995465972E+03  0.44565579362E+03  0.90805696316E+02 0.  0.
          1    1    3    3  502    0 -0.17684495523E+03  0.25491829332E+02 -0.12163652232E+04  0.12294178817E+04  0.00000000000E+00 0. -1.
         -2    1    3    3    0  502 -0.44337751424E+02  0.21521751800E+02 -0.14449323817E+03  0.15266734385E+03  0.00000000000E+00 0.  1.
         11    1    5    5    0    0 -0.49378829680E+02 -0.31915909573E+02 -0.21938114705E+03  0.22712327442E+03  0.00000000000E+00 0.  1.
        -11    1    5    5    0    0 -0.78351178271E+01  0.48057988445E+02 -0.26120223777E+03  0.26570202924E+03  0.00000000000E+00 0. -1.
          2    1    6    6  503    0  0.26661527861E+03 -0.79175515617E+02  0.31795208488E+03  0.42242868906E+03  0.00000000000E+00 0. -1.
         -2    1    6    6    0  503  0.11781375543E+02  0.16019855612E+02  0.12002574839E+02  0.23227104561E+02  0.00000000000E+00 0.  1.
<mgrwt>
<rscale>  0 0.17608051E+04</rscale>
<asrwt>0</asrwt>
<pdfrwt beam="1">  1        1 0.29477335E+00 0.17608051E+04</pdfrwt>
<pdfrwt beam="2">  1       -2 0.62236857E-01 0.17608051E+04</pdfrwt>
<totfact> 0.67683051E+00</totfact>
</mgrwt>
</event>
<event>
12    4  0.4398275E-008  0.1149569E+04  0.7818608E-02  0.9158182E-01
          1   -1    0    0  501    0  0.00000000000E+00  0.00000000000E+00  0.29228977852E+04  0.29228977852E+04  0.00000000000E+00 0. -1.
         -2   -1    0    0    0  501 -0.00000000000E+00 -0.00000000000E+00 -0.11303062165E+03  0.11303062165E+03  0.00000000000E+00 0.  1.
        -24    2    1    2    0    0  0.10755849275E+03  0.17585145966E+03  0.71793847399E+03  0.75137464738E+03  0.81459456527E+02 0.  0.
        254    2    1    2    0    0 -0.10755849275E+03 -0.17585145966E+03  0.20919286896E+04  0.22845537595E+04  0.89472212029E+03 0.  0.
         23    2    4    4    0    0 -0.12046149606E+03 -0.24965955688E+03  0.21377902642E+04  0.21575942479E+04  0.90691004754E+02 0.  0.
         23    2    4    4    0    0  0.12903003311E+02  0.73808097225E+02 -0.45861574629E+02  0.12695951163E+03  0.91658664916E+02 0.  0.
          3    1    3    3  502    0  0.65974458718E+02  0.58777853855E+02  0.40808473199E+03  0.41754115221E+03  0.00000000000E+00 0. -1.
         -4    1    3    3    0  502  0.41584034028E+02  0.11707360580E+03  0.30985374200E+03  0.33383349516E+03  0.00000000000E+00 0.  1.
         11    1    5    5    0    0 -0.90156210765E+02 -0.95905271284E+02  0.11397128397E+04  0.11472886822E+04  0.00000000000E+00 0. -1.
        -11    1    5    5    0    0 -0.30305285293E+02 -0.15375428560E+03  0.99807742452E+03  0.10103055657E+04  0.00000000000E+00 0.  1.
          1    1    6    6  503    0  0.26589895544E+01 -0.19608320746E+02 -0.22810615469E+02  0.30197361574E+02  0.00000000000E+00 0. -1.
         -1    1    6    6    0  503  0.10244013757E+02  0.93416417971E+02 -0.23050959160E+02  0.96762150052E+02  0.00000000000E+00 0.  1.
<mgrwt>
<rscale>  0 0.11495685E+04</rscale>
<asrwt>0</asrwt>
<pdfrwt beam="1">  1        1 0.44967653E+00 0.11495685E+04</pdfrwt>
<pdfrwt beam="2">  1       -2 0.17389329E-01 0.11495685E+04</pdfrwt>
<totfact> 0.16398104E+01</totfact>
</mgrwt>
</event>
<event>
12    4  0.4398275E-008  0.2956312E+04  0.7818608E-02  0.8256317E-01
         -2   -1    0    0    0  501 -0.00000000000E+00  0.00000000000E+00  0.11537415056E+04  0.11537415056E+04  0.00000000000E+00 0.  1.
          1   -1    0    0  501    0  0.00000000000E+00 -0.00000000000E+00 -0.18937906081E+04  0.18937906081E+04  0.00000000000E+00 0. -1.
        -24    2    1    2    0    0  0.28300909525E+03 -0.82986876640E+03 -0.13855421266E+04  0.16416519058E+04  0.80732135973E+02 0.  0.
        254    2    1    2    0    0 -0.28300909525E+03  0.82986876640E+03  0.64549302408E+03  0.14058802079E+04  0.88941643647E+03 0.  0.
         23    2    4    4    0    0 -0.18543534971E+03  0.31410763771E+03  0.77204944680E+03  0.85839582160E+03  0.87938394567E+02 0.  0.
         23    2    4    4    0    0 -0.97573745536E+02  0.51576112869E+03 -0.12655642272E+03  0.54748438633E+03  0.90512139837E+02 0.  0.
          1    1    3    3  502    0  0.27778517908E+03 -0.82999530483E+03 -0.13761273248E+04  0.16308841853E+04  0.00000000000E+00 0. -1.
         -2    1    3    3    0  502  0.52239161675E+01  0.12653842433E+00 -0.94148017775E+01  0.10767720493E+02  0.00000000000E+00 0.  1.
         11    1    5    5    0    0 -0.19102217685E+03  0.30645956800E+03  0.76677286004E+03  0.84755386717E+03  0.00000000000E+00 0. -1.
        -11    1    5    5    0    0  0.55868271428E+01  0.76480697151E+01  0.52765867613E+01  0.10841954424E+02  0.00000000000E+00 0.  1.
          1    1    6    6  503    0 -0.10786392784E+02  0.22967797477E+01  0.17428821467E+01  0.11165084177E+02  0.00000000000E+00 0.  1.
         -1    1    6    6    0  503 -0.86787352752E+02  0.51346434894E+03 -0.12829930486E+03  0.53631930215E+03  0.00000000000E+00 0. -1.
<mgrwt>
<rscale>  0 0.29563118E+04</rscale>
<asrwt>0</asrwt>
<pdfrwt beam="1">  1        1 0.29135240E+00 0.29563118E+04</pdfrwt>
<pdfrwt beam="2">  1       -2 0.17749869E+00 0.29563118E+04</pdfrwt>
<totfact> 0.49854047E-01</totfact>
</mgrwt>
</event>
<event>
12    4  0.4398275E-008  0.2932078E+04  0.7818608E-02  0.8263397E-01
         -2   -1    0    0    0  501 -0.00000000000E+00  0.00000000000E+00  0.11616170824E+04  0.11616170824E+04  0.00000000000E+00 0.  1.
          1   -1    0    0  501    0  0.00000000000E+00 -0.00000000000E+00 -0.18502396449E+04  0.18502396449E+04  0.00000000000E+00 0. -1.
        -24    2    1    2    0    0  0.21431942747E+03  0.12949662145E+04 -0.42321389950E+03  0.13814867374E+04  0.80779249804E+02 0.  0.
        254    2    1    2    0    0 -0.21431942747E+03 -0.12949662145E+04 -0.26540866299E+03  0.16303699900E+04  0.92994313387E+03 0.  0.
         23    2    4    4    0    0  0.34465178896E+03 -0.53861593111E+03 -0.22910937169E+03  0.68493786915E+03  0.88072717267E+02 0.  0.
         23    2    4    4    0    0 -0.55897121642E+03 -0.75635028338E+03 -0.36299291297E+02  0.94543212085E+03  0.89496841377E+02 0.  0.
          3    1    3    3  502    0  0.14518295291E+03  0.79671857827E+03 -0.22201566960E+03  0.83971991778E+03  0.00000000000E+00 0. -1.
         -4    1    3    3    0  502  0.69136474562E+02  0.49824763622E+03 -0.20119822990E+03  0.54176681961E+03  0.00000000000E+00 0.  1.
         11    1    5    5    0    0  0.13828850613E+03 -0.29699821189E+03 -0.12286609948E+03  0.34989673790E+03  0.00000000000E+00 0. -1.
        -11    1    5    5    0    0  0.20636328282E+03 -0.24161771922E+03 -0.10624327222E+03  0.33504113125E+03  0.00000000000E+00 0.  1.
          1    1    6    6  503    0 -0.48751430297E+03 -0.60627192248E+03 -0.42122939577E+02  0.77910858141E+03  0.00000000000E+00 0. -1.
         -1    1    6    6    0  503 -0.71456913456E+02 -0.15007836090E+03  0.58236482807E+01  0.16632353944E+03  0.00000000000E+00 0.  1.
<mgrwt>
<rscale>  0 0.29320777E+04</rscale>
<asrwt>0</asrwt>
<pdfrwt beam="1">  1        1 0.28465225E+00 0.29320777E+04</pdfrwt>
<pdfrwt beam="2">  1       -2 0.17871032E+00 0.29320777E+04</pdfrwt>
<totfact> 0.52445328E-01</totfact>
</mgrwt>
</event>
<event>
12    4  0.4398275E-008  0.1363763E+04  0.7818608E-02  0.8980474E-01
          1   -1    0    0  501    0  0.00000000000E+00  0.00000000000E+00  0.38125388336E+03  0.38125388336E+03  0.00000000000E+00 0. -1.
         -2   -1    0    0    0  501 -0.00000000000E+00 -0.00000000000E+00 -0.12195614208E+04  0.12195614208E+04  0.00000000000E+00 0.  1.
        -24    2    1    2    0    0 -0.33604970904E+03 -0.66850976941E+02 -0.47182111235E+03  0.58806820322E+03  0.76227222930E+02 0.  0.
        254    2    1    2    0    0  0.33604970904E+03  0.66850976941E+02 -0.36648642511E+03  0.10127471010E+04  0.87974196823E+03 0.  0.
         23    2    4    4    0    0  0.17151909578E+01 -0.11244315597E+03 -0.55822583738E+03  0.57799568538E+03  0.99078360893E+02 0.  0.
         23    2    4    4    0    0  0.33433451808E+03  0.17929413291E+03  0.19173941227E+03  0.43475141559E+03  0.91207648059E+02 0.  0.
          1    1    3    3  502    0 -0.21222032592E+03 -0.23701224003E+02 -0.23621941923E+03  0.31843182751E+03  0.00000000000E+00 0. -1.
         -2    1    3    3    0  502 -0.12382938312E+03 -0.43149752939E+02 -0.23560169312E+03  0.26963637570E+03  0.00000000000E+00 0.  1.
         11    1    5    5    0    0 -0.41855325028E+01 -0.10667642731E+03 -0.55954653079E+03  0.56963997309E+03  0.00000000000E+00 0. -1.
        -11    1    5    5    0    0  0.59007234606E+01 -0.57667286565E+01  0.13206934107E+01  0.83557122881E+01  0.00000000000E+00 0.  1.
          1    1    6    6  503    0  0.22220498618E+03  0.74298669114E+02  0.13850935146E+03  0.27217675977E+03  0.00000000000E+00 0. -1.
         -1    1    6    6    0  503  0.11212953190E+03  0.10499546379E+03  0.53230060801E+02  0.16257465582E+03  0.00000000000E+00 0.  1.
<mgrwt>
<rscale>  0 0.13637632E+04</rscale>
<asrwt>0</asrwt>
<pdfrwt beam="1">  1        1 0.58654443E-01 0.13637632E+04</pdfrwt>
<pdfrwt beam="2">  1       -2 0.18762484E+00 0.13637632E+04</pdfrwt>
<totfact> 0.87772944E+00</totfact>
</mgrwt>
</event>
<event>
12    4  0.4398275E-008  0.1737231E+04  0.7818608E-02  0.8740410E-01
         -2   -1    0    0    0  501 -0.00000000000E+00  0.00000000000E+00  0.39518455976E+03  0.39518455976E+03  0.00000000000E+00 0.  1.
          1   -1    0    0  501    0  0.00000000000E+00 -0.00000000000E+00 -0.19092164472E+04  0.19092164472E+04  0.00000000000E+00 0. -1.
        -24    2    1    2    0    0  0.51405510095E+03  0.36237643926E+03 -0.49087697946E+03  0.80143278058E+03  0.75927348709E+02 0.  0.
        254    2    1    2    0    0 -0.51405510095E+03 -0.36237643926E+03 -0.10231549080E+04  0.15029682264E+04  0.90360289577E+03 0.  0.
         23    2    4    4    0    0 -0.13510655772E+03 -0.53597141563E+03 -0.89653707082E+03  0.10576900662E+04  0.97007300785E+02 0.  0.
         23    2    4    4    0    0 -0.37894854323E+03  0.17359497637E+03 -0.12661783716E+03  0.44527816021E+03  0.92213605499E+02 0.  0.
          3    1    3    3  502    0  0.23078115268E+03  0.20159056424E+03 -0.21178294310E+03  0.37249256504E+03  0.00000000000E+00 0. -1.
         -4    1    3    3    0  502  0.28327394828E+03  0.16078587501E+03 -0.27909403636E+03  0.42894021554E+03  0.00000000000E+00 0.  1.
         11    1    5    5    0    0 -0.10338239450E+03 -0.46334563188E+03 -0.70024166458E+03  0.84599969438E+03  0.00000000000E+00 0. -1.
        -11    1    5    5    0    0 -0.31724163227E+02 -0.72625783748E+02 -0.19629540624E+03  0.21169037179E+03  0.00000000000E+00 0.  1.
          4    1    6    6  503    0 -0.17296722096E+03  0.12984468317E+03 -0.61126910357E+02  0.22475275403E+03  0.00000000000E+00 0. -1.
         -4    1    6    6    0  503 -0.20598132227E+03  0.43750293203E+02 -0.65490926802E+02  0.22052540619E+03  0.00000000000E+00 0.  1.
<mgrwt>
<rscale>  0 0.17372310E+04</rscale>
<asrwt>0</asrwt>
<pdfrwt beam="1">  1        1 0.29372561E+00 0.17372310E+04</pdfrwt>
<pdfrwt beam="2">  1       -2 0.60797624E-01 0.17372310E+04</pdfrwt>
<totfact> 0.72042335E+00</totfact>
</mgrwt>
</event>
<event>
12    4  0.4398275E-008  0.1805011E+04  0.7818608E-02  0.8703639E-01
         -2   -1    0    0    0  501 -0.00000000000E+00  0.00000000000E+00  0.36699213697E+03  0.36699213697E+03  0.00000000000E+00 0.  1.
          1   -1    0    0  501    0  0.00000000000E+00 -0.00000000000E+00 -0.22194382062E+04  0.22194382062E+04  0.00000000000E+00 0. -1.
        -24    2    1    2    0    0 -0.24250044501E+02  0.40403679421E+03 -0.14619270655E+04  0.15190392721E+04  0.80098500062E+02 0.  0.
        254    2    1    2    0    0  0.24250044501E+02 -0.40403679421E+03 -0.39051900379E+03  0.10673910711E+04  0.90718510271E+03 0.  0.
         23    2    4    4    0    0  0.37744647695E+03 -0.42689652566E+03 -0.39940073992E+03  0.70165012064E+03  0.89919153494E+02 0.  0.
         23    2    4    4    0    0 -0.35319643245E+03  0.22859731445E+02  0.88817361338E+01  0.36574095045E+03  0.91745683170E+02 0.  0.
          1    1    3    3  502    0 -0.37166675844E+01  0.38333412913E+03 -0.13495984445E+04  0.14029878223E+04  0.00000000000E+00 0. -1.
         -2    1    3    3    0  502 -0.20533376917E+02  0.20702665084E+02 -0.11232862102E+03  0.11605144984E+03  0.00000000000E+00 0.  1.
         11    1    5    5    0    0  0.15389383672E+03 -0.14616862616E+03 -0.10158336855E+03  0.23530355080E+03  0.00000000000E+00 0. -1.
        -11    1    5    5    0    0  0.22355264023E+03 -0.28072789950E+03 -0.29781737137E+03  0.46634656984E+03  0.00000000000E+00 0.  1.
          4    1    6    6  503    0 -0.30885360126E+03  0.33945611853E+01  0.34779120965E+02  0.31082415818E+03  0.00000000000E+00 0.  1.
         -4    1    6    6    0  503 -0.44342831190E+02  0.19465170260E+02 -0.25897384832E+02  0.54916792261E+02  0.00000000000E+00 0. -1.
<mgrwt>
<rscale>  0 0.18050112E+04</rscale>
<asrwt>0</asrwt>
<pdfrwt beam="1">  1        1 0.34145203E+00 0.18050112E+04</pdfrwt>
<pdfrwt beam="2">  1       -2 0.56460329E-01 0.18050112E+04</pdfrwt>
<totfact> 0.51539069E+00</totfact>
</mgrwt>
</event>
<event>
12    4  0.4398275E-008  0.1954348E+04  0.7818608E-02  0.8628267E-01
          1   -1    0    0  501    0  0.00000000000E+00  0.00000000000E+00  0.80751054094E+03  0.80751054094E+03  0.00000000000E+00 0. -1.
         -2   -1    0    0    0  501 -0.00000000000E+00 -0.00000000000E+00 -0.11824854206E+04  0.11824854206E+04  0.00000000000E+00 0.  1.
        -24    2    1    2    0    0  0.57276043148E+03  0.48634396894E+03  0.14335474772E+02  0.75591534639E+03  0.81348245714E+02 0.  0.
        254    2    1    2    0    0 -0.57276043148E+03 -0.48634396894E+03 -0.38931035442E+03  0.12340806151E+04  0.89822460698E+03 0.  0.
         23    2    4    4    0    0  0.18227371348E+03 -0.34119370809E+03 -0.11692692297E+03  0.41333430009E+03  0.86812932478E+02 0.  0.
         23    2    4    4    0    0 -0.75503414496E+03 -0.14515026085E+03 -0.27238343145E+03  0.82074631505E+03  0.91030882945E+02 0.  0.
          1    1    3    3  502    0  0.55890800628E+03  0.47432286227E+03  0.27133252874E+02  0.73355064622E+03  0.00000000000E+00 0. -1.
         -2    1    3    3    0  502  0.13852425196E+02  0.12021106673E+02 -0.12797778102E+02  0.22364700173E+02  0.00000000000E+00 0.  1.
         11    1    5    5    0    0  0.42969806895E+02 -0.67559184120E+02  0.10768125299E+02  0.80787376403E+02  0.00000000000E+00 0. -1.
        -11    1    5    5    0    0  0.13930390659E+03 -0.27363452397E+03 -0.12769504827E+03  0.33254692368E+03  0.00000000000E+00 0.  1.
          1    1    6    6  503    0 -0.53326699673E+03 -0.12110119457E+03 -0.23214162361E+03  0.59407821248E+03  0.00000000000E+00 0. -1.
         -1    1    6    6    0  503 -0.22176714823E+03 -0.24049066286E+02 -0.40241807838E+02  0.22666810257E+03  0.00000000000E+00 0.  1.
<mgrwt>
<rscale>  0 0.19543484E+04</rscale>
<asrwt>0</asrwt>
<pdfrwt beam="1">  1        1 0.12423239E+00 0.19543484E+04</pdfrwt>
<pdfrwt beam="2">  1       -2 0.18192083E+00 0.19543484E+04</pdfrwt>
<totfact> 0.31240662E+00</totfact>
</mgrwt>
</event>
<event>
12    4  0.4398275E-008  0.1188379E+04  0.7818608E-02  0.9123089E-01
         -2   -1    0    0    0  501 -0.00000000000E+00  0.00000000000E+00  0.20474701430E+03  0.20474701430E+03  0.00000000000E+00 0.  1.
          1   -1    0    0  501    0  0.00000000000E+00 -0.00000000000E+00 -0.17243783480E+04  0.17243783480E+04  0.00000000000E+00 0. -1.
        -24    2    1    2    0    0 -0.18982217158E+03  0.14251382729E+03 -0.37154252030E+03  0.44793991882E+03  0.79143405843E+02 0.  0.
        254    2    1    2    0    0  0.18982217158E+03 -0.14251382729E+03 -0.11480888134E+04  0.14811854435E+04  0.90524015973E+03 0.  0.
         23    2    4    4    0    0  0.36101810448E+03  0.27951427672E+03 -0.63654504114E+03  0.78876194439E+03  0.92160256406E+02 0.  0.
         23    2    4    4    0    0 -0.17119593290E+03 -0.42202810401E+03 -0.51154377230E+03  0.69242349914E+03  0.10177181914E+03 0.  0.
          1    1    3    3  502    0 -0.14463827833E+03  0.92291341562E+02 -0.31952863958E+03  0.36267957594E+03  0.00000000000E+00 0. -1.
         -2    1    3    3    0  502 -0.45183893250E+02  0.50222485726E+02 -0.52013880720E+02  0.85260342887E+02  0.00000000000E+00 0.  1.
         11    1    5    5    0    0  0.22686560387E+03  0.14519821577E+03 -0.43700694238E+03  0.51334743768E+03  0.00000000000E+00 0. -1.
        -11    1    5    5    0    0  0.13415250061E+03  0.13431606095E+03 -0.19953809876E+03  0.27541450671E+03  0.00000000000E+00 0.  1.
          4    1    6    6  503    0 -0.56207690917E+02 -0.15699674804E+03 -0.11826440784E+03  0.20443520630E+03  0.00000000000E+00 0. -1.
         -4    1    6    6    0  503 -0.11498824198E+03 -0.26503135597E+03 -0.39327936445E+03  0.48798829283E+03  0.00000000000E+00 0.  1.
<mgrwt>
<rscale>  0 0.11883793E+04</rscale>
<asrwt>0</asrwt>
<pdfrwt beam="1">  1        1 0.26528898E+00 0.11883793E+04</pdfrwt>
<pdfrwt beam="2">  1       -2 0.31499541E-01 0.11883793E+04</pdfrwt>
<totfact> 0.37336746E+01</totfact>
</mgrwt>
</event>
<event>
12    4  0.4398275E-008  0.2381674E+04  0.7818608E-02  0.8446397E-01
         -2   -1    0    0    0  501 -0.00000000000E+00  0.00000000000E+00  0.55644946567E+03  0.55644946567E+03  0.00000000000E+00 0.  1.
          1   -1    0    0  501    0  0.00000000000E+00 -0.00000000000E+00 -0.25484660861E+04  0.25484660861E+04  0.00000000000E+00 0. -1.
        -24    2    1    2    0    0  0.91210369846E+03  0.20896637872E+03 -0.33196034946E+03  0.99603388291E+03  0.79282520834E+02 0.  0.
        254    2    1    2    0    0 -0.91210369846E+03 -0.20896637872E+03 -0.16600562710E+04  0.21088816689E+04  0.90332439706E+03 0.  0.
         23    2    4    4    0    0  0.45720464101E+02 -0.23744726642E+03 -0.71360531869E+03  0.75889381729E+03  0.90640553220E+02 0.  0.
         23    2    4    4    0    0 -0.95782416256E+03  0.28480887700E+02 -0.94645095227E+03  0.13499878516E+04  0.91975578207E+02 0.  0.
          1    1    3    3  502    0  0.17949149837E+03  0.11089429388E+02 -0.74967069472E+02  0.19483386496E+03  0.00000000000E+00 0. -1.
         -2    1    3    3    0  502  0.73261220009E+03  0.19787694934E+03 -0.25699327998E+03  0.80120001794E+03  0.00000000000E+00 0.  1.
         11    1    5    5    0    0  0.68573229436E+02 -0.21649086326E+03 -0.63572374885E+03  0.67506686078E+03  0.00000000000E+00 0. -1.
        -11    1    5    5    0    0 -0.22852765335E+02 -0.20956403159E+02 -0.77881569835E+02  0.83826956505E+02  0.00000000000E+00 0.  1.
          2    1    6    6  503    0 -0.52982954042E+03  0.60022255794E+02 -0.54048134146E+03  0.75923783728E+03  0.00000000000E+00 0.  1.
         -2    1    6    6    0  503 -0.42799462214E+03 -0.31541368094E+02 -0.40596961081E+03  0.59075001429E+03  0.00000000000E+00 0. -1.
<mgrwt>
<rscale>  0 0.23816739E+04</rscale>
<asrwt>0</asrwt>
<pdfrwt beam="1">  1        1 0.39207170E+00 0.23816739E+04</pdfrwt>
<pdfrwt beam="2">  1       -2 0.85607611E-01 0.23816739E+04</pdfrwt>
<totfact> 0.11722702E+00</totfact>
</mgrwt>
</event>
<event>
12    4  0.4398275E-008  0.2266366E+04  0.7818608E-02  0.8491302E-01
         -2   -1    0    0    0  501 -0.00000000000E+00  0.00000000000E+00  0.75532816717E+03  0.75532816717E+03  0.00000000000E+00 0.  1.
          1   -1    0    0  501    0  0.00000000000E+00 -0.00000000000E+00 -0.17000599446E+04  0.17000599446E+04  0.00000000000E+00 0. -1.
        -24    2    1    2    0    0 -0.16517698601E+03 -0.42269908850E+03  0.50786758851E+03  0.68574562456E+03  0.79747213317E+02 0.  0.
        254    2    1    2    0    0  0.16517698601E+03  0.42269908850E+03 -0.14525993659E+04  0.17696424872E+04  0.90312327979E+03 0.  0.
         23    2    4    4    0    0  0.52436023903E+03  0.15204372589E+03 -0.78599216289E+03  0.96123244580E+03  0.90073191715E+02 0.  0.
         23    2    4    4    0    0 -0.35918325302E+03  0.27065536260E+03 -0.66660720305E+03  0.80841004142E+03  0.83034314323E+02 0.  0.
          3    1    3    3  502    0 -0.10375692268E+03 -0.30054396388E+03  0.30134787656E+03  0.43806702220E+03  0.00000000000E+00 0. -1.
         -4    1    3    3    0  502 -0.61420063332E+02 -0.12215512462E+03  0.20651971194E+03  0.24767860237E+03  0.00000000000E+00 0.  1.
         11    1    5    5    0    0  0.89921643056E+00 -0.13601779651E+01 -0.24360272423E+02  0.24414781318E+02  0.00000000000E+00 0. -1.
        -11    1    5    5    0    0  0.52346102260E+03  0.15340390386E+03 -0.76163189047E+03  0.93681766448E+03  0.00000000000E+00 0.  1.
          1    1    6    6  503    0 -0.49807905586E+02  0.29967661030E+02 -0.14281487416E+03  0.15419136308E+03  0.00000000000E+00 0. -1.
         -1    1    6    6    0  503 -0.30937534743E+03  0.24068770157E+03 -0.52379232889E+03  0.65421867834E+03  0.00000000000E+00 0.  1.
<mgrwt>
<rscale>  0 0.22663655E+04</rscale>
<asrwt>0</asrwt>
<pdfrwt beam="1">  1        1 0.26154768E+00 0.22663655E+04</pdfrwt>
<pdfrwt beam="2">  1       -2 0.11620434E+00 0.22663655E+04</pdfrwt>
<totfact> 0.21807850E+00</totfact>
</mgrwt>
</event>
<event>
12    4  0.4398275E-008  0.2070275E+04  0.7818608E-02  0.8574452E-01
         -2   -1    0    0    0  501 -0.00000000000E+00  0.00000000000E+00  0.67224158827E+03  0.67224158827E+03  0.00000000000E+00 0.  1.
          1   -1    0    0  501    0  0.00000000000E+00 -0.00000000000E+00 -0.15939355810E+04  0.15939355810E+04  0.00000000000E+00 0. -1.
        -24    2    1    2    0    0 -0.60128788419E+03 -0.51965429212E+03 -0.62581738428E+03  0.10156891893E+04  0.91593819438E+02 0.  0.
        254    2    1    2    0    0  0.60128788419E+03  0.51965429212E+03 -0.29587660844E+03  0.12504879800E+04  0.91901551547E+03 0.  0.
         23    2    4    4    0    0 -0.21575333357E+03  0.25813901985E+02  0.29831355781E+02  0.23799841672E+03  0.92398474523E+02 0.  0.
         23    2    4    4    0    0  0.81704121776E+03  0.49384039014E+03 -0.32570796422E+03  0.10124895633E+04  0.87262565367E+02 0.  0.
          3    1    3    3  502    0 -0.21769007911E+03 -0.23304208403E+03 -0.28772240654E+03  0.42951340689E+03  0.00000000000E+00 0. -1.
         -4    1    3    3    0  502 -0.38359780508E+03 -0.28661220809E+03 -0.33809497774E+03  0.58617578239E+03  0.00000000000E+00 0.  1.
         11    1    5    5    0    0 -0.15072466133E+03  0.25613509611E+02  0.62569419536E+02  0.16519354609E+03  0.00000000000E+00 0.  1.
        -11    1    5    5    0    0 -0.65028672231E+02  0.20039237400E+00 -0.32738063755E+02  0.72804870631E+02  0.00000000000E+00 0. -1.
          4    1    6    6  503    0  0.11672342862E+03  0.50963851466E+02 -0.69967120234E+02  0.14531713890E+03  0.00000000000E+00 0. -1.
         -4    1    6    6    0  503  0.70031778914E+03  0.44287653867E+03 -0.25574084399E+03  0.86717242436E+03  0.00000000000E+00 0.  1.
<mgrwt>
<rscale>  0 0.20702751E+04</rscale>
<asrwt>0</asrwt>
<pdfrwt beam="1">  1        1 0.24522086E+00 0.20702751E+04</pdfrwt>
<pdfrwt beam="2">  1       -2 0.10342178E+00 0.20702751E+04</pdfrwt>
<totfact> 0.34764022E+00</totfact>
</mgrwt>
</event>
<event>
12    4  0.4398275E-008  0.1265767E+04  0.7818608E-02  0.9057161E-01
         -2   -1    0    0    0  501 -0.00000000000E+00  0.00000000000E+00  0.79002820941E+03  0.79002820941E+03  0.00000000000E+00 0.  1.
          1   -1    0    0  501    0  0.00000000000E+00 -0.00000000000E+00 -0.50699659306E+03  0.50699659306E+03  0.00000000000E+00 0. -1.
        -24    2    1    2    0    0  0.83511820780E+01  0.93355189606E+02  0.37278159708E+03  0.39253231284E+03  0.79564840421E+02 0.  0.
        254    2    1    2    0    0 -0.83511820780E+01 -0.93355189606E+02 -0.89749980737E+02  0.90449248963E+03  0.89513500160E+03 0.  0.
         23    2    4    4    0    0 -0.11588742650E+03  0.37553315483E+03 -0.96229271979E+02  0.41467142512E+03  0.90759418402E+02 0.  0.
         23    2    4    4    0    0  0.10753624442E+03 -0.46888834443E+03  0.64792912429E+01  0.48982106451E+03  0.91991144247E+02 0.  0.
          3    1    3    3  502    0  0.58621120734E+01  0.85695193628E+02  0.17857917885E+03  0.19816294731E+03  0.00000000000E+00 0. -1.
         -4    1    3    3    0  502  0.24890700045E+01  0.76599959774E+01  0.19420241823E+03  0.19436936553E+03  0.00000000000E+00 0.  1.
         11    1    5    5    0    0 -0.61626763581E+02  0.31927785388E+03 -0.79251083957E+02  0.33468931904E+03  0.00000000000E+00 0.  1.
        -11    1    5    5    0    0 -0.54260662916E+02  0.56255300944E+02 -0.16978188023E+02  0.79982106079E+02  0.00000000000E+00 0. -1.
          4    1    6    6  503    0  0.44693914999E+02 -0.58505797296E+02  0.12129772486E+02  0.74616390530E+02  0.00000000000E+00 0. -1.
         -4    1    6    6    0  503  0.62842329420E+02 -0.41038254714E+03 -0.56504812435E+01  0.41520467398E+03  0.00000000000E+00 0.  1.
<mgrwt>
<rscale>  0 0.12657671E+04</rscale>
<asrwt>0</asrwt>
<pdfrwt beam="1">  1        1 0.77999476E-01 0.12657671E+04</pdfrwt>
<pdfrwt beam="2">  1       -2 0.12154280E+00 0.12657671E+04</pdfrwt>
<totfact> 0.19257288E+01</totfact>
</mgrwt>
</event>
<event>
12    4  0.4398275E-008  0.1222640E+04  0.7818608E-02  0.9093267E-01
         -2   -1    0    0    0  501 -0.00000000000E+00  0.00000000000E+00  0.51294388237E+03  0.51294388237E+03  0.00000000000E+00 0.  1.
          1   -1    0    0  501    0  0.00000000000E+00 -0.00000000000E+00 -0.72856360370E+03  0.72856360370E+03  0.00000000000E+00 0. -1.
        -24    2    1    2    0    0 -0.10276422383E+03  0.10211985365E+03 -0.26939243038E+03  0.31619356334E+03  0.80107039288E+02 0.  0.
        254    2    1    2    0    0  0.10276422383E+03 -0.10211985365E+03  0.53772709046E+02  0.92531392273E+03  0.91231869495E+03 0.  0.
         23    2    4    4    0    0  0.45643155108E+03 -0.21186203928E+03 -0.86585174273E+02  0.51897375469E+03  0.92851931305E+02 0.  0.
         23    2    4    4    0    0 -0.35366732725E+03  0.10974218563E+03  0.14035788332E+03  0.40634016804E+03  0.91038843779E+02 0.  0.
          3    1    3    3  502    0 -0.62204999616E+02  0.10758401994E+03 -0.21123528861E+03  0.24507984511E+03  0.00000000000E+00 0. -1.
         -4    1    3    3    0  502 -0.40559224211E+02 -0.54641662924E+01 -0.58157141762E+02  0.71113718225E+02  0.00000000000E+00 0.  1.
         11    1    5    5    0    0  0.61244196206E+02 -0.64580680981E+02 -0.27243148686E+02  0.93079025968E+02  0.00000000000E+00 0. -1.
        -11    1    5    5    0    0  0.39518735488E+03 -0.14728135830E+03 -0.59342025588E+02  0.42589472873E+03  0.00000000000E+00 0.  1.
          3    1    6    6  503    0 -0.45609746978E+02  0.19839068046E+02  0.55246519347E+02  0.74337174686E+02  0.00000000000E+00 0. -1.
         -3    1    6    6    0  503 -0.30805758028E+03  0.89903117581E+02  0.85111363973E+02  0.33200299335E+03  0.00000000000E+00 0.  1.
<mgrwt>
<rscale>  0 0.12226402E+04</rscale>
<asrwt>0</asrwt>
<pdfrwt beam="1">  1        1 0.11208671E+00 0.12226402E+04</pdfrwt>
<pdfrwt beam="2">  1       -2 0.78914444E-01 0.12226402E+04</pdfrwt>
<totfact> 0.31615443E+01</totfact>
</mgrwt>
</event>
<event>
12    4  0.4398275E-008  0.1431347E+04  0.7818608E-02  0.8931435E-01
         -2   -1    0    0    0  501 -0.00000000000E+00  0.00000000000E+00  0.14303800667E+03  0.14303800667E+03  0.00000000000E+00 0.  1.
          1   -1    0    0  501    0  0.00000000000E+00 -0.00000000000E+00 -0.35807883829E+04  0.35807883829E+04  0.00000000000E+00 0. -1.
        -24    2    1    2    0    0 -0.36623797508E+03  0.16619162386E+03 -0.66863995718E+03  0.78435295119E+03  0.79876463886E+02 0.  0.
        254    2    1    2    0    0  0.36623797508E+03 -0.16619162386E+03 -0.27691104191E+04  0.29394734384E+04  0.90043415740E+03 0.  0.
         23    2    4    4    0    0 -0.24067214410E+03  0.11255898153E+03 -0.51426834814E+03  0.58597875607E+03  0.91140350034E+02 0.  0.
         23    2    4    4    0    0  0.60691011917E+03 -0.27875060538E+03 -0.22548420709E+04  0.23534946823E+04  0.92642658315E+02 0.  0.
          1    1    3    3  502    0 -0.33043863657E+03  0.14439611602E+03 -0.63642924585E+03  0.73149307299E+03  0.00000000000E+00 0. -1.
         -4    1    3    3    0  502 -0.35799338509E+02  0.21795507837E+02 -0.32210711329E+02  0.52859878206E+02  0.00000000000E+00 0.  1.
         11    1    5    5    0    0 -0.10012595287E+03  0.85327701820E+02 -0.18568463709E+03  0.22756275528E+03  0.00000000000E+00 0. -1.
        -11    1    5    5    0    0 -0.14054619122E+03  0.27231279706E+02 -0.32858371105E+03  0.35841600080E+03  0.00000000000E+00 0.  1.
          2    1    6    6  503    0  0.37520962020E+01 -0.15846079577E+02 -0.56339582990E+02  0.58645759228E+02  0.00000000000E+00 0. -1.
         -2    1    6    6    0  503  0.60315802297E+03 -0.26290452581E+03 -0.21985024880E+04  0.22948489231E+04  0.00000000000E+00 0.  1.
<mgrwt>
<rscale>  0 0.14313474E+04</rscale>
<asrwt>0</asrwt>
<pdfrwt beam="1">  1        1 0.55089044E+00 0.14313474E+04</pdfrwt>
<pdfrwt beam="2">  1       -2 0.22005850E-01 0.14313474E+04</pdfrwt>
<totfact> 0.33718541E+00</totfact>
</mgrwt>
</event>
<event>
12    4  0.4398275E-008  0.2003791E+04  0.7818608E-02  0.8604850E-01
          1   -1    0    0  501    0  0.00000000000E+00  0.00000000000E+00  0.50287203178E+03  0.50287203178E+03  0.00000000000E+00 0. -1.
         -2   -1    0    0    0  501 -0.00000000000E+00 -0.00000000000E+00 -0.19961227241E+04  0.19961227241E+04  0.00000000000E+00 0.  1.
        -24    2    1    2    0    0  0.74739458427E+03  0.14966031780E+03 -0.88214124552E+03  0.11685773403E+04  0.80018422692E+02 0.  0.
        254    2    1    2    0    0 -0.74739458427E+03 -0.14966031780E+03 -0.61110944678E+03  0.13304174155E+04  0.90308297973E+03 0.  0.
         23    2    4    4    0    0 -0.17125637744E+03 -0.34748284962E+03 -0.59230967670E+03  0.71361301651E+03  0.91321994227E+02 0.  0.
         23    2    4    4    0    0 -0.57613820683E+03  0.19782253182E+03 -0.18799770086E+02  0.61680439902E+03  0.95001304361E+02 0.  0.
          3    1    3    3  502    0  0.45011737084E+02 -0.76608302069E+00 -0.80205362035E+02  0.91975776472E+02  0.00000000000E+00 0. -1.
         -4    1    3    3    0  502  0.70238284718E+03  0.15042640082E+03 -0.80193588349E+03  0.10766015639E+04  0.00000000000E+00 0.  1.
         11    1    5    5    0    0 -0.17987443156E+03 -0.32299335212E+03 -0.56992533307E+03  0.67933379271E+03  0.00000000000E+00 0. -1.
        -11    1    5    5    0    0  0.86180541211E+01 -0.24489497500E+02 -0.22384343621E+02  0.34279223795E+02  0.00000000000E+00 0.  1.
          1    1    6    6  503    0 -0.55847580169E+03  0.17046678808E+03 -0.16178883467E+02  0.58413688736E+03  0.00000000000E+00 0. -1.
         -1    1    6    6    0  503 -0.17662405144E+02  0.27355743746E+02 -0.26208866187E+01  0.32667511659E+02  0.00000000000E+00 0.  1.
<mgrwt>
<rscale>  0 0.20037907E+04</rscale>
<asrwt>0</asrwt>
<pdfrwt beam="1">  1        1 0.77364929E-01 0.20037907E+04</pdfrwt>
<pdfrwt beam="2">  1       -2 0.30709580E+00 0.20037907E+04</pdfrwt>
<totfact> 0.10276200E+00</totfact>
</mgrwt>
</event>
<event>
12    4  0.4398275E-008  0.2285543E+04  0.7818608E-02  0.8483643E-01
         -2   -1    0    0    0  501 -0.00000000000E+00  0.00000000000E+00  0.33477657872E+03  0.33477657872E+03  0.00000000000E+00 0.  1.
          1   -1    0    0  501    0  0.00000000000E+00 -0.00000000000E+00 -0.39008904106E+04  0.39008904106E+04  0.00000000000E+00 0. -1.
        -24    2    1    2    0    0  0.58234814154E+03 -0.17896531936E+02 -0.77034648204E+02  0.59346208606E+03  0.82542514813E+02 0.  0.
        254    2    1    2    0    0 -0.58234814154E+03  0.17896531936E+02 -0.34890791837E+04  0.36422049033E+04  0.86748680883E+03 0.  0.
         23    2    4    4    0    0 -0.28532816082E+03 -0.39222225751E+03 -0.21845457288E+04  0.22397390754E+04  0.94554884102E+02 0.  0.
         23    2    4    4    0    0 -0.29701998073E+03  0.41011878944E+03 -0.13045334549E+04  0.14024658279E+04  0.93191056126E+02 0.  0.
          1    1    3    3  502    0  0.22672209263E+03 -0.45939412627E+02 -0.19875277310E+02  0.23218174685E+03  0.00000000000E+00 0. -1.
         -2    1    3    3    0  502  0.35562604891E+03  0.28042880690E+02 -0.57159370894E+02  0.36128033921E+03  0.00000000000E+00 0.  1.
         11    1    5    5    0    0  0.49863839845E+01  0.28660006981E+00 -0.40828157782E+02  0.41132525241E+02  0.00000000000E+00 0. -1.
        -11    1    5    5    0    0 -0.29031454480E+03 -0.39250885758E+03 -0.21437175710E+04  0.21986065501E+04  0.00000000000E+00 0.  1.
          2    1    6    6  503    0 -0.91491660326E+02  0.62368856622E+02 -0.29735844417E+03  0.31730528282E+03  0.00000000000E+00 0. -1.
         -2    1    6    6    0  503 -0.20552832040E+03  0.34774993282E+03 -0.10071750108E+04  0.10851605451E+04  0.00000000000E+00 0.  1.
<mgrwt>
<rscale>  0 0.22855430E+04</rscale>
<asrwt>0</asrwt>
<pdfrwt beam="1">  1        1 0.60013699E+00 0.22855430E+04</pdfrwt>
<pdfrwt beam="2">  1       -2 0.51504089E-01 0.22855430E+04</pdfrwt>
<totfact> 0.33284230E-01</totfact>
</mgrwt>
</event>
<event>
12    4  0.4398275E-008  0.2073203E+04  0.7818608E-02  0.8573140E-01
         -2   -1    0    0    0  501 -0.00000000000E+00  0.00000000000E+00  0.19683022283E+04  0.19683022283E+04  0.00000000000E+00 0.  1.
          1   -1    0    0  501    0  0.00000000000E+00 -0.00000000000E+00 -0.54592366442E+03  0.54592366442E+03  0.00000000000E+00 0. -1.
        -24    2    1    2    0    0 -0.26787243331E+03 -0.35130815297E+03 -0.28658751438E+03  0.53255565819E+03  0.79435928917E+02 0.  0.
        254    2    1    2    0    0  0.26787243331E+03  0.35130815297E+03  0.17089660783E+04  0.19816702345E+04  0.90071016590E+03 0.  0.
         23    2    4    4    0    0  0.22355911053E+01  0.59788801532E+03  0.83141697154E+03  0.10278841308E+04  0.88411136642E+02 0.  0.
         23    2    4    4    0    0  0.26563684220E+03 -0.24657986234E+03  0.87754910672E+03  0.95378610373E+03  0.90834665811E+02 0.  0.
          3    1    3    3  502    0 -0.22901428455E+03 -0.25233730666E+03 -0.23802165217E+03  0.41566328412E+03  0.00000000000E+00 0. -1.
         -4    1    3    3    0  502 -0.38858148752E+02 -0.98970846314E+02 -0.48565862210E+02  0.11689237407E+03  0.00000000000E+00 0.  1.
         11    1    5    5    0    0  0.27344721282E+02  0.67664685594E+02  0.86230547258E+02  0.11296880427E+03  0.00000000000E+00 0. -1.
        -11    1    5    5    0    0 -0.25109130176E+02  0.53022332972E+03  0.74518642428E+03  0.91491532654E+03  0.00000000000E+00 0.  1.
          4    1    6    6  503    0  0.23952752672E+03 -0.22930102610E+03  0.84883754046E+03  0.91130541902E+03  0.00000000000E+00 0.  1.
         -4    1    6    6    0  503  0.26109315482E+02 -0.17278836242E+02  0.28711566258E+02  0.42480684714E+02  0.00000000000E+00 0. -1.
<mgrwt>
<rscale>  0 0.20732031E+04</rscale>
<asrwt>0</asrwt>
<pdfrwt beam="1">  1        1 0.83988257E-01 0.20732031E+04</pdfrwt>
<pdfrwt beam="2">  1       -2 0.30281573E+00 0.20732031E+04</pdfrwt>
<totfact> 0.96741668E-01</totfact>
</mgrwt>
</event>
<event>
12    4  0.4398275E-008  0.1101449E+04  0.7818608E-02  0.9203781E-01
         -2   -1    0    0    0  501 -0.00000000000E+00  0.00000000000E+00  0.40611703888E+03  0.40611703888E+03  0.00000000000E+00 0.  1.
          1   -1    0    0  501    0  0.00000000000E+00 -0.00000000000E+00 -0.74682303167E+03  0.74682303167E+03  0.00000000000E+00 0. -1.
        -24    2    1    2    0    0 -0.12668554795E+03  0.11267793110E+03 -0.61798450793E+02  0.19735477192E+03  0.79901897732E+02 0.  0.
        254    2    1    2    0    0  0.12668554795E+03 -0.11267793110E+03 -0.27890754200E+03  0.95558529863E+03  0.89811374656E+03 0.  0.
         23    2    4    4    0    0 -0.11663307577E+03  0.30120835028E+03 -0.32196852617E+03  0.46504360048E+03  0.90950942048E+02 0.  0.
         23    2    4    4    0    0  0.24331862373E+03 -0.41388628138E+03  0.43060984169E+02  0.49054169816E+03  0.90945603003E+02 0.  0.
          3    1    3    3  502    0 -0.38351409790E+01 -0.11868476395E+02 -0.34588721421E+01  0.12943447561E+02  0.00000000000E+00 0. -1.
         -4    1    3    3    0  502 -0.12285040697E+03  0.12454640750E+03 -0.58339578651E+02  0.18441132436E+03  0.00000000000E+00 0.  1.
         11    1    5    5    0    0 -0.82541246900E+02  0.28653401412E+03 -0.28038236695E+03  0.40930315218E+03  0.00000000000E+00 0.  1.
        -11    1    5    5    0    0 -0.34091828875E+02  0.14674336155E+02 -0.41586159220E+02  0.55740448297E+02  0.00000000000E+00 0. -1.
          1    1    6    6  503    0  0.43969486539E+02 -0.24150481484E+02  0.12596456121E+02  0.51722646966E+02  0.00000000000E+00 0. -1.
         -1    1    6    6    0  503  0.19934913719E+03 -0.38973579990E+03  0.30464528048E+02  0.43881905119E+03  0.00000000000E+00 0.  1.
<mgrwt>
<rscale>  0 0.11014492E+04</rscale>
<asrwt>0</asrwt>
<pdfrwt beam="1">  1        1 0.11489585E+00 0.11014492E+04</pdfrwt>
<pdfrwt beam="2">  1       -2 0.62479546E-01 0.11014492E+04</pdfrwt>
<totfact> 0.51150591E+01</totfact>
</mgrwt>
</event>
<event>
12    4  0.4398275E-008  0.2142447E+04  0.7818608E-02  0.8542772E-01
          1   -1    0    0  501    0  0.00000000000E+00  0.00000000000E+00  0.95924563479E+03  0.95924563479E+03  0.00000000000E+00 0. -1.
         -2   -1    0    0    0  501 -0.00000000000E+00 -0.00000000000E+00 -0.11962728648E+04  0.11962728648E+04  0.00000000000E+00 0.  1.
        -24    2    1    2    0    0  0.75387571367E+03  0.24305164427E+03 -0.48064414176E+03  0.92973147428E+03  0.77324833112E+02 0.  0.
        254    2    1    2    0    0 -0.75387571367E+03 -0.24305164427E+03  0.24361691173E+03  0.12257870253E+04  0.90321754764E+03 0.  0.
         23    2    4    4    0    0 -0.61428942497E+03 -0.52793805667E+03 -0.49081285971E+01  0.81507851899E+03  0.90878012135E+02 0.  0.
         23    2    4    4    0    0 -0.13958628870E+03  0.28488641240E+03  0.24852504032E+03  0.41070850634E+03  0.79197105701E+02 0.  0.
          1    1    3    3  502    0  0.75910306603E+02  0.28483237891E+02 -0.78176409335E+02  0.11262868403E+03  0.00000000000E+00 0. -1.
         -2    1    3    3    0  502  0.67796540706E+03  0.21456840638E+03 -0.40246773243E+03  0.81710279025E+03  0.00000000000E+00 0.  1.
         11    1    5    5    0    0 -0.40299915898E+03 -0.35686560696E+03 -0.45446675787E+02  0.54020994429E+03  0.00000000000E+00 0. -1.
        -11    1    5    5    0    0 -0.21129026599E+03 -0.17107244971E+03  0.40538547190E+02  0.27486857470E+03  0.00000000000E+00 0.  1.
          1    1    6    6  503    0 -0.13637657390E+03  0.25806903294E+03  0.19582513451E+03  0.35149065276E+03  0.00000000000E+00 0. -1.
         -1    1    6    6    0  503 -0.32097147945E+01  0.26817379463E+02  0.52699905814E+02  0.59217853584E+02  0.00000000000E+00 0.  1.
<mgrwt>
<rscale>  0 0.21424468E+04</rscale>
<asrwt>0</asrwt>
<pdfrwt beam="1">  1        1 0.14757625E+00 0.21424468E+04</pdfrwt>
<pdfrwt beam="2">  1       -2 0.18404198E+00 0.21424468E+04</pdfrwt>
<totfact> 0.22259790E+00</totfact>
</mgrwt>
</event>
<event>
12    4  0.4398275E-008  0.2507239E+04  0.7818608E-02  0.8400411E-01
          1   -1    0    0  501    0  0.00000000000E+00  0.00000000000E+00  0.59381730452E+03  0.59381730452E+03  0.00000000000E+00 0. -1.
         -2   -1    0    0    0  501 -0.00000000000E+00 -0.00000000000E+00 -0.26465401674E+04  0.26465401674E+04  0.00000000000E+00 0.  1.
        -24    2    1    2    0    0  0.13076766932E+03 -0.60100752039E+02  0.50187108462E+03  0.52820599353E+03  0.80091836575E+02 0.  0.
        254    2    1    2    0    0 -0.13076766932E+03  0.60100752039E+02 -0.25545939475E+04  0.27121514784E+04  0.89950159610E+03 0.  0.
         23    2    4    4    0    0  0.34014770055E+03 -0.14774826385E+03 -0.12405536338E+04  0.12979137894E+04  0.89871455856E+02 0.  0.
         23    2    4    4    0    0 -0.47091536987E+03  0.20784901589E+03 -0.13140403137E+04  0.14142376890E+04  0.91672220952E+02 0.  0.
          3    1    3    3  502    0  0.10596852273E+03 -0.73652777068E+02  0.45947706208E+03  0.47725593758E+03  0.00000000000E+00 0. -1.
         -4    1    3    3    0  502  0.24799146582E+02  0.13552025030E+02  0.42394022542E+02  0.50950055946E+02  0.00000000000E+00 0.  1.
         11    1    5    5    0    0  0.66773588967E+02  0.52716355286E+01 -0.26242350014E+03  0.27083684341E+03  0.00000000000E+00 0. -1.
        -11    1    5    5    0    0  0.27337411159E+03 -0.15301989938E+03 -0.97813013367E+03  0.10270769459E+04  0.00000000000E+00 0.  1.
          3    1    6    6  503    0 -0.70699862045E+02  0.11184838077E+01 -0.22029211924E+03  0.23136192275E+03  0.00000000000E+00 0. -1.
         -3    1    6    6    0  503 -0.40021550782E+03  0.20673053208E+03 -0.10937481944E+04  0.11828757663E+04  0.00000000000E+00 0.  1.
<mgrwt>
<rscale>  0 0.25072386E+04</rscale>
<asrwt>0</asrwt>
<pdfrwt beam="1">  1        1 0.91356510E-01 0.25072386E+04</pdfrwt>
<pdfrwt beam="2">  1       -2 0.40716002E+00 0.25072386E+04</pdfrwt>
<totfact> 0.18025307E-01</totfact>
</mgrwt>
</event>
<event>
12    4  0.4398275E-008  0.1396098E+04  0.7818608E-02  0.8956648E-01
          1   -1    0    0  501    0  0.00000000000E+00  0.00000000000E+00  0.80618905395E+03  0.80618905395E+03  0.00000000000E+00 0. -1.
         -2   -1    0    0    0  501 -0.00000000000E+00 -0.00000000000E+00 -0.60441495825E+03  0.60441495825E+03  0.00000000000E+00 0.  1.
        -24    2    1    2    0    0 -0.24649300639E+03  0.18232398276E+03 -0.19889199887E+03  0.37419318106E+03  0.80384529903E+02 0.  0.
        254    2    1    2    0    0  0.24649300639E+03 -0.18232398276E+03  0.40066609457E+03  0.10364108311E+04  0.90532494425E+03 0.  0.
         23    2    4    4    0    0  0.52092628693E+03 -0.24378331202E+03  0.45106977404E+03  0.73695080397E+03  0.94010886509E+02 0.  0.
         23    2    4    4    0    0 -0.27443328055E+03  0.61459329261E+02 -0.50403679465E+02  0.29946002718E+03  0.89693379622E+02 0.  0.
          3    1    3    3  502    0 -0.73751222435E+02  0.77894238958E+02 -0.31046751458E+02  0.11167209163E+03  0.00000000000E+00 0. -1.
         -4    1    3    3    0  502 -0.17274178395E+03  0.10442974380E+03 -0.16784524741E+03  0.26252108942E+03  0.00000000000E+00 0.  1.
         11    1    5    5    0    0  0.52024764349E+03 -0.24453374204E+03  0.43509805807E+03  0.72094707274E+03  0.00000000000E+00 0. -1.
        -11    1    5    5    0    0  0.67864343980E+00  0.75043002718E+00  0.15971715972E+02  0.16003731229E+02  0.00000000000E+00 0.  1.
          3    1    6    6  503    0 -0.18740422788E+03  0.72469636112E+02 -0.57134691037E+01  0.20100954334E+03  0.00000000000E+00 0. -1.
         -3    1    6    6    0  503 -0.87029052666E+02 -0.11010306851E+02 -0.44690210361E+02  0.98450483833E+02  0.00000000000E+00 0.  1.
<mgrwt>
<rscale>  0 0.13960985E+04</rscale>
<asrwt>0</asrwt>
<pdfrwt beam="1">  1        1 0.12402909E+00 0.13960985E+04</pdfrwt>
<pdfrwt beam="2">  1       -2 0.92986916E-01 0.13960985E+04</pdfrwt>
<totfact> 0.18283194E+01</totfact>
</mgrwt>
</event>
<event>
12    4  0.4398275E-008  0.1280095E+04  0.7818608E-02  0.9045501E-01
          1   -1    0    0  501    0  0.00000000000E+00  0.00000000000E+00  0.61245867808E+03  0.61245867808E+03  0.00000000000E+00 0. -1.
         -2   -1    0    0    0  501 -0.00000000000E+00 -0.00000000000E+00 -0.66887918411E+03  0.66887918411E+03  0.00000000000E+00 0.  1.
        -24    2    1    2    0    0 -0.24169306779E+02  0.45222487833E+02  0.29447185234E+03  0.30762144233E+03  0.72718987679E+02 0.  0.
        254    2    1    2    0    0  0.24169306779E+02 -0.45222487833E+02 -0.35089235836E+03  0.97371641986E+03  0.90684562652E+03 0.  0.
         23    2    4    4    0    0  0.74403876009E+02  0.32813594561E+03  0.11574283996E+03  0.36731239257E+03  0.91174849444E+02 0.  0.
         23    2    4    4    0    0 -0.50234569230E+02 -0.37335843344E+03 -0.46663519832E+03  0.60640402728E+03  0.89763044851E+02 0.  0.
          3    1    3    3  502    0 -0.35580059149E+02  0.52706916350E+02  0.15577952954E+03  0.16825938745E+03  0.00000000000E+00 0. -1.
         -4    1    3    3    0  502  0.11410752370E+02 -0.74844285166E+01  0.13869232279E+03  0.13936205488E+03  0.00000000000E+00 0.  1.
         11    1    5    5    0    0 -0.88739801643E+01  0.14019695668E+03  0.25323093466E+02  0.14274170115E+03  0.00000000000E+00 0.  1.
        -11    1    5    5    0    0  0.83277856173E+02  0.18793898893E+03  0.90419746493E+02  0.22457069142E+03  0.00000000000E+00 0. -1.
          3    1    6    6  503    0 -0.42329752000E+02 -0.27774677305E+03 -0.40304591344E+03  0.49130549171E+03  0.00000000000E+00 0. -1.
         -3    1    6    6    0  503 -0.79048172297E+01 -0.95611660396E+02 -0.63589284882E+02  0.11509853557E+03  0.00000000000E+00 0.  1.
<mgrwt>
<rscale>  0 0.12800951E+04</rscale>
<asrwt>0</asrwt>
<pdfrwt beam="1">  1        1 0.94224412E-01 0.12800951E+04</pdfrwt>
<pdfrwt beam="2">  1       -2 0.10290449E+00 0.12800951E+04</pdfrwt>
<totfact> 0.22086175E+01</totfact>
</mgrwt>
</event>
<event>
12    4  0.4398275E-008  0.1445448E+04  0.7818608E-02  0.8921562E-01
          1   -1    0    0  501    0  0.00000000000E+00  0.00000000000E+00  0.10088785268E+04  0.10088785268E+04  0.00000000000E+00 0. -1.
         -2   -1    0    0    0  501 -0.00000000000E+00 -0.00000000000E+00 -0.51773326491E+03  0.51773326491E+03  0.00000000000E+00 0.  1.
        -24    2    1    2    0    0  0.75046304896E+02 -0.33712907875E+03  0.43711526068E+03  0.56222653748E+03  0.75769154108E+02 0.  0.
        254    2    1    2    0    0 -0.75046304896E+02  0.33712907875E+03  0.54030001235E+02  0.96438525425E+03  0.89879458942E+03 0.  0.
         23    2    4    4    0    0 -0.24050396243E+03  0.10035453000E+03  0.41102463261E+03  0.49584010535E+03  0.94884001952E+02 0.  0.
         23    2    4    4    0    0  0.16545765753E+03  0.23677454875E+03 -0.35699463138E+03  0.46854514891E+03  0.93010571235E+02 0.  0.
          3    1    3    3  502    0  0.29061781780E+02 -0.21800482132E+03  0.32426446004E+03  0.39181389628E+03  0.00000000000E+00 0. -1.
         -4    1    3    3    0  502  0.45984523116E+02 -0.11912425743E+03  0.11285080064E+03  0.17041264120E+03  0.00000000000E+00 0.  1.
         11    1    5    5    0    0 -0.67856702657E+02  0.77371879537E+02  0.16303122304E+03  0.19279553814E+03  0.00000000000E+00 0.  1.
        -11    1    5    5    0    0 -0.17264725977E+03  0.22982650458E+02  0.24799340957E+03  0.30304456721E+03  0.00000000000E+00 0. -1.
          4    1    6    6  503    0  0.15653292985E+03  0.24536400371E+03 -0.34374641867E+03  0.45040831786E+03  0.00000000000E+00 0.  1.
         -4    1    6    6    0  503  0.89247276790E+01 -0.85894549609E+01 -0.13248212703E+02  0.18136831049E+02  0.00000000000E+00 0. -1.
<mgrwt>
<rscale>  0 0.14454480E+04</rscale>
<asrwt>0</asrwt>
<pdfrwt beam="1">  1        1 0.15521208E+00 0.14454480E+04</pdfrwt>
<pdfrwt beam="2">  1       -2 0.79651271E-01 0.14454480E+04</pdfrwt>
<totfact> 0.17707140E+01</totfact>
</mgrwt>
</event>
<event>
12    4  0.4398275E-008  0.1155159E+04  0.7818608E-02  0.9153037E-01
          1   -1    0    0  501    0  0.00000000000E+00  0.00000000000E+00  0.18175408326E+04  0.18175408326E+04  0.00000000000E+00 0. -1.
         -2   -1    0    0    0  501 -0.00000000000E+00 -0.00000000000E+00 -0.18354359179E+03  0.18354359179E+03  0.00000000000E+00 0.  1.
        -24    2    1    2    0    0 -0.81032729459E+02 -0.16396557746E+03  0.12457119614E+03  0.23377762000E+03  0.75385534878E+02 0.  0.
        254    2    1    2    0    0  0.81032729459E+02  0.16396557746E+03  0.15094260447E+04  0.17673068044E+04  0.90086366487E+03 0.  0.
         23    2    4    4    0    0 -0.31522137660E+03  0.25201523170E+03  0.11322768838E+04  0.12055872818E+04  0.92268950180E+02 0.  0.
         23    2    4    4    0    0  0.39625410606E+03 -0.88049654243E+02  0.37714916086E+03  0.56171952258E+03  0.92289080234E+02 0.  0.
          1    1    3    3  502    0 -0.28436177612E+02 -0.78239760809E+02  0.10024237821E+03  0.13030199829E+03  0.00000000000E+00 0. -1.
         -2    1    3    3    0  502 -0.52596551846E+02 -0.85725816652E+02  0.24328817934E+02  0.10347562171E+03  0.00000000000E+00 0.  1.
         11    1    5    5    0    0 -0.39333021471E+02  0.20975314036E+02  0.22844267050E+03  0.23275116344E+03  0.00000000000E+00 0. -1.
        -11    1    5    5    0    0 -0.27588835513E+03  0.23103991767E+03  0.90383421333E+03  0.97283611839E+03  0.00000000000E+00 0.  1.
          3    1    6    6  503    0  0.69891434052E+02  0.19211844042E+02  0.73354685277E+02  0.10312525082E+03  0.00000000000E+00 0. -1.
         -3    1    6    6    0  503  0.32636267201E+03 -0.10726149829E+03  0.30379447559E+03  0.45859427176E+03  0.00000000000E+00 0.  1.
<mgrwt>
<rscale>  0 0.11551588E+04</rscale>
<asrwt>0</asrwt>
<pdfrwt beam="1">  1        1 0.27962166E+00 0.11551588E+04</pdfrwt>
<pdfrwt beam="2">  1       -2 0.28237477E-01 0.11551588E+04</pdfrwt>
<totfact> 0.39684648E+01</totfact>
</mgrwt>
</event>
<event>
12    4  0.4398275E-008  0.1463690E+04  0.7818608E-02  0.8908964E-01
          1   -1    0    0  501    0  0.00000000000E+00  0.00000000000E+00  0.38119517932E+03  0.38119517932E+03  0.00000000000E+00 0. -1.
         -2   -1    0    0    0  501 -0.00000000000E+00 -0.00000000000E+00 -0.14050473049E+04  0.14050473049E+04  0.00000000000E+00 0.  1.
        -24    2    1    2    0    0  0.40719198417E+03 -0.15112335252E+03 -0.20715903881E+03  0.48884075000E+03  0.86062952853E+02 0.  0.
        254    2    1    2    0    0 -0.40719198417E+03  0.15112335252E+03 -0.81669308674E+03  0.12974017342E+04  0.90973627075E+03 0.  0.
         23    2    4    4    0    0  0.23043886176E+03  0.22181300952E+03 -0.14467614034E+03  0.36259636004E+03  0.90784660172E+02 0.  0.
         23    2    4    4    0    0 -0.63763084593E+03 -0.70689657008E+02 -0.67201694640E+03  0.93480537416E+03  0.10336434594E+03 0.  0.
          3    1    3    3  502    0  0.33952350030E+03 -0.11613936795E+03 -0.20361478474E+03  0.41258155631E+03  0.00000000000E+00 0. -1.
         -4    1    3    3    0  502  0.67668483865E+02 -0.34983984569E+02 -0.35442540703E+01  0.76259193687E+02  0.00000000000E+00 0.  1.
         11    1    5    5    0    0 -0.65760487909E+01  0.16979591639E+02 -0.14857486149E+02  0.23500975397E+02  0.00000000000E+00 0.  1.
        -11    1    5    5    0    0  0.23701491055E+03  0.20483341789E+03 -0.12981865419E+03  0.33909538464E+03  0.00000000000E+00 0. -1.
          3    1    6    6  503    0 -0.55683330537E+03 -0.28779925016E+02 -0.55692786765E+03  0.78807376801E+03  0.00000000000E+00 0. -1.
         -3    1    6    6    0  503 -0.80797540565E+02 -0.41909731991E+02 -0.11508907875E+03  0.14673160615E+03  0.00000000000E+00 0.  1.
<mgrwt>
<rscale>  0 0.14636902E+04</rscale>
<asrwt>0</asrwt>
<pdfrwt beam="1">  1        1 0.58645412E-01 0.14636902E+04</pdfrwt>
<pdfrwt beam="2">  1       -2 0.21616113E+00 0.14636902E+04</pdfrwt>
<totfact> 0.56666279E+00</totfact>
</mgrwt>
</event>
<event>
12    4  0.4398275E-008  0.1461316E+04  0.7818608E-02  0.8910593E-01
          1   -1    0    0  501    0  0.00000000000E+00  0.00000000000E+00  0.11153566672E+04  0.11153566672E+04  0.00000000000E+00 0. -1.
         -4   -1    0    0    0  501 -0.00000000000E+00 -0.00000000000E+00 -0.47864592525E+03  0.47864592525E+03  0.00000000000E+00 0.  1.
        -24    2    1    2    0    0  0.32670672343E+03  0.11612950269E+02  0.53271619564E+03  0.63009960606E+03  0.79792385030E+02 0.  0.
        254    2    1    2    0    0 -0.32670672343E+03 -0.11612950269E+02  0.10399454631E+03  0.96390298640E+03  0.90078963014E+03 0.  0.
         23    2    4    4    0    0  0.21632500041E+03  0.15009702561E+03 -0.17144891033E+03  0.32750985164E+03  0.92424840630E+02 0.  0.
         23    2    4    4    0    0 -0.54303172384E+03 -0.16170997587E+03  0.27544345664E+03  0.63639313476E+03  0.89964186019E+02 0.  0.
          1    1    3    3  502    0  0.29475128361E+03 -0.21478520792E+01  0.50834620135E+03  0.58762130057E+03  0.00000000000E+00 0. -1.
         -2    1    3    3    0  502  0.31955439817E+02  0.13760802348E+02  0.24369994289E+02  0.42478305484E+02  0.00000000000E+00 0.  1.
         11    1    5    5    0    0  0.52723679969E+02  0.77568981412E+02 -0.27202364614E+02  0.97656038971E+02  0.00000000000E+00 0. -1.
        -11    1    5    5    0    0  0.16360132045E+03  0.72528044194E+02 -0.14424654572E+03  0.22985381267E+03  0.00000000000E+00 0.  1.
          3    1    6    6  503    0 -0.35847387215E+03 -0.12409799698E+03  0.13981886261E+03  0.40429338878E+03  0.00000000000E+00 0. -1.
         -3    1    6    6    0  503 -0.18455785169E+03 -0.37611978890E+02  0.13562459403E+03  0.23209974598E+03  0.00000000000E+00 0.  1.
<mgrwt>
<rscale>  0 0.14613157E+04</rscale>
<asrwt>0</asrwt>
<pdfrwt beam="1">  1        1 0.17159333E+00 0.14613157E+04</pdfrwt>
<pdfrwt beam="2">  1       -4 0.73637835E-01 0.14613157E+04</pdfrwt>
<totfact> 0.97760845E+00</totfact>
</mgrwt>
</event>
<event>
12    4  0.4398275E-008  0.1765989E+04  0.7818608E-02  0.8724598E-01
         -2   -1    0    0    0  501 -0.00000000000E+00  0.00000000000E+00  0.31788479138E+03  0.31788479138E+03  0.00000000000E+00 0.  1.
          1   -1    0    0  501    0  0.00000000000E+00 -0.00000000000E+00 -0.24527106685E+04  0.24527106685E+04  0.00000000000E+00 0. -1.
        -24    2    1    2    0    0 -0.40330240576E+03 -0.18034681802E+03 -0.46019019911E+02  0.45141067156E+03  0.80473840104E+02 0.  0.
        254    2    1    2    0    0  0.40330240576E+03  0.18034681802E+03 -0.20888068572E+04  0.23191847883E+04  0.90571860441E+03 0.  0.
         23    2    4    4    0    0 -0.18725004276E+03  0.24680475710E+03 -0.33620739522E+03  0.46627143996E+03  0.91643202047E+02 0.  0.
         23    2    4    4    0    0  0.59055244852E+03 -0.66457939073E+02 -0.17525994620E+04  0.18529133484E+04  0.92272153054E+02 0.  0.
          1    1    3    3  502    0 -0.11194799945E+03 -0.82555493813E+02 -0.37075027908E+02  0.14395249853E+03  0.00000000000E+00 0. -1.
         -2    1    3    3    0  502 -0.29135440631E+03 -0.97791324210E+02 -0.89439920028E+01  0.30745817303E+03  0.00000000000E+00 0.  1.
         11    1    5    5    0    0  0.30560417972E+01  0.93926192732E+01 -0.41559274122E+02  0.42716904778E+02  0.00000000000E+00 0. -1.
        -11    1    5    5    0    0 -0.19030608456E+03  0.23741213782E+03 -0.29464812110E+03  0.42355453518E+03  0.00000000000E+00 0.  1.
          1    1    6    6  503    0  0.25291069384E+03 -0.35159420398E+02 -0.89494458789E+03  0.93065880928E+03  0.00000000000E+00 0. -1.
         -1    1    6    6    0  503  0.33764175468E+03 -0.31298518675E+02 -0.85765487412E+03  0.92225453909E+03  0.00000000000E+00 0.  1.
<mgrwt>
<rscale>  0 0.17659891E+04</rscale>
<asrwt>0</asrwt>
<pdfrwt beam="1">  1        1 0.37734011E+00 0.17659891E+04</pdfrwt>
<pdfrwt beam="2">  1       -2 0.48905351E-01 0.17659891E+04</pdfrwt>
<totfact> 0.48122032E+00</totfact>
</mgrwt>
</event>
<event>
12    4  0.4398275E-008  0.1759639E+04  0.7818608E-02  0.8728062E-01
          1   -1    0    0  501    0  0.00000000000E+00  0.00000000000E+00  0.98746403795E+03  0.98746403795E+03  0.00000000000E+00 0. -1.
         -2   -1    0    0    0  501 -0.00000000000E+00 -0.00000000000E+00 -0.78390971738E+03  0.78390971738E+03  0.00000000000E+00 0.  1.
        -24    2    1    2    0    0  0.92900970093E+02 -0.43187069716E+03 -0.40304948043E+03  0.60309210033E+03  0.78283513552E+02 0.  0.
        254    2    1    2    0    0 -0.92900970093E+02  0.43187069716E+03  0.60660380100E+03  0.11682816550E+04  0.89541664308E+03 0.  0.
         23    2    4    4    0    0 -0.16308563379E+03  0.24538583654E+03 -0.17647949519E+03  0.35525734154E+03  0.90838503816E+02 0.  0.
         23    2    4    4    0    0  0.70184663692E+02  0.18648486062E+03  0.78308329619E+03  0.81302431346E+03  0.89925498297E+02 0.  0.
          3    1    3    3  502    0 -0.87684681130E+01 -0.76757272899E+01 -0.16852071631E+02  0.20488902868E+02  0.00000000000E+00 0. -1.
         -4    1    3    3    0  502  0.10166943821E+03 -0.42419496987E+03 -0.38619740880E+03  0.58260319746E+03  0.00000000000E+00 0.  1.
         11    1    5    5    0    0 -0.29983443000E+02  0.83254201888E+02 -0.96049985930E+02  0.13059811937E+03  0.00000000000E+00 0.  1.
        -11    1    5    5    0    0 -0.13310219078E+03  0.16213163465E+03 -0.80429509260E+02  0.22465922217E+03  0.00000000000E+00 0. -1.
          2    1    6    6  503    0  0.82152660070E+02  0.93115079769E+02  0.42424754233E+03  0.44204689210E+03  0.00000000000E+00 0. -1.
         -2    1    6    6    0  503 -0.11967996378E+02  0.93369780853E+02  0.35883575386E+03  0.37097742136E+03  0.00000000000E+00 0.  1.
<mgrwt>
<rscale>  0 0.17596393E+04</rscale>
<asrwt>0</asrwt>
<pdfrwt beam="1">  1        1 0.15191754E+00 0.17596393E+04</pdfrwt>
<pdfrwt beam="2">  1       -2 0.12060150E+00 0.17596393E+04</pdfrwt>
<totfact> 0.67368781E+00</totfact>
</mgrwt>
</event>
<event>
12    4  0.4398275E-008  0.4450041E+04  0.7818608E-02  0.7919442E-01
          1   -1    0    0  501    0  0.00000000000E+00  0.00000000000E+00  0.23166124718E+04  0.23166124718E+04  0.00000000000E+00 0. -1.
         -2   -1    0    0    0  501 -0.00000000000E+00 -0.00000000000E+00 -0.21370494613E+04  0.21370494613E+04  0.00000000000E+00 0.  1.
        -24    2    1    2    0    0  0.13776921846E+04 -0.13700948947E+04  0.97132729814E+03  0.21737084782E+04  0.79599321504E+02 0.  0.
        254    2    1    2    0    0 -0.13776921846E+04  0.13700948947E+04 -0.79176428765E+03  0.22799534549E+04  0.89224508570E+03 0.  0.
         23    2    4    4    0    0 -0.13594388733E+04  0.84392770754E+03 -0.62681959388E+03  0.17209049766E+04  0.91231077024E+02 0.  0.
         23    2    4    4    0    0 -0.18253311327E+02  0.52616718720E+03 -0.16494469377E+03  0.55904847826E+03  0.90240549580E+02 0.  0.
          3    1    3    3  502    0  0.87033322489E+03 -0.88877360850E+03  0.58305231455E+03  0.13738080110E+04  0.00000000000E+00 0. -1.
         -4    1    3    3    0  502  0.50735895972E+03 -0.48132128624E+03  0.38827498359E+03  0.79990046723E+03  0.00000000000E+00 0.  1.
         11    1    5    5    0    0 -0.85197282818E+03  0.53466794646E+03 -0.44080859076E+03  0.10981984004E+04  0.00000000000E+00 0. -1.
        -11    1    5    5    0    0 -0.50746604510E+03  0.30925976109E+03 -0.18601100312E+03  0.62270657620E+03  0.00000000000E+00 0.  1.
          1    1    6    6  503    0 -0.13285789453E+02  0.50394072822E+03 -0.17570640301E+03  0.53385907299E+03  0.00000000000E+00 0. -1.
         -1    1    6    6    0  503 -0.49675218742E+01  0.22226458978E+02  0.10761709234E+02  0.25189405271E+02  0.00000000000E+00 0.  1.
<mgrwt>
<rscale>  0 0.44500406E+04</rscale>
<asrwt>0</asrwt>
<pdfrwt beam="1">  1        1 0.35640192E+00 0.44500406E+04</pdfrwt>
<pdfrwt beam="2">  1       -2 0.32877684E+00 0.44500406E+04</pdfrwt>
<totfact> 0.25405048E-02</totfact>
</mgrwt>
</event>
<event>
12    4  0.4398275E-008  0.1335702E+04  0.7818608E-02  0.9001722E-01
         -2   -1    0    0    0  501 -0.00000000000E+00  0.00000000000E+00  0.26538486217E+03  0.26538486217E+03  0.00000000000E+00 0.  1.
          1   -1    0    0  501    0  0.00000000000E+00 -0.00000000000E+00 -0.16806731210E+04  0.16806731210E+04  0.00000000000E+00 0. -1.
        -24    2    1    2    0    0 -0.98297147759E+02  0.18001813492E+03  0.39556755896E+02  0.22331193510E+03  0.78959643255E+02 0.  0.
        254    2    1    2    0    0  0.98297147759E+02 -0.18001813492E+03 -0.14548450148E+04  0.17227460481E+04  0.89956159942E+03 0.  0.
         23    2    4    4    0    0  0.32999032069E+03  0.23475533739E+03 -0.48242466115E+03  0.63674006829E+03  0.93277439326E+02 0.  0.
         23    2    4    4    0    0 -0.23169317294E+03 -0.41477347231E+03 -0.97242035362E+03  0.10860059798E+04  0.89938225377E+02 0.  0.
          3    1    3    3  502    0 -0.24165784742E+02  0.70053896022E+01 -0.12395383854E+02  0.28048282952E+02  0.00000000000E+00 0. -1.
         -4    1    3    3    0  502 -0.74131363018E+02  0.17301274532E+03  0.51952139750E+02  0.19526365215E+03  0.00000000000E+00 0.  1.
         11    1    5    5    0    0  0.97258069142E+01  0.35189860529E+02 -0.60720815825E+02  0.70851500186E+02  0.00000000000E+00 0.  1.
        -11    1    5    5    0    0  0.32026451378E+03  0.19956547686E+03 -0.42170384533E+03  0.56588856810E+03  0.00000000000E+00 0. -1.
          1    1    6    6  503    0 -0.15463701963E+03 -0.26772783188E+03 -0.53172978528E+03  0.61508321742E+03  0.00000000000E+00 0. -1.
         -1    1    6    6    0  503 -0.77056153308E+02 -0.14704564043E+03 -0.44069056834E+03  0.47092276241E+03  0.00000000000E+00 0.  1.
<mgrwt>
<rscale>  0 0.13357024E+04</rscale>
<asrwt>0</asrwt>
<pdfrwt beam="1">  1        1 0.25856509E+00 0.13357024E+04</pdfrwt>
<pdfrwt beam="2">  1       -2 0.40828441E-01 0.13357024E+04</pdfrwt>
<totfact> 0.24007308E+01</totfact>
</mgrwt>
</event>
<event>
12    4  0.4398275E-008  0.1553103E+04  0.7818608E-02  0.8849888E-01
          1   -1    0    0  501    0  0.00000000000E+00  0.00000000000E+00  0.81808945325E+03  0.81808945325E+03  0.00000000000E+00 0. -1.
         -2   -1    0    0    0  501 -0.00000000000E+00 -0.00000000000E+00 -0.73712284371E+03  0.73712284371E+03  0.00000000000E+00 0.  1.
        -24    2    1    2    0    0 -0.31209910126E+02 -0.22345203448E+03  0.48332574918E+03  0.53933911347E+03  0.79862565057E+02 0.  0.
        254    2    1    2    0    0  0.31209910126E+02  0.22345203448E+03 -0.40235913964E+03  0.10158731835E+04  0.90509699893E+03 0.  0.
         23    2    4    4    0    0 -0.14176601946E+03  0.52246415458E+03 -0.35878279372E+03  0.65590742314E+03  0.91777217067E+02 0.  0.
         23    2    4    4    0    0  0.17297592959E+03 -0.29901212010E+03 -0.43576345924E+02  0.35996576035E+03  0.91364821014E+02 0.  0.
          3    1    3    3  502    0 -0.44906953779E+02 -0.17705455092E+03  0.43082718059E+03  0.46794979222E+03  0.00000000000E+00 0. -1.
         -4    1    3    3    0  502  0.13697043652E+02 -0.46397483558E+02  0.52498568585E+02  0.71389321252E+02  0.00000000000E+00 0.  1.
         11    1    5    5    0    0 -0.44409552882E+02  0.31772716442E+03 -0.23438131696E+03  0.39731267428E+03  0.00000000000E+00 0.  1.
        -11    1    5    5    0    0 -0.97356466577E+02  0.20473699015E+03 -0.12440147676E+03  0.25859474887E+03  0.00000000000E+00 0. -1.
          3    1    6    6  503    0  0.58207833094E+02 -0.31646391645E+02 -0.46706848668E+01  0.66418831929E+02  0.00000000000E+00 0. -1.
         -3    1    6    6    0  503  0.11476809649E+03 -0.26736572845E+03 -0.38905661057E+02  0.29354692842E+03  0.00000000000E+00 0.  1.
<mgrwt>
<rscale>  0 0.15531032E+04</rscale>
<asrwt>0</asrwt>
<pdfrwt beam="1">  1        1 0.12585992E+00 0.15531032E+04</pdfrwt>
<pdfrwt beam="2">  1       -2 0.11340351E+00 0.15531032E+04</pdfrwt>
<totfact> 0.10977783E+01</totfact>
</mgrwt>
</event>
<event>
12    4  0.4419061E-008  0.1799387E+04  0.7818608E-02  0.8706625E-01
         -2   -1    0    0    0  501 -0.00000000000E+00  0.00000000000E+00  0.11336128065E+04  0.11336128065E+04  0.00000000000E+00 0.  1.
          1   -1    0    0  501    0  0.00000000000E+00 -0.00000000000E+00 -0.71404332357E+03  0.71404332357E+03  0.00000000000E+00 0. -1.
        -24    2    1    2    0    0 -0.74565441907E+02 -0.81841982273E+02 -0.53288032655E+03  0.55008119963E+03  0.79810829901E+02 0.  0.
        254    2    1    2    0    0  0.74565441907E+02  0.81841982273E+02  0.95244980948E+03  0.12975749304E+04  0.87423220331E+03 0.  0.
         23    2    4    4    0    0 -0.31044921079E+02  0.19735710812E+03  0.10632527419E+04  0.10861731733E+04  0.96706534910E+02 0.  0.
         23    2    4    4    0    0  0.10561036299E+03 -0.11551512585E+03 -0.11080293245E+03  0.21140175714E+03  0.88972580107E+02 0.  0.
          1    1    3    3  502    0 -0.74369882266E+02 -0.93647595278E+02 -0.42333629143E+03  0.43990267916E+03  0.00000000000E+00 0. -1.
         -2    1    3    3    0  502 -0.19555964084E+00  0.11805613005E+02 -0.10954403513E+03  0.11017852047E+03  0.00000000000E+00 0.  1.
         11    1    5    5    0    0 -0.44212907101E+02  0.13459369246E+03  0.51321370018E+03  0.53240825055E+03  0.00000000000E+00 0. -1.
        -11    1    5    5    0    0  0.13167986021E+02  0.62763415666E+02  0.55003904175E+03  0.55376492274E+03  0.00000000000E+00 0.  1.
          1    1    6    6  503    0  0.59168180406E+02 -0.86783379570E+02 -0.22253066971E+02  0.10736585831E+03  0.00000000000E+00 0. -1.
         -1    1    6    6    0  503  0.46442182581E+02 -0.28731746281E+02 -0.88549865483E+02  0.10403589882E+03  0.00000000000E+00 0.  1.
<mgrwt>
<rscale>  0 0.17993873E+04</rscale>
<asrwt>0</asrwt>
<pdfrwt beam="1">  1        1 0.10985282E+00 0.17993873E+04</pdfrwt>
<pdfrwt beam="2">  1       -2 0.17440197E+00 0.17993873E+04</pdfrwt>
<totfact> 0.43304634E+00</totfact>
</mgrwt>
</event>
<event>
12    4  0.4398275E-008  0.1133586E+04  0.7818608E-02  0.9173061E-01
          1   -1    0    0  501    0  0.00000000000E+00  0.00000000000E+00  0.86453575959E+03  0.86453575959E+03  0.00000000000E+00 0. -1.
         -2   -1    0    0    0  501 -0.00000000000E+00 -0.00000000000E+00 -0.37159196810E+03  0.37159196810E+03  0.00000000000E+00 0.  1.
        -24    2    1    2    0    0 -0.63952341554E+02 -0.10899588704E+03  0.28011544488E+03  0.31809326616E+03  0.82150216852E+02 0.  0.
        254    2    1    2    0    0  0.63952341554E+02  0.10899588704E+03  0.21282834661E+03  0.91803446153E+03  0.88403696872E+03 0.  0.
         23    2    4    4    0    0 -0.30288367890E+03 -0.22029398876E+03  0.14698689322E+03  0.41235511599E+03  0.90352811123E+02 0.  0.
         23    2    4    4    0    0  0.36683602046E+03  0.32928987580E+03  0.65841453389E+02  0.50567934554E+03  0.91520573158E+02 0.  0.
          3    1    3    3  502    0 -0.75108872460E+02 -0.99073193449E+02  0.27583861486E+03  0.30256202973E+03  0.00000000000E+00 0. -1.
         -4    1    3    3    0  502  0.11156530906E+02 -0.99226935915E+01  0.42768300192E+01  0.15531236428E+02  0.00000000000E+00 0.  1.
         11    1    5    5    0    0 -0.18646553315E+03 -0.97941310859E+02  0.11663606258E+03  0.24076101536E+03  0.00000000000E+00 0.  1.
        -11    1    5    5    0    0 -0.11641814576E+03 -0.12235267790E+03  0.30350830641E+02  0.17159410063E+03  0.00000000000E+00 0. -1.
          2    1    6    6  503    0  0.28850050349E+03  0.20880203678E+03  0.28963380488E+02  0.35730898182E+03  0.00000000000E+00 0. -1.
         -2    1    6    6    0  503  0.78335516964E+02  0.12048783902E+03  0.36878072901E+02  0.14837036372E+03  0.00000000000E+00 0.  1.
<mgrwt>
<rscale>  0 0.11335864E+04</rscale>
<asrwt>0</asrwt>
<pdfrwt beam="1">  1        1 0.13300550E+00 0.11335864E+04</pdfrwt>
<pdfrwt beam="2">  1       -2 0.57167995E-01 0.11335864E+04</pdfrwt>
<totfact> 0.48658363E+01</totfact>
</mgrwt>
</event>
<event>
12    4  0.4398275E-008  0.1883730E+04  0.7818608E-02  0.8662998E-01
          1   -1    0    0  501    0  0.00000000000E+00  0.00000000000E+00  0.22413453827E+04  0.22413453827E+04  0.00000000000E+00 0. -1.
         -2   -1    0    0    0  501 -0.00000000000E+00 -0.00000000000E+00 -0.39579330080E+03  0.39579330080E+03  0.00000000000E+00 0.  1.
        -24    2    1    2    0    0  0.40443781735E+03  0.14944269733E+03  0.15380412046E+04  0.15993163965E+04  0.79618597696E+02 0.  0.
        254    2    1    2    0    0 -0.40443781735E+03 -0.14944269733E+03  0.30751087724E+03  0.10378222870E+04  0.89252960277E+03 0.  0.
         23    2    4    4    0    0 -0.43041822525E+02 -0.48124189859E+03  0.16832970898E+03  0.51968966319E+03  0.91082883439E+02 0.  0.
         23    2    4    4    0    0 -0.36139599482E+03  0.33179920125E+03  0.13918116827E+03  0.51813262378E+03  0.91609187323E+02 0.  0.
          1    1    3    3  502    0  0.35362386757E+03  0.11221104232E+03  0.13847169181E+04  0.14335557544E+04  0.00000000000E+00 0. -1.
         -2    1    3    3    0  502  0.50813949781E+02  0.37231655015E+02  0.15332428654E+03  0.16576064211E+03  0.00000000000E+00 0.  1.
         11    1    5    5    0    0 -0.54881376499E+02 -0.14258548387E+03  0.49792527131E+02  0.16069188360E+03  0.00000000000E+00 0. -1.
        -11    1    5    5    0    0  0.11839553974E+02 -0.33865641471E+03  0.11853718185E+03  0.35899777958E+03  0.00000000000E+00 0.  1.
          3    1    6    6  503    0 -0.33816045221E+03  0.27457083643E+03  0.10725446965E+03  0.44860356320E+03  0.00000000000E+00 0.  1.
         -3    1    6    6    0  503 -0.23235542614E+02  0.57228364827E+02  0.31926698615E+02  0.69529060585E+02  0.00000000000E+00 0. -1.
<mgrwt>
<rscale>  0 0.18837298E+04</rscale>
<asrwt>0</asrwt>
<pdfrwt beam="1">  1        1 0.34482236E+00 0.18837298E+04</pdfrwt>
<pdfrwt beam="2">  1       -2 0.60891278E-01 0.18837298E+04</pdfrwt>
<totfact> 0.42178899E+00</totfact>
</mgrwt>
</event>
<event>
12    4  0.4398275E-008  0.2059292E+04  0.7818608E-02  0.8579390E-01
         -2   -1    0    0    0  501 -0.00000000000E+00  0.00000000000E+00  0.55421902286E+03  0.55421902286E+03  0.00000000000E+00 0.  1.
          1   -1    0    0  501    0  0.00000000000E+00 -0.00000000000E+00 -0.19129104284E+04  0.19129104284E+04  0.00000000000E+00 0. -1.
        -24    2    1    2    0    0 -0.11995632687E+03 -0.61530498995E+03  0.95277365620E+02  0.63897968536E+03  0.78914579732E+02 0.  0.
        254    2    1    2    0    0  0.11995632687E+03  0.61530498995E+03 -0.14539687711E+04  0.18281497659E+04  0.91384715791E+03 0.  0.
         23    2    4    4    0    0 -0.28471221436E+02  0.18811385030E+03  0.80267870244E+02  0.22599251084E+03  0.91827298973E+02 0.  0.
         23    2    4    4    0    0  0.14842754831E+03  0.42719113965E+03 -0.15342366414E+04  0.16021572550E+04  0.92210580899E+02 0.  0.
          1    1    3    3  502    0 -0.27040732775E+02 -0.21424379025E+03  0.67984588483E+02  0.22639237434E+03  0.00000000000E+00 0. -1.
         -2    1    3    3    0  502 -0.92915594096E+02 -0.40106119970E+03  0.27292777137E+02  0.41258731102E+03  0.00000000000E+00 0.  1.
         11    1    5    5    0    0  0.52136203151E+01  0.14446507800E+02  0.42379505280E+02  0.45076666827E+02  0.00000000000E+00 0. -1.
        -11    1    5    5    0    0 -0.33684841751E+02  0.17366734250E+03  0.37888364963E+02  0.18091584401E+03  0.00000000000E+00 0.  1.
          3    1    6    6  503    0  0.63038391803E+02  0.31104906186E+03 -0.10620696524E+04  0.11084752159E+04  0.00000000000E+00 0. -1.
         -3    1    6    6    0  503  0.85389156504E+02  0.11614207779E+03 -0.47216698895E+03  0.49368203911E+03  0.00000000000E+00 0.  1.
<mgrwt>
<rscale>  0 0.20592924E+04</rscale>
<asrwt>0</asrwt>
<pdfrwt beam="1">  1        1 0.29429391E+00 0.20592924E+04</pdfrwt>
<pdfrwt beam="2">  1       -2 0.85264466E-01 0.20592924E+04</pdfrwt>
<totfact> 0.33109503E+00</totfact>
</mgrwt>
</event>
<event>
12    4  0.4398275E-008  0.1247609E+04  0.7818608E-02  0.9072175E-01
         -2   -1    0    0    0  501 -0.00000000000E+00  0.00000000000E+00  0.62929705702E+03  0.62929705702E+03  0.00000000000E+00 0.  1.
          1   -1    0    0  501    0  0.00000000000E+00 -0.00000000000E+00 -0.61836016284E+03  0.61836016284E+03  0.00000000000E+00 0. -1.
        -24    2    1    2    0    0  0.10875367257E+03 -0.10040947416E+03 -0.23954594285E+03  0.29592449664E+03  0.90992445691E+02 0.  0.
        254    2    1    2    0    0 -0.10875367257E+03  0.10040947416E+03  0.25048283703E+03  0.95173272322E+03  0.90617001771E+03 0.  0.
         23    2    4    4    0    0  0.27401058941E+03 -0.72786139753E+02  0.39792539512E+03  0.49764317488E+03  0.94469488053E+02 0.  0.
         23    2    4    4    0    0 -0.38276426198E+03  0.17319561392E+03 -0.14744255809E+03  0.45408954834E+03  0.89178523463E+02 0.  0.
          3    1    3    3  502    0  0.11825052012E+03 -0.65694061741E+02 -0.16676776114E+03  0.21473327970E+03  0.00000000000E+00 0. -1.
         -4    1    3    3    0  502 -0.94968475538E+01 -0.34715412422E+02 -0.72778181714E+02  0.81191216931E+02  0.00000000000E+00 0.  1.
         11    1    5    5    0    0  0.30661414037E+02 -0.12936341397E+02  0.81565972740E+01  0.34263702640E+02  0.00000000000E+00 0. -1.
        -11    1    5    5    0    0  0.24334917537E+03 -0.59849798356E+02  0.38976879785E+03  0.46337947224E+03  0.00000000000E+00 0.  1.
          4    1    6    6  503    0 -0.11299397201E+03  0.26032868453E+02 -0.68509312576E+01  0.11615628786E+03  0.00000000000E+00 0. -1.
         -4    1    6    6    0  503 -0.26977028996E+03  0.14716274546E+03 -0.14059162683E+03  0.33793326048E+03  0.00000000000E+00 0.  1.
<mgrwt>
<rscale>  0 0.12476093E+04</rscale>
<asrwt>0</asrwt>
<pdfrwt beam="1">  1        1 0.95132332E-01 0.12476093E+04</pdfrwt>
<pdfrwt beam="2">  1       -2 0.96814932E-01 0.12476093E+04</pdfrwt>
<totfact> 0.25232931E+01</totfact>
</mgrwt>
</event>
<event>
12    4  0.4398275E-008  0.2106339E+04  0.7818608E-02  0.8558456E-01
          1   -1    0    0  501    0  0.00000000000E+00  0.00000000000E+00  0.16507272720E+04  0.16507272720E+04  0.00000000000E+00 0. -1.
         -2   -1    0    0    0  501 -0.00000000000E+00 -0.00000000000E+00 -0.67192573179E+03  0.67192573179E+03  0.00000000000E+00 0.  1.
        -24    2    1    2    0    0 -0.29480248126E+03 -0.74548513209E+03  0.50611864452E+02  0.80806651087E+03  0.88053052440E+02 0.  0.
        254    2    1    2    0    0  0.29480248126E+03  0.74548513209E+03  0.92818967576E+03  0.15145864929E+04  0.88869544011E+03 0.  0.
         23    2    4    4    0    0 -0.16432865630E+03  0.57506699628E+03  0.79473696760E+03  0.99885452755E+03  0.91638212740E+02 0.  0.
         23    2    4    4    0    0  0.45913113756E+03  0.17041813581E+03  0.13345270816E+03  0.51573196539E+03  0.91247423628E+02 0.  0.
          3    1    3    3  502    0 -0.28916895854E+03 -0.74478890975E+03  0.45214080184E+02  0.80023341577E+03  0.00000000000E+00 0. -1.
         -4    1    3    3    0  502 -0.56335227196E+01 -0.69622233506E+00  0.53977842679E+01  0.78330950954E+01  0.00000000000E+00 0.  1.
         11    1    5    5    0    0 -0.12426387664E+03  0.37516017459E+03  0.45533703197E+03  0.60292493756E+03  0.00000000000E+00 0.  1.
        -11    1    5    5    0    0 -0.40064779658E+02  0.19990682169E+03  0.33939993563E+03  0.39592958999E+03  0.00000000000E+00 0. -1.
          3    1    6    6  503    0  0.37882752301E+03  0.15399826643E+03  0.76769181671E+02  0.41607603333E+03  0.00000000000E+00 0. -1.
         -3    1    6    6    0  503  0.80303614546E+02  0.16419869378E+02  0.56683526487E+02  0.99655932059E+02  0.00000000000E+00 0.  1.
<mgrwt>
<rscale>  0 0.21063391E+04</rscale>
<asrwt>0</asrwt>
<pdfrwt beam="1">  1        1 0.25395804E+00 0.21063391E+04</pdfrwt>
<pdfrwt beam="2">  1       -2 0.10337319E+00 0.21063391E+04</pdfrwt>
<totfact> 0.31720637E+00</totfact>
</mgrwt>
</event>
<event>
12    4  0.4398275E-008  0.1634698E+04  0.7818608E-02  0.8799511E-01
          1   -1    0    0  501    0  0.00000000000E+00  0.00000000000E+00  0.98756048952E+03  0.98756048952E+03  0.00000000000E+00 0. -1.
         -2   -1    0    0    0  501 -0.00000000000E+00 -0.00000000000E+00 -0.67647445813E+03  0.67647445813E+03  0.00000000000E+00 0.  1.
        -24    2    1    2    0    0 -0.27248323965E+03 -0.31902330427E+03  0.50061297694E+03  0.65794478257E+03  0.79088555890E+02 0.  0.
        254    2    1    2    0    0  0.27248323965E+03  0.31902330427E+03 -0.18952694555E+03  0.10060901651E+04  0.89458033323E+03 0.  0.
         23    2    4    4    0    0 -0.29945770140E+03  0.85101491697E+02  0.65999189423E+02  0.33125554091E+03  0.91962827076E+02 0.  0.
         23    2    4    4    0    0  0.57194094105E+03  0.23392181257E+03 -0.25552613498E+03  0.67483462416E+03  0.90952239493E+02 0.  0.
          3    1    3    3  502    0 -0.21476141331E+03 -0.28050327194E+03  0.44973675622E+03  0.57189833022E+03  0.00000000000E+00 0. -1.
         -4    1    3    3    0  502 -0.57721826342E+02 -0.38520032331E+02  0.50876220719E+02  0.86046452348E+02  0.00000000000E+00 0.  1.
         11    1    5    5    0    0 -0.27343868123E+03  0.68220961140E+02  0.85638807223E+02  0.29454510221E+03  0.00000000000E+00 0.  1.
        -11    1    5    5    0    0 -0.26019020164E+02  0.16880530556E+02 -0.19639617800E+02  0.36710438699E+02  0.00000000000E+00 0. -1.
          4    1    6    6  503    0  0.33358576782E+03  0.95133857243E+02 -0.11624675306E+03  0.36584590045E+03  0.00000000000E+00 0. -1.
         -4    1    6    6    0  503  0.23835517323E+03  0.13878795533E+03 -0.13927938192E+03  0.30898872371E+03  0.00000000000E+00 0.  1.
<mgrwt>
<rscale>  0 0.16346981E+04</rscale>
<asrwt>0</asrwt>
<pdfrwt beam="1">  1        1 0.15193238E+00 0.16346981E+04</pdfrwt>
<pdfrwt beam="2">  1       -2 0.10407299E+00 0.16346981E+04</pdfrwt>
<totfact> 0.97463427E+00</totfact>
</mgrwt>
</event>
<event>
12    4  0.4398275E-008  0.1401163E+04  0.7818608E-02  0.8952977E-01
          1   -1    0    0  501    0  0.00000000000E+00  0.00000000000E+00  0.45196883928E+03  0.45196883928E+03  0.00000000000E+00 0. -1.
         -2   -1    0    0    0  501 -0.00000000000E+00 -0.00000000000E+00 -0.10859482348E+04  0.10859482348E+04  0.00000000000E+00 0.  1.
        -24    2    1    2    0    0 -0.86124095302E+02  0.24701856313E+03  0.15887223692E+03  0.31598655462E+03  0.78559434293E+02 0.  0.
        254    2    1    2    0    0  0.86124095302E+02 -0.24701856313E+03 -0.79285163244E+03  0.12219305195E+04  0.89222472113E+03 0.  0.
         23    2    4    4    0    0 -0.34985170804E+03  0.65011808604E+02 -0.44142647714E+03  0.57452196612E+03  0.92711390650E+02 0.  0.
         23    2    4    4    0    0  0.43597580334E+03 -0.31203037173E+03 -0.35142515530E+03  0.64740855333E+03  0.90555735163E+02 0.  0.
          3    1    3    3  502    0 -0.81944327469E+02  0.24608602673E+03  0.16580449349E+03  0.30783816433E+03  0.00000000000E+00 0. -1.
         -4    1    3    3    0  502 -0.41797678327E+01  0.93253639745E+00 -0.69322565670E+01  0.81483902937E+01  0.00000000000E+00 0.  1.
         11    1    5    5    0    0 -0.17003705057E+03  0.73587481147E+02 -0.25677300567E+03  0.31663874114E+03  0.00000000000E+00 0. -1.
        -11    1    5    5    0    0 -0.17981465748E+03 -0.85756725431E+01 -0.18465347147E+03  0.25788322499E+03  0.00000000000E+00 0.  1.
          4    1    6    6  503    0  0.13326603752E+03 -0.12550970248E+03 -0.78537369733E+02  0.19920000155E+03  0.00000000000E+00 0. -1.
         -4    1    6    6    0  503  0.30270976582E+03 -0.18652066925E+03 -0.27288778557E+03  0.44820855179E+03  0.00000000000E+00 0.  1.
<mgrwt>
<rscale>  0 0.14011635E+04</rscale>
<asrwt>0</asrwt>
<pdfrwt beam="1">  1        1 0.69533668E-01 0.14011635E+04</pdfrwt>
<pdfrwt beam="2">  1       -2 0.16706896E+00 0.14011635E+04</pdfrwt>
<totfact> 0.96943225E+00</totfact>
</mgrwt>
</event>
<event>
12    4  0.4398275E-008  0.1832870E+04  0.7818608E-02  0.8689012E-01
          1   -1    0    0  501    0  0.00000000000E+00  0.00000000000E+00  0.47503059857E+04  0.47503059857E+04  0.00000000000E+00 0. -1.
         -2   -1    0    0    0  501 -0.00000000000E+00 -0.00000000000E+00 -0.17679978559E+03  0.17679978559E+03  0.00000000000E+00 0.  1.
        -24    2    1    2    0    0  0.64513108696E+03  0.22295641382E+03  0.15578392052E+04  0.17026697942E+04  0.79484319854E+02 0.  0.
        254    2    1    2    0    0 -0.64513108696E+03 -0.22295641382E+03  0.30156669950E+04  0.32244359771E+04  0.91478755139E+03 0.  0.
         23    2    4    4    0    0 -0.11717283909E+03  0.12892578502E+03  0.68889456809E+02  0.20874480684E+03  0.92072280637E+02 0.  0.
         23    2    4    4    0    0 -0.52795824787E+03 -0.35188219885E+03  0.29467775382E+04  0.30156911703E+04  0.91292834983E+02 0.  0.
          3    1    3    3  502    0  0.26644112839E+03  0.54728767715E+02  0.57743407720E+03  0.63829164684E+03  0.00000000000E+00 0. -1.
         -4    1    3    3    0  502  0.37868995856E+03  0.16822764611E+03  0.98040512795E+03  0.10643781473E+04  0.00000000000E+00 0.  1.
         11    1    5    5    0    0 -0.39911149386E+02  0.95066072587E+02  0.55438838174E+01  0.10325305153E+03  0.00000000000E+00 0. -1.
        -11    1    5    5    0    0 -0.77261689702E+02  0.33859712436E+02  0.63345572992E+02  0.10549175532E+03  0.00000000000E+00 0.  1.
          1    1    6    6  503    0 -0.45206189342E+03 -0.26239935005E+03  0.24682196835E+04  0.25229589336E+04  0.00000000000E+00 0. -1.
         -1    1    6    6    0  503 -0.75896354444E+02 -0.89482848792E+02  0.47855785465E+03  0.49273223671E+03  0.00000000000E+00 0.  1.
<mgrwt>
<rscale>  0 0.18328700E+04</rscale>
<asrwt>0</asrwt>
<pdfrwt beam="1">  1        1 0.73081621E+00 0.18328700E+04</pdfrwt>
<pdfrwt beam="2">  1       -2 0.27199971E-01 0.18328700E+04</pdfrwt>
<totfact> 0.17966389E-01</totfact>
</mgrwt>
</event>
<event>
12    4  0.4398275E-008  0.1488751E+04  0.7818608E-02  0.8891968E-01
          1   -1    0    0  501    0  0.00000000000E+00  0.00000000000E+00  0.13133285702E+04  0.13133285702E+04  0.00000000000E+00 0. -1.
         -2   -1    0    0    0  501 -0.00000000000E+00 -0.00000000000E+00 -0.42190130072E+03  0.42190130072E+03  0.00000000000E+00 0.  1.
        -24    2    1    2    0    0  0.17852850754E+03  0.25905545507E+03 -0.11735449190E+03  0.34467576752E+03  0.77763430596E+02 0.  0.
        254    2    1    2    0    0 -0.17852850754E+03 -0.25905545507E+03  0.10087817614E+04  0.13905541034E+04  0.90389043339E+03 0.  0.
         23    2    4    4    0    0 -0.38515978842E+03 -0.37026180838E+03  0.10014746311E+04  0.11385943699E+04  0.89464144697E+02 0.  0.
         23    2    4    4    0    0  0.20663128089E+03  0.11120635331E+03  0.73071302952E+01  0.25195973346E+03  0.91471164171E+02 0.  0.
          3    1    3    3  502    0  0.60789465573E+02  0.13863505949E+03 -0.83543837128E+02  0.17290058290E+03  0.00000000000E+00 0. -1.
         -4    1    3    3    0  502  0.11773904197E+03  0.12042039558E+03 -0.33810654777E+02  0.17177518462E+03  0.00000000000E+00 0.  1.
         11    1    5    5    0    0 -0.25073755710E+03 -0.29611042072E+03  0.73063886225E+03  0.82727495479E+03  0.00000000000E+00 0.  1.
        -11    1    5    5    0    0 -0.13442223132E+03 -0.74151387664E+02  0.27083576882E+03  0.31131941513E+03  0.00000000000E+00 0. -1.
          2    1    6    6  503    0  0.11965615851E+03  0.72512562847E+02 -0.40194634813E+02  0.14557223880E+03  0.00000000000E+00 0.  1.
         -2    1    6    6    0  503  0.86975122374E+02  0.38693790467E+02  0.47501765108E+02  0.10638749466E+03  0.00000000000E+00 0. -1.
<mgrwt>
<rscale>  0 0.14887512E+04</rscale>
<asrwt>0</asrwt>
<pdfrwt beam="1">  1        1 0.20205055E+00 0.14887512E+04</pdfrwt>
<pdfrwt beam="2">  1       -2 0.64907893E-01 0.14887512E+04</pdfrwt>
<totfact> 0.16458959E+01</totfact>
</mgrwt>
</event>
<event>
12    4  0.4398275E-008  0.2076159E+04  0.7818608E-02  0.8571819E-01
          1   -1    0    0  501    0  0.00000000000E+00  0.00000000000E+00  0.22162160561E+04  0.22162160561E+04  0.00000000000E+00 0. -1.
         -2   -1    0    0    0  501 -0.00000000000E+00 -0.00000000000E+00 -0.48623803210E+03  0.48623803210E+03  0.00000000000E+00 0.  1.
        -24    2    1    2    0    0  0.47113051060E+03  0.19788207667E+03  0.15733329667E+04  0.16561775761E+04  0.80163990235E+02 0.  0.
        254    2    1    2    0    0 -0.47113051060E+03 -0.19788207667E+03  0.15664505731E+03  0.10462765121E+04  0.89946405788E+03 0.  0.
         23    2    4    4    0    0  0.54943995549E+02 -0.38941035958E+03 -0.11163048717E+03  0.41900915174E+03  0.91913180669E+02 0.  0.
         23    2    4    4    0    0 -0.52607450615E+03  0.19152828290E+03  0.26827554448E+03  0.62726736032E+03  0.89750233345E+02 0.  0.
          3    1    3    3  502    0  0.23494873418E+03  0.77948651647E+02  0.87325044882E+03  0.90765811093E+03  0.00000000000E+00 0. -1.
         -4    1    3    3    0  502  0.23618177643E+03  0.11993342503E+03  0.70008251789E+03  0.74851946521E+03  0.00000000000E+00 0.  1.
         11    1    5    5    0    0  0.72612114188E+02 -0.18573311711E+03 -0.55561012150E+02  0.20701771902E+03  0.00000000000E+00 0. -1.
        -11    1    5    5    0    0 -0.17668118639E+02 -0.20367724247E+03 -0.56069475020E+02  0.21199143271E+03  0.00000000000E+00 0.  1.
          2    1    6    6  503    0 -0.51629934819E+03  0.19428001662E+03  0.24848699801E+03  0.60502523086E+03  0.00000000000E+00 0. -1.
         -2    1    6    6    0  503 -0.97751579595E+01 -0.27517337149E+01  0.19788546467E+02  0.22242129458E+02  0.00000000000E+00 0.  1.
<mgrwt>
<rscale>  0 0.20761585E+04</rscale>
<asrwt>0</asrwt>
<pdfrwt beam="1">  1        1 0.34095631E+00 0.20761585E+04</pdfrwt>
<pdfrwt beam="2">  1       -2 0.74805852E-01 0.20761585E+04</pdfrwt>
<totfact> 0.27612458E+00</totfact>
</mgrwt>
</event>
<event>
12    4  0.4398275E-008  0.1842979E+04  0.7818608E-02  0.8683772E-01
         -2   -1    0    0    0  501 -0.00000000000E+00  0.00000000000E+00  0.32579604159E+03  0.32579604159E+03  0.00000000000E+00 0.  1.
          1   -1    0    0  501    0  0.00000000000E+00 -0.00000000000E+00 -0.26063646808E+04  0.26063646808E+04  0.00000000000E+00 0. -1.
        -24    2    1    2    0    0 -0.23205220159E+03  0.42409788944E+02  0.17315382640E+03  0.30323953891E+03  0.79530848724E+02 0.  0.
        254    2    1    2    0    0  0.23205220159E+03 -0.42409788944E+02 -0.24537224656E+04  0.26289211835E+04  0.91368804101E+03 0.  0.
         23    2    4    4    0    0  0.24621096541E+03  0.19970874199E+03 -0.23083306671E+04  0.23316806888E+04  0.88549110048E+02 0.  0.
         23    2    4    4    0    0 -0.14158763818E+02 -0.24211853094E+03 -0.14539179857E+03  0.29724049471E+03  0.91603946357E+02 0.  0.
          3    1    3    3  502    0 -0.99955510385E+02  0.49773513894E+02  0.10960645186E+03  0.15646750791E+03  0.00000000000E+00 0. -1.
         -4    1    3    3    0  502 -0.13209669121E+03 -0.73637249501E+01  0.63547374541E+02  0.14677203100E+03  0.00000000000E+00 0.  1.
         11    1    5    5    0    0  0.29637346069E+02  0.15068857111E+00 -0.11915757946E+03  0.12278812537E+03  0.00000000000E+00 0. -1.
        -11    1    5    5    0    0  0.21657361934E+03  0.19955805342E+03 -0.21891730876E+04  0.22088925634E+04  0.00000000000E+00 0.  1.
          4    1    6    6  503    0  0.15648077955E+02 -0.22173095779E+03 -0.11630674680E+03  0.25087195806E+03  0.00000000000E+00 0.  1.
         -4    1    6    6    0  503 -0.29806841773E+02 -0.20387573147E+02 -0.29085051768E+02  0.46368536656E+02  0.00000000000E+00 0. -1.
<mgrwt>
<rscale>  0 0.18429794E+04</rscale>
<asrwt>0</asrwt>
<pdfrwt beam="1">  1        1 0.40097918E+00 0.18429794E+04</pdfrwt>
<pdfrwt beam="2">  1       -2 0.50122468E-01 0.18429794E+04</pdfrwt>
<totfact> 0.35554596E+00</totfact>
</mgrwt>
</event>
<event>
12    4  0.4398275E-008  0.1572642E+04  0.7818608E-02  0.8837533E-01
          1   -1    0    0  501    0  0.00000000000E+00  0.00000000000E+00  0.68655039021E+03  0.68655039021E+03  0.00000000000E+00 0. -1.
         -2   -1    0    0    0  501 -0.00000000000E+00 -0.00000000000E+00 -0.90059087944E+03  0.90059087944E+03  0.00000000000E+00 0.  1.
        -24    2    1    2    0    0  0.27518313616E+03  0.43380652832E+03 -0.18566792696E+03  0.55195476419E+03  0.79168302888E+02 0.  0.
        254    2    1    2    0    0 -0.27518313616E+03 -0.43380652832E+03 -0.28372562271E+02  0.10351865055E+04  0.89827180539E+03 0.  0.
         23    2    4    4    0    0  0.22154173685E+03  0.93730305906E+02  0.13050497304E+03  0.28867317556E+03  0.91839767480E+02 0.  0.
         23    2    4    4    0    0 -0.49672487300E+03 -0.52753683422E+03 -0.15887753531E+03  0.74651332990E+03  0.83721977785E+02 0.  0.
          1    1    3    3  502    0  0.11011689200E+03  0.11290196284E+03 -0.73958438853E+02  0.17419079710E+03  0.00000000000E+00 0. -1.
         -2    1    3    3    0  502  0.16506624416E+03  0.32090456547E+03 -0.11170948810E+03  0.37776396709E+03  0.00000000000E+00 0.  1.
         11    1    5    5    0    0  0.10996320433E+03  0.53351914861E+02  0.15105966601E+02  0.12315243949E+03  0.00000000000E+00 0. -1.
        -11    1    5    5    0    0  0.11157853251E+03  0.40378391045E+02  0.11539900644E+03  0.16552073607E+03  0.00000000000E+00 0.  1.
          2    1    6    6  503    0 -0.42140171666E+03 -0.42502179454E+03 -0.15909395799E+03  0.61930107388E+03  0.00000000000E+00 0.  1.
         -2    1    6    6    0  503 -0.75323156342E+02 -0.10251503968E+03  0.21642267307E+00  0.12721225602E+03  0.00000000000E+00 0. -1.
<mgrwt>
<rscale>  0 0.15726424E+04</rscale>
<asrwt>0</asrwt>
<pdfrwt beam="1">  1        1 0.10562314E+00 0.15726424E+04</pdfrwt>
<pdfrwt beam="2">  1       -2 0.13855244E+00 0.15726424E+04</pdfrwt>
<totfact> 0.87134038E+00</totfact>
</mgrwt>
</event>
<event>
12    4  0.4398275E-008  0.2318345E+04  0.7818608E-02  0.8470723E-01
          1   -1    0    0  501    0  0.00000000000E+00  0.00000000000E+00  0.29156394435E+04  0.29156394435E+04  0.00000000000E+00 0. -1.
         -2   -1    0    0    0  501 -0.00000000000E+00 -0.00000000000E+00 -0.46085304972E+03  0.46085304972E+03  0.00000000000E+00 0.  1.
        -24    2    1    2    0    0 -0.11259244975E+03  0.19416070203E+03  0.24441796243E+04  0.24557451920E+04  0.79340872215E+02 0.  0.
        254    2    1    2    0    0  0.11259244975E+03 -0.19416070203E+03  0.10606769475E+02  0.92074730126E+03  0.89290965459E+03 0.  0.
         23    2    4    4    0    0  0.46212115216E+03 -0.27124830934E+03 -0.52573259009E+02  0.54579936326E+03  0.89450504654E+02 0.  0.
         23    2    4    4    0    0 -0.34952870241E+03  0.77087607312E+02  0.63180028483E+02  0.37494793799E+03  0.92094664318E+02 0.  0.
          3    1    3    3  502    0 -0.95575863592E+02  0.88575336240E+02  0.12415782321E+04  0.12483977100E+04  0.00000000000E+00 0. -1.
         -4    1    3    3    0  502 -0.17016586156E+02  0.10558536579E+03  0.12026013922E+04  0.12073474820E+04  0.00000000000E+00 0.  1.
         11    1    5    5    0    0  0.20203150085E+03 -0.16620281548E+03 -0.43104807511E+02  0.26513794078E+03  0.00000000000E+00 0. -1.
        -11    1    5    5    0    0  0.26008965131E+03 -0.10504549387E+03 -0.94684514979E+01  0.28066142249E+03  0.00000000000E+00 0.  1.
          3    1    6    6  503    0 -0.54298467778E+02  0.41447956933E+02  0.33542780721E+02  0.76101083274E+02  0.00000000000E+00 0. -1.
         -3    1    6    6    0  503 -0.29523023463E+03  0.35639650378E+02  0.29637247763E+02  0.29884685472E+03  0.00000000000E+00 0.  1.
<mgrwt>
<rscale>  0 0.23183454E+04</rscale>
<asrwt>0</asrwt>
<pdfrwt beam="1">  1        1 0.44855990E+00 0.23183454E+04</pdfrwt>
<pdfrwt beam="2">  1       -2 0.70900471E-01 0.23183454E+04</pdfrwt>
<totfact> 0.98737992E-01</totfact>
</mgrwt>
</event>
<event>
12    4  0.4398275E-008  0.1218008E+04  0.7818608E-02  0.9097239E-01
         -2   -1    0    0    0  501 -0.00000000000E+00  0.00000000000E+00  0.15174447566E+03  0.15174447566E+03  0.00000000000E+00 0.  1.
          1   -1    0    0  501    0  0.00000000000E+00 -0.00000000000E+00 -0.24441466791E+04  0.24441466791E+04  0.00000000000E+00 0. -1.
        -24    2    1    2    0    0  0.68524333954E+02  0.97918277711E+02 -0.11649196022E+04  0.11736912905E+04  0.78930299903E+02 0.  0.
        254    2    1    2    0    0 -0.68524333954E+02 -0.97918277711E+02 -0.11274826013E+04  0.14221998643E+04  0.85857548560E+03 0.  0.
         23    2    4    4    0    0  0.12099691309E+03  0.28426176555E+03 -0.84050919549E+03  0.89997902889E+03  0.89786081339E+02 0.  0.
         23    2    4    4    0    0 -0.18952124705E+03 -0.38218004327E+03 -0.28697340577E+03  0.52222083543E+03  0.91547674937E+02 0.  0.
          3    1    3    3  502    0  0.10432861853E+02  0.79705365711E+02 -0.56482950658E+03  0.57052095617E+03  0.00000000000E+00 0. -1.
         -4    1    3    3    0  502  0.58091472100E+02  0.18212912001E+02 -0.60009009565E+03  0.60317033431E+03  0.00000000000E+00 0.  1.
         11    1    5    5    0    0  0.67752204626E+02  0.18096822801E+03 -0.63658633347E+03  0.66526838249E+03  0.00000000000E+00 0. -1.
        -11    1    5    5    0    0  0.53244708465E+02  0.10329353755E+03 -0.20392286202E+03  0.23471064640E+03  0.00000000000E+00 0.  1.
          4    1    6    6  503    0 -0.17648341294E+03 -0.37849937194E+03 -0.25974546989E+03  0.49180878269E+03  0.00000000000E+00 0. -1.
         -4    1    6    6    0  503 -0.13037834106E+02 -0.36806713206E+01 -0.27227935875E+02  0.30412052735E+02  0.00000000000E+00 0.  1.
<mgrwt>
<rscale>  0 0.12180078E+04</rscale>
<asrwt>0</asrwt>
<pdfrwt beam="1">  1        1 0.37602257E+00 0.12180078E+04</pdfrwt>
<pdfrwt beam="2">  1       -2 0.23345303E-01 0.12180078E+04</pdfrwt>
<totfact> 0.20979594E+01</totfact>
</mgrwt>
</event>
<event>
12    4  0.4398275E-008  0.1729884E+04  0.7818608E-02  0.8744502E-01
         -2   -1    0    0    0  501 -0.00000000000E+00  0.00000000000E+00  0.50210732300E+03  0.50210732300E+03  0.00000000000E+00 0.  1.
          1   -1    0    0  501    0  0.00000000000E+00 -0.00000000000E+00 -0.14899696541E+04  0.14899696541E+04  0.00000000000E+00 0. -1.
        -24    2    1    2    0    0  0.11772780425E+03 -0.38228570510E+03 -0.91781375622E+03  0.10049861790E+04  0.87252121744E+02 0.  0.
        254    2    1    2    0    0 -0.11772780425E+03  0.38228570510E+03 -0.70048574903E+02  0.98709079809E+03  0.89968841529E+03 0.  0.
         23    2    4    4    0    0  0.16881922343E+03 -0.90214922471E+02  0.26118383090E+03  0.33615768364E+03  0.90257034701E+02 0.  0.
         23    2    4    4    0    0 -0.28654702767E+03  0.47250062757E+03 -0.33123240580E+03  0.65093311445E+03  0.92913781060E+02 0.  0.
          1    1    3    3  502    0  0.12300650599E+03 -0.38432261247E+03 -0.90073096806E+03  0.98699075365E+03  0.00000000000E+00 0. -1.
         -2    1    3    3    0  502 -0.52787017448E+01  0.20369073715E+01 -0.17082788159E+02  0.17995425392E+02  0.00000000000E+00 0.  1.
         11    1    5    5    0    0  0.13416495248E+03 -0.80969601516E+02  0.25566655036E+03  0.29986946463E+03  0.00000000000E+00 0. -1.
        -11    1    5    5    0    0  0.34654270943E+02 -0.92453209555E+01  0.55172805336E+01  0.36288219007E+02  0.00000000000E+00 0.  1.
          1    1    6    6  503    0 -0.25388150731E+03  0.42586359616E+03 -0.26030051818E+03  0.55997498341E+03  0.00000000000E+00 0. -1.
         -1    1    6    6    0  503 -0.32665520364E+02  0.46637031412E+02 -0.70931887622E+02  0.90958131034E+02  0.00000000000E+00 0.  1.
<mgrwt>
<rscale>  0 0.17298840E+04</rscale>
<asrwt>0</asrwt>
<pdfrwt beam="1">  1        1 0.22922610E+00 0.17298840E+04</pdfrwt>
<pdfrwt beam="2">  1       -2 0.77247282E-01 0.17298840E+04</pdfrwt>
<totfact> 0.82790534E+00</totfact>
</mgrwt>
</event>
<event>
12    4  0.4398275E-008  0.2523981E+04  0.7818608E-02  0.8394492E-01
          1   -1    0    0  501    0  0.00000000000E+00  0.00000000000E+00  0.21556047371E+04  0.21556047371E+04  0.00000000000E+00 0. -1.
         -2   -1    0    0    0  501 -0.00000000000E+00 -0.00000000000E+00 -0.73882736330E+03  0.73882736330E+03  0.00000000000E+00 0.  1.
        -24    2    1    2    0    0  0.63755060962E+03 -0.45270640506E+03 -0.27176692052E+03  0.83173390998E+03  0.80685617819E+02 0.  0.
        254    2    1    2    0    0 -0.63755060962E+03  0.45270640506E+03  0.16885442943E+04  0.20626981904E+04  0.89001579866E+03 0.  0.
         23    2    4    4    0    0 -0.56410741921E+03  0.52096707752E+03  0.63562432587E+03  0.10011658180E+04  0.93224649325E+02 0.  0.
         23    2    4    4    0    0 -0.73443190412E+02 -0.68260672465E+02  0.10529199685E+04  0.10615323724E+04  0.90316643459E+02 0.  0.
          1    1    3    3  502    0  0.18621480831E+03 -0.17555114655E+03 -0.10281289082E+03  0.27579820595E+03  0.00000000000E+00 0. -1.
         -2    1    3    3    0  502  0.45133580131E+03 -0.27715525850E+03 -0.16895402970E+03  0.55593570403E+03  0.00000000000E+00 0.  1.
         11    1    5    5    0    0 -0.27409547675E+03  0.19220851111E+03  0.26050517565E+03  0.42418791668E+03  0.00000000000E+00 0.  1.
        -11    1    5    5    0    0 -0.29001194246E+03  0.32875856641E+03  0.37511915022E+03  0.57697790133E+03  0.00000000000E+00 0. -1.
          1    1    6    6  503    0 -0.30876598799E+02  0.19414027163E+02  0.23243884331E+03  0.23528298851E+03  0.00000000000E+00 0. -1.
         -1    1    6    6    0  503 -0.42566591613E+02 -0.87674699628E+02  0.82048112516E+03  0.82624938391E+03  0.00000000000E+00 0.  1.
<mgrwt>
<rscale>  0 0.25239808E+04</rscale>
<asrwt>0</asrwt>
<pdfrwt beam="1">  1        1 0.33163149E+00 0.25239808E+04</pdfrwt>
<pdfrwt beam="2">  1       -2 0.11366575E+00 0.25239808E+04</pdfrwt>
<totfact> 0.11041042E+00</totfact>
</mgrwt>
</event>
<event>
12    4  0.4398275E-008  0.1560180E+04  0.7818608E-02  0.8845392E-01
          1   -1    0    0  501    0  0.00000000000E+00  0.00000000000E+00  0.25827376342E+04  0.25827376342E+04  0.00000000000E+00 0. -1.
         -2   -1    0    0    0  501 -0.00000000000E+00 -0.00000000000E+00 -0.23561821378E+03  0.23561821378E+03  0.00000000000E+00 0.  1.
        -24    2    1    2    0    0  0.34092685213E+03  0.46377845027E+02  0.14720313973E+04  0.15138701901E+04  0.80898051656E+02 0.  0.
        254    2    1    2    0    0 -0.34092685213E+03 -0.46377845027E+02  0.87508802312E+03  0.13044856579E+04  0.90416909948E+03 0.  0.
         23    2    4    4    0    0 -0.10392332959E+03 -0.43114296071E+03  0.22042178227E+03  0.50363651502E+03  0.91540516503E+02 0.  0.
         23    2    4    4    0    0 -0.23700352254E+03  0.38476511568E+03  0.65466624085E+03  0.80084914288E+03  0.92501885391E+02 0.  0.
          1    1    3    3  502    0  0.30254682299E+03  0.66707356935E+02  0.12734967456E+04  0.13106404590E+04  0.00000000000E+00 0. -1.
         -2    1    3    3    0  502  0.38380029135E+02 -0.20329511907E+02  0.19853465169E+03  0.20322973112E+03  0.00000000000E+00 0.  1.
         11    1    5    5    0    0 -0.42566648724E+02 -0.26546900602E+03  0.88167524817E+02  0.28294738941E+03  0.00000000000E+00 0.  1.
        -11    1    5    5    0    0 -0.61356680864E+02 -0.16567395468E+03  0.13225425745E+03  0.22068912561E+03  0.00000000000E+00 0. -1.
          1    1    6    6  503    0 -0.11079538399E+03  0.23644192750E+03  0.31338462355E+03  0.40790970137E+03  0.00000000000E+00 0. -1.
         -1    1    6    6    0  503 -0.12620813855E+03  0.14832318818E+03  0.34128161730E+03  0.39293944151E+03  0.00000000000E+00 0.  1.
<mgrwt>
<rscale>  0 0.15601795E+04</rscale>
<asrwt>0</asrwt>
<pdfrwt beam="1">  1        1 0.39734423E+00 0.15601795E+04</pdfrwt>
<pdfrwt beam="2">  1       -2 0.36248958E-01 0.15601795E+04</pdfrwt>
<totfact> 0.72014604E+00</totfact>
</mgrwt>
</event>
<event>
12    4  0.4398275E-008  0.2215190E+04  0.7818608E-02  0.8512132E-01
         -2   -1    0    0    0  501 -0.00000000000E+00  0.00000000000E+00  0.93315335948E+03  0.93315335948E+03  0.00000000000E+00 0.  1.
          1   -1    0    0  501    0  0.00000000000E+00 -0.00000000000E+00 -0.13146461666E+04  0.13146461666E+04  0.00000000000E+00 0. -1.
        -24    2    1    2    0    0  0.19727931480E+03 -0.88487145751E+03 -0.31135609480E+03  0.96215507479E+03  0.82964726229E+02 0.  0.
        254    2    1    2    0    0 -0.19727931480E+03  0.88487145751E+03 -0.70136712346E+02  0.12856444513E+04  0.90887065769E+03 0.  0.
         23    2    4    4    0    0  0.50152270911E+02 -0.33993215675E+02 -0.28581793397E+03  0.30552261674E+03  0.89338619693E+02 0.  0.
         23    2    4    4    0    0 -0.24743158571E+03  0.91886467319E+03  0.21568122163E+03  0.98012183458E+03  0.92659289934E+02 0.  0.
          1    1    3    3  502    0  0.10274965342E+03 -0.47454293328E+03 -0.21027383958E+03  0.52911584215E+03  0.00000000000E+00 0. -1.
         -2    1    3    3    0  502  0.94529661379E+02 -0.41032852424E+03 -0.10108225522E+03  0.43303923264E+03  0.00000000000E+00 0.  1.
         11    1    5    5    0    0  0.12629985489E+01  0.16839077044E+02 -0.76235507453E+01  0.18527498671E+02  0.00000000000E+00 0. -1.
        -11    1    5    5    0    0  0.48889272362E+02 -0.50832292719E+02 -0.27819438323E+03  0.28699511807E+03  0.00000000000E+00 0.  1.
          2    1    6    6  503    0 -0.13498700651E+03  0.65791566260E+03  0.16331790247E+03  0.69119262749E+03  0.00000000000E+00 0.  1.
         -2    1    6    6    0  503 -0.11244457920E+03  0.26094901059E+03  0.52363319154E+02  0.28892920709E+03  0.00000000000E+00 0. -1.
<mgrwt>
<rscale>  0 0.22151898E+04</rscale>
<asrwt>0</asrwt>
<pdfrwt beam="1">  1        1 0.20225326E+00 0.22151898E+04</pdfrwt>
<pdfrwt beam="2">  1       -2 0.14356206E+00 0.22151898E+04</pdfrwt>
<totfact> 0.23732888E+00</totfact>
</mgrwt>
</event>
<event>
12    4  0.4398275E-008  0.1399064E+04  0.7818608E-02  0.8954496E-01
          1   -1    0    0  501    0  0.00000000000E+00  0.00000000000E+00  0.30354610608E+04  0.30354610608E+04  0.00000000000E+00 0. -1.
         -2   -1    0    0    0  501 -0.00000000000E+00 -0.00000000000E+00 -0.16120944293E+03  0.16120944293E+03  0.00000000000E+00 0.  1.
        -24    2    1    2    0    0  0.18970704799E+03 -0.74956431330E+02  0.47890154734E+02  0.22470094650E+03  0.81177692652E+02 0.  0.
        254    2    1    2    0    0 -0.18970704799E+03  0.74956431330E+02  0.28263614632E+04  0.29719695573E+04  0.89592226123E+03 0.  0.
         23    2    4    4    0    0 -0.52335237008E+03  0.14880169928E+03  0.14642377264E+04  0.15647243149E+04  0.91271098557E+02 0.  0.
         23    2    4    4    0    0  0.33364532209E+03 -0.73845267952E+02  0.13621237368E+04  0.14072452423E+04  0.90475262715E+02 0.  0.
          1    1    3    3  502    0  0.33173288232E+01  0.10180086590E+02  0.12995376302E+02  0.16838011721E+02  0.00000000000E+00 0. -1.
         -2    1    3    3    0  502  0.18638971917E+03 -0.85136517920E+02  0.34894778433E+02  0.20786293478E+03  0.00000000000E+00 0.  1.
         11    1    5    5    0    0 -0.25331769276E+03  0.11719014099E+03  0.78129639445E+03  0.82965501179E+03  0.00000000000E+00 0.  1.
        -11    1    5    5    0    0 -0.27003467732E+03  0.31611558296E+02  0.68294133191E+03  0.73506930313E+03  0.00000000000E+00 0. -1.
          3    1    6    6  503    0  0.94964012152E+02 -0.20462265659E+02  0.57012889678E+03  0.57834576757E+03  0.00000000000E+00 0. -1.
         -3    1    6    6    0  503  0.23868130994E+03 -0.53383002293E+02  0.79199484002E+03  0.82889947477E+03  0.00000000000E+00 0.  1.
<mgrwt>
<rscale>  0 0.13990640E+04</rscale>
<asrwt>0</asrwt>
<pdfrwt beam="1">  1        1 0.46699397E+00 0.13990640E+04</pdfrwt>
<pdfrwt beam="2">  1       -2 0.24801455E-01 0.13990640E+04</pdfrwt>
<totfact> 0.70762106E+00</totfact>
</mgrwt>
</event>
<event>
12    4  0.4398275E-008  0.1728644E+04  0.7818608E-02  0.8745194E-01
          1   -1    0    0  501    0  0.00000000000E+00  0.00000000000E+00  0.57823554558E+03  0.57823554558E+03  0.00000000000E+00 0. -1.
         -2   -1    0    0    0  501 -0.00000000000E+00 -0.00000000000E+00 -0.12919526103E+04  0.12919526103E+04  0.00000000000E+00 0.  1.
        -24    2    1    2    0    0  0.47615619640E+03  0.40138430624E+03 -0.16677573379E+03  0.64946035736E+03  0.78425287626E+02 0.  0.
        254    2    1    2    0    0 -0.47615619640E+03 -0.40138430624E+03 -0.54694133094E+03  0.12207277985E+04  0.89621283965E+03 0.  0.
         23    2    4    4    0    0 -0.22643157589E+03  0.27237556188E+03 -0.14719843952E+03  0.39368662506E+03  0.88668330766E+02 0.  0.
         23    2    4    4    0    0 -0.24972462050E+03 -0.67375986812E+03 -0.39974289142E+03  0.82704117348E+03  0.88814286062E+02 0.  0.
          3    1    3    3  502    0  0.15076580492E+03  0.15172496991E+03 -0.24230447542E+02  0.21526241896E+03  0.00000000000E+00 0. -1.
         -4    1    3    3    0  502  0.32539039148E+03  0.24965933633E+03 -0.14254528625E+03  0.43419793840E+03  0.00000000000E+00 0.  1.
         11    1    5    5    0    0 -0.42716797218E+02  0.91252385951E+02 -0.93674131769E+01  0.10119027194E+03  0.00000000000E+00 0.  1.
        -11    1    5    5    0    0 -0.18371477868E+03  0.18112317593E+03 -0.13783102634E+03  0.29249635311E+03  0.00000000000E+00 0. -1.
          4    1    6    6  503    0 -0.12747464359E+03 -0.46351592343E+03 -0.25925944668E+03  0.54617969270E+03  0.00000000000E+00 0. -1.
         -4    1    6    6    0  503 -0.12224997692E+03 -0.21024394469E+03 -0.14048344474E+03  0.28086148077E+03  0.00000000000E+00 0.  1.
<mgrwt>
<rscale>  0 0.17286445E+04</rscale>
<asrwt>0</asrwt>
<pdfrwt beam="1">  1        1 0.88959316E-01 0.17286445E+04</pdfrwt>
<pdfrwt beam="2">  1       -2 0.19876194E+00 0.17286445E+04</pdfrwt>
<totfact> 0.40638686E+00</totfact>
</mgrwt>
</event>
<event>
12    4  0.4398275E-008  0.1734763E+04  0.7818608E-02  0.8741782E-01
         -2   -1    0    0    0  501 -0.00000000000E+00  0.00000000000E+00  0.15865074958E+04  0.15865074958E+04  0.00000000000E+00 0.  1.
          1   -1    0    0  501    0  0.00000000000E+00 -0.00000000000E+00 -0.47421832297E+03  0.47421832297E+03  0.00000000000E+00 0. -1.
        -24    2    1    2    0    0  0.21883546324E+03 -0.52387874393E+03  0.71240278239E+03  0.91444847819E+03  0.79752094676E+02 0.  0.
        254    2    1    2    0    0 -0.21883546324E+03  0.52387874393E+03  0.39988639044E+03  0.11462773406E+04  0.91197846352E+03 0.  0.
         23    2    4    4    0    0 -0.11115484230E+03 -0.24484193911E+03  0.45357236691E+02  0.28793132126E+03  0.92434802600E+02 0.  0.
         23    2    4    4    0    0 -0.10768062094E+03  0.76872068304E+03  0.35452915375E+03  0.85834601930E+03  0.92414086287E+02 0.  0.
          1    1    3    3  502    0  0.40945575558E+02 -0.18475127794E+03  0.26316030480E+03  0.32413410941E+03  0.00000000000E+00 0. -1.
         -2    1    3    3    0  502  0.17788988768E+03 -0.33912746599E+03  0.44924247759E+03  0.59031436878E+03  0.00000000000E+00 0.  1.
         11    1    5    5    0    0 -0.12489257717E+03 -0.22743170285E+03  0.52313254720E+02  0.26468851866E+03  0.00000000000E+00 0. -1.
        -11    1    5    5    0    0  0.13737734869E+02 -0.17410236261E+02 -0.69560180289E+01  0.23242802603E+02  0.00000000000E+00 0.  1.
          3    1    6    6  503    0 -0.74150858477E+02  0.70414488526E+03  0.30910914017E+03  0.77257156937E+03  0.00000000000E+00 0. -1.
         -3    1    6    6    0  503 -0.33529762466E+02  0.64575797771E+02  0.45420013571E+02  0.85774449935E+02  0.00000000000E+00 0.  1.
<mgrwt>
<rscale>  0 0.17347633E+04</rscale>
<asrwt>0</asrwt>
<pdfrwt beam="1">  1        1 0.72956666E-01 0.17347633E+04</pdfrwt>
<pdfrwt beam="2">  1       -2 0.24407807E+00 0.17347633E+04</pdfrwt>
<totfact> 0.27655544E+00</totfact>
</mgrwt>
</event>
<event>
12    4  0.4398275E-008  0.2576136E+04  0.7818608E-02  0.8376353E-01
         -2   -1    0    0    0  501 -0.00000000000E+00  0.00000000000E+00  0.16682899628E+04  0.16682899628E+04  0.00000000000E+00 0.  1.
          1   -1    0    0  501    0  0.00000000000E+00 -0.00000000000E+00 -0.99450321910E+03  0.99450321910E+03  0.00000000000E+00 0. -1.
        -24    2    1    2    0    0  0.14955739734E+03 -0.35063817206E+03  0.14031319657E+04  0.14561400501E+04  0.79056876590E+02 0.  0.
        254    2    1    2    0    0 -0.14955739734E+03  0.35063817206E+03 -0.72934522201E+03  0.12066531317E+04  0.88246970750E+03 0.  0.
         23    2    4    4    0    0 -0.66181554048E+02 -0.22122885065E+03  0.27906080639E+02  0.24985177653E+03  0.91241210223E+02 0.  0.
         23    2    4    4    0    0 -0.83375843289E+02  0.57186702271E+03 -0.75725130264E+03  0.95680135520E+03  0.89754526602E+02 0.  0.
          1    1    3    3  502    0  0.22210495543E+02 -0.79203758018E+01  0.76771549537E+02  0.80311327243E+02  0.00000000000E+00 0. -1.
         -2    1    3    3    0  502  0.12734690179E+03 -0.34271779626E+03  0.13263604161E+04  0.13758287229E+04  0.00000000000E+00 0.  1.
         11    1    5    5    0    0 -0.48376485749E+02 -0.31543953648E+02  0.77510464630E+01  0.58269924545E+02  0.00000000000E+00 0.  1.
        -11    1    5    5    0    0 -0.17805068299E+02 -0.18968489700E+03  0.20155034176E+02  0.19158185199E+03  0.00000000000E+00 0. -1.
          3    1    6    6  503    0 -0.10104285110E+03  0.50782477935E+03 -0.65642559177E+03  0.83605635086E+03  0.00000000000E+00 0. -1.
         -3    1    6    6    0  503  0.17667007812E+02  0.64042243357E+02 -0.10082571088E+03  0.12074500434E+03  0.00000000000E+00 0.  1.
<mgrwt>
<rscale>  0 0.25761364E+04</rscale>
<asrwt>0</asrwt>
<pdfrwt beam="1">  1        1 0.15300050E+00 0.25761364E+04</pdfrwt>
<pdfrwt beam="2">  1       -2 0.25665999E+00 0.25761364E+04</pdfrwt>
<totfact> 0.69184035E-01</totfact>
</mgrwt>
</event>
<event>
12    4  0.4398275E-008  0.3421277E+04  0.7818608E-02  0.8132704E-01
         -4   -1    0    0    0  501 -0.00000000000E+00  0.00000000000E+00  0.14333261043E+04  0.14333261043E+04  0.00000000000E+00 0.  1.
          3   -1    0    0  501    0  0.00000000000E+00 -0.00000000000E+00 -0.20416043466E+04  0.20416043466E+04  0.00000000000E+00 0. -1.
        -24    2    1    2    0    0  0.92066334781E+03 -0.11332016639E+04  0.35944531670E+03  0.15057668043E+04  0.79785475878E+02 0.  0.
        254    2    1    2    0    0 -0.92066334781E+03  0.11332016639E+04 -0.96772355905E+03  0.19691636466E+04  0.89963857697E+03 0.  0.
         23    2    4    4    0    0  0.11266679081E+03  0.82638433155E+02  0.53133619524E+02  0.17426995682E+03  0.89576335841E+02 0.  0.
         23    2    4    4    0    0 -0.10333301386E+04  0.10505632308E+04 -0.10208571786E+04  0.17948936898E+04  0.89664381318E+02 0.  0.
          3    1    3    3  502    0  0.51214745453E+03 -0.63948671922E+03  0.16128556517E+03  0.83501575600E+03  0.00000000000E+00 0. -1.
         -4    1    3    3    0  502  0.40851589328E+03 -0.49371494470E+03  0.19815975153E+03  0.67075104831E+03  0.00000000000E+00 0.  1.
         11    1    5    5    0    0 -0.65476135300E+01  0.70252788722E+01 -0.14769112154E+02  0.17616823209E+02  0.00000000000E+00 0. -1.
        -11    1    5    5    0    0  0.11921440434E+03  0.75613154283E+02  0.67902731678E+02  0.15665313361E+03  0.00000000000E+00 0.  1.
          4    1    6    6  503    0 -0.53813119809E+02  0.81290616925E+02 -0.82639233348E+02  0.12780163986E+03  0.00000000000E+00 0. -1.
         -4    1    6    6    0  503 -0.97951701881E+03  0.96927261384E+03 -0.93821794523E+03  0.16670920499E+04  0.00000000000E+00 0.  1.
<mgrwt>
<rscale>  0 0.34212774E+04</rscale>
<asrwt>0</asrwt>
<pdfrwt beam="1">  1        3 0.31409298E+00 0.34212774E+04</pdfrwt>
<pdfrwt beam="2">  1       -4 0.22051171E+00 0.34212774E+04</pdfrwt>
<totfact> 0.58660793E-03</totfact>
</mgrwt>
</event>
<event>
12    4  0.4398275E-008  0.1863478E+04  0.7818608E-02  0.8673252E-01
         -2   -1    0    0    0  501 -0.00000000000E+00  0.00000000000E+00  0.12675654809E+04  0.12675654809E+04  0.00000000000E+00 0.  1.
          1   -1    0    0  501    0  0.00000000000E+00 -0.00000000000E+00 -0.68488576537E+03  0.68488576537E+03  0.00000000000E+00 0. -1.
        -24    2    1    2    0    0 -0.36722707863E+03  0.33094961009E+03 -0.31344644877E+03  0.59083823975E+03  0.80360298711E+02 0.  0.
        254    2    1    2    0    0  0.36722707863E+03 -0.33094961009E+03  0.89612616435E+03  0.13616130066E+04  0.89808936388E+03 0.  0.
         23    2    4    4    0    0  0.62551425172E+03 -0.37718761072E+03  0.73612938751E+03  0.10410797504E+04  0.91771447906E+02 0.  0.
         23    2    4    4    0    0 -0.25828717309E+03  0.46238000627E+02  0.15999677684E+03  0.32053325621E+03  0.91062523871E+02 0.  0.
          3    1    3    3  502    0 -0.32431510353E+03  0.30613239400E+03 -0.25328414389E+03  0.51288418438E+03  0.00000000000E+00 0. -1.
         -4    1    3    3    0  502 -0.42911975097E+02  0.24817216091E+02 -0.60162304883E+02  0.77954055379E+02  0.00000000000E+00 0.  1.
         11    1    5    5    0    0  0.77531809548E+02 -0.48195558397E+02  0.13959148703E+03  0.16679261552E+03  0.00000000000E+00 0.  1.
        -11    1    5    5    0    0  0.54798244217E+03 -0.32899205232E+03  0.59653790047E+03  0.87428713483E+03  0.00000000000E+00 0. -1.
          4    1    6    6  503    0 -0.32795960080E+02 -0.14600713553E+01  0.61856220271E+02  0.70027842978E+02  0.00000000000E+00 0. -1.
         -4    1    6    6    0  503 -0.22549121301E+03  0.47698071982E+02  0.98140556567E+02  0.25050541323E+03  0.00000000000E+00 0.  1.
<mgrwt>
<rscale>  0 0.18634780E+04</rscale>
<asrwt>0</asrwt>
<pdfrwt beam="1">  1        1 0.10536704E+00 0.18634780E+04</pdfrwt>
<pdfrwt beam="2">  1       -2 0.19501007E+00 0.18634780E+04</pdfrwt>
<totfact> 0.33191577E+00</totfact>
</mgrwt>
</event>
<event>
12    4  0.4398275E-008  0.2467245E+04  0.7818608E-02  0.8414749E-01
         -2   -1    0    0    0  501 -0.00000000000E+00  0.00000000000E+00  0.61749195173E+03  0.61749195173E+03  0.00000000000E+00 0.  1.
          1   -1    0    0  501    0  0.00000000000E+00 -0.00000000000E+00 -0.24645242716E+04  0.24645242716E+04  0.00000000000E+00 0. -1.
        -24    2    1    2    0    0  0.85776138392E+02  0.49377414299E+02  0.52733891339E+03  0.54276165500E+03  0.81903660518E+02 0.  0.
        254    2    1    2    0    0 -0.85776138392E+02 -0.49377414299E+02 -0.23743712333E+04  0.25392545683E+04  0.89463922031E+03 0.  0.
         23    2    4    4    0    0  0.17310959924E+03 -0.40014291693E+03 -0.10090927336E+04  0.11031664526E+04  0.92880513650E+02 0.  0.
         23    2    4    4    0    0 -0.25888573763E+03  0.35076550263E+03 -0.13652784997E+04  0.14360881158E+04  0.91134140319E+02 0.  0.
          1    1    3    3  502    0  0.24693037992E+02 -0.20222791834E+02  0.84106672611E+02  0.89959100777E+02  0.00000000000E+00 0. -1.
         -2    1    3    3    0  502  0.61083100399E+02  0.69600206133E+02  0.44323224078E+03  0.45280255422E+03  0.00000000000E+00 0.  1.
         11    1    5    5    0    0  0.10359438452E+03 -0.12692409121E+03 -0.37435350066E+03  0.40863439024E+03  0.00000000000E+00 0.  1.
        -11    1    5    5    0    0  0.69515214724E+02 -0.27321882573E+03 -0.63473923292E+03  0.69453206234E+03  0.00000000000E+00 0. -1.
          1    1    6    6  503    0 -0.18933923299E+03  0.30075621740E+03 -0.10125793356E+04  0.10731358527E+04  0.00000000000E+00 0. -1.
         -1    1    6    6    0  503 -0.69546504645E+02  0.50009285234E+02 -0.35269916404E+03  0.36295226302E+03  0.00000000000E+00 0.  1.
<mgrwt>
<rscale>  0 0.24672445E+04</rscale>
<asrwt>0</asrwt>
<pdfrwt beam="1">  1        1 0.37915758E+00 0.24672445E+04</pdfrwt>
<pdfrwt beam="2">  1       -2 0.94998762E-01 0.24672445E+04</pdfrwt>
<totfact> 0.10463345E+00</totfact>
</mgrwt>
</event>
<event>
12    4  0.4398275E-008  0.1614825E+04  0.7818608E-02  0.8811492E-01
         -4   -1    0    0    0  501 -0.00000000000E+00  0.00000000000E+00  0.79759275422E+03  0.79759275422E+03  0.00000000000E+00 0.  1.
          3   -1    0    0  501    0  0.00000000000E+00 -0.00000000000E+00 -0.81735344731E+03  0.81735344731E+03  0.00000000000E+00 0. -1.
        -24    2    1    2    0    0  0.32198284215E+03  0.31088016119E+03 -0.23022106887E+03  0.51014048634E+03  0.83199459102E+02 0.  0.
        254    2    1    2    0    0 -0.32198284215E+03 -0.31088016119E+03  0.21046037578E+03  0.11048057152E+04  0.98791835356E+03 0.  0.
         23    2    4    4    0    0  0.27556548816E+03 -0.37384005730E+03  0.14035403830E+03  0.49331013820E+03  0.89235137024E+02 0.  0.
         23    2    4    4    0    0 -0.59754833030E+03  0.62959896112E+02  0.70106337479E+02  0.61149557700E+03  0.89353156439E+02 0.  0.
          3    1    3    3  502    0  0.17263152804E+03  0.11858384183E+03 -0.13218505662E+03  0.24766239361E+03  0.00000000000E+00 0. -1.
         -4    1    3    3    0  502  0.14935131410E+03  0.19229631936E+03 -0.98036012252E+02  0.26247809273E+03  0.00000000000E+00 0.  1.
         11    1    5    5    0    0  0.17050834057E+03 -0.20792284252E+03  0.37113618517E+02  0.27144506502E+03  0.00000000000E+00 0. -1.
        -11    1    5    5    0    0  0.10505714759E+03 -0.16591721477E+03  0.10324041979E+03  0.22186507318E+03  0.00000000000E+00 0.  1.
          2    1    6    6  503    0 -0.20124166568E+02  0.20059808078E+02  0.19261413686E+01  0.28479606753E+02  0.00000000000E+00 0. -1.
         -2    1    6    6    0  503 -0.57742416373E+03  0.42900088034E+02  0.68180196111E+02  0.58301597024E+03  0.00000000000E+00 0.  1.
<mgrwt>
<rscale>  0 0.16148253E+04</rscale>
<asrwt>0</asrwt>
<pdfrwt beam="1">  1        3 0.12574669E+00 0.16148253E+04</pdfrwt>
<pdfrwt beam="2">  1       -4 0.12270658E+00 0.16148253E+04</pdfrwt>
<totfact> 0.55448600E-01</totfact>
</mgrwt>
</event>
<event>
12    4  0.4398275E-008  0.2143773E+04  0.7818608E-02  0.8542202E-01
          3   -1    0    0  501    0  0.00000000000E+00  0.00000000000E+00  0.77457682353E+03  0.77457682353E+03  0.00000000000E+00 0. -1.
         -4   -1    0    0    0  501 -0.00000000000E+00 -0.00000000000E+00 -0.14833142387E+04  0.14833142387E+04  0.00000000000E+00 0.  1.
        -24    2    1    2    0    0 -0.27165079913E+03 -0.67194951168E+03  0.19061848931E+03  0.75369578269E+03  0.80072601226E+02 0.  0.
        254    2    1    2    0    0  0.27165079913E+03  0.67194951168E+03 -0.89935590452E+03  0.15041952796E+04  0.96356218960E+03 0.  0.
         23    2    4    4    0    0  0.44209481573E+03 -0.52510933590E+02 -0.36394445235E+03  0.58256713757E+03  0.93400648493E+02 0.  0.
         23    2    4    4    0    0 -0.17044401660E+03  0.72446044527E+03 -0.53541145218E+03  0.92162814202E+03  0.94015474784E+02 0.  0.
          3    1    3    3  502    0 -0.22844198963E+03 -0.47210275495E+03  0.12807696099E+03  0.53988004389E+03  0.00000000000E+00 0. -1.
         -2    1    3    3    0  502 -0.43208809499E+02 -0.19984675673E+03  0.62541528319E+02  0.21381573880E+03  0.00000000000E+00 0.  1.
         11    1    5    5    0    0  0.29358916996E+03 -0.34286702978E+02 -0.18247894885E+03  0.34737407141E+03  0.00000000000E+00 0.  1.
        -11    1    5    5    0    0  0.14850564577E+03 -0.18224230612E+02 -0.18146550350E+03  0.23519306615E+03  0.00000000000E+00 0. -1.
          2    1    6    6  503    0 -0.32773921140E+02  0.29035867659E+03 -0.17265114006E+03  0.33939756502E+03  0.00000000000E+00 0. -1.
         -2    1    6    6    0  503 -0.13767009546E+03  0.43410176868E+03 -0.36276031211E+03  0.58223057701E+03  0.00000000000E+00 0.  1.
<mgrwt>
<rscale>  0 0.21437732E+04</rscale>
<asrwt>0</asrwt>
<pdfrwt beam="1">  1        3 0.11916567E+00 0.21437732E+04</pdfrwt>
<pdfrwt beam="2">  1       -4 0.22820219E+00 0.21437732E+04</pdfrwt>
<totfact> 0.10449523E-01</totfact>
</mgrwt>
</event>
<event>
12    4  0.4769595E-008  0.1507281E+04  0.7818608E-02  0.8879626E-01
         -4   -1    0    0    0  501 -0.00000000000E+00  0.00000000000E+00  0.40765087911E+03  0.40765087911E+03  0.00000000000E+00 0.  1.
          3   -1    0    0  501    0  0.00000000000E+00 -0.00000000000E+00 -0.13932854380E+04  0.13932854380E+04  0.00000000000E+00 0. -1.
        -24    2    1    2    0    0  0.20611072994E+03 -0.13750049133E+03 -0.81801335772E+03  0.86099612438E+03  0.10382896838E+03 0.  0.
        254    2    1    2    0    0 -0.20611072994E+03  0.13750049133E+03 -0.16762120116E+03  0.93994019272E+03  0.89106828060E+03 0.  0.
         23    2    4    4    0    0 -0.16879486991E+03 -0.33357528163E+03 -0.23942754954E+03  0.45276698941E+03  0.88928165357E+02 0.  0.
         23    2    4    4    0    0 -0.37315860025E+02  0.47107577297E+03  0.71806348385E+02  0.48717320331E+03  0.94216352441E+02 0.  0.
          1    1    3    3  502    0  0.20595593079E+03 -0.13251553196E+03 -0.67769482746E+03  0.72058898882E+03  0.00000000000E+00 0. -1.
         -2    1    3    3    0  502  0.15479914891E+00 -0.49849593766E+01 -0.14031853026E+03  0.14040713556E+03  0.00000000000E+00 0.  1.
         11    1    5    5    0    0 -0.70988915421E+02 -0.79396377095E+02 -0.10298888012E+03  0.14815505471E+03  0.00000000000E+00 0. -1.
        -11    1    5    5    0    0 -0.97805954493E+02 -0.25417890454E+03 -0.13643866942E+03  0.30461193470E+03  0.00000000000E+00 0.  1.
          3    1    6    6  503    0 -0.12937185257E+00  0.53601262013E+02  0.39922085060E+02  0.66834758188E+02  0.00000000000E+00 0. -1.
         -3    1    6    6    0  503 -0.37186488173E+02  0.41747451095E+03  0.31884263325E+02  0.42033844512E+03  0.00000000000E+00 0.  1.
<mgrwt>
<rscale>  0 0.15072810E+04</rscale>
<asrwt>0</asrwt>
<pdfrwt beam="1">  1        3 0.21435161E+00 0.15072810E+04</pdfrwt>
<pdfrwt beam="2">  1       -4 0.62715519E-01 0.15072810E+04</pdfrwt>
<totfact> 0.63334769E-01</totfact>
</mgrwt>
</event>
<event>
12    4  0.4398275E-008  0.1201932E+04  0.7818608E-02  0.9111167E-01
          1   -1    0    0  501    0  0.00000000000E+00  0.00000000000E+00  0.13889923041E+04  0.13889923041E+04  0.00000000000E+00 0. -1.
         -2   -1    0    0    0  501 -0.00000000000E+00 -0.00000000000E+00 -0.26001604370E+03  0.26001604370E+03  0.00000000000E+00 0.  1.
        -24    2    1    2    0    0 -0.98738698093E+02 -0.17882334996E+03  0.44690506913E+03  0.49844357324E+03  0.83634525716E+02 0.  0.
        254    2    1    2    0    0  0.98738698093E+02  0.17882334996E+03  0.68207119121E+03  0.11505647745E+04  0.90379813536E+03 0.  0.
         23    2    4    4    0    0 -0.21649928086E+03 -0.22503876824E+03  0.46716977033E+02  0.32929529394E+03  0.93480098664E+02 0.  0.
         23    2    4    4    0    0  0.31523797896E+03  0.40386211820E+03  0.63535421418E+03  0.82126948057E+03  0.91263291317E+02 0.  0.
          3    1    3    3  502    0  0.10536624398E+01  0.79812468350E+01  0.26641374392E+02  0.27831157631E+02  0.00000000000E+00 0. -1.
         -4    1    3    3    0  502 -0.99792360533E+02 -0.18680459680E+03  0.42026369474E+03  0.47061241561E+03  0.00000000000E+00 0.  1.
         11    1    5    5    0    0 -0.21947010007E+03 -0.19105961210E+03  0.34302593153E+02  0.29299755647E+03  0.00000000000E+00 0.  1.
        -11    1    5    5    0    0  0.29708192062E+01 -0.33979156138E+02  0.12414383880E+02  0.36297737474E+02  0.00000000000E+00 0. -1.
          3    1    6    6  503    0  0.22709944669E+02  0.49537967192E+02  0.33119307939E+02  0.63770215138E+02  0.00000000000E+00 0. -1.
         -3    1    6    6    0  503  0.29252803429E+03  0.35432415101E+03  0.60223490624E+03  0.75749926543E+03  0.00000000000E+00 0.  1.
<mgrwt>
<rscale>  0 0.12019323E+04</rscale>
<asrwt>0</asrwt>
<pdfrwt beam="1">  1        1 0.21369112E+00 0.12019323E+04</pdfrwt>
<pdfrwt beam="2">  1       -2 0.40002469E-01 0.12019323E+04</pdfrwt>
<totfact> 0.40145371E+01</totfact>
</mgrwt>
</event>
<event>
12    4  0.4398275E-008  0.1417042E+04  0.7818608E-02  0.8941574E-01
          1   -1    0    0  501    0  0.00000000000E+00  0.00000000000E+00  0.73552490658E+03  0.73552490658E+03  0.00000000000E+00 0. -1.
         -2   -1    0    0    0  501 -0.00000000000E+00 -0.00000000000E+00 -0.68250851392E+03  0.68250851392E+03  0.00000000000E+00 0.  1.
        -24    2    1    2    0    0 -0.26859720121E+03 -0.18767951014E+03 -0.24874277645E+03  0.41946509934E+03  0.81914258227E+02 0.  0.
        254    2    1    2    0    0  0.26859720121E+03  0.18767951014E+03  0.30175916911E+03  0.99856832116E+03  0.89370690994E+03 0.  0.
         23    2    4    4    0    0 -0.20120039750E+03 -0.18019389068E+03 -0.62162160789E+02  0.29439284161E+03  0.99255089368E+02 0.  0.
         23    2    4    4    0    0  0.46979759871E+03  0.36787340082E+03  0.36392132990E+03  0.70417547956E+03  0.85928743018E+02 0.  0.
          1    1    3    3  502    0 -0.44978187631E+02 -0.76911753531E+01 -0.62116080028E+02  0.77075280985E+02  0.00000000000E+00 0. -1.
         -4    1    3    3    0  502 -0.22361901358E+03 -0.17998833478E+03 -0.18662669643E+03  0.34238981835E+03  0.00000000000E+00 0.  1.
         11    1    5    5    0    0 -0.34105438211E+01  0.73824681076E+01 -0.15962687277E+02  0.17914799179E+02  0.00000000000E+00 0. -1.
        -11    1    5    5    0    0 -0.19778985367E+03 -0.18757635879E+03 -0.46199473511E+02  0.27647804243E+03  0.00000000000E+00 0.  1.
          2    1    6    6  503    0  0.24335242791E+03  0.18368895898E+03  0.23562153414E+03  0.38533043634E+03  0.00000000000E+00 0. -1.
         -2    1    6    6    0  503  0.22644517079E+03  0.18418444184E+03  0.12829979576E+03  0.31884504321E+03  0.00000000000E+00 0.  1.
<mgrwt>
<rscale>  0 0.14170420E+04</rscale>
<asrwt>0</asrwt>
<pdfrwt beam="1">  1        1 0.11315768E+00 0.14170420E+04</pdfrwt>
<pdfrwt beam="2">  1       -2 0.10500131E+00 0.14170420E+04</pdfrwt>
<totfact> 0.15826569E+01</totfact>
</mgrwt>
</event>
<event>
12    4  0.4398275E-008  0.1865731E+04  0.7818608E-02  0.8672105E-01
          1   -1    0    0  501    0  0.00000000000E+00  0.00000000000E+00  0.26270739949E+04  0.26270739949E+04  0.00000000000E+00 0. -1.
         -2   -1    0    0    0  501 -0.00000000000E+00 -0.00000000000E+00 -0.33125755204E+03  0.33125755204E+03  0.00000000000E+00 0.  1.
        -24    2    1    2    0    0 -0.12999360682E+03 -0.63186282097E+03  0.37477328790E+03  0.75013356248E+03  0.78079330793E+02 0.  0.
        254    2    1    2    0    0  0.12999360682E+03  0.63186282097E+03  0.19210431549E+04  0.22081979844E+04  0.87725855540E+03 0.  0.
         23    2    4    4    0    0 -0.14873164044E+03  0.71614726188E+03  0.16165649393E+04  0.17766964312E+04  0.91542362298E+02 0.  0.
         23    2    4    4    0    0  0.27872524725E+03 -0.84284440907E+02  0.30447821559E+03  0.43150155320E+03  0.93246856304E+02 0.  0.
          3    1    3    3  502    0 -0.31655074835E+01 -0.10848421992E+03  0.38079894614E+02  0.11501706301E+03  0.00000000000E+00 0. -1.
         -4    1    3    3    0  502 -0.12682809933E+03 -0.52337860105E+03  0.33669339329E+03  0.63511649947E+03  0.00000000000E+00 0.  1.
         11    1    5    5    0    0 -0.14282838319E+03  0.59902327323E+03  0.14204154355E+04  0.15481630529E+04  0.00000000000E+00 0.  1.
        -11    1    5    5    0    0 -0.59032572496E+01  0.11712398865E+03  0.19614950387E+03  0.22853337837E+03  0.00000000000E+00 0. -1.
          3    1    6    6  503    0  0.84923593611E+02 -0.48325987508E+02  0.15859654295E+03  0.18628011503E+03  0.00000000000E+00 0. -1.
         -3    1    6    6    0  503  0.19380165364E+03 -0.35958453399E+02  0.14588167264E+03  0.24522143817E+03  0.00000000000E+00 0.  1.
<mgrwt>
<rscale>  0 0.18657311E+04</rscale>
<asrwt>0</asrwt>
<pdfrwt beam="1">  1        1 0.40416522E+00 0.18657311E+04</pdfrwt>
<pdfrwt beam="2">  1       -2 0.50962702E-01 0.18657311E+04</pdfrwt>
<totfact> 0.33171498E+00</totfact>
</mgrwt>
</event>
<event>
12    4  0.4398275E-008  0.2117946E+04  0.7818608E-02  0.8553379E-01
          1   -1    0    0  501    0  0.00000000000E+00  0.00000000000E+00  0.21538429168E+04  0.21538429168E+04  0.00000000000E+00 0. -1.
         -2   -1    0    0    0  501 -0.00000000000E+00 -0.00000000000E+00 -0.52066199921E+03  0.52066199921E+03  0.00000000000E+00 0.  1.
        -24    2    1    2    0    0  0.53515965592E+02 -0.84873328147E+03  0.84364922190E+03  0.12014250264E+04  0.92010557534E+02 0.  0.
        254    2    1    2    0    0 -0.53515965592E+02  0.84873328147E+03  0.78953169570E+03  0.14730798897E+04  0.90740945619E+03 0.  0.
         23    2    4    4    0    0 -0.37478727646E+03  0.12492116951E+03  0.45262376929E+03  0.60771047456E+03  0.91503787797E+02 0.  0.
         23    2    4    4    0    0  0.32127131086E+03  0.72381211196E+03  0.33690792641E+03  0.86536941510E+03  0.90763677266E+02 0.  0.
          3    1    3    3  502    0  0.59904969588E+02 -0.79401068751E+03  0.81465040157E+03  0.11391649810E+04  0.00000000000E+00 0. -1.
         -4    1    3    3    0  502 -0.63890039955E+01 -0.54722593962E+02  0.28998820331E+02  0.62260045314E+02  0.00000000000E+00 0.  1.
         11    1    5    5    0    0 -0.81748599444E+02 -0.88822181920E+01  0.74398520752E+02  0.11089124042E+03  0.00000000000E+00 0.  1.
        -11    1    5    5    0    0 -0.29303867701E+03  0.13380338770E+03  0.37822524854E+03  0.49681923415E+03  0.00000000000E+00 0. -1.
          4    1    6    6  503    0  0.79016218155E+02  0.28393586410E+03  0.11541697446E+03  0.31651890251E+03  0.00000000000E+00 0.  1.
         -4    1    6    6    0  503  0.24225509271E+03  0.43987624786E+03  0.22149095194E+03  0.54885051259E+03  0.00000000000E+00 0. -1.
<mgrwt>
<rscale>  0 0.21179463E+04</rscale>
<asrwt>0</asrwt>
<pdfrwt beam="1">  1        1 0.33136045E+00 0.21179463E+04</pdfrwt>
<pdfrwt beam="2">  1       -2 0.80101847E-01 0.21179463E+04</pdfrwt>
<totfact> 0.26040810E+00</totfact>
</mgrwt>
</event>
<event>
12    4  0.4398275E-008  0.2428886E+04  0.7818608E-02  0.8428768E-01
         -2   -1    0    0    0  501 -0.00000000000E+00  0.00000000000E+00  0.18239011307E+04  0.18239011307E+04  0.00000000000E+00 0.  1.
          1   -1    0    0  501    0  0.00000000000E+00 -0.00000000000E+00 -0.80863566699E+03  0.80863566699E+03  0.00000000000E+00 0. -1.
        -24    2    1    2    0    0  0.28664706507E+03  0.81461066210E+03 -0.15817708866E+03  0.88186209515E+03  0.83088463464E+02 0.  0.
        254    2    1    2    0    0 -0.28664706507E+03 -0.81461066210E+03  0.11734425523E+04  0.17506747025E+04  0.97063763556E+03 0.  0.
         23    2    4    4    0    0  0.26101279313E+03 -0.68928697872E+02  0.58645100804E+03  0.65120569191E+03  0.85236287947E+02 0.  0.
         23    2    4    4    0    0 -0.54765985821E+03 -0.74568196423E+03  0.58699154429E+03  0.10994690106E+04  0.91104994723E+02 0.  0.
          3    1    3    3  502    0  0.11069265517E+03  0.23557285848E+03 -0.75825038327E+02  0.27110306526E+03  0.00000000000E+00 0. -1.
         -4    1    3    3    0  502  0.17595440991E+03  0.57903780363E+03 -0.82352050338E+02  0.61075902989E+03  0.00000000000E+00 0.  1.
         11    1    5    5    0    0  0.66766612583E+02  0.18370681346E+02  0.12264014384E+03  0.14083986428E+03  0.00000000000E+00 0. -1.
        -11    1    5    5    0    0  0.19424618055E+03 -0.87299379217E+02  0.46381086420E+03  0.51036582763E+03  0.00000000000E+00 0.  1.
          4    1    6    6  503    0 -0.63553796633E+02 -0.98438928730E+02  0.41266865129E+02  0.12422665541E+03  0.00000000000E+00 0.  1.
         -4    1    6    6    0  503 -0.48410606157E+03 -0.64724303550E+03  0.54572467916E+03  0.97524235516E+03  0.00000000000E+00 0. -1.
<mgrwt>
<rscale>  0 0.24288858E+04</rscale>
<asrwt>0</asrwt>
<pdfrwt beam="1">  1        1 0.12440549E+00 0.24288858E+04</pdfrwt>
<pdfrwt beam="2">  1       -2 0.28060017E+00 0.24288858E+04</pdfrwt>
<totfact> 0.71116567E-01</totfact>
</mgrwt>
</event>
<event>
12    4  0.4398275E-008  0.2972493E+04  0.7818608E-02  0.8251630E-01
         -4   -1    0    0    0  501 -0.00000000000E+00  0.00000000000E+00  0.14480551389E+04  0.14480551389E+04  0.00000000000E+00 0.  1.
          3   -1    0    0  501    0  0.00000000000E+00 -0.00000000000E+00 -0.15254446772E+04  0.15254446772E+04  0.00000000000E+00 0. -1.
        -24    2    1    2    0    0 -0.89817993112E+03 -0.41487067826E+03 -0.94257605631E+03  0.13685618170E+04  0.75279191145E+02 0.  0.
        254    2    1    2    0    0  0.89817993112E+03  0.41487067826E+03  0.86518651801E+03  0.16049379991E+04  0.92110444663E+03 0.  0.
         23    2    4    4    0    0 -0.13256971775E+02 -0.16592629297E+03  0.36595314047E+03  0.41137269640E+03  0.87169446034E+02 0.  0.
         23    2    4    4    0    0  0.91143690290E+03  0.58079697123E+03  0.49923337754E+03  0.11935653027E+04  0.85567615119E+02 0.  0.
          1    1    3    3  502    0 -0.71340001016E+03 -0.36116873866E+03 -0.74914658462E+03  0.10957203281E+04  0.00000000000E+00 0. -1.
         -2    1    3    3    0  502 -0.18477992096E+03 -0.53701939605E+02 -0.19342947170E+03  0.27284148883E+03  0.00000000000E+00 0.  1.
         11    1    5    5    0    0 -0.44583303913E+02 -0.13595170756E+03  0.25758913304E+03  0.29465691785E+03  0.00000000000E+00 0. -1.
        -11    1    5    5    0    0  0.31326332138E+02 -0.29974585411E+02  0.10836400743E+03  0.11671577855E+03  0.00000000000E+00 0.  1.
          4    1    6    6  503    0  0.58142773762E+03  0.35372574967E+03  0.35665816125E+03  0.76836525432E+03  0.00000000000E+00 0. -1.
         -4    1    6    6    0  503  0.33000916528E+03  0.22707122156E+03  0.14257521628E+03  0.42520004836E+03  0.00000000000E+00 0.  1.
<mgrwt>
<rscale>  0 0.29724926E+04</rscale>
<asrwt>0</asrwt>
<pdfrwt beam="1">  1        3 0.23468380E+00 0.29724926E+04</pdfrwt>
<pdfrwt beam="2">  1       -4 0.22277771E+00 0.29724926E+04</pdfrwt>
<totfact> 0.16547528E-02</totfact>
</mgrwt>
</event>
<event>
12    4  0.4398275E-008  0.1046684E+04  0.7818608E-02  0.9258774E-01
          1   -1    0    0  501    0  0.00000000000E+00  0.00000000000E+00  0.69530920048E+03  0.69530920048E+03  0.00000000000E+00 0. -1.
         -2   -1    0    0    0  501 -0.00000000000E+00 -0.00000000000E+00 -0.39390660055E+03  0.39390660055E+03  0.00000000000E+00 0.  1.
        -24    2    1    2    0    0 -0.11768402237E+03  0.31387894799E+02 -0.41959387882E+01  0.14532413962E+03  0.79162936999E+02 0.  0.
        254    2    1    2    0    0  0.11768402237E+03 -0.31387894799E+02  0.30559853872E+03  0.94389166141E+03  0.88470688511E+03 0.  0.
         23    2    4    4    0    0 -0.11959254926E+03 -0.41073693431E+03  0.14153120545E+03  0.46042094816E+03  0.94600001805E+02 0.  0.
         23    2    4    4    0    0  0.23727657162E+03  0.37934903951E+03  0.16406733327E+03  0.48347071326E+03  0.81363231957E+02 0.  0.
          3    1    3    3  502    0 -0.10113859225E+03  0.13285427110E+01  0.20301316602E+02  0.10316454490E+03  0.00000000000E+00 0. -1.
         -4    1    3    3    0  502 -0.16545430116E+02  0.30059352088E+02 -0.24497255390E+02  0.42159594725E+02  0.00000000000E+00 0.  1.
         11    1    5    5    0    0 -0.12172216539E+03 -0.38425227981E+03  0.15346012599E+03  0.43129585014E+03  0.00000000000E+00 0.  1.
        -11    1    5    5    0    0  0.21296161361E+01 -0.26484654503E+02 -0.11928920536E+02  0.29125098012E+02  0.00000000000E+00 0. -1.
          1    1    6    6  503    0  0.48430536725E+02  0.13518865661E+03  0.76052549181E+02  0.16249763076E+03  0.00000000000E+00 0. -1.
         -1    1    6    6    0  503  0.18884603490E+03  0.24416038289E+03  0.88014784088E+02  0.32097308250E+03  0.00000000000E+00 0.  1.
<mgrwt>
<rscale>  0 0.10466841E+04</rscale>
<asrwt>0</asrwt>
<pdfrwt beam="1">  1        1 0.10697065E+00 0.10466841E+04</pdfrwt>
<pdfrwt beam="2">  1       -2 0.60601016E-01 0.10466841E+04</pdfrwt>
<totfact> 0.61137275E+01</totfact>
</mgrwt>
</event>
<event>
12    4  0.4398275E-008  0.2136741E+04  0.7818608E-02  0.8545229E-01
         -4   -1    0    0    0  501 -0.00000000000E+00  0.00000000000E+00  0.46195533065E+03  0.46195533065E+03  0.00000000000E+00 0.  1.
          1   -1    0    0  501    0  0.00000000000E+00 -0.00000000000E+00 -0.24708345000E+04  0.24708345000E+04  0.00000000000E+00 0. -1.
        -24    2    1    2    0    0 -0.47129319676E+03 -0.22803306826E+03  0.13504714358E+03  0.54657638223E+03  0.79947814765E+02 0.  0.
        254    2    1    2    0    0  0.47129319676E+03  0.22803306826E+03 -0.21439263130E+04  0.23862134485E+04  0.90745701201E+03 0.  0.
         23    2    4    4    0    0  0.53984266836E+03  0.46803956619E+03 -0.18740660831E+04  0.20077659555E+04  0.92245900679E+02 0.  0.
         23    2    4    4    0    0 -0.68549471597E+02 -0.24000649793E+03 -0.26986022990E+03  0.37844749298E+03  0.89976731190E+02 0.  0.
          3    1    3    3  502    0 -0.27618351875E+03 -0.89868317212E+02  0.79791448393E+02  0.30119815023E+03  0.00000000000E+00 0. -1.
         -4    1    3    3    0  502 -0.19510967801E+03 -0.13816475104E+03  0.55255695184E+02  0.24537823199E+03  0.00000000000E+00 0.  1.
         11    1    5    5    0    0  0.12276336276E+02  0.58848066280E+01 -0.85889753527E+02  0.86961998266E+02  0.00000000000E+00 0. -1.
        -11    1    5    5    0    0  0.52756633208E+03  0.46215475956E+03 -0.17881763296E+04  0.19208039572E+04  0.00000000000E+00 0.  1.
          3    1    6    6  503    0 -0.73923523822E+01 -0.11856637499E+03 -0.17928446549E+03  0.21507103877E+03  0.00000000000E+00 0. -1.
         -3    1    6    6    0  503 -0.61157119215E+02 -0.12144012294E+03 -0.90575764403E+02  0.16337645421E+03  0.00000000000E+00 0.  1.
<mgrwt>
<rscale>  0 0.21367407E+04</rscale>
<asrwt>0</asrwt>
<pdfrwt beam="1">  1        1 0.38012838E+00 0.21367407E+04</pdfrwt>
<pdfrwt beam="2">  1       -4 0.71070052E-01 0.21367407E+04</pdfrwt>
<totfact> 0.11655687E+00</totfact>
</mgrwt>
</event>
<event>
12    4  0.4398275E-008  0.2291250E+04  0.7818608E-02  0.8481379E-01
         -2   -1    0    0    0  501 -0.00000000000E+00  0.00000000000E+00  0.75061620938E+03  0.75061620938E+03  0.00000000000E+00 0.  1.
          1   -1    0    0  501    0  0.00000000000E+00 -0.00000000000E+00 -0.17485050750E+04  0.17485050750E+04  0.00000000000E+00 0. -1.
        -24    2    1    2    0    0 -0.70104431587E+03 -0.65670147032E+03 -0.27609749594E+03  0.10027584496E+04  0.81084690322E+02 0.  0.
        254    2    1    2    0    0  0.70104431587E+03  0.65670147032E+03 -0.72179136967E+03  0.14963628348E+04  0.89185144394E+03 0.  0.
         23    2    4    4    0    0  0.52069725553E+03  0.20436260175E+03 -0.81525325541E+03  0.99207374648E+03  0.81748046359E+02 0.  0.
         23    2    4    4    0    0  0.18034706034E+03  0.45233886857E+03  0.93461885743E+02  0.50428908830E+03  0.91852307021E+02 0.  0.
          3    1    3    3  502    0 -0.26713205047E+02 -0.48767133876E+02 -0.23460714988E+02  0.60350922264E+02  0.00000000000E+00 0. -1.
         -4    1    3    3    0  502 -0.67433111082E+03 -0.60793433645E+03 -0.25263678096E+03  0.94240752732E+03  0.00000000000E+00 0.  1.
         11    1    5    5    0    0  0.42916540326E+03  0.19243722159E+03 -0.71470932397E+03  0.85558427135E+03  0.00000000000E+00 0. -1.
        -11    1    5    5    0    0  0.91531852270E+02  0.11925380162E+02 -0.10054393144E+03  0.13648947513E+03  0.00000000000E+00 0.  1.
          1    1    6    6  503    0  0.16478193610E+03  0.38730461408E+03  0.11073295149E+03  0.43522377819E+03  0.00000000000E+00 0. -1.
         -1    1    6    6    0  503  0.15565124237E+02  0.65034254486E+02 -0.17271065750E+02  0.69065310114E+02  0.00000000000E+00 0.  1.
<mgrwt>
<rscale>  0 0.22912497E+04</rscale>
<asrwt>0</asrwt>
<pdfrwt beam="1">  1        1 0.26900078E+00 0.22912497E+04</pdfrwt>
<pdfrwt beam="2">  1       -2 0.11547942E+00 0.22912497E+04</pdfrwt>
<totfact> 0.20479969E+00</totfact>
</mgrwt>
</event>
<event>
12    4  0.4398275E-008  0.1833306E+04  0.7818608E-02  0.8688786E-01
          1   -1    0    0  501    0  0.00000000000E+00  0.00000000000E+00  0.10926236842E+04  0.10926236842E+04  0.00000000000E+00 0. -1.
         -2   -1    0    0    0  501 -0.00000000000E+00 -0.00000000000E+00 -0.76902287267E+03  0.76902287267E+03  0.00000000000E+00 0.  1.
        -24    2    1    2    0    0 -0.38156606860E+03  0.51981310815E+03 -0.13713949580E+03  0.66401948503E+03  0.79475172747E+02 0.  0.
        254    2    1    2    0    0  0.38156606860E+03 -0.51981310815E+03  0.46074030730E+03  0.11976270718E+04  0.89790346932E+03 0.  0.
         23    2    4    4    0    0  0.40641789559E+03 -0.73985287511E+03  0.26883306757E+03  0.89109529014E+03  0.96030282900E+02 0.  0.
         23    2    4    4    0    0 -0.24851826988E+02  0.22003976696E+03  0.19190723972E+03  0.30653178165E+03  0.89990178095E+02 0.  0.
          3    1    3    3  502    0 -0.54240749353E+02  0.12513704242E+03 -0.40199520946E+02  0.14218769201E+03  0.00000000000E+00 0. -1.
         -4    1    3    3    0  502 -0.32732531925E+03  0.39467606573E+03 -0.96939974855E+02  0.52183179302E+03  0.00000000000E+00 0.  1.
         11    1    5    5    0    0  0.29211834521E+03 -0.56172005522E+03  0.24174440632E+03  0.67771889898E+03  0.00000000000E+00 0.  1.
        -11    1    5    5    0    0  0.11429955038E+03 -0.17813281989E+03  0.27088661250E+02  0.21337639117E+03  0.00000000000E+00 0. -1.
          3    1    6    6  503    0 -0.19265947559E+02  0.63917024086E+02  0.11364520740E+03  0.13180210874E+03  0.00000000000E+00 0. -1.
         -3    1    6    6    0  503 -0.55858794293E+01  0.15612274287E+03  0.78262032327E+02  0.17472967291E+03  0.00000000000E+00 0.  1.
<mgrwt>
<rscale>  0 0.18333059E+04</rscale>
<asrwt>0</asrwt>
<pdfrwt beam="1">  1        1 0.16809595E+00 0.18333059E+04</pdfrwt>
<pdfrwt beam="2">  1       -2 0.11831121E+00 0.18333059E+04</pdfrwt>
<totfact> 0.58281147E+00</totfact>
</mgrwt>
</event>
<event>
12    4  0.4398275E-008  0.1835303E+04  0.7818608E-02  0.8687748E-01
          1   -1    0    0  501    0  0.00000000000E+00  0.00000000000E+00  0.24800523073E+04  0.24800523073E+04  0.00000000000E+00 0. -1.
         -2   -1    0    0    0  501 -0.00000000000E+00 -0.00000000000E+00 -0.33954301028E+03  0.33954301028E+03  0.00000000000E+00 0.  1.
        -24    2    1    2    0    0 -0.60608997788E+03 -0.33144619064E+03  0.98650439209E+03  0.12068820454E+04  0.78560278220E+02 0.  0.
        254    2    1    2    0    0  0.60608997788E+03  0.33144619064E+03  0.11540049050E+04  0.16127132722E+04  0.88989613953E+03 0.  0.
         23    2    4    4    0    0  0.66574466980E+03 -0.64926876011E+02  0.50123066102E+03  0.84095452251E+03  0.92416820920E+02 0.  0.
         23    2    4    4    0    0 -0.59654691922E+02  0.39637306665E+03  0.65277424395E+03  0.77175874972E+03  0.93952455911E+02 0.  0.
          3    1    3    3  502    0 -0.57716275215E+03 -0.32331903569E+03  0.96475997696E+03  0.11697922270E+04  0.00000000000E+00 0. -1.
         -4    1    3    3    0  502 -0.28927225730E+02 -0.81271549502E+01  0.21744415122E+02  0.37089818347E+02  0.00000000000E+00 0.  1.
         11    1    5    5    0    0  0.16509856262E+03  0.73298065113E+01  0.84742072827E+02  0.18572151289E+03  0.00000000000E+00 0.  1.
        -11    1    5    5    0    0  0.50064610718E+03 -0.72256682522E+02  0.41648858819E+03  0.65523300962E+03  0.00000000000E+00 0. -1.
          4    1    6    6  503    0 -0.54514578439E+02  0.25978853194E+03  0.50467374024E+03  0.57022583656E+03  0.00000000000E+00 0. -1.
         -4    1    6    6    0  503 -0.51401134836E+01  0.13658453471E+03  0.14810050370E+03  0.20153291316E+03  0.00000000000E+00 0.  1.
<mgrwt>
<rscale>  0 0.18353032E+04</rscale>
<asrwt>0</asrwt>
<pdfrwt beam="1">  1        1 0.38154650E+00 0.18353032E+04</pdfrwt>
<pdfrwt beam="2">  1       -2 0.52237388E-01 0.18353032E+04</pdfrwt>
<totfact> 0.40011505E+00</totfact>
</mgrwt>
</event>
<event>
12    4  0.4398275E-008  0.2093311E+04  0.7818608E-02  0.8564196E-01
          1   -1    0    0  501    0  0.00000000000E+00  0.00000000000E+00  0.10112167941E+04  0.10112167941E+04  0.00000000000E+00 0. -1.
         -2   -1    0    0    0  501 -0.00000000000E+00 -0.00000000000E+00 -0.10833358802E+04  0.10833358802E+04  0.00000000000E+00 0.  1.
        -24    2    1    2    0    0 -0.15681012364E+03 -0.36573770773E+03 -0.78355123266E+03  0.88235705174E+03  0.79043955001E+02 0.  0.
        254    2    1    2    0    0  0.15681012364E+03  0.36573770773E+03  0.71143214658E+03  0.12121956225E+04  0.89717837820E+03 0.  0.
         23    2    4    4    0    0  0.43229247511E+03  0.40285925652E+03  0.69875182530E+03  0.91968964512E+03  0.91665508147E+02 0.  0.
         23    2    4    4    0    0 -0.27548235146E+03 -0.37121548792E+02  0.12680321280E+02  0.29250597739E+03  0.90168846665E+02 0.  0.
          3    1    3    3  502    0  0.60030645193E+01 -0.32372855812E+02 -0.89620177478E+02  0.95476776172E+02  0.00000000000E+00 0. -1.
         -4    1    3    3    0  502 -0.16281318816E+03 -0.33336485191E+03 -0.69393105518E+03  0.78688027557E+03  0.00000000000E+00 0.  1.
         11    1    5    5    0    0  0.43662514310E+03  0.40014501939E+03  0.69601789925E+03  0.91389193464E+03  0.00000000000E+00 0.  1.
        -11    1    5    5    0    0 -0.43326679930E+01  0.27142371303E+01  0.27339260514E+01  0.57977104784E+01  0.00000000000E+00 0. -1.
          3    1    6    6  503    0 -0.55178607008E+02  0.11457771428E+02 -0.28547019046E+02  0.63173503099E+02  0.00000000000E+00 0. -1.
         -3    1    6    6    0  503 -0.22030374446E+03 -0.48579320220E+02  0.41227340326E+02  0.22933247429E+03  0.00000000000E+00 0.  1.
<mgrwt>
<rscale>  0 0.20933107E+04</rscale>
<asrwt>0</asrwt>
<pdfrwt beam="1">  1        1 0.15557182E+00 0.20933107E+04</pdfrwt>
<pdfrwt beam="2">  1       -2 0.16666706E+00 0.20933107E+04</pdfrwt>
<totfact> 0.26936473E+00</totfact>
</mgrwt>
</event>
<event>
12    4  0.4398275E-008  0.1475461E+04  0.7818608E-02  0.8900937E-01
         -2   -1    0    0    0  501 -0.00000000000E+00  0.00000000000E+00  0.63256694088E+03  0.63256694088E+03  0.00000000000E+00 0.  1.
          1   -1    0    0  501    0  0.00000000000E+00 -0.00000000000E+00 -0.86037713310E+03  0.86037713310E+03  0.00000000000E+00 0. -1.
        -24    2    1    2    0    0 -0.11481017154E+03  0.26171840947E+03 -0.42996802314E+03  0.52251712577E+03  0.80459582808E+02 0.  0.
        254    2    1    2    0    0  0.11481017154E+03 -0.26171840947E+03  0.20215783091E+03  0.97042694821E+03  0.90508716258E+03 0.  0.
         23    2    4    4    0    0 -0.21450990762E+03 -0.39295120302E+03  0.35020090402E+03  0.57579749034E+03  0.92070235590E+02 0.  0.
         23    2    4    4    0    0  0.32932007916E+03  0.13123279355E+03 -0.14804307311E+03  0.39462945787E+03  0.90232460226E+02 0.  0.
          3    1    3    3  502    0 -0.11979991313E+03  0.26505980531E+03 -0.42214488815E+03  0.51265488017E+03  0.00000000000E+00 0. -1.
         -4    1    3    3    0  502  0.49897415876E+01 -0.33413958413E+01 -0.78231349905E+01  0.98622456043E+01  0.00000000000E+00 0.  1.
         11    1    5    5    0    0 -0.90611392833E+02 -0.25374170663E+03  0.18580909077E+03  0.32729237145E+03  0.00000000000E+00 0.  1.
        -11    1    5    5    0    0 -0.12389851479E+03 -0.13920949639E+03  0.16439181325E+03  0.24850511889E+03  0.00000000000E+00 0. -1.
          2    1    6    6  503    0  0.17865494778E+03  0.26636373687E+02 -0.92821961931E+02  0.20308373491E+03  0.00000000000E+00 0. -1.
         -2    1    6    6    0  503  0.15066513138E+03  0.10459641986E+03 -0.55221111183E+02  0.19154572296E+03  0.00000000000E+00 0.  1.
<mgrwt>
<rscale>  0 0.14754608E+04</rscale>
<asrwt>0</asrwt>
<pdfrwt beam="1">  1        1 0.13236571E+00 0.14754608E+04</pdfrwt>
<pdfrwt beam="2">  1       -2 0.97317992E-01 0.14754608E+04</pdfrwt>
<totfact> 0.14683763E+01</totfact>
</mgrwt>
</event>
<event>
12    4  0.4398275E-008  0.2511306E+04  0.7818608E-02  0.8398969E-01
         -2   -1    0    0    0  501 -0.00000000000E+00  0.00000000000E+00  0.13414440459E+04  0.13414440459E+04  0.00000000000E+00 0.  1.
          1   -1    0    0  501    0  0.00000000000E+00 -0.00000000000E+00 -0.11753486589E+04  0.11753486589E+04  0.00000000000E+00 0. -1.
        -24    2    1    2    0    0  0.16777809842E+02  0.85100548327E+02 -0.10177462317E+04  0.10244845370E+04  0.78978327393E+02 0.  0.
        254    2    1    2    0    0 -0.16777809842E+02 -0.85100548327E+02  0.11838416186E+04  0.14923081679E+04  0.90442196552E+03 0.  0.
         23    2    4    4    0    0  0.10569363983E+03 -0.28881526403E+03  0.11944327325E+04  0.12367303337E+04  0.90812794555E+02 0.  0.
         23    2    4    4    0    0 -0.12247144967E+03  0.20371471571E+03 -0.10591113871E+02  0.25557783416E+03  0.93321574357E+02 0.  0.
          3    1    3    3  502    0  0.46084026374E+02  0.45383656609E+02 -0.69255344373E+03  0.69556716871E+03  0.00000000000E+00 0. -1.
         -4    1    3    3    0  502 -0.29306216532E+02  0.39716891718E+02 -0.32519278793E+03  0.32891736825E+03  0.00000000000E+00 0.  1.
         11    1    5    5    0    0  0.10844055051E+03 -0.29472268346E+03  0.11745314827E+04  0.12157898737E+04  0.00000000000E+00 0. -1.
        -11    1    5    5    0    0 -0.27469106748E+01  0.59074194276E+01  0.19901249848E+02  0.20940460073E+02  0.00000000000E+00 0.  1.
          1    1    6    6  503    0 -0.12033963192E+03  0.16319259942E+03  0.21420618358E+02  0.20389285031E+03  0.00000000000E+00 0. -1.
         -1    1    6    6    0  503 -0.21318177505E+01  0.40522116289E+02 -0.32011732229E+02  0.51684983852E+02  0.00000000000E+00 0.  1.
<mgrwt>
<rscale>  0 0.25113060E+04</rscale>
<asrwt>0</asrwt>
<pdfrwt beam="1">  1        1 0.18082287E+00 0.25113060E+04</pdfrwt>
<pdfrwt beam="2">  1       -2 0.20637601E+00 0.25113060E+04</pdfrwt>
<totfact> 0.10483927E+00</totfact>
</mgrwt>
</event>
<event>
12    4  0.4398275E-008  0.2255703E+04  0.7818608E-02  0.8495594E-01
          1   -1    0    0  501    0  0.00000000000E+00  0.00000000000E+00  0.92342088791E+03  0.92342088791E+03  0.00000000000E+00 0. -1.
         -4   -1    0    0    0  501 -0.00000000000E+00 -0.00000000000E+00 -0.13775399135E+04  0.13775399135E+04  0.00000000000E+00 0.  1.
        -24    2    1    2    0    0 -0.69662925491E+03  0.11284238647E+03  0.45001490599E+03  0.84061695208E+03  0.78087909006E+02 0.  0.
        254    2    1    2    0    0  0.69662925491E+03 -0.11284238647E+03 -0.90413393154E+03  0.14603438493E+04  0.90394704990E+03 0.  0.
         23    2    4    4    0    0  0.19734974425E+03 -0.27051777213E+03 -0.85945725663E+03  0.92649883553E+03  0.87215421034E+02 0.  0.
         23    2    4    4    0    0  0.49927951066E+03  0.15767538566E+03 -0.44676674908E+02  0.53384501376E+03  0.94090044280E+02 0.  0.
          1    1    3    3  502    0 -0.15743664009E+03  0.26519332449E+02  0.64533858413E+02  0.17220391842E+03  0.00000000000E+00 0. -1.
         -2    1    3    3    0  502 -0.53919261482E+03  0.86323054023E+02  0.38548104757E+03  0.66841303366E+03  0.00000000000E+00 0.  1.
         11    1    5    5    0    0  0.26177782831E+02 -0.67475987618E+02 -0.27798774907E+03  0.28725506759E+03  0.00000000000E+00 0. -1.
        -11    1    5    5    0    0  0.17117196142E+03 -0.20304178451E+03 -0.58146950756E+03  0.63924376795E+03  0.00000000000E+00 0.  1.
          3    1    6    6  503    0  0.16189196492E+03  0.11955026182E+02  0.82479550375E+01  0.16254217828E+03  0.00000000000E+00 0. -1.
         -3    1    6    6    0  503  0.33738754574E+03  0.14572035947E+03 -0.52924629945E+02  0.37130283549E+03  0.00000000000E+00 0.  1.
<mgrwt>
<rscale>  0 0.22557031E+04</rscale>
<asrwt>0</asrwt>
<pdfrwt beam="1">  1        1 0.14206475E+00 0.22557031E+04</pdfrwt>
<pdfrwt beam="2">  1       -4 0.21192922E+00 0.22557031E+04</pdfrwt>
<totfact> 0.83739410E-01</totfact>
</mgrwt>
</event>
<event>
12    4  0.4398275E-008  0.1270309E+04  0.7818608E-02  0.9053447E-01
          1   -1    0    0  501    0  0.00000000000E+00  0.00000000000E+00  0.11790725172E+04  0.11790725172E+04  0.00000000000E+00 0. -1.
         -2   -1    0    0    0  501 -0.00000000000E+00 -0.00000000000E+00 -0.34215143155E+03  0.34215143155E+03  0.00000000000E+00 0.  1.
        -24    2    1    2    0    0 -0.11321176430E+03  0.18816850787E+03 -0.50714753540E+02  0.23899876611E+03  0.79524417933E+02 0.  0.
        254    2    1    2    0    0  0.11321176430E+03 -0.18816850787E+03  0.88763583916E+03  0.12822251826E+04  0.89887693542E+03 0.  0.
         23    2    4    4    0    0  0.26215440871E+03  0.29018043330E+03  0.50929071392E+03  0.64733593123E+03  0.82080196766E+02 0.  0.
         23    2    4    4    0    0 -0.14894264442E+03 -0.47834894117E+03  0.37834512524E+03  0.63488925138E+03  0.94539446164E+02 0.  0.
          1    1    3    3  502    0  0.10304666869E+02  0.37565773457E+01 -0.62827092613E+01  0.12640034347E+02  0.00000000000E+00 0. -1.
         -2    1    3    3    0  502 -0.12351643116E+03  0.18441193052E+03 -0.44432044278E+02  0.22635873176E+03  0.00000000000E+00 0.  1.
         11    1    5    5    0    0  0.24584749622E+03  0.22873166599E+03  0.43573738878E+03  0.55011475021E+03  0.00000000000E+00 0.  1.
        -11    1    5    5    0    0  0.16306912493E+02  0.61448767312E+02  0.73553325140E+02  0.97221181018E+02  0.00000000000E+00 0. -1.
          3    1    6    6  503    0 -0.75184200474E+01 -0.25121416892E+02  0.53603074441E+02  0.59673292319E+02  0.00000000000E+00 0. -1.
         -3    1    6    6    0  503 -0.14142422437E+03 -0.45322752428E+03  0.32474205080E+03  0.57521595906E+03  0.00000000000E+00 0.  1.
<mgrwt>
<rscale>  0 0.12703092E+04</rscale>
<asrwt>0</asrwt>
<pdfrwt beam="1">  1        1 0.18139577E+00 0.12703092E+04</pdfrwt>
<pdfrwt beam="2">  1       -2 0.52638682E-01 0.12703092E+04</pdfrwt>
<totfact> 0.32550022E+01</totfact>
</mgrwt>
</event>
<event>
12    4  0.4398275E-008  0.1945051E+04  0.7818608E-02  0.8632751E-01
         -2   -1    0    0    0  501 -0.00000000000E+00  0.00000000000E+00  0.12015246510E+04  0.12015246510E+04  0.00000000000E+00 0.  1.
          1   -1    0    0  501    0  0.00000000000E+00 -0.00000000000E+00 -0.78717173108E+03  0.78717173108E+03  0.00000000000E+00 0. -1.
        -24    2    1    2    0    0  0.89462923293E+02 -0.39189428407E+03  0.82691101453E+03  0.92290974938E+03  0.79973964565E+02 0.  0.
        254    2    1    2    0    0 -0.89462923293E+02  0.39189428407E+03 -0.41255809462E+03  0.10657866327E+04  0.89672304556E+03 0.  0.
         23    2    4    4    0    0 -0.35243293179E+03 -0.12564136677E+03 -0.22929616747E+03  0.45015024999E+03  0.10031844644E+03 0.  0.
         23    2    4    4    0    0  0.26297000850E+03  0.51753565084E+03 -0.18326192716E+03  0.61563638270E+03  0.91797856724E+02 0.  0.
          3    1    3    3  502    0  0.24334758096E+02 -0.41145033830E+02  0.15447443854E+03  0.16170172053E+03  0.00000000000E+00 0. -1.
         -4    1    3    3    0  502  0.65128165197E+02 -0.35074925024E+03  0.67243657599E+03  0.76120802884E+03  0.00000000000E+00 0.  1.
         11    1    5    5    0    0 -0.10879555344E+03 -0.33200489057E+02 -0.19066760671E+02  0.11533553782E+03  0.00000000000E+00 0. -1.
        -11    1    5    5    0    0 -0.24363737835E+03 -0.92440877709E+02 -0.21022940680E+03  0.33481471216E+03  0.00000000000E+00 0.  1.
          1    1    6    6  503    0  0.22527768815E+03  0.42997513528E+03 -0.18711127458E+03  0.52023002875E+03  0.00000000000E+00 0. -1.
         -1    1    6    6    0  503  0.37692320347E+02  0.87560515558E+02  0.38493474277E+01  0.95406353947E+02  0.00000000000E+00 0.  1.
<mgrwt>
<rscale>  0 0.19450514E+04</rscale>
<asrwt>0</asrwt>
<pdfrwt beam="1">  1        1 0.12110334E+00 0.19450514E+04</pdfrwt>
<pdfrwt beam="2">  1       -2 0.18484995E+00 0.19450514E+04</pdfrwt>
<totfact> 0.31100671E+00</totfact>
</mgrwt>
</event>
<event>
12    4  0.4398275E-008  0.1452070E+04  0.7818608E-02  0.8916966E-01
         -2   -1    0    0    0  501 -0.00000000000E+00  0.00000000000E+00  0.29111121566E+03  0.29111121566E+03  0.00000000000E+00 0.  1.
          1   -1    0    0  501    0  0.00000000000E+00 -0.00000000000E+00 -0.18107412212E+04  0.18107412212E+04  0.00000000000E+00 0. -1.
        -24    2    1    2    0    0 -0.41580941806E+03  0.82131049478E+02 -0.28714097738E+03  0.51807635751E+03  0.79436703599E+02 0.  0.
        254    2    1    2    0    0  0.41580941806E+03 -0.82131049478E+02 -0.12324890282E+04  0.15837760794E+04  0.89981913936E+03 0.  0.
         23    2    4    4    0    0  0.35700112026E+03 -0.38713910866E+03 -0.33722556327E+03  0.63169307733E+03  0.89378823564E+02 0.  0.
         23    2    4    4    0    0  0.58808297800E+02  0.30500805918E+03 -0.89526346490E+03  0.95208300203E+03  0.92070837496E+02 0.  0.
          1    1    3    3  502    0 -0.17759388829E+03  0.61923716798E+02 -0.16201779533E+03  0.24824161992E+03  0.00000000000E+00 0. -1.
         -2    1    3    3    0  502 -0.23821552978E+03  0.20207332680E+02 -0.12512318206E+03  0.26983473759E+03  0.00000000000E+00 0.  1.
         11    1    5    5    0    0  0.13546817643E+02  0.32798092195E+01 -0.60191147435E+01  0.15182330488E+02  0.00000000000E+00 0.  1.
        -11    1    5    5    0    0  0.34345430262E+03 -0.39041891788E+03 -0.33120644853E+03  0.61651074684E+03  0.00000000000E+00 0. -1.
          3    1    6    6  503    0  0.66241927450E+02  0.30688865014E+03 -0.84904087096E+03  0.90522872088E+03  0.00000000000E+00 0. -1.
         -3    1    6    6    0  503 -0.74336296498E+01 -0.18805909593E+01 -0.46222593939E+02  0.46854281155E+02  0.00000000000E+00 0.  1.
<mgrwt>
<rscale>  0 0.14520704E+04</rscale>
<asrwt>0</asrwt>
<pdfrwt beam="1">  1        1 0.27857557E+00 0.14520704E+04</pdfrwt>
<pdfrwt beam="2">  1       -2 0.44786342E-01 0.14520704E+04</pdfrwt>
<totfact> 0.16149430E+01</totfact>
</mgrwt>
</event>
<event>
12    4  0.4398275E-008  0.1749705E+04  0.7818608E-02  0.8733512E-01
          1   -1    0    0  501    0  0.00000000000E+00  0.00000000000E+00  0.11303840821E+04  0.11303840821E+04  0.00000000000E+00 0. -1.
         -2   -1    0    0    0  501 -0.00000000000E+00 -0.00000000000E+00 -0.67708606917E+03  0.67708606917E+03  0.00000000000E+00 0.  1.
        -24    2    1    2    0    0  0.59916952937E+03  0.20490105767E+03  0.69232639856E+02  0.64200702259E+03  0.79945545694E+02 0.  0.
        254    2    1    2    0    0 -0.59916952937E+03 -0.20490105767E+03  0.38406537306E+03  0.11654631287E+04  0.89989417441E+03 0.  0.
         23    2    4    4    0    0 -0.85476658092E+02  0.28185421978E+03  0.32810280892E+03  0.44991794461E+03  0.89591536295E+02 0.  0.
         23    2    4    4    0    0 -0.51369287128E+03 -0.48675527745E+03  0.55962564137E+02  0.71554518406E+03  0.89788839584E+02 0.  0.
          3    1    3    3  502    0  0.18849313701E+03  0.33489457688E+02  0.43039233820E+02  0.19622329659E+03  0.00000000000E+00 0. -1.
         -4    1    3    3    0  502  0.41067639236E+03  0.17141159998E+03  0.26193406036E+02  0.44578372600E+03  0.00000000000E+00 0.  1.
         11    1    5    5    0    0 -0.25150983726E+02  0.65201454111E+01  0.28561786596E+02  0.38611655393E+02  0.00000000000E+00 0.  1.
        -11    1    5    5    0    0 -0.60325674365E+02  0.27533407437E+03  0.29954102233E+03  0.41130628922E+03  0.00000000000E+00 0. -1.
          1    1    6    6  503    0 -0.48231637913E+03 -0.43940033183E+03  0.72259147999E+02  0.65644735178E+03  0.00000000000E+00 0. -1.
         -1    1    6    6    0  503 -0.31376492147E+02 -0.47354945615E+02 -0.16296583863E+02  0.59097832272E+02  0.00000000000E+00 0.  1.
<mgrwt>
<rscale>  0 0.17497055E+04</rscale>
<asrwt>0</asrwt>
<pdfrwt beam="1">  1        1 0.17390524E+00 0.17497055E+04</pdfrwt>
<pdfrwt beam="2">  1       -2 0.10416709E+00 0.17497055E+04</pdfrwt>
<totfact> 0.74912119E+00</totfact>
</mgrwt>
</event>
<event>
12    4  0.4398275E-008  0.2056597E+04  0.7818608E-02  0.8580607E-01
          1   -1    0    0  501    0  0.00000000000E+00  0.00000000000E+00  0.14297819745E+04  0.14297819745E+04  0.00000000000E+00 0. -1.
         -2   -1    0    0    0  501 -0.00000000000E+00 -0.00000000000E+00 -0.73955185176E+03  0.73955185176E+03  0.00000000000E+00 0.  1.
        -24    2    1    2    0    0  0.80891912339E+03 -0.11738407312E+03  0.44915076352E+03  0.93609472477E+03  0.80048463763E+02 0.  0.
        254    2    1    2    0    0 -0.80891912339E+03  0.11738407312E+03  0.24107935920E+03  0.12332391015E+04  0.89142035829E+03 0.  0.
         23    2    4    4    0    0 -0.47203547976E+03 -0.75896458722E+02  0.54572422802E+03  0.73125141153E+03  0.91301299150E+02 0.  0.
         23    2    4    4    0    0 -0.33688364364E+03  0.19328053184E+03 -0.30464486882E+03  0.50198768994E+03  0.91297269511E+02 0.  0.
          1    1    3    3  502    0  0.46144194188E+03 -0.72693770270E+02  0.21167300530E+03  0.51285330372E+03  0.00000000000E+00 0. -1.
         -2    1    3    3    0  502  0.34747718151E+03 -0.44690302851E+02  0.23747775822E+03  0.42324142105E+03  0.00000000000E+00 0.  1.
         11    1    5    5    0    0 -0.84855246470E+02 -0.48243273966E+02  0.12872093043E+03  0.16154536287E+03  0.00000000000E+00 0. -1.
        -11    1    5    5    0    0 -0.38718023329E+03 -0.27653184756E+02  0.41700329760E+03  0.56970604866E+03  0.00000000000E+00 0.  1.
          3    1    6    6  503    0 -0.22055934799E+03  0.10400061997E+03 -0.13869055301E+03  0.28053096876E+03  0.00000000000E+00 0. -1.
         -3    1    6    6    0  503 -0.11632429564E+03  0.89279911877E+02 -0.16595431581E+03  0.22145672118E+03  0.00000000000E+00 0.  1.
<mgrwt>
<rscale>  0 0.20565971E+04</rscale>
<asrwt>0</asrwt>
<pdfrwt beam="1">  1        1 0.21996646E+00 0.20565971E+04</pdfrwt>
<pdfrwt beam="2">  1       -2 0.11377721E+00 0.20565971E+04</pdfrwt>
<totfact> 0.35905443E+00</totfact>
</mgrwt>
</event>
<event>
12    4  0.4398275E-008  0.3818823E+04  0.7818608E-02  0.8042127E-01
         -2   -1    0    0    0  501 -0.00000000000E+00  0.00000000000E+00  0.15488877449E+04  0.15488877449E+04  0.00000000000E+00 0.  1.
          1   -1    0    0  501    0  0.00000000000E+00 -0.00000000000E+00 -0.23538521270E+04  0.23538521270E+04  0.00000000000E+00 0. -1.
        -24    2    1    2    0    0  0.74398879872E+03 -0.14432970756E+04  0.42163490529E+03  0.16794288511E+04  0.77971093691E+02 0.  0.
        254    2    1    2    0    0 -0.74398879872E+03  0.14432970756E+04 -0.12265992873E+04  0.22233110209E+04  0.89551119635E+03 0.  0.
         23    2    4    4    0    0  0.11651325278E+03  0.20231178656E+03  0.37099006648E+02  0.25179116193E+03  0.86700956624E+02 0.  0.
         23    2    4    4    0    0 -0.86050205149E+03  0.12409852890E+04 -0.12636982940E+04  0.19715198589E+04  0.97205492263E+02 0.  0.
          1    1    3    3  502    0  0.63975387018E+03 -0.12844964837E+04  0.35649217808E+03  0.14786151981E+04  0.00000000000E+00 0. -1.
         -2    1    3    3    0  502  0.10423492854E+03 -0.15880059194E+03  0.65142727211E+02  0.20081365301E+03  0.00000000000E+00 0.  1.
         11    1    5    5    0    0  0.18230867602E+02  0.11821805295E+03  0.20982657569E+02  0.12144193878E+03  0.00000000000E+00 0.  1.
        -11    1    5    5    0    0  0.98282385175E+02  0.84093733610E+02  0.16116349080E+02  0.13034922315E+03  0.00000000000E+00 0. -1.
          2    1    6    6  503    0 -0.61187358124E+03  0.91214085181E+03 -0.86588144428E+03  0.13986210668E+04  0.00000000000E+00 0. -1.
         -2    1    6    6    0  503 -0.24862847025E+03  0.32884443721E+03 -0.39781684970E+03  0.57289879212E+03  0.00000000000E+00 0.  1.
<mgrwt>
<rscale>  0 0.38188232E+04</rscale>
<asrwt>0</asrwt>
<pdfrwt beam="1">  1        1 0.36213110E+00 0.38188232E+04</pdfrwt>
<pdfrwt beam="2">  1       -2 0.23829042E+00 0.38188232E+04</pdfrwt>
<totfact> 0.90673237E-02</totfact>
</mgrwt>
</event>
<event>
12    4  0.4398275E-008  0.1598242E+04  0.7818608E-02  0.8821629E-01
         -4   -1    0    0    0  501 -0.00000000000E+00  0.00000000000E+00  0.93924415862E+03  0.93924415862E+03  0.00000000000E+00 0.  1.
          3   -1    0    0  501    0  0.00000000000E+00 -0.00000000000E+00 -0.67990202382E+03  0.67990202382E+03  0.00000000000E+00 0. -1.
        -24    2    1    2    0    0 -0.22862115233E+03  0.62788210717E+02 -0.40739190477E+03  0.47800539328E+03  0.79441810352E+02 0.  0.
        254    2    1    2    0    0  0.22862115233E+03 -0.62788210717E+02  0.66673403958E+03  0.11411407892E+04  0.89524188377E+03 0.  0.
         23    2    4    4    0    0  0.31102509563E+03 -0.19872496028E+03 -0.66147885998E+02  0.38588324643E+03  0.91115954166E+02 0.  0.
         23    2    4    4    0    0 -0.82403943299E+02  0.13593674957E+03  0.73288192558E+03  0.75525754273E+03  0.89603734595E+02 0.  0.
          1    1    3    3  502    0 -0.58166752931E+02  0.53012488638E+02 -0.14438325299E+03  0.16443910375E+03  0.00000000000E+00 0. -1.
         -2    1    3    3    0  502 -0.17045439940E+03  0.97757220798E+01 -0.26300865178E+03  0.31356628953E+03  0.00000000000E+00 0.  1.
         11    1    5    5    0    0  0.30470406452E+03 -0.17150285189E+03 -0.72809131157E+02  0.35715397901E+03  0.00000000000E+00 0. -1.
        -11    1    5    5    0    0  0.63210311089E+01 -0.27222108391E+02  0.66612451595E+01  0.28729267422E+02  0.00000000000E+00 0.  1.
          2    1    6    6  503    0 -0.54937473497E+02  0.11843331342E+03  0.68511675701E+03  0.69744501322E+03  0.00000000000E+00 0. -1.
         -2    1    6    6    0  503 -0.27466469801E+02  0.17503436145E+02  0.47765168564E+02  0.57812529509E+02  0.00000000000E+00 0.  1.
<mgrwt>
<rscale>  0 0.15982415E+04</rscale>
<asrwt>0</asrwt>
<pdfrwt beam="1">  1        3 0.10460031E+00 0.15982415E+04</pdfrwt>
<pdfrwt beam="2">  1       -4 0.14449910E+00 0.15982415E+04</pdfrwt>
<totfact> 0.56814759E-01</totfact>
</mgrwt>
</event>
<event>
12    4  0.4398275E-008  0.1809195E+04  0.7818608E-02  0.8701425E-01
         -2   -1    0    0    0  501 -0.00000000000E+00  0.00000000000E+00  0.99148218012E+03  0.99148218012E+03  0.00000000000E+00 0.  1.
          1   -1    0    0  501    0  0.00000000000E+00 -0.00000000000E+00 -0.82532692913E+03  0.82532692913E+03  0.00000000000E+00 0. -1.
        -24    2    1    2    0    0  0.60648429406E+03  0.12766542162E+03 -0.21303006804E+03  0.65900724793E+03  0.69188757238E+02 0.  0.
        254    2    1    2    0    0 -0.60648429406E+03 -0.12766542162E+03  0.37918531902E+03  0.11578018613E+04  0.90144438824E+03 0.  0.
         23    2    4    4    0    0 -0.77926494360E+03  0.24578007145E+02  0.11214514987E+03  0.79285949950E+03  0.90508124234E+02 0.  0.
         23    2    4    4    0    0  0.17278064954E+03 -0.15224342876E+03  0.26704016916E+03  0.36494236182E+03  0.94027980143E+02 0.  0.
          3    1    3    3  502    0  0.45013094795E+03  0.12533339483E+03 -0.16004623302E+03  0.49390396523E+03  0.00000000000E+00 0. -1.
         -4    1    3    3    0  502  0.15635334611E+03  0.23320267823E+01 -0.52983835020E+02  0.16510328271E+03  0.00000000000E+00 0.  1.
         11    1    5    5    0    0 -0.46771684309E+03  0.45462040350E+02  0.99600164057E+02  0.48036031799E+03  0.00000000000E+00 0. -1.
        -11    1    5    5    0    0 -0.31154810051E+03 -0.20884033205E+02  0.12544985811E+02  0.31249918150E+03  0.00000000000E+00 0.  1.
          1    1    6    6  503    0  0.99220428045E+02 -0.10572001437E+03  0.98581951919E+02  0.17532773889E+03  0.00000000000E+00 0. -1.
         -1    1    6    6    0  503  0.73560221495E+02 -0.46523414386E+02  0.16845821724E+03  0.18961462293E+03  0.00000000000E+00 0.  1.
<mgrwt>
<rscale>  0 0.18091953E+04</rscale>
<asrwt>0</asrwt>
<pdfrwt beam="1">  1        1 0.12697337E+00 0.18091953E+04</pdfrwt>
<pdfrwt beam="2">  1       -2 0.15253572E+00 0.18091953E+04</pdfrwt>
<totfact> 0.49740258E+00</totfact>
</mgrwt>
</event>
<event>
12    4  0.4398275E-008  0.2534573E+04  0.7818608E-02  0.8390771E-01
         -2   -1    0    0    0  501 -0.00000000000E+00  0.00000000000E+00  0.45573173785E+03  0.45573173785E+03  0.00000000000E+00 0.  1.
          1   -1    0    0  501    0  0.00000000000E+00 -0.00000000000E+00 -0.35240356826E+04  0.35240356826E+04  0.00000000000E+00 0. -1.
        -24    2    1    2    0    0 -0.97670818112E+03 -0.34558516067E+03 -0.19327555047E+04  0.21942674035E+04  0.76665657494E+02 0.  0.
        254    2    1    2    0    0  0.97670818112E+03  0.34558516067E+03 -0.11355484400E+04  0.17855000169E+04  0.90837881760E+03 0.  0.
         23    2    4    4    0    0  0.42953394342E+03  0.61858202766E+03 -0.58720122042E+03  0.95890886153E+03  0.86935596676E+02 0.  0.
         23    2    4    4    0    0  0.54717423771E+03 -0.27299686699E+03 -0.54834721962E+03  0.82659115536E+03  0.92958749202E+02 0.  0.
          3    1    3    3  502    0 -0.20495170604E+03 -0.61852173305E+02 -0.46412176391E+03  0.51111633205E+03  0.00000000000E+00 0. -1.
         -4    1    3    3    0  502 -0.77175647508E+03 -0.28373298737E+03 -0.14686337408E+04  0.16831510715E+04  0.00000000000E+00 0.  1.
         11    1    5    5    0    0  0.40067002065E+03  0.57657789127E+03 -0.57227705462E+03  0.90580326638E+03  0.00000000000E+00 0. -1.
        -11    1    5    5    0    0  0.28863922763E+02  0.42004136389E+02 -0.14924165808E+02  0.53105595149E+02  0.00000000000E+00 0.  1.
          3    1    6    6  503    0  0.53018020838E+03 -0.27100693028E+03 -0.50771226053E+03  0.78250083010E+03  0.00000000000E+00 0. -1.
         -3    1    6    6    0  503  0.16994029327E+02 -0.19899367106E+01 -0.40634959091E+02  0.44090325256E+02  0.00000000000E+00 0.  1.
<mgrwt>
<rscale>  0 0.25345729E+04</rscale>
<asrwt>0</asrwt>
<pdfrwt beam="1">  1        1 0.54215933E+00 0.25345729E+04</pdfrwt>
<pdfrwt beam="2">  1       -2 0.70112575E-01 0.25345729E+04</pdfrwt>
<totfact> 0.34540460E-01</totfact>
</mgrwt>
</event>
<event>
12    4  0.4398275E-008  0.1839460E+04  0.7818608E-02  0.8685592E-01
          1   -1    0    0  501    0  0.00000000000E+00  0.00000000000E+00  0.35305460690E+04  0.35305460690E+04  0.00000000000E+00 0. -1.
         -2   -1    0    0    0  501 -0.00000000000E+00 -0.00000000000E+00 -0.23959562687E+03  0.23959562687E+03  0.00000000000E+00 0.  1.
        -24    2    1    2    0    0  0.14731025730E+02  0.40328254204E+03  0.91207023535E+02  0.42135098627E+03  0.79775438883E+02 0.  0.
        254    2    1    2    0    0 -0.14731025730E+02 -0.40328254204E+03  0.31997434186E+04  0.33487907096E+04  0.90176907249E+03 0.  0.
         23    2    4    4    0    0 -0.43452567223E+03 -0.12776492509E+03  0.18248923172E+04  0.18823258430E+04  0.88216630136E+02 0.  0.
         23    2    4    4    0    0  0.41979464650E+03 -0.27551761695E+03  0.13748511014E+04  0.14664648667E+04  0.90366761554E+02 0.  0.
          1    1    3    3  502    0 -0.68690090908E+01  0.11715907803E+02 -0.93666295695E+01  0.16497864439E+02  0.00000000000E+00 0. -1.
         -2    1    3    3    0  502  0.21600034821E+02  0.39156663424E+03  0.10057365310E+03  0.40485312183E+03  0.00000000000E+00 0.  1.
         11    1    5    5    0    0 -0.71871576154E+02  0.11822712348E+02  0.28564054653E+03  0.29478097260E+03  0.00000000000E+00 0. -1.
        -11    1    5    5    0    0 -0.36265409608E+03 -0.13958763744E+03  0.15392517707E+04  0.15875448704E+04  0.00000000000E+00 0.  1.
          2    1    6    6  503    0  0.23692158669E+03 -0.16043984328E+03  0.90844006226E+03  0.95243694189E+03  0.00000000000E+00 0. -1.
         -2    1    6    6    0  503  0.18287305981E+03 -0.11507777367E+03  0.46641103916E+03  0.51402792477E+03  0.00000000000E+00 0.  1.
<mgrwt>
<rscale>  0 0.18394601E+04</rscale>
<asrwt>0</asrwt>
<pdfrwt beam="1">  1        1 0.54316089E+00 0.18394601E+04</pdfrwt>
<pdfrwt beam="2">  1       -2 0.36860868E-01 0.18394601E+04</pdfrwt>
<totfact> 0.13625310E+00</totfact>
</mgrwt>
</event>
<event>
12    4  0.4398275E-008  0.1326114E+04  0.7818608E-02  0.9009109E-01
         -2   -1    0    0    0  501 -0.00000000000E+00  0.00000000000E+00  0.23376815223E+03  0.23376815223E+03  0.00000000000E+00 0.  1.
          1   -1    0    0  501    0  0.00000000000E+00 -0.00000000000E+00 -0.18806871433E+04  0.18806871433E+04  0.00000000000E+00 0. -1.
        -24    2    1    2    0    0 -0.87655510718E+02 -0.20010806375E+03 -0.89434637666E+03  0.92400972111E+03  0.78814957431E+02 0.  0.
        254    2    1    2    0    0  0.87655510718E+02  0.20010806375E+03 -0.75257261444E+03  0.11904455745E+04  0.89614083715E+03 0.  0.
         23    2    4    4    0    0 -0.38384411972E+03 -0.88361970602E+01 -0.37848626980E+03  0.54685257274E+03  0.91550495709E+02 0.  0.
         23    2    4    4    0    0  0.47149963043E+03  0.20894426081E+03 -0.37408634464E+03  0.64359300172E+03  0.91113956080E+02 0.  0.
          3    1    3    3  502    0 -0.31930836357E+02 -0.14216040499E+03 -0.46823076347E+03  0.49037659703E+03  0.00000000000E+00 0. -1.
         -4    1    3    3    0  502 -0.55724674362E+02 -0.57947658756E+02 -0.42611561319E+03  0.43363312408E+03  0.00000000000E+00 0.  1.
         11    1    5    5    0    0 -0.20191936919E+03  0.33046803513E+02 -0.16188045255E+03  0.26089998810E+03  0.00000000000E+00 0.  1.
        -11    1    5    5    0    0 -0.18192475053E+03 -0.41883000573E+02 -0.21660581725E+03  0.28595258463E+03  0.00000000000E+00 0. -1.
          4    1    6    6  503    0  0.41565352588E+03  0.20981950492E+03 -0.31421632204E+03  0.56171520832E+03  0.00000000000E+00 0.  1.
         -4    1    6    6    0  503  0.55846104558E+02 -0.87524411193E+00 -0.59870022595E+02  0.81877793400E+02  0.00000000000E+00 0. -1.
<mgrwt>
<rscale>  0 0.13261143E+04</rscale>
<asrwt>0</asrwt>
<pdfrwt beam="1">  1        1 0.28933649E+00 0.13261143E+04</pdfrwt>
<pdfrwt beam="2">  1       -2 0.35964330E-01 0.13261143E+04</pdfrwt>
<totfact> 0.22491084E+01</totfact>
</mgrwt>
</event>
<event>
12    4  0.4398275E-008  0.1221482E+04  0.7818608E-02  0.9094258E-01
          1   -1    0    0  501    0  0.00000000000E+00  0.00000000000E+00  0.70552399270E+03  0.70552399270E+03  0.00000000000E+00 0. -1.
         -2   -1    0    0    0  501 -0.00000000000E+00 -0.00000000000E+00 -0.52869173184E+03  0.52869173184E+03  0.00000000000E+00 0.  1.
        -24    2    1    2    0    0  0.39501135558E+02 -0.20212998115E+03 -0.15416359471E+03  0.26933429419E+03  0.79735055667E+02 0.  0.
        254    2    1    2    0    0 -0.39501135558E+02  0.20212998115E+03  0.33099585558E+03  0.96488143035E+03  0.88262169089E+03 0.  0.
         23    2    4    4    0    0  0.95510489124E+02 -0.15650272210E+03  0.49602081550E+03  0.53722572051E+03  0.94654475935E+02 0.  0.
         23    2    4    4    0    0 -0.13501162468E+03  0.35863270325E+03 -0.16502495992E+03  0.42765570984E+03  0.93864871602E+02 0.  0.
          3    1    3    3  502    0  0.59956510832E+01 -0.15831581559E+03 -0.81663846541E+02  0.17823812480E+03  0.00000000000E+00 0. -1.
         -4    1    3    3    0  502  0.33505484474E+02 -0.43814165556E+02 -0.72499748172E+02  0.91096169394E+02  0.00000000000E+00 0.  1.
         11    1    5    5    0    0  0.79971754288E+02 -0.15751053873E+03  0.36735223539E+03  0.40761834618E+03  0.00000000000E+00 0. -1.
        -11    1    5    5    0    0  0.15538734836E+02  0.10078166291E+01  0.12866858011E+03  0.12960737433E+03  0.00000000000E+00 0.  1.
          4    1    6    6  503    0 -0.11064919191E+03  0.29673211408E+03 -0.94009069271E+02  0.33034965764E+03  0.00000000000E+00 0. -1.
         -4    1    6    6    0  503 -0.24362432767E+02  0.61900589175E+02 -0.71015890648E+02  0.97306052202E+02  0.00000000000E+00 0.  1.
<mgrwt>
<rscale>  0 0.12214822E+04</rscale>
<asrwt>0</asrwt>
<pdfrwt beam="1">  1        1 0.10854215E+00 0.12214822E+04</pdfrwt>
<pdfrwt beam="2">  1       -2 0.81337189E-01 0.12214822E+04</pdfrwt>
<totfact> 0.31028470E+01</totfact>
</mgrwt>
</event>
<event>
12    4  0.4398275E-008  0.2755571E+04  0.7818608E-02  0.8317196E-01
          1   -1    0    0  501    0  0.00000000000E+00  0.00000000000E+00  0.31858159451E+04  0.31858159451E+04  0.00000000000E+00 0. -1.
         -2   -1    0    0    0  501 -0.00000000000E+00 -0.00000000000E+00 -0.59585751971E+03  0.59585751971E+03  0.00000000000E+00 0.  1.
        -24    2    1    2    0    0 -0.10978923886E+04 -0.53489740003E+03  0.13933658261E+04  0.18539239427E+04  0.63896279529E+02 0.  0.
        254    2    1    2    0    0  0.10978923886E+04  0.53489740003E+03  0.11965925993E+04  0.19277495221E+04  0.89045013649E+03 0.  0.
         23    2    4    4    0    0  0.72285129127E+03  0.28511688094E+03  0.16674300723E+03  0.79985515118E+03  0.90329437719E+02 0.  0.
         23    2    4    4    0    0  0.37504109737E+03  0.24978051909E+03  0.10298495921E+04  0.11278943709E+04  0.92246393814E+02 0.  0.
          1    1    3    3  502    0 -0.22966871960E+03 -0.14069960195E+03  0.31522332006E+03  0.41462011560E+03  0.00000000000E+00 0. -1.
         -2    1    3    3    0  502 -0.86822366905E+03 -0.39419779808E+03  0.10781425060E+04  0.14393038271E+04  0.00000000000E+00 0.  1.
         11    1    5    5    0    0  0.32211574218E+03  0.12391348078E+03  0.28383954328E+02  0.34629286875E+03  0.00000000000E+00 0.  1.
        -11    1    5    5    0    0  0.40073554909E+03  0.16120340016E+03  0.13835905290E+03  0.45356228243E+03  0.00000000000E+00 0. -1.
          3    1    6    6  503    0 -0.45673807668E+01  0.24341097566E+01  0.43364875011E+01  0.67521093906E+01  0.00000000000E+00 0. -1.
         -3    1    6    6    0  503  0.37960847814E+03  0.24734640934E+03  0.10255131046E+04  0.11211422615E+04  0.00000000000E+00 0.  1.
<mgrwt>
<rscale>  0 0.27555706E+04</rscale>
<asrwt>0</asrwt>
<pdfrwt beam="1">  1        1 0.49012552E+00 0.27555706E+04</pdfrwt>
<pdfrwt beam="2">  1       -2 0.91670390E-01 0.27555706E+04</pdfrwt>
<totfact> 0.33715414E-01</totfact>
</mgrwt>
</event>
<event>
12    4  0.4398275E-008  0.2014242E+04  0.7818608E-02  0.8599991E-01
          1   -1    0    0  501    0  0.00000000000E+00  0.00000000000E+00  0.33939325302E+04  0.33939325302E+04  0.00000000000E+00 0. -1.
         -2   -1    0    0    0  501 -0.00000000000E+00 -0.00000000000E+00 -0.29885462304E+03  0.29885462304E+03  0.00000000000E+00 0.  1.
        -24    2    1    2    0    0  0.21234584058E+03 -0.28152286785E+03  0.25648017699E+04  0.25900590855E+04  0.76498800659E+02 0.  0.
        254    2    1    2    0    0 -0.21234584058E+03  0.28152286785E+03  0.53027613725E+03  0.11027280677E+04  0.90026136673E+03 0.  0.
         23    2    4    4    0    0  0.15658542822E+03  0.51262633117E+02 -0.18275299290E+03  0.26238200712E+03  0.91097790108E+02 0.  0.
         23    2    4    4    0    0 -0.36893126880E+03  0.23026023474E+03  0.71302913015E+03  0.84034606058E+03  0.92956464496E+02 0.  0.
          1    1    3    3  502    0  0.17332939924E+03 -0.21733655224E+03  0.17675652585E+04  0.17892918154E+04  0.00000000000E+00 0. -1.
         -4    1    3    3    0  502  0.39016441349E+02 -0.64186315616E+02  0.79723651143E+03  0.80076727017E+03  0.00000000000E+00 0.  1.
         11    1    5    5    0    0  0.12514222669E+03 -0.27614174460E+01 -0.11191482851E+03  0.16790810334E+03  0.00000000000E+00 0. -1.
        -11    1    5    5    0    0  0.31443201534E+02  0.54024050563E+02 -0.70838164392E+02  0.94473903785E+02  0.00000000000E+00 0.  1.
          2    1    6    6  503    0 -0.18694202404E+03  0.12046827048E+03  0.27664560075E+03  0.35495452238E+03  0.00000000000E+00 0. -1.
         -2    1    6    6    0  503 -0.18198924476E+03  0.10979196426E+03  0.43638352940E+03  0.48539153820E+03  0.00000000000E+00 0.  1.
<mgrwt>
<rscale>  0 0.20142417E+04</rscale>
<asrwt>0</asrwt>
<pdfrwt beam="1">  1        1 0.52214344E+00 0.20142417E+04</pdfrwt>
<pdfrwt beam="2">  1       -2 0.45977637E-01 0.20142417E+04</pdfrwt>
<totfact> 0.11084221E+00</totfact>
</mgrwt>
</event>
<event>
12    4  0.4398275E-008  0.2172384E+04  0.7818608E-02  0.8530011E-01
         -2   -1    0    0    0  501 -0.00000000000E+00  0.00000000000E+00  0.18149956456E+04  0.18149956456E+04  0.00000000000E+00 0.  1.
          1   -1    0    0  501    0  0.00000000000E+00 -0.00000000000E+00 -0.65003601480E+03  0.65003601480E+03  0.00000000000E+00 0. -1.
        -24    2    1    2    0    0  0.20329382309E+03  0.86401789184E+03  0.61834361107E+03  0.10846048979E+04  0.78509027222E+02 0.  0.
        254    2    1    2    0    0 -0.20329382309E+03 -0.86401789184E+03  0.54661601974E+03  0.13804267625E+04  0.90494954422E+03 0.  0.
         23    2    4    4    0    0 -0.44884378750E+03 -0.40643461142E+03  0.59086643463E+03  0.85134773475E+03  0.94973590783E+02 0.  0.
         23    2    4    4    0    0  0.24554996441E+03 -0.45758328041E+03 -0.44250414889E+02  0.52907902772E+03  0.91045454714E+02 0.  0.
          3    1    3    3  502    0  0.12754233615E+03  0.40711900128E+03  0.32591424535E+03  0.53687337803E+03  0.00000000000E+00 0. -1.
         -4    1    3    3    0  502  0.75751486944E+02  0.45689889055E+03  0.29242936572E+03  0.54773151991E+03  0.00000000000E+00 0.  1.
         11    1    5    5    0    0 -0.21119619276E+03 -0.19122891688E+03  0.34428022232E+03  0.44687940428E+03  0.00000000000E+00 0. -1.
        -11    1    5    5    0    0 -0.23764759474E+03 -0.21520569455E+03  0.24658621230E+03  0.40446833047E+03  0.00000000000E+00 0.  1.
          1    1    6    6  503    0  0.15687184887E+03 -0.36121094741E+03 -0.55218098571E+02  0.39765709337E+03  0.00000000000E+00 0. -1.
         -1    1    6    6    0  503  0.88678115539E+02 -0.96372333001E+02  0.10967683683E+02  0.13142193435E+03  0.00000000000E+00 0.  1.
<mgrwt>
<rscale>  0 0.21723835E+04</rscale>
<asrwt>0</asrwt>
<pdfrwt beam="1">  1        1 0.10000554E+00 0.21723835E+04</pdfrwt>
<pdfrwt beam="2">  1       -2 0.27923010E+00 0.21723835E+04</pdfrwt>
<totfact> 0.10382316E+00</totfact>
</mgrwt>
</event>
<event>
12    4  0.4398275E-008  0.2541775E+04  0.7818608E-02  0.8388252E-01
         -2   -1    0    0    0  501 -0.00000000000E+00  0.00000000000E+00  0.80704772833E+03  0.80704772833E+03  0.00000000000E+00 0.  1.
          1   -1    0    0  501    0  0.00000000000E+00 -0.00000000000E+00 -0.20013136720E+04  0.20013136720E+04  0.00000000000E+00 0. -1.
        -24    2    1    2    0    0 -0.55345478804E+03  0.93655836025E+03 -0.78617794848E+03  0.13445794442E+04  0.79776879793E+02 0.  0.
        254    2    1    2    0    0  0.55345478804E+03 -0.93655836025E+03 -0.40808799520E+03  0.14637819561E+04  0.89031906568E+03 0.  0.
         23    2    4    4    0    0  0.17691356457E+03 -0.99439936196E+03 -0.29252341303E+03  0.10551704209E+04  0.87670802639E+02 0.  0.
         23    2    4    4    0    0  0.37654122347E+03  0.57841001709E+02 -0.11556458217E+03  0.40861153521E+03  0.92083329661E+02 0.  0.
          3    1    3    3  502    0 -0.27532500779E+03  0.39158344571E+03 -0.33065832000E+03  0.58178722868E+03  0.00000000000E+00 0. -1.
         -4    1    3    3    0  502 -0.27812978025E+03  0.54497491454E+03 -0.45551962848E+03  0.76279221553E+03  0.00000000000E+00 0.  1.
         11    1    5    5    0    0  0.11999795272E+03 -0.42627980910E+03 -0.12849738214E+03  0.46111339335E+03  0.00000000000E+00 0. -1.
        -11    1    5    5    0    0  0.56915611851E+02 -0.56811955285E+03 -0.16402603089E+03  0.59405702758E+03  0.00000000000E+00 0.  1.
          1    1    6    6  503    0  0.14496443881E+03  0.91519899818E+01  0.17709247286E-01  0.14525304731E+03  0.00000000000E+00 0. -1.
         -1    1    6    6    0  503  0.23157678466E+03  0.48689011727E+02 -0.11558229142E+03  0.26335848790E+03  0.00000000000E+00 0.  1.
<mgrwt>
<rscale>  0 0.25417755E+04</rscale>
<asrwt>0</asrwt>
<pdfrwt beam="1">  1        1 0.30789441E+00 0.25417755E+04</pdfrwt>
<pdfrwt beam="2">  1       -2 0.12416119E+00 0.25417755E+04</pdfrwt>
<totfact> 0.11281012E+00</totfact>
</mgrwt>
</event>
<event>
12    4  0.4398275E-008  0.1963707E+04  0.7818608E-02  0.8623779E-01
         -2   -1    0    0    0  501 -0.00000000000E+00  0.00000000000E+00  0.94399800761E+03  0.94399800761E+03  0.00000000000E+00 0.  1.
          1   -1    0    0  501    0  0.00000000000E+00 -0.00000000000E+00 -0.10212272912E+04  0.10212272912E+04  0.00000000000E+00 0. -1.
        -24    2    1    2    0    0  0.16467414629E+03  0.88955651680E+02  0.71066186153E+03  0.73734311776E+03  0.60032569855E+02 0.  0.
        254    2    1    2    0    0 -0.16467414629E+03 -0.88955651680E+02 -0.78789114517E+03  0.12278821811E+04  0.92297969187E+03 0.  0.
         23    2    4    4    0    0  0.70621612641E+02 -0.31823885947E+03 -0.81810944251E+03  0.88545145804E+03  0.91966519873E+02 0.  0.
         23    2    4    4    0    0 -0.23529575893E+03  0.22928320779E+03  0.30218297340E+02  0.34243072306E+03  0.91710255986E+02 0.  0.
          1    1    3    3  502    0  0.83382238975E+02  0.31536145806E+02  0.44054675849E+03  0.44947588666E+03  0.00000000000E+00 0. -1.
         -2    1    3    3    0  502  0.81291907317E+02  0.57419505874E+02  0.27011510304E+03  0.28786723110E+03  0.00000000000E+00 0.  1.
         11    1    5    5    0    0  0.23086385287E+01 -0.20994796023E+03 -0.48004253965E+03  0.52395068059E+03  0.00000000000E+00 0.  1.
        -11    1    5    5    0    0  0.68312974113E+02 -0.10829089924E+03 -0.33806690286E+03  0.36150077745E+03  0.00000000000E+00 0. -1.
          1    1    6    6  503    0 -0.13239690145E+03  0.65742411760E+02  0.16130656180E+02  0.14869836006E+03  0.00000000000E+00 0. -1.
         -1    1    6    6    0  503 -0.10289885749E+03  0.16354079603E+03  0.14087641160E+02  0.19373236299E+03  0.00000000000E+00 0.  1.
<mgrwt>
<rscale>  0 0.19637072E+04</rscale>
<asrwt>0</asrwt>
<pdfrwt beam="1">  1        1 0.15711189E+00 0.19637072E+04</pdfrwt>
<pdfrwt beam="2">  1       -2 0.14523046E+00 0.19637072E+04</pdfrwt>
<totfact> 0.38771440E+00</totfact>
</mgrwt>
</event>
<event>
12    4  0.4398275E-008  0.1494580E+04  0.7818608E-02  0.8888065E-01
          1   -1    0    0  501    0  0.00000000000E+00  0.00000000000E+00  0.90592737992E+03  0.90592737992E+03  0.00000000000E+00 0. -1.
         -2   -1    0    0    0  501 -0.00000000000E+00 -0.00000000000E+00 -0.61643187741E+03  0.61643187741E+03  0.00000000000E+00 0.  1.
        -24    2    1    2    0    0  0.30783603332E+03 -0.31315142797E+03 -0.81941918029E+02  0.45488721943E+03  0.85913120187E+02 0.  0.
        254    2    1    2    0    0 -0.30783603332E+03  0.31315142797E+03  0.37143742054E+03  0.10674720379E+04  0.89927968624E+03 0.  0.
         23    2    4    4    0    0 -0.12803665470E+02 -0.10750901390E+03  0.50836195259E+03  0.52789127115E+03  0.92277827181E+02 0.  0.
         23    2    4    4    0    0 -0.29503236785E+03  0.42066044187E+03 -0.13692453205E+03  0.53958076676E+03  0.91650264292E+02 0.  0.
          3    1    3    3  502    0  0.45009138222E+02 -0.15889898387E+02  0.70239784368E+01  0.48245701024E+02  0.00000000000E+00 0. -1.
         -4    1    3    3    0  502  0.26282689510E+03 -0.29726152958E+03 -0.88965896466E+02  0.40664151840E+03  0.00000000000E+00 0.  1.
         11    1    5    5    0    0  0.36651366222E+02 -0.63447710912E+02  0.21493682794E+03  0.22708318887E+03  0.00000000000E+00 0.  1.
        -11    1    5    5    0    0 -0.49455031691E+02 -0.44061302987E+02  0.29342512466E+03  0.30080808227E+03  0.00000000000E+00 0. -1.
          4    1    6    6  503    0 -0.21388853152E+03  0.36046558422E+03 -0.92606931342E+02  0.42925491850E+03  0.00000000000E+00 0. -1.
         -4    1    6    6    0  503 -0.81143836326E+02  0.60194857651E+02 -0.44317600711E+02  0.11032584826E+03  0.00000000000E+00 0.  1.
<mgrwt>
<rscale>  0 0.14945802E+04</rscale>
<asrwt>0</asrwt>
<pdfrwt beam="1">  1        1 0.13937344E+00 0.14945802E+04</pdfrwt>
<pdfrwt beam="2">  1       -2 0.94835673E-01 0.14945802E+04</pdfrwt>
<totfact> 0.14282406E+01</totfact>
</mgrwt>
</event>
<event>
12    4  0.4398275E-008  0.2134042E+04  0.7818608E-02  0.8546394E-01
         -2   -1    0    0    0  501 -0.00000000000E+00  0.00000000000E+00  0.71172544337E+03  0.71172544337E+03  0.00000000000E+00 0.  1.
          1   -1    0    0  501    0  0.00000000000E+00 -0.00000000000E+00 -0.15996816148E+04  0.15996816148E+04  0.00000000000E+00 0. -1.
        -24    2    1    2    0    0 -0.83761697287E+02  0.79584017106E+03 -0.75472177688E+03  0.11027363672E+04  0.77749182084E+02 0.  0.
        254    2    1    2    0    0  0.83761697287E+02 -0.79584017106E+03 -0.13323439460E+03  0.12086706910E+04  0.89596642546E+03 0.  0.
         23    2    4    4    0    0  0.11794202366E+03 -0.30774194381E+03  0.36759850326E+03  0.50300174389E+03  0.96263543652E+02 0.  0.
         23    2    4    4    0    0 -0.34180326371E+02 -0.48809822725E+03 -0.50083289786E+03  0.70566894709E+03  0.87902771025E+02 0.  0.
          3    1    3    3  502    0 -0.39820979653E+02  0.53665767785E+03 -0.55070807645E+03  0.76997828481E+03  0.00000000000E+00 0. -1.
         -4    1    3    3    0  502 -0.43940717634E+02  0.25918249320E+03 -0.20401370043E+03  0.33275808242E+03  0.00000000000E+00 0.  1.
         11    1    5    5    0    0  0.95185892394E+02 -0.28903266135E+03  0.36217933543E+03  0.47304767672E+03  0.00000000000E+00 0. -1.
        -11    1    5    5    0    0  0.22756131264E+02 -0.18709282454E+02  0.54191678309E+01  0.29954067170E+02  0.00000000000E+00 0.  1.
          1    1    6    6  503    0 -0.54532786270E+02 -0.40110463636E+03 -0.37850149386E+03  0.55418601114E+03  0.00000000000E+00 0. -1.
         -1    1    6    6    0  503  0.20352459899E+02 -0.86993590891E+02 -0.12233140400E+03  0.15148293595E+03  0.00000000000E+00 0.  1.
<mgrwt>
<rscale>  0 0.21340423E+04</rscale>
<asrwt>0</asrwt>
<pdfrwt beam="1">  1        1 0.24610487E+00 0.21340423E+04</pdfrwt>
<pdfrwt beam="2">  1       -2 0.10949622E+00 0.21340423E+04</pdfrwt>
<totfact> 0.29861195E+00</totfact>
</mgrwt>
</event>
<event>
12    4  0.4398275E-008  0.1816710E+04  0.7818608E-02  0.8697463E-01
          1   -1    0    0  501    0  0.00000000000E+00  0.00000000000E+00  0.14324085375E+04  0.14324085375E+04  0.00000000000E+00 0. -1.
         -2   -1    0    0    0  501 -0.00000000000E+00 -0.00000000000E+00 -0.57602905884E+03  0.57602905884E+03  0.00000000000E+00 0.  1.
        -24    2    1    2    0    0  0.62293791636E+03  0.23074211859E+03  0.45456862411E+03  0.80873384966E+03  0.78257476447E+02 0.  0.
        254    2    1    2    0    0 -0.62293791636E+03 -0.23074211859E+03  0.40181085451E+03  0.11997037466E+04  0.91462754384E+03 0.  0.
         23    2    4    4    0    0 -0.84691161093E+02 -0.50379937479E+03  0.17338204053E+03  0.54708825566E+03  0.90872573977E+02 0.  0.
         23    2    4    4    0    0 -0.53824675527E+03  0.27305725619E+03  0.22842881398E+03  0.65261549098E+03  0.97249273958E+02 0.  0.
          3    1    3    3  502    0  0.34405262081E+03  0.11421589190E+03  0.29230259701E+03  0.46568045274E+03  0.00000000000E+00 0. -1.
         -4    1    3    3    0  502  0.27888529556E+03  0.11652622669E+03  0.16226602710E+03  0.34305339692E+03  0.00000000000E+00 0.  1.
         11    1    5    5    0    0 -0.18167069328E+02 -0.80422358537E+02  0.65093903283E+02  0.10504767682E+03  0.00000000000E+00 0. -1.
        -11    1    5    5    0    0 -0.66524091766E+02 -0.42337701625E+03  0.10828813724E+03  0.44204057884E+03  0.00000000000E+00 0.  1.
          3    1    6    6  503    0 -0.49565086986E+02  0.22347089035E+02 -0.74278409661E+01  0.54874976608E+02  0.00000000000E+00 0. -1.
         -3    1    6    6    0  503 -0.48868166829E+03  0.25071016716E+03  0.23585665495E+03  0.59774051437E+03  0.00000000000E+00 0.  1.
<mgrwt>
<rscale>  0 0.18167101E+04</rscale>
<asrwt>0</asrwt>
<pdfrwt beam="1">  1        1 0.22037054E+00 0.18167101E+04</pdfrwt>
<pdfrwt beam="2">  1       -2 0.88619855E-01 0.18167101E+04</pdfrwt>
<totfact> 0.66021074E+00</totfact>
</mgrwt>
</event>
<event>
12    4  0.4398275E-008  0.1594236E+04  0.7818608E-02  0.8824097E-01
         -2   -1    0    0    0  501 -0.00000000000E+00  0.00000000000E+00  0.10287415743E+04  0.10287415743E+04  0.00000000000E+00 0.  1.
          1   -1    0    0  501    0  0.00000000000E+00 -0.00000000000E+00 -0.61764515512E+03  0.61764515512E+03  0.00000000000E+00 0. -1.
        -24    2    1    2    0    0 -0.41100120176E+03  0.27581559488E+03 -0.80153929373E+02  0.50785412905E+03  0.80591151976E+02 0.  0.
        254    2    1    2    0    0  0.41100120176E+03 -0.27581559488E+03  0.49125034850E+03  0.11385326003E+04  0.89996296972E+03 0.  0.
         23    2    4    4    0    0  0.51330156896E+03  0.17554602489E+03  0.20460000979E+03  0.58661785208E+03  0.89243670990E+02 0.  0.
         23    2    4    4    0    0 -0.10230036721E+03 -0.45136161978E+03  0.28665033871E+03  0.55191474824E+03  0.90822880946E+02 0.  0.
          3    1    3    3  502    0 -0.31944573320E+03  0.21525890406E+03 -0.27709528562E+02  0.38619915874E+03  0.00000000000E+00 0. -1.
         -4    1    3    3    0  502 -0.91555468553E+02  0.60556690826E+02 -0.52444400811E+02  0.12165497031E+03  0.00000000000E+00 0.  1.
         11    1    5    5    0    0  0.21266852992E+03  0.10576374923E+03  0.55745562643E+02  0.24397016625E+03  0.00000000000E+00 0. -1.
        -11    1    5    5    0    0  0.30063303905E+03  0.69782275666E+02  0.14885444715E+03  0.34264768582E+03  0.00000000000E+00 0.  1.
          3    1    6    6  503    0 -0.33850061780E+02 -0.11131277618E+03  0.11981394726E+03  0.16700821172E+03  0.00000000000E+00 0. -1.
         -3    1    6    6    0  503 -0.68450305428E+02 -0.34004884359E+03  0.16683639145E+03  0.38490653652E+03  0.00000000000E+00 0.  1.
<mgrwt>
<rscale>  0 0.15942362E+04</rscale>
<asrwt>0</asrwt>
<pdfrwt beam="1">  1        1 0.95022331E-01 0.15942362E+04</pdfrwt>
<pdfrwt beam="2">  1       -2 0.15826794E+00 0.15942362E+04</pdfrwt>
<totfact> 0.71529063E+00</totfact>
</mgrwt>
</event>
<event>
12    4  0.4398275E-008  0.1809383E+04  0.7818608E-02  0.8701325E-01
         -2   -1    0    0    0  501 -0.00000000000E+00  0.00000000000E+00  0.15475442230E+04  0.15475442230E+04  0.00000000000E+00 0.  1.
          1   -1    0    0  501    0  0.00000000000E+00 -0.00000000000E+00 -0.52888113791E+03  0.52888113791E+03  0.00000000000E+00 0. -1.
        -24    2    1    2    0    0  0.58897713037E+02  0.19283478732E+03  0.11212715572E+04  0.11415565379E+04  0.72437756088E+02 0.  0.
        254    2    1    2    0    0 -0.58897713037E+02 -0.19283478732E+03 -0.10260847205E+03  0.93486882303E+03  0.90708159608E+03 0.  0.
         23    2    4    4    0    0  0.35245503583E+03 -0.32507671295E+03 -0.64063286076E+02  0.49171273108E+03  0.88192310893E+02 0.  0.
         23    2    4    4    0    0 -0.41135274886E+03  0.13224192562E+03 -0.38545185971E+02  0.44315609196E+03  0.90568093639E+02 0.  0.
          3    1    3    3  502    0  0.93617698220E+01 -0.10491725077E+01  0.18337448844E+02  0.20615662184E+02  0.00000000000E+00 0. -1.
         -4    1    3    3    0  502  0.49535943215E+02  0.19388395983E+03  0.11029341083E+04  0.11209408757E+04  0.00000000000E+00 0.  1.
         11    1    5    5    0    0  0.12610560803E+03 -0.16961348813E+03 -0.47436954287E+02  0.21661399854E+03  0.00000000000E+00 0. -1.
        -11    1    5    5    0    0  0.22634942779E+03 -0.15546322482E+03 -0.16626331789E+02  0.27509873253E+03  0.00000000000E+00 0.  1.
          3    1    6    6  503    0 -0.25326780305E+03  0.11298519281E+03 -0.56079653682E+02  0.28294020820E+03  0.00000000000E+00 0. -1.
         -3    1    6    6    0  503 -0.15808494581E+03  0.19256732815E+02  0.17534467711E+02  0.16021588376E+03  0.00000000000E+00 0.  1.
<mgrwt>
<rscale>  0 0.18093833E+04</rscale>
<asrwt>0</asrwt>
<pdfrwt beam="1">  1        1 0.81366329E-01 0.18093833E+04</pdfrwt>
<pdfrwt beam="2">  1       -2 0.23808372E+00 0.18093833E+04</pdfrwt>
<totfact> 0.25740833E+00</totfact>
</mgrwt>
</event>
<event>
12    4  0.4398275E-008  0.1261561E+04  0.7818608E-02  0.9060616E-01
         -2   -1    0    0    0  501 -0.00000000000E+00  0.00000000000E+00  0.14041819048E+03  0.14041819048E+03  0.00000000000E+00 0.  1.
          1   -1    0    0  501    0  0.00000000000E+00 -0.00000000000E+00 -0.28335642894E+04  0.28335642894E+04  0.00000000000E+00 0. -1.
        -24    2    1    2    0    0  0.74677635721E+02 -0.26623288137E+03 -0.41238301672E+03  0.50266590004E+03  0.78463737982E+02 0.  0.
        254    2    1    2    0    0 -0.74677635721E+02  0.26623288137E+03 -0.22807630822E+04  0.24713165798E+04  0.91053209955E+03 0.  0.
         23    2    4    4    0    0  0.32882790539E+03  0.14601836606E+03 -0.17431448967E+04  0.17823233954E+04  0.93131091537E+02 0.  0.
         23    2    4    4    0    0 -0.40350554111E+03  0.12021451532E+03 -0.53761818547E+03  0.68899318444E+03  0.91706289124E+02 0.  0.
          1    1    3    3  502    0 -0.19378341449E+01 -0.15364573608E+02 -0.20005585538E+01  0.15614978637E+02  0.00000000000E+00 0. -1.
         -2    1    3    3    0  502  0.76615469866E+02 -0.25086830777E+03 -0.41038245817E+03  0.48705092140E+03  0.00000000000E+00 0.  1.
         11    1    5    5    0    0  0.15337378720E+03  0.96934509400E+02 -0.68571425956E+03  0.70931224681E+03  0.00000000000E+00 0.  1.
        -11    1    5    5    0    0  0.17545411819E+03  0.49083856658E+02 -0.10574306371E+04  0.10730111486E+04  0.00000000000E+00 0. -1.
          3    1    6    6  503    0 -0.20689984908E+03  0.64524508597E+02 -0.20320692158E+03  0.29709259960E+03  0.00000000000E+00 0. -1.
         -3    1    6    6    0  503 -0.19660569204E+03  0.55690006718E+02 -0.33441126388E+03  0.39190058484E+03  0.00000000000E+00 0.  1.
<mgrwt>
<rscale>  0 0.12615609E+04</rscale>
<asrwt>0</asrwt>
<pdfrwt beam="1">  1        1 0.43593297E+00 0.12615609E+04</pdfrwt>
<pdfrwt beam="2">  1       -2 0.21602798E-01 0.12615609E+04</pdfrwt>
<totfact> 0.12837860E+01</totfact>
</mgrwt>
</event>
