<event>
12    1  0.1495204E-007  0.1537713E+04  0.7818608E-02  0.8859754E-01
         -1   -1    0    0    0  501 -0.00000000000E+00  0.00000000000E+00  0.21474586769E+03  0.21474586769E+03  0.00000000000E+00 0.  1.
          1   -1    0    0  501    0  0.00000000000E+00 -0.00000000000E+00 -0.27527439296E+04  0.27527439296E+04  0.00000000000E+00 0. -1.
         23    2    1    2    0    0  0.36113147427E+03  0.28368082322E+03 -0.47365857617E+03  0.66582693028E+03  0.89901630314E+02 0.  0.
        254    2    1    2    0    0 -0.36113147427E+03 -0.28368082322E+03 -0.20643394858E+04  0.23016628670E+04  0.90844025109E+03 0.  0.
        -24    2    4    4    0    0 -0.51190152214E+03 -0.49484443160E+03 -0.17171934197E+04  0.18606172717E+04  0.78925351932E+02 0.  0.
         24    2    4    4    0    0  0.15077004787E+03  0.21116360838E+03 -0.34714606610E+03  0.44104559537E+03  0.81787218736E+02 0.  0.
         11    1    3    3    0    0  0.34600318070E+03  0.24941332649E+03 -0.45608623929E+03  0.62445165238E+03  0.00000000000E+00 0.  1.
        -11    1    3    3    0    0  0.15128293576E+02  0.34267496724E+02 -0.17572336885E+02  0.41375277907E+02  0.00000000000E+00 0. -1.
          4    1    6    6  502    0  0.29517677696E+02  0.13501475552E+02 -0.85370809366E+02  0.91333226323E+02  0.00000000000E+00 0. -1.
          1    1    5    5  503    0 -0.19104147787E+03 -0.22547052658E+03 -0.77729766304E+03  0.83158009932E+03  0.00000000000E+00 0. -1.
         -4    1    5    5    0  503 -0.32086004427E+03 -0.26937390502E+03 -0.93989575665E+03  0.10290371724E+04  0.00000000000E+00 0.  1.
         -3    1    6    6    0  502  0.12125237017E+03  0.19766213283E+03 -0.26177525673E+03  0.34971236905E+03  0.00000000000E+00 0.  1.
<mgrwt>
<rscale>  0 0.15377131E+04</rscale>
<asrwt>0</asrwt>
<pdfrwt beam="1">  1        1 0.42349906E+00 0.15377131E+04</pdfrwt>
<pdfrwt beam="2">  1       -1 0.33037826E-01 0.15377131E+04</pdfrwt>
<totfact> 0.75001566E+00</totfact>
</mgrwt>
</event>
<event>
12    1  0.1495204E-007  0.1298399E+04  0.7818608E-02  0.9030836E-01
         -2   -1    0    0    0  501 -0.00000000000E+00  0.00000000000E+00  0.28436758513E+03  0.28436758513E+03  0.00000000000E+00 0.  1.
          2   -1    0    0  501    0  0.00000000000E+00 -0.00000000000E+00 -0.14820950270E+04  0.14820950270E+04  0.00000000000E+00 0. -1.
         23    2    1    2    0    0 -0.21637901882E+03 -0.21747110609E+03 -0.15233505751E+03  0.35443088624E+03  0.91113783836E+02 0.  0.
        254    2    1    2    0    0  0.21637901882E+03  0.21747110609E+03 -0.10453923844E+04  0.14120317259E+04  0.89826209757E+03 0.  0.
        -24    2    4    4    0    0 -0.16967229584E+03  0.45203104228E+03 -0.56496433489E+03  0.74759080231E+03  0.81157604970E+02 0.  0.
         24    2    4    4    0    0  0.38605131466E+03 -0.23455993619E+03 -0.48042804951E+03  0.66444092363E+03  0.81342787136E+02 0.  0.
         13    1    3    3    0    0 -0.18326532371E+03 -0.20277380045E+03 -0.16095508337E+03  0.31719068695E+03  0.00000000000E+00 0.  1.
        -13    1    3    3    0    0 -0.33113695115E+02 -0.14697305631E+02  0.86200258667E+01  0.37240199287E+02  0.00000000000E+00 0. -1.
          4    1    6    6  502    0  0.25956446923E+03 -0.16725231852E+03 -0.37914906754E+03  0.48897961834E+03  0.00000000000E+00 0. -1.
          3    1    5    5  503    0 -0.72984870209E+02  0.18591939760E+03 -0.17414055803E+03  0.26498631594E+03  0.00000000000E+00 0. -1.
         -2    1    5    5    0  503 -0.96687425627E+02  0.26611164468E+03 -0.39082377686E+03  0.48260448637E+03  0.00000000000E+00 0.  1.
         -3    1    6    6    0  502  0.12648684543E+03 -0.67307617677E+02 -0.10127898196E+03  0.17546130528E+03  0.00000000000E+00 0.  1.
<mgrwt>
<rscale>  0 0.12983987E+04</rscale>
<asrwt>0</asrwt>
<pdfrwt beam="1">  1        2 0.22801462E+00 0.12983987E+04</pdfrwt>
<pdfrwt beam="2">  1       -2 0.43748858E-01 0.12983987E+04</pdfrwt>
<totfact> 0.63083353E+01</totfact>
</mgrwt>
</event>
<event>
12    1  0.1495204E-007  0.1586562E+04  0.7818608E-02  0.8828846E-01
          2   -1    0    0  501    0  0.00000000000E+00  0.00000000000E+00  0.56788345761E+03  0.56788345761E+03  0.00000000000E+00 0. -1.
         -2   -1    0    0    0  501 -0.00000000000E+00 -0.00000000000E+00 -0.11081412683E+04  0.11081412683E+04  0.00000000000E+00 0.  1.
         23    2    1    2    0    0  0.22951261176E+03 -0.46191047226E+03 -0.62445377370E+02  0.52693616507E+03  0.87891828728E+02 0.  0.
        254    2    1    2    0    0 -0.22951261176E+03  0.46191047226E+03 -0.47781243328E+03  0.11490885608E+04  0.90887979175E+03 0.  0.
        -24    2    4    4    0    0 -0.28490812564E+03 -0.35784991909E+02  0.15713650507E+03  0.33675574908E+03  0.79116038872E+02 0.  0.
         24    2    4    4    0    0  0.55395513880E+02  0.49769546417E+03 -0.63494893836E+03  0.81233281173E+03  0.77168676832E+02 0.  0.
         13    1    3    3    0    0  0.61928617683E+02 -0.19199614667E+03  0.64687934736E+01  0.20184033124E+03  0.00000000000E+00 0. -1.
        -13    1    3    3    0    0  0.16758399408E+03 -0.26991432559E+03 -0.68914170844E+02  0.32509583383E+03  0.00000000000E+00 0.  1.
          2    1    6    6  502    0 -0.86743398788E+01  0.11726351532E+03 -0.18982359310E+03  0.22329122844E+03  0.00000000000E+00 0. -1.
          1    1    5    5  503    0 -0.90458742593E+01  0.14316130667E+02  0.44857551052E+01  0.17518602605E+02  0.00000000000E+00 0. -1.
         -2    1    5    5    0  503 -0.27586225138E+03 -0.50101122576E+02  0.15265074997E+03  0.31923714647E+03  0.00000000000E+00 0.  1.
         -1    1    6    6    0  502  0.64069853759E+02  0.38043194885E+03 -0.44512534525E+03  0.58904158330E+03  0.00000000000E+00 0.  1.
<mgrwt>
<rscale>  0 0.15865624E+04</rscale>
<asrwt>0</asrwt>
<pdfrwt beam="1">  1        2 0.87366687E-01 0.15865624E+04</pdfrwt>
<pdfrwt beam="2">  1       -2 0.17048327E+00 0.15865624E+04</pdfrwt>
<totfact> 0.10745918E+01</totfact>
</mgrwt>
</event>
<event>
12    1  0.1495204E-007  0.1477975E+04  0.7818608E-02  0.8899233E-01
         -2   -1    0    0    0  501 -0.00000000000E+00  0.00000000000E+00  0.62344457211E+03  0.62344457211E+03  0.00000000000E+00 0. -1.
          2   -1    0    0  501    0  0.00000000000E+00 -0.00000000000E+00 -0.87594382527E+03  0.87594382527E+03  0.00000000000E+00 0.  1.
         23    2    1    2    0    0 -0.27318205931E+03  0.34381002968E+03 -0.13812415771E+03  0.46917229407E+03  0.90612275892E+02 0.  0.
        254    2    1    2    0    0  0.27318205931E+03 -0.34381002968E+03 -0.11437509545E+03  0.10302161033E+04  0.92489447129E+03 0.  0.
        -24    2    4    4    0    0 -0.29557170142E+03 -0.68742194175E+02 -0.22222099304E+03  0.38439058202E+03  0.79283225558E+02 0.  0.
         24    2    4    4    0    0  0.56875376072E+03 -0.27506783550E+03  0.10784589759E+03  0.64582552130E+03  0.79477744451E+02 0.  0.
         11    1    3    3    0    0 -0.49212659227E+02  0.72585140435E+02 -0.66869886280E+02  0.11028177606E+03  0.00000000000E+00 0. -1.
        -11    1    3    3    0    0 -0.22396940008E+03  0.27122488924E+03 -0.71254271430E+02  0.35889051801E+03  0.00000000000E+00 0.  1.
          4    1    6    6  502    0  0.59814994344E+02 -0.28907645442E+02  0.37048088971E+02  0.76066066086E+02  0.00000000000E+00 0. -1.
          1    1    5    5  503    0 -0.47797314692E+02 -0.37493190853E+02 -0.66557075070E+02  0.90111968650E+02  0.00000000000E+00 0. -1.
         -2    1    5    5    0  503 -0.24777438673E+03 -0.31249003321E+02 -0.15566391797E+03  0.29427861337E+03  0.00000000000E+00 0.  1.
         -3    1    6    6    0  502  0.50893876638E+03 -0.24616019006E+03  0.70797808623E+02  0.56975945521E+03  0.00000000000E+00 0.  1.
<mgrwt>
<rscale>  0 0.14779749E+04</rscale>
<asrwt>0</asrwt>
<pdfrwt beam="1">  1        2 0.13476059E+00 0.14779749E+04</pdfrwt>
<pdfrwt beam="2">  1       -2 0.95914550E-01 0.14779749E+04</pdfrwt>
<totfact> 0.26863713E+01</totfact>
</mgrwt>
</event>
<event>
12    1  0.1495204E-007  0.2342850E+04  0.7818608E-02  0.8461215E-01
         -2   -1    0    0    0  501 -0.00000000000E+00  0.00000000000E+00  0.68927477328E+03  0.68927477328E+03  0.00000000000E+00 0. -1.
          2   -1    0    0  501    0  0.00000000000E+00 -0.00000000000E+00 -0.19908404867E+04  0.19908404867E+04  0.00000000000E+00 0.  1.
         23    2    1    2    0    0  0.98056313876E+03  0.15963649604E+03 -0.60217140731E+03  0.11652628363E+04  0.90770005247E+02 0.  0.
        254    2    1    2    0    0 -0.98056313876E+03 -0.15963649604E+03 -0.69939430614E+03  0.15148524237E+04  0.90478593616E+03 0.  0.
        -24    2    4    4    0    0  0.76920096703E+02 -0.16241350772E+03  0.65530389031E+02  0.20731898305E+03  0.79950485175E+02 0.  0.
         24    2    4    4    0    0 -0.10574832355E+04  0.27770116785E+01 -0.76492469517E+03  0.13075334407E+04  0.79091112934E+02 0.  0.
         11    1    3    3    0    0  0.14081920562E+03  0.41352020366E+02 -0.12112525122E+03  0.19029283944E+03  0.00000000000E+00 0.  1.
        -11    1    3    3    0    0  0.83974393314E+03  0.11828447568E+03 -0.48104615609E+03  0.97496999683E+03  0.00000000000E+00 0. -1.
          2    1    6    6  502    0 -0.10160269136E+04  0.13599828364E+02 -0.74669150097E+03  0.12609694057E+04  0.00000000000E+00 0. -1.
          1    1    5    5  503    0  0.79010582885E+02 -0.10674309190E+03  0.72284798172E+02  0.15120136217E+03  0.00000000000E+00 0. -1.
         -2    1    5    5    0  503 -0.20904861813E+01 -0.55670415822E+02 -0.67544091410E+01  0.56117620879E+02  0.00000000000E+00 0.  1.
         -1    1    6    6    0  502 -0.41456321822E+02 -0.10822816686E+02 -0.18233194196E+02  0.46564034948E+02  0.00000000000E+00 0.  1.
<mgrwt>
<rscale>  0 0.23428497E+04</rscale>
<asrwt>0</asrwt>
<pdfrwt beam="1">  1        2 0.30628315E+00 0.23428497E+04</pdfrwt>
<pdfrwt beam="2">  1       -2 0.10604227E+00 0.23428497E+04</pdfrwt>
<totfact> 0.43838539E+00</totfact>
</mgrwt>
</event>
<event>
12    1  0.1495204E-007  0.1324323E+04  0.7818608E-02  0.9010496E-01
         -2   -1    0    0    0  501 -0.00000000000E+00  0.00000000000E+00  0.50788369950E+03  0.50788369950E+03  0.00000000000E+00 0.  1.
          2   -1    0    0  501    0  0.00000000000E+00 -0.00000000000E+00 -0.86330302439E+03  0.86330302439E+03  0.00000000000E+00 0. -1.
         23    2    1    2    0    0 -0.22436772046E+03  0.21662301071E+03  0.82231832503E+02  0.33499098128E+03  0.90501273526E+02 0.  0.
        254    2    1    2    0    0  0.22436772046E+03 -0.21662301071E+03 -0.43765115740E+03  0.10361957426E+04  0.88594394782E+03 0.  0.
        -24    2    4    4    0    0  0.26452022383E+03 -0.17545564967E+02  0.21330686196E+03  0.34943156477E+03  0.79522358064E+02 0.  0.
         24    2    4    4    0    0 -0.40152503367E+02 -0.19907744575E+03 -0.65095801936E+03  0.68676417784E+03  0.81575977315E+02 0.  0.
         11    1    3    3    0    0 -0.95678290160E+02  0.67086554851E+02 -0.98580535581E+01  0.11726944303E+03  0.00000000000E+00 0. -1.
        -11    1    3    3    0    0 -0.12868943030E+03  0.14953645586E+03  0.92089886061E+02  0.21772153825E+03  0.00000000000E+00 0.  1.
          2    1    6    6  502    0 -0.58228858325E+01 -0.76487609301E+02 -0.13440083978E+03  0.15475091634E+03  0.00000000000E+00 0. -1.
          3    1    5    5  503    0  0.10963793645E+03  0.31184037907E+02  0.97490029052E+02  0.14999075669E+03  0.00000000000E+00 0. -1.
         -4    1    5    5    0  503  0.15488228738E+03 -0.48729602874E+02  0.11581683291E+03  0.19944080807E+03  0.00000000000E+00 0.  1.
         -1    1    6    6    0  502 -0.34329617535E+02 -0.12258983645E+03 -0.51655717958E+03  0.53201326150E+03  0.00000000000E+00 0.  1.
<mgrwt>
<rscale>  0 0.13243225E+04</rscale>
<asrwt>0</asrwt>
<pdfrwt beam="1">  1        2 0.13281585E+00 0.13243225E+04</pdfrwt>
<pdfrwt beam="2">  1       -2 0.78135955E-01 0.13243225E+04</pdfrwt>
<totfact> 0.44326070E+01</totfact>
</mgrwt>
</event>
<event>
12    1  0.1495204E-007  0.1279649E+04  0.7818608E-02  0.9045861E-01
         -2   -1    0    0    0  501 -0.00000000000E+00  0.00000000000E+00  0.19146264865E+04  0.19146264865E+04  0.00000000000E+00 0.  1.
          2   -1    0    0  501    0  0.00000000000E+00 -0.00000000000E+00 -0.21381471162E+03  0.21381471162E+03  0.00000000000E+00 0. -1.
         23    2    1    2    0    0 -0.70433063557E+02  0.20163688179E+02 -0.74926113214E+02  0.13576788083E+03  0.86322675244E+02 0.  0.
        254    2    1    2    0    0  0.70433063557E+02 -0.20163688179E+02  0.17757378881E+04  0.19926733173E+04  0.90118505948E+03 0.  0.
        -24    2    4    4    0    0  0.44262630605E+03 -0.18386020096E+03  0.10555062923E+04  0.11619336138E+04  0.79205867986E+02 0.  0.
         24    2    4    4    0    0 -0.37219324249E+03  0.16369651278E+03  0.72023159576E+03  0.83073970343E+03  0.77913704068E+02 0.  0.
         11    1    3    3    0    0  0.10017975205E+02  0.12345548137E+01  0.12095262585E+02  0.15753708445E+02  0.00000000000E+00 0.  1.
        -11    1    3    3    0    0 -0.80451038761E+02  0.18929133365E+02 -0.87021375799E+02  0.12001417239E+03  0.00000000000E+00 0. -1.
          4    1    6    6  502    0 -0.37394604076E+03  0.16725435133E+03  0.71624588396E+03  0.82511685581E+03  0.00000000000E+00 0. -1.
          3    1    5    5  503    0  0.41073402230E+03 -0.18010994626E+03  0.10189026819E+04  0.11132406321E+04  0.00000000000E+00 0. -1.
         -4    1    5    5    0  503  0.31892283747E+02 -0.37502546973E+01  0.36603610456E+02  0.48692981746E+02  0.00000000000E+00 0.  1.
         -3    1    6    6    0  502  0.17527982741E+01 -0.35578385486E+01  0.39857117927E+01  0.56228476257E+01  0.00000000000E+00 0.  1.
<mgrwt>
<rscale>  0 0.12796489E+04</rscale>
<asrwt>0</asrwt>
<pdfrwt beam="1">  1        2 0.32894572E-01 0.12796489E+04</pdfrwt>
<pdfrwt beam="2">  1       -2 0.29455791E+00 0.12796489E+04</pdfrwt>
<totfact> 0.54377118E+00</totfact>
</mgrwt>
</event>
<event>
12    1  0.1495204E-007  0.1753436E+04  0.7818608E-02  0.8731461E-01
          2   -1    0    0  501    0  0.00000000000E+00  0.00000000000E+00  0.18660352449E+04  0.18660352449E+04  0.00000000000E+00 0. -1.
         -2   -1    0    0    0  501 -0.00000000000E+00 -0.00000000000E+00 -0.41190765706E+03  0.41190765706E+03  0.00000000000E+00 0.  1.
         23    2    1    2    0    0 -0.61070010894E+03  0.13803116963E+03  0.35734881167E+03  0.72662324541E+03  0.90972197533E+02 0.  0.
        254    2    1    2    0    0  0.61070010894E+03 -0.13803116963E+03  0.10967787762E+04  0.15513196565E+04  0.90092273036E+03 0.  0.
        -24    2    4    4    0    0  0.57318773205E+03 -0.18221076462E+03  0.12382235410E+04  0.13788954618E+04  0.80063838267E+02 0.  0.
         24    2    4    4    0    0  0.37512376886E+02  0.44179594996E+02 -0.14144476487E+03  0.17242419470E+03  0.79777605720E+02 0.  0.
         13    1    3    3    0    0 -0.11628443973E+03  0.24142331521E+02  0.11122110632E+03  0.16271157791E+03  0.00000000000E+00 0. -1.
        -13    1    3    3    0    0 -0.49441566921E+03  0.11388883810E+03  0.24612770535E+03  0.56391166750E+03  0.00000000000E+00 0.  1.
          4    1    6    6  502    0  0.12685209242E+02  0.64977301671E+02 -0.96454424595E+02  0.11698897508E+03  0.00000000000E+00 0. -1.
          1    1    5    5  503    0  0.49316159329E+03 -0.14437039434E+03  0.99102492313E+03  0.11163250271E+04  0.00000000000E+00 0. -1.
         -2    1    5    5    0  503  0.80026138760E+02 -0.37840370283E+02  0.24719861791E+03  0.26257043475E+03  0.00000000000E+00 0.  1.
         -3    1    6    6    0  502  0.24827167644E+02 -0.20797706675E+02 -0.44990340275E+02  0.55435219619E+02  0.00000000000E+00 0.  1.
<mgrwt>
<rscale>  0 0.17534357E+04</rscale>
<asrwt>0</asrwt>
<pdfrwt beam="1">  1        2 0.28708234E+00 0.17534357E+04</pdfrwt>
<pdfrwt beam="2">  1       -2 0.63370410E-01 0.17534357E+04</pdfrwt>
<totfact> 0.17323143E+01</totfact>
</mgrwt>
</event>
<event>
12    1  0.1495204E-007  0.2261254E+04  0.7818608E-02  0.8493357E-01
          2   -1    0    0  501    0  0.00000000000E+00  0.00000000000E+00  0.20730548987E+04  0.20730548987E+04  0.00000000000E+00 0. -1.
         -2   -1    0    0    0  501 -0.00000000000E+00 -0.00000000000E+00 -0.61663484068E+03  0.61663484068E+03  0.00000000000E+00 0.  1.
         23    2    1    2    0    0 -0.24596632191E+03 -0.90783175125E+03  0.74836239819E+03  0.12064564353E+04  0.10408136749E+03 0.  0.
        254    2    1    2    0    0  0.24596632191E+03  0.90783175125E+03  0.70805765982E+03  0.14832333041E+04  0.90220699660E+03 0.  0.
        -24    2    4    4    0    0  0.48046306440E+03  0.32545919994E+03  0.60476173176E+03  0.84205071249E+03  0.80896249167E+02 0.  0.
         24    2    4    4    0    0 -0.23449674249E+03  0.58237255131E+03  0.10329592806E+03  0.64118259162E+03  0.79363444296E+02 0.  0.
         13    1    3    3    0    0 -0.21837914815E+03 -0.71783659056E+03  0.63873826256E+03  0.98537576140E+03  0.00000000000E+00 0.  1.
        -13    1    3    3    0    0 -0.27587173761E+02 -0.18999516069E+03  0.10962413563E+03  0.22108067386E+03  0.00000000000E+00 0. -1.
          4    1    6    6  502    0 -0.14393448148E+03  0.44825431681E+03  0.70180575371E+02  0.47599829900E+03  0.00000000000E+00 0. -1.
          3    1    5    5  503    0  0.14231841224E+03  0.81834886961E+02  0.22262183487E+03  0.27660795460E+03  0.00000000000E+00 0. -1.
         -4    1    5    5    0  503  0.33814465215E+03  0.24362431298E+03  0.38213989688E+03  0.56544275789E+03  0.00000000000E+00 0.  1.
         -3    1    6    6    0  502 -0.90562261002E+02  0.13411823450E+03  0.33115352687E+02  0.16518429262E+03  0.00000000000E+00 0.  1.
<mgrwt>
<rscale>  0 0.22612544E+04</rscale>
<asrwt>0</asrwt>
<pdfrwt beam="1">  1        2 0.31893152E+00 0.22612544E+04</pdfrwt>
<pdfrwt beam="2">  1       -2 0.94866899E-01 0.22612544E+04</pdfrwt>
<totfact> 0.51727539E+00</totfact>
</mgrwt>
</event>
<event>
12    1  0.1495204E-007  0.1727966E+04  0.7818608E-02  0.8745573E-01
          2   -1    0    0  501    0  0.00000000000E+00  0.00000000000E+00  0.27507959830E+04  0.27507959830E+04  0.00000000000E+00 0. -1.
         -2   -1    0    0    0  501 -0.00000000000E+00 -0.00000000000E+00 -0.27136370938E+03  0.27136370938E+03  0.00000000000E+00 0.  1.
         23    2    1    2    0    0  0.60796989599E+03  0.13217406309E+03  0.94661328624E+03  0.11367936717E+04  0.95528848707E+02 0.  0.
        254    2    1    2    0    0 -0.60796989599E+03 -0.13217406309E+03  0.15328189874E+04  0.18853660207E+04  0.90441893309E+03 0.  0.
        -24    2    4    4    0    0 -0.33784158576E+03 -0.43836028693E+03  0.42472711328E+03  0.70176724884E+03  0.76075439968E+02 0.  0.
         24    2    4    4    0    0 -0.27012831023E+03  0.30618622384E+03  0.11080918741E+04  0.11835987719E+04  0.79493041314E+02 0.  0.
         13    1    3    3    0    0  0.12618559312E+03 -0.24009015123E+01  0.14864068549E+03  0.19499390150E+03  0.00000000000E+00 0. -1.
        -13    1    3    3    0    0  0.48178430286E+03  0.13457496460E+03  0.79797260075E+03  0.94179977019E+03  0.00000000000E+00 0.  1.
          4    1    6    6  502    0  0.28040930231E+01  0.13783222489E+02  0.21190801747E+02  0.25434037008E+02  0.00000000000E+00 0. -1.
          3    1    5    5  503    0 -0.11088631152E+03 -0.20344116174E+03  0.16489246367E+03  0.28438284925E+03  0.00000000000E+00 0. -1.
         -4    1    5    5    0  503 -0.22695527423E+03 -0.23491912519E+03  0.25983464961E+03  0.41738439959E+03  0.00000000000E+00 0.  1.
         -3    1    6    6    0  502 -0.27293240325E+03  0.29240300135E+03  0.10869010724E+04  0.11581647349E+04  0.00000000000E+00 0.  1.
<mgrwt>
<rscale>  0 0.17279655E+04</rscale>
<asrwt>0</asrwt>
<pdfrwt beam="1">  1        2 0.42319936E+00 0.17279655E+04</pdfrwt>
<pdfrwt beam="2">  1       -2 0.41748265E-01 0.17279655E+04</pdfrwt>
<totfact> 0.12817078E+01</totfact>
</mgrwt>
</event>
<event>
12    1  0.1495204E-007  0.1545409E+04  0.7818608E-02  0.8854806E-01
          1   -1    0    0  501    0  0.00000000000E+00  0.00000000000E+00  0.40274642191E+03  0.40274642191E+03  0.00000000000E+00 0. -1.
         -1   -1    0    0    0  501 -0.00000000000E+00 -0.00000000000E+00 -0.14825012877E+04  0.14825012877E+04  0.00000000000E+00 0.  1.
         23    2    1    2    0    0  0.19622580049E+03 -0.40150109363E+03 -0.66034352569E+02  0.46082645359E+03  0.91064766240E+02 0.  0.
        254    2    1    2    0    0 -0.19622580049E+03  0.40150109363E+03 -0.10137205133E+04  0.14244212560E+04  0.89534291907E+03 0.  0.
        -24    2    4    4    0    0 -0.35201082356E+02  0.27368688519E+03 -0.11365419944E+04  0.11722209872E+04  0.78934848289E+02 0.  0.
         24    2    4    4    0    0 -0.16102471813E+03  0.12781420843E+03  0.12282148119E+03  0.25220026889E+03  0.79084939521E+02 0.  0.
         11    1    3    3    0    0  0.14746454532E+03 -0.35295622778E+03 -0.31439120825E+02  0.38381285696E+03  0.00000000000E+00 0. -1.
        -11    1    3    3    0    0  0.48761255172E+02 -0.48544865850E+02 -0.34595231744E+02  0.77013596629E+02  0.00000000000E+00 0.  1.
          4    1    6    6  502    0 -0.14299284979E+03  0.13428390140E+03  0.12547715426E+03  0.23285969489E+03  0.00000000000E+00 0. -1.
          1    1    5    5  503    0 -0.42820028560E+02  0.26871462277E+03 -0.11254412497E+04  0.11578683474E+04  0.00000000000E+00 0. -1.
         -2    1    5    5    0  503  0.76189462037E+01  0.49722624262E+01 -0.11100744762E+02  0.14352639798E+02  0.00000000000E+00 0.  1.
         -3    1    6    6    0  502 -0.18031868347E+02 -0.64696929662E+01 -0.26556730642E+01  0.19340573999E+02  0.00000000000E+00 0.  1.
<mgrwt>
<rscale>  0 0.15454088E+04</rscale>
<asrwt>0</asrwt>
<pdfrwt beam="1">  1        1 0.61960988E-01 0.15454088E+04</pdfrwt>
<pdfrwt beam="2">  1       -1 0.22807712E+00 0.15454088E+04</pdfrwt>
<totfact> 0.55703462E+00</totfact>
</mgrwt>
</event>
<event>
12    1  0.1495204E-007  0.1568353E+04  0.7818608E-02  0.8840229E-01
         -1   -1    0    0    0  501 -0.00000000000E+00  0.00000000000E+00  0.16083422581E+03  0.16083422581E+03  0.00000000000E+00 0.  1.
          1   -1    0    0  501    0  0.00000000000E+00 -0.00000000000E+00 -0.38233956579E+04  0.38233956579E+04  0.00000000000E+00 0. -1.
         23    2    1    2    0    0  0.13372686642E+03  0.38413178935E+03 -0.40040640359E+03  0.57820674823E+03  0.92507563325E+02 0.  0.
        254    2    1    2    0    0 -0.13372686642E+03 -0.38413178935E+03 -0.32621550285E+04  0.34060231355E+04  0.89100957517E+03 0.  0.
        -24    2    4    4    0    0 -0.29038803883E+03 -0.57420836914E+03 -0.16421200611E+04  0.17654488588E+04  0.78809350226E+02 0.  0.
         24    2    4    4    0    0  0.15666117241E+03  0.19007657979E+03 -0.16200349674E+04  0.16405742767E+04  0.79365184815E+02 0.  0.
         11    1    3    3    0    0  0.13710343005E+03  0.35584051655E+03 -0.33787161112E+03  0.50948704532E+03  0.00000000000E+00 0.  1.
        -11    1    3    3    0    0 -0.33765636321E+01  0.28291272800E+02 -0.62534792470E+02  0.68719702908E+02  0.00000000000E+00 0. -1.
          4    1    6    6  502    0  0.38029025972E+02  0.19605116684E+02 -0.15148834589E+03  0.15741437786E+03  0.00000000000E+00 0. -1.
          1    1    5    5  503    0 -0.13985472261E+03 -0.23356844416E+03 -0.78680621504E+03  0.83257286862E+03  0.00000000000E+00 0. -1.
         -2    1    5    5    0  503 -0.15053331622E+03 -0.34063992498E+03 -0.85531384604E+03  0.93287599015E+03  0.00000000000E+00 0.  1.
         -3    1    6    6    0  502  0.11863214644E+03  0.17047146311E+03 -0.14685466215E+04  0.14831598988E+04  0.00000000000E+00 0.  1.
<mgrwt>
<rscale>  0 0.15683531E+04</rscale>
<asrwt>0</asrwt>
<pdfrwt beam="1">  1        1 0.58821470E+00 0.15683531E+04</pdfrwt>
<pdfrwt beam="2">  1       -1 0.24743728E-01 0.15683531E+04</pdfrwt>
<totfact> 0.18955665E+00</totfact>
</mgrwt>
</event>
<event>
12    1  0.1495204E-007  0.1777052E+04  0.7818608E-02  0.8718599E-01
         -2   -1    0    0    0  501 -0.00000000000E+00  0.00000000000E+00  0.19292886936E+04  0.19292886936E+04  0.00000000000E+00 0. -1.
          2   -1    0    0  501    0  0.00000000000E+00 -0.00000000000E+00 -0.40920703174E+03  0.40920703174E+03  0.00000000000E+00 0.  1.
         23    2    1    2    0    0  0.35479392847E+03  0.20200556286E+03  0.12073560326E+04  0.12779404851E+04  0.93478953097E+02 0.  0.
        254    2    1    2    0    0 -0.35479392847E+03 -0.20200556286E+03  0.31272562924E+03  0.10605552403E+04  0.92752095365E+03 0.  0.
        -24    2    4    4    0    0 -0.37558716848E+03  0.14919677683E+03 -0.17990102573E+03  0.45003805869E+03  0.82731347546E+02 0.  0.
         24    2    4    4    0    0  0.20793240006E+02 -0.35120233969E+03  0.49262665497E+03  0.61051718163E+03  0.79213418344E+02 0.  0.
         11    1    3    3    0    0  0.16917215186E+03  0.12377290893E+03  0.49265006406E+03  0.53539054490E+03  0.00000000000E+00 0. -1.
        -11    1    3    3    0    0  0.18562177661E+03  0.78232653931E+02  0.71470596859E+03  0.74254994016E+03  0.00000000000E+00 0.  1.
          2    1    6    6  502    0 -0.19090448451E+02 -0.58631736417E+02  0.55213886488E+02  0.82768949482E+02  0.00000000000E+00 0. -1.
          1    1    5    5  503    0 -0.43879551458E+02  0.49371753548E+02 -0.31660068411E+02  0.73248515455E+02  0.00000000000E+00 0. -1.
         -2    1    5    5    0  503 -0.33170761702E+03  0.99825023279E+02 -0.14824095731E+03  0.37678954323E+03  0.00000000000E+00 0.  1.
         -1    1    6    6    0  502  0.39883688457E+02 -0.29257060327E+03  0.43741276848E+03  0.52774823214E+03  0.00000000000E+00 0.  1.
<mgrwt>
<rscale>  0 0.17770521E+04</rscale>
<asrwt>0</asrwt>
<pdfrwt beam="1">  1        2 0.62954929E-01 0.17770521E+04</pdfrwt>
<pdfrwt beam="2">  1       -2 0.29681364E+00 0.17770521E+04</pdfrwt>
<totfact> 0.24407594E+00</totfact>
</mgrwt>
</event>
<event>
12    1  0.1495204E-007  0.1029190E+04  0.7818608E-02  0.9277097E-01
         -2   -1    0    0    0  501 -0.00000000000E+00  0.00000000000E+00  0.85681331439E+02  0.85681331439E+02  0.00000000000E+00 0.  1.
          2   -1    0    0  501    0  0.00000000000E+00 -0.00000000000E+00 -0.30906149600E+04  0.30906149600E+04  0.00000000000E+00 0. -1.
         23    2    1    2    0    0 -0.72146044712E+02 -0.99622884343E+02 -0.79461536768E+03  0.80893363298E+03  0.88488808043E+02 0.  0.
        254    2    1    2    0    0  0.72146044712E+02  0.99622884343E+02 -0.22103182609E+04  0.23673626585E+04  0.83890963248E+03 0.  0.
        -24    2    4    4    0    0 -0.31505014789E+03  0.50251817706E+02 -0.16337027899E+04  0.16665587199E+04  0.81555628737E+02 0.  0.
         24    2    4    4    0    0  0.38719619260E+03  0.49371066637E+02 -0.57661547101E+03  0.70080393851E+03  0.79261371600E+02 0.  0.
         13    1    3    3    0    0 -0.30037276198E+02 -0.74397564329E+02 -0.67330608659E+03  0.67806955527E+03  0.00000000000E+00 0. -1.
        -13    1    3    3    0    0 -0.42108768514E+02 -0.25225320013E+02 -0.12130928110E+03  0.13086407771E+03  0.00000000000E+00 0.  1.
          2    1    6    6  502    0  0.12266848825E+03 -0.33489517350E+01 -0.12782981420E+03  0.17719829256E+03  0.00000000000E+00 0. -1.
          3    1    5    5  503    0 -0.86904275341E+01 -0.58610360259E+01 -0.15873266354E+02  0.19021983565E+02  0.00000000000E+00 0. -1.
         -4    1    5    5    0  503 -0.30635972036E+03  0.56112853731E+02 -0.16178295235E+04  0.16475367364E+04  0.00000000000E+00 0.  1.
         -1    1    6    6    0  502  0.26452770435E+03  0.52720018372E+02 -0.44878565681E+03  0.52360564595E+03  0.00000000000E+00 0.  1.
<mgrwt>
<rscale>  0 0.10291900E+04</rscale>
<asrwt>0</asrwt>
<pdfrwt beam="1">  1        2 0.47547927E+00 0.10291900E+04</pdfrwt>
<pdfrwt beam="2">  1       -2 0.13181742E-01 0.10291900E+04</pdfrwt>
<totfact> 0.68052831E+01</totfact>
</mgrwt>
</event>
<event>
12    1  0.1495204E-007  0.1577793E+04  0.7818608E-02  0.8834308E-01
         -2   -1    0    0    0  501 -0.00000000000E+00  0.00000000000E+00  0.45269612251E+03  0.45269612251E+03  0.00000000000E+00 0. -1.
          2   -1    0    0  501    0  0.00000000000E+00 -0.00000000000E+00 -0.13747795537E+04  0.13747795537E+04  0.00000000000E+00 0.  1.
         23    2    1    2    0    0  0.60458321771E+02  0.19018799389E+02 -0.89547250420E+03  0.90223947036E+03  0.90267007791E+02 0.  0.
        254    2    1    2    0    0 -0.60458321771E+02 -0.19018799389E+02 -0.26610926948E+02  0.92523620582E+03  0.92267923555E+03 0.  0.
        -24    2    4    4    0    0  0.35747825026E+03 -0.24673064872E+03  0.16527546769E+01  0.44162540495E+03  0.79771888984E+02 0.  0.
         24    2    4    4    0    0 -0.41793657203E+03  0.22771184933E+03 -0.28263681625E+02  0.48361080087E+03  0.80974727219E+02 0.  0.
         11    1    3    3    0    0  0.17207439830E+02  0.12811826013E+02 -0.37868620777E+02  0.43523227257E+02  0.00000000000E+00 0. -1.
        -11    1    3    3    0    0  0.43250881941E+02  0.62069733765E+01 -0.85760388343E+03  0.85871624311E+03  0.00000000000E+00 0.  1.
          4    1    6    6  502    0 -0.39476681710E+03  0.20988217446E+03 -0.45940841145E+02  0.44944624587E+03  0.00000000000E+00 0. -1.
          1    1    5    5  503    0  0.14868828535E+03 -0.80639460863E+02  0.35072441483E+02  0.17274549199E+03  0.00000000000E+00 0. -1.
         -2    1    5    5    0  503  0.20878996491E+03 -0.16609118786E+03 -0.33419686806E+02  0.26887991296E+03  0.00000000000E+00 0.  1.
         -3    1    6    6    0  502 -0.23169754934E+02  0.17829674871E+02  0.17677159520E+02  0.34164555001E+02  0.00000000000E+00 0.  1.
<mgrwt>
<rscale>  0 0.15777926E+04</rscale>
<asrwt>0</asrwt>
<pdfrwt beam="1">  1        2 0.21150454E+00 0.15777926E+04</pdfrwt>
<pdfrwt beam="2">  1       -2 0.69645559E-01 0.15777926E+04</pdfrwt>
<totfact> 0.27012382E+01</totfact>
</mgrwt>
</event>
<event>
12    1  0.1495204E-007  0.2303334E+04  0.7818608E-02  0.8476608E-01
         -2   -1    0    0    0  501 -0.00000000000E+00  0.00000000000E+00  0.16067859355E+04  0.16067859355E+04  0.00000000000E+00 0.  1.
          2   -1    0    0  501    0  0.00000000000E+00 -0.00000000000E+00 -0.82545966561E+03  0.82545966561E+03  0.00000000000E+00 0. -1.
         23    2    1    2    0    0  0.13492819253E+03 -0.53848854769E+03 -0.51175029701E+03  0.76047672714E+03  0.90889784321E+02 0.  0.
        254    2    1    2    0    0 -0.13492819253E+03  0.53848854769E+03  0.12930765669E+04  0.16717688740E+04  0.90254563706E+03 0.  0.
        -24    2    4    4    0    0  0.37961674102E+03  0.28361418361E+03  0.57395570722E+03  0.74806989927E+03  0.75083587639E+02 0.  0.
         24    2    4    4    0    0 -0.51454493355E+03  0.25487436408E+03  0.71912085965E+03  0.92369897468E+03  0.79796960675E+02 0.  0.
         11    1    3    3    0    0  0.10846821336E+03 -0.25707029146E+03 -0.23332097803E+03  0.36371577756E+03  0.00000000000E+00 0.  1.
        -11    1    3    3    0    0  0.26459979169E+02 -0.28141825624E+03 -0.27842931898E+03  0.39676094958E+03  0.00000000000E+00 0. -1.
          2    1    6    6  502    0 -0.49097784331E+03  0.25246867037E+03  0.70719816488E+03  0.89717830811E+03  0.00000000000E+00 0. -1.
          1    1    5    5  503    0  0.24801754076E+03  0.22303772441E+03  0.37375957847E+03  0.50095383972E+03  0.00000000000E+00 0. -1.
         -2    1    5    5    0  503  0.13159920026E+03  0.60576459196E+02  0.20019612876E+03  0.24711605955E+03  0.00000000000E+00 0.  1.
         -1    1    6    6    0  502 -0.23567090242E+02  0.24056937134E+01  0.11922694774E+02  0.26520666571E+02  0.00000000000E+00 0.  1.
<mgrwt>
<rscale>  0 0.23033341E+04</rscale>
<asrwt>0</asrwt>
<pdfrwt beam="1">  1        2 0.12699380E+00 0.23033341E+04</pdfrwt>
<pdfrwt beam="2">  1       -2 0.24719783E+00 0.23033341E+04</pdfrwt>
<totfact> 0.20013330E+00</totfact>
</mgrwt>
</event>
<event>
12    1  0.1495204E-007  0.1574582E+04  0.7818608E-02  0.8836317E-01
          2   -1    0    0  501    0  0.00000000000E+00  0.00000000000E+00  0.89202076291E+03  0.89202076291E+03  0.00000000000E+00 0. -1.
         -2   -1    0    0    0  501 -0.00000000000E+00 -0.00000000000E+00 -0.69485749303E+03  0.69485749303E+03  0.00000000000E+00 0.  1.
         23    2    1    2    0    0  0.18324240745E+03 -0.49245901023E+02 -0.42036421571E+03  0.47028820550E+03  0.91989041329E+02 0.  0.
        254    2    1    2    0    0 -0.18324240745E+03  0.49245901023E+02  0.61752748560E+03  0.11165900504E+04  0.91073058947E+03 0.  0.
        -24    2    4    4    0    0 -0.51936071667E+03  0.11425688869E+03  0.52950743099E+03  0.75437197680E+03  0.76868519503E+02 0.  0.
         24    2    4    4    0    0  0.33611830921E+03 -0.65010987663E+02  0.88020054609E+02  0.36221807363E+03  0.79072476519E+02 0.  0.
         13    1    3    3    0    0  0.10087950374E+03 -0.51715575525E+02 -0.32527895531E+03  0.34446708666E+03  0.00000000000E+00 0.  1.
        -13    1    3    3    0    0  0.82362903708E+02  0.24696745020E+01 -0.95085260405E+02  0.12582111884E+03  0.00000000000E+00 0. -1.
          2    1    6    6  502    0  0.31510731340E+03 -0.43361836080E+02  0.93546085295E+02  0.33154748960E+03  0.00000000000E+00 0. -1.
          1    1    5    5  503    0 -0.45285737650E+03  0.72437547082E+02  0.44602859760E+03  0.63974097223E+03  0.00000000000E+00 0. -1.
         -2    1    5    5    0  503 -0.66503340168E+02  0.41819341604E+02  0.83478833390E+02  0.11463100457E+03  0.00000000000E+00 0.  1.
         -1    1    6    6    0  502  0.21010995814E+02 -0.21649151583E+02 -0.55260306867E+01  0.30670584026E+02  0.00000000000E+00 0.  1.
<mgrwt>
<rscale>  0 0.15745822E+04</rscale>
<asrwt>0</asrwt>
<pdfrwt beam="1">  1        2 0.13723396E+00 0.15745822E+04</pdfrwt>
<pdfrwt beam="2">  1       -2 0.10690115E+00 0.15745822E+04</pdfrwt>
<totfact> 0.20085244E+01</totfact>
</mgrwt>
</event>
<event>
12    1  0.1495204E-007  0.3901389E+04  0.7818608E-02  0.8024740E-01
         -1   -1    0    0    0  501 -0.00000000000E+00  0.00000000000E+00  0.87955386696E+03  0.87955386696E+03  0.00000000000E+00 0.  1.
          1   -1    0    0  501    0  0.00000000000E+00 -0.00000000000E+00 -0.43262938749E+04  0.43262938749E+04  0.00000000000E+00 0. -1.
         23    2    1    2    0    0 -0.30106821597E+03  0.88709587031E+02  0.78609073831E+03  0.85141724986E+03  0.91984906323E+02 0.  0.
        254    2    1    2    0    0  0.30106821597E+03 -0.88709587031E+02 -0.42328307463E+04  0.43544304920E+04  0.97246970221E+03 0.  0.
        -24    2    4    4    0    0 -0.85462079977E+02 -0.46257035897E+03 -0.20617741544E+04  0.21163099855E+04  0.81118348647E+02 0.  0.
         24    2    4    4    0    0  0.38653029595E+03  0.37386077194E+03 -0.21710565918E+04  0.22381205065E+04  0.80741132529E+02 0.  0.
         11    1    3    3    0    0 -0.29168887967E+03  0.89838988954E+02  0.78457417744E+03  0.84184920643E+03  0.00000000000E+00 0.  1.
        -11    1    3    3    0    0 -0.93793363009E+01 -0.11294019230E+01  0.15165608738E+01  0.95680434276E+01  0.00000000000E+00 0. -1.
          2    1    6    6  502    0  0.22750722832E+03  0.20513575955E+03 -0.13912458109E+04  0.14245719094E+04  0.00000000000E+00 0. -1.
          3    1    5    5  503    0 -0.73804429264E+02 -0.24799343931E+03 -0.99381150323E+03  0.10269416457E+04  0.00000000000E+00 0. -1.
         -4    1    5    5    0  503 -0.11657650713E+02 -0.21457691966E+03 -0.10679626512E+04  0.10893683398E+04  0.00000000000E+00 0.  1.
         -1    1    6    6    0  502  0.15902306764E+03  0.16872501240E+03 -0.77981078095E+03  0.81354859716E+03  0.00000000000E+00 0.  1.
<mgrwt>
<rscale>  0 0.39013887E+04</rscale>
<asrwt>0</asrwt>
<pdfrwt beam="1">  1        1 0.66558366E+00 0.39013887E+04</pdfrwt>
<pdfrwt beam="2">  1       -1 0.13531598E+00 0.39013887E+04</pdfrwt>
<totfact> 0.17257955E-02</totfact>
</mgrwt>
</event>
<event>
12    1  0.1495204E-007  0.1671832E+04  0.7818608E-02  0.8777595E-01
         -2   -1    0    0    0  501 -0.00000000000E+00  0.00000000000E+00  0.30861324282E+03  0.30861324282E+03  0.00000000000E+00 0.  1.
          2   -1    0    0  501    0  0.00000000000E+00 -0.00000000000E+00 -0.22641783509E+04  0.22641783509E+04  0.00000000000E+00 0. -1.
         23    2    1    2    0    0  0.22624333030E+03  0.41660190283E+03 -0.12370501016E+04  0.13280030418E+04  0.92498297849E+02 0.  0.
        254    2    1    2    0    0 -0.22624333030E+03 -0.41660190283E+03 -0.71851500648E+03  0.12447885520E+04  0.89916157313E+03 0.  0.
        -24    2    4    4    0    0 -0.18814676747E+03  0.93839453700E+02  0.12327165775E+03  0.25657896082E+03  0.80198580730E+02 0.  0.
         24    2    4    4    0    0 -0.38096562825E+02 -0.51044135653E+03 -0.84178666423E+03  0.98820959113E+03  0.77147141120E+02 0.  0.
         13    1    3    3    0    0  0.20421802761E+03  0.38403819173E+03 -0.11881284740E+04  0.12652429040E+04  0.00000000000E+00 0.  1.
        -13    1    3    3    0    0  0.22025302688E+02  0.32563711102E+02 -0.48921627623E+02  0.62760137735E+02  0.00000000000E+00 0. -1.
          2    1    6    6  502    0 -0.28721772040E+02 -0.22920128143E+03 -0.45020005130E+03  0.50600222706E+03  0.00000000000E+00 0. -1.
          3    1    5    5  503    0 -0.58918021779E+02  0.53345378435E+02  0.83850346066E+02  0.11553329921E+03  0.00000000000E+00 0. -1.
         -4    1    5    5    0  503 -0.12922874569E+03  0.40494075265E+02  0.39421311684E+02  0.14104566161E+03  0.00000000000E+00 0.  1.
         -1    1    6    6    0  502 -0.93747907855E+01 -0.28124007510E+03 -0.39158661293E+03  0.48220736408E+03  0.00000000000E+00 0.  1.
<mgrwt>
<rscale>  0 0.16718318E+04</rscale>
<asrwt>0</asrwt>
<pdfrwt beam="1">  1        2 0.34833513E+00 0.16718318E+04</pdfrwt>
<pdfrwt beam="2">  1       -2 0.47478961E-01 0.16718318E+04</pdfrwt>
<totfact> 0.19060585E+01</totfact>
</mgrwt>
</event>
<event>
12    1  0.1495204E-007  0.1541993E+04  0.7818608E-02  0.8856999E-01
         -2   -1    0    0    0  501 -0.00000000000E+00  0.00000000000E+00  0.21766135279E+03  0.21766135279E+03  0.00000000000E+00 0.  1.
          2   -1    0    0  501    0  0.00000000000E+00 -0.00000000000E+00 -0.27310102716E+04  0.27310102716E+04  0.00000000000E+00 0. -1.
         23    2    1    2    0    0 -0.46834202575E+03  0.16046791821E+03 -0.82488131860E+03  0.96653869949E+03  0.93132496915E+02 0.  0.
        254    2    1    2    0    0  0.46834202575E+03 -0.16046791821E+03 -0.16884676002E+04  0.19821329249E+04  0.91259733133E+03 0.  0.
        -24    2    4    4    0    0  0.47422939808E+03 -0.46267944031E+03 -0.14227714739E+04  0.15715465639E+04  0.80710280208E+02 0.  0.
         24    2    4    4    0    0 -0.58873723337E+01  0.30221152210E+03 -0.26569612636E+03  0.41058636096E+03  0.81364998646E+02 0.  0.
         11    1    3    3    0    0 -0.46659882919E+03  0.15298592426E+03 -0.78503445586E+03  0.92595802135E+03  0.00000000000E+00 0. -1.
        -11    1    3    3    0    0 -0.17431965563E+01  0.74819939553E+01 -0.39846862740E+02  0.40580678136E+02  0.00000000000E+00 0.  1.
          2    1    6    6  502    0  0.12201138746E+02  0.13087048562E+03 -0.66787206440E+02  0.14743297710E+03  0.00000000000E+00 0. -1.
          3    1    5    5  503    0  0.15881179246E+03 -0.13947931169E+03 -0.54177053354E+03  0.58154189430E+03  0.00000000000E+00 0. -1.
         -4    1    5    5    0  503  0.31541760563E+03 -0.32320012862E+03 -0.88100094032E+03  0.99000466965E+03  0.00000000000E+00 0.  1.
         -1    1    6    6    0  502 -0.18088511080E+02  0.17134103648E+03 -0.19890891992E+03  0.26315338387E+03  0.00000000000E+00 0.  1.
<mgrwt>
<rscale>  0 0.15419927E+04</rscale>
<asrwt>0</asrwt>
<pdfrwt beam="1">  1        2 0.42015546E+00 0.15419927E+04</pdfrwt>
<pdfrwt beam="2">  1       -2 0.33486359E-01 0.15419927E+04</pdfrwt>
<totfact> 0.20514001E+01</totfact>
</mgrwt>
</event>
<event>
12    1  0.1495204E-007  0.2069799E+04  0.7818608E-02  0.8574665E-01
          1   -1    0    0  501    0  0.00000000000E+00  0.00000000000E+00  0.16718926076E+04  0.16718926076E+04  0.00000000000E+00 0. -1.
         -1   -1    0    0    0  501 -0.00000000000E+00 -0.00000000000E+00 -0.64060157245E+03  0.64060157245E+03  0.00000000000E+00 0.  1.
         23    2    1    2    0    0 -0.49342854114E+03 -0.56046402727E+03  0.84045872750E+03  0.11279470492E+04  0.91115432816E+02 0.  0.
        254    2    1    2    0    0  0.49342854114E+03  0.56046402727E+03  0.19083230765E+03  0.11845471308E+04  0.89952392101E+03 0.  0.
        -24    2    4    4    0    0  0.71945090099E+03  0.56803977013E+03  0.91092452976E+02  0.92466056283E+03  0.80128285135E+02 0.  0.
         24    2    4    4    0    0 -0.22602235985E+03 -0.75757428593E+01  0.99739854678E+02  0.25988656801E+03  0.80308720513E+02 0.  0.
         11    1    3    3    0    0 -0.38087834080E+03 -0.43371364423E+03  0.70370370886E+03  0.91015094657E+03  0.00000000000E+00 0. -1.
        -11    1    3    3    0    0 -0.11255020034E+03 -0.12675038304E+03  0.13675501864E+03  0.21779610263E+03  0.00000000000E+00 0.  1.
          4    1    6    6  502    0 -0.14863831712E+03 -0.41995747637E+02  0.74676650454E+02  0.17156221688E+03  0.00000000000E+00 0. -1.
          1    1    5    5  503    0  0.68958746401E+03  0.53233995205E+03  0.71260314912E+02  0.87406791930E+03  0.00000000000E+00 0. -1.
         -2    1    5    5    0  503  0.29863436984E+02  0.35699818080E+02  0.19832138063E+02  0.50592643532E+02  0.00000000000E+00 0.  1.
         -3    1    6    6    0  502 -0.77384042727E+02  0.34420004777E+02  0.25063204224E+02  0.88324351136E+02  0.00000000000E+00 0.  1.
<mgrwt>
<rscale>  0 0.20697991E+04</rscale>
<asrwt>0</asrwt>
<pdfrwt beam="1">  1        1 0.25721425E+00 0.20697991E+04</pdfrwt>
<pdfrwt beam="2">  1       -1 0.98554089E-01 0.20697991E+04</pdfrwt>
<totfact> 0.45256756E+00</totfact>
</mgrwt>
</event>
<event>
12    1  0.1495204E-007  0.1320492E+04  0.7818608E-02  0.9013470E-01
         -1   -1    0    0    0  501 -0.00000000000E+00  0.00000000000E+00  0.87469257335E+03  0.87469257335E+03  0.00000000000E+00 0.  1.
          1   -1    0    0  501    0  0.00000000000E+00 -0.00000000000E+00 -0.49837522372E+03  0.49837522372E+03  0.00000000000E+00 0. -1.
         23    2    1    2    0    0  0.22547820490E+03 -0.15155418312E+02 -0.18130278986E+03  0.30342244797E+03  0.90135302338E+02 0.  0.
        254    2    1    2    0    0 -0.22547820490E+03  0.15155418312E+02  0.55762013948E+03  0.10696453491E+04  0.88438161746E+03 0.  0.
        -24    2    4    4    0    0  0.17204080233E+03 -0.31993342134E+03  0.32710164252E+03  0.49553263596E+03  0.81250704647E+02 0.  0.
         24    2    4    4    0    0 -0.39751900723E+03  0.33508883965E+03  0.23051849696E+03  0.57411271314E+03  0.78490371241E+02 0.  0.
         11    1    3    3    0    0  0.20562847380E+03  0.16069719369E+02 -0.15164401080E+03  0.25600236547E+03  0.00000000000E+00 0. -1.
        -11    1    3    3    0    0  0.19849731108E+02 -0.31225137681E+02 -0.29658779057E+02  0.47420082491E+02  0.00000000000E+00 0.  1.
          2    1    6    6  502    0 -0.39971962328E+03  0.32431868640E+03  0.22698525051E+03  0.56256616636E+03  0.00000000000E+00 0. -1.
          1    1    5    5  503    0  0.18003702196E+03 -0.31228440477E+03  0.31153379062E+03  0.47643276696E+03  0.00000000000E+00 0. -1.
         -2    1    5    5    0  503 -0.79962196287E+01 -0.76490165652E+01  0.15567851904E+02  0.19099868996E+02  0.00000000000E+00 0.  1.
         -3    1    6    6    0  502  0.22006160490E+01  0.10770153248E+02  0.35332464464E+01  0.11546546776E+02  0.00000000000E+00 0.  1.
<mgrwt>
<rscale>  0 0.13204925E+04</rscale>
<asrwt>0</asrwt>
<pdfrwt beam="1">  1        1 0.76673111E-01 0.13204925E+04</pdfrwt>
<pdfrwt beam="2">  1       -1 0.13456809E+00 0.13204925E+04</pdfrwt>
<totfact> 0.20290353E+01</totfact>
</mgrwt>
</event>
<event>
12    1  0.1497405E-007  0.2130366E+04  0.7818608E-02  0.8547984E-01
          1   -1    0    0  501    0  0.00000000000E+00  0.00000000000E+00  0.92096301989E+03  0.92096301989E+03  0.00000000000E+00 0. -1.
         -1   -1    0    0    0  501 -0.00000000000E+00 -0.00000000000E+00 -0.12319869698E+04  0.12319869698E+04  0.00000000000E+00 0.  1.
         23    2    1    2    0    0 -0.11936547130E+03 -0.23979615300E+03  0.71164698193E+03  0.76594602427E+03  0.92095463911E+02 0.  0.
        254    2    1    2    0    0  0.11936547130E+03  0.23979615300E+03 -0.10226709319E+04  0.13870039655E+04  0.89787184752E+03 0.  0.
        -24    2    4    4    0    0 -0.33252945461E+03  0.86372905857E+02 -0.13811951448E+03  0.37878733949E+03  0.79791799247E+02 0.  0.
         24    2    4    4    0    0  0.45189492592E+03  0.15342324715E+03 -0.88455141739E+03  0.10082166260E+04  0.79509986992E+02 0.  0.
         11    1    3    3    0    0 -0.12853735584E+03 -0.17563556883E+03  0.52315433729E+03  0.56662171288E+03  0.00000000000E+00 0. -1.
        -11    1    3    3    0    0  0.91718845368E+01 -0.64160584176E+02  0.18849264463E+03  0.19932431138E+03  0.00000000000E+00 0.  1.
          2    1    6    6  502    0  0.37813888984E+03  0.13470459018E+03 -0.79580654981E+03  0.89131498997E+03  0.00000000000E+00 0. -1.
          3    1    5    5  503    0 -0.30141524998E+03  0.54191687095E+02 -0.10755944235E+03  0.32458731570E+03  0.00000000000E+00 0. -1.
         -4    1    5    5    0  503 -0.31114204628E+02  0.32181218761E+02 -0.30560072125E+02  0.54200023790E+02  0.00000000000E+00 0.  1.
         -1    1    6    6    0  502  0.73756036078E+02  0.18718656968E+02 -0.88744867578E+02  0.11690163599E+03  0.00000000000E+00 0.  1.
<mgrwt>
<rscale>  0 0.21303656E+04</rscale>
<asrwt>0</asrwt>
<pdfrwt beam="1">  1        1 0.14168662E+00 0.21303656E+04</pdfrwt>
<pdfrwt beam="2">  1       -1 0.18953646E+00 0.21303656E+04</pdfrwt>
<totfact> 0.28565061E+00</totfact>
</mgrwt>
</event>
<event>
12    1  0.1495204E-007  0.1986492E+04  0.7818608E-02  0.8612962E-01
          2   -1    0    0  501    0  0.00000000000E+00  0.00000000000E+00  0.13117698428E+04  0.13117698428E+04  0.00000000000E+00 0. -1.
         -2   -1    0    0    0  501 -0.00000000000E+00 -0.00000000000E+00 -0.75206585478E+03  0.75206585478E+03  0.00000000000E+00 0.  1.
         23    2    1    2    0    0 -0.64604741543E+02  0.41717017436E+03  0.91094942983E+03  0.10080761192E+04  0.90464752329E+02 0.  0.
        254    2    1    2    0    0  0.64604741543E+02 -0.41717017436E+03 -0.35124544180E+03  0.10557595784E+04  0.90169296324E+03 0.  0.
        -24    2    4    4    0    0  0.17194420781E+03 -0.15850001119E+03  0.27199134465E+03  0.36746925027E+03  0.79795326839E+02 0.  0.
         24    2    4    4    0    0 -0.10733946626E+03 -0.25867016317E+03 -0.62323678644E+03  0.68829032811E+03  0.82990779396E+02 0.  0.
         13    1    3    3    0    0 -0.81363289441E+02  0.36054792434E+03  0.82242918443E+03  0.90166765165E+03  0.00000000000E+00 0. -1.
        -13    1    3    3    0    0  0.16758547898E+02  0.56622250023E+02  0.88520245393E+02  0.10640846757E+03  0.00000000000E+00 0.  1.
          2    1    6    6  502    0 -0.62596928806E+02 -0.66959049729E+02 -0.25079974969E+03  0.26702510047E+03  0.00000000000E+00 0. -1.
          1    1    5    5  503    0  0.13883236507E+03 -0.15930685733E+03  0.25163219137E+03  0.32859071825E+03  0.00000000000E+00 0. -1.
         -2    1    5    5    0  503  0.33111842736E+02  0.80684614041E+00  0.20359153271E+02  0.38878532019E+02  0.00000000000E+00 0.  1.
         -1    1    6    6    0  502 -0.44742537458E+02 -0.19171111344E+03 -0.37243703675E+03  0.42126522764E+03  0.00000000000E+00 0.  1.
<mgrwt>
<rscale>  0 0.19864917E+04</rscale>
<asrwt>0</asrwt>
<pdfrwt beam="1">  1        2 0.20181075E+00 0.19864917E+04</pdfrwt>
<pdfrwt beam="2">  1       -2 0.11570244E+00 0.19864917E+04</pdfrwt>
<totfact> 0.87936284E+00</totfact>
</mgrwt>
</event>
<event>
12    1  0.1495204E-007  0.1276348E+04  0.7818608E-02  0.9048535E-01
          4   -1    0    0  501    0  0.00000000000E+00  0.00000000000E+00  0.24151300778E+03  0.24151300778E+03  0.00000000000E+00 0. -1.
         -4   -1    0    0    0  501 -0.00000000000E+00 -0.00000000000E+00 -0.16863097319E+04  0.16863097319E+04  0.00000000000E+00 0.  1.
         23    2    1    2    0    0 -0.92420159122E+02  0.10250125384E+03  0.54910758398E+02  0.17424674617E+03  0.91097444042E+02 0.  0.
        254    2    1    2    0    0  0.92420159122E+02 -0.10250125384E+03 -0.14997074826E+04  0.17535759936E+04  0.89825288146E+03 0.  0.
        -24    2    4    4    0    0 -0.44454426371E+01 -0.47873385092E+03 -0.61044843713E+03  0.77994406290E+03  0.80371542716E+02 0.  0.
         24    2    4    4    0    0  0.96865601759E+02  0.37623259708E+03 -0.88925904543E+03  0.97363193065E+03  0.79016293248E+02 0.  0.
         13    1    3    3    0    0 -0.79737003638E+02  0.11415717136E+03  0.65650341481E+02  0.15394744837E+03  0.00000000000E+00 0. -1.
        -13    1    3    3    0    0 -0.12683155484E+02 -0.11655917522E+02 -0.10739583083E+02  0.20299297799E+02  0.00000000000E+00 0.  1.
          2    1    6    6  502    0 -0.19797995948E+01  0.14304897486E+02 -0.84352869319E+02  0.85580116037E+02  0.00000000000E+00 0. -1.
          3    1    5    5  503    0 -0.37275545814E+02 -0.13721928315E+03 -0.16948565718E+03  0.22123287725E+03  0.00000000000E+00 0. -1.
         -4    1    5    5    0  503  0.32830103177E+02 -0.34151456776E+03 -0.44096277995E+03  0.55871118565E+03  0.00000000000E+00 0.  1.
         -1    1    6    6    0  502  0.98845401354E+02  0.36192769959E+03 -0.80490617611E+03  0.88805181462E+03  0.00000000000E+00 0.  1.
<mgrwt>
<rscale>  0 0.12763475E+04</rscale>
<asrwt>0</asrwt>
<pdfrwt beam="1">  1        4 0.37155847E-01 0.12763475E+04</pdfrwt>
<pdfrwt beam="2">  1       -4 0.25943227E+00 0.12763475E+04</pdfrwt>
<totfact> 0.76943978E-01</totfact>
</mgrwt>
</event>
<event>
12    1  0.1495204E-007  0.1637280E+04  0.7818608E-02  0.8797967E-01
         -1   -1    0    0    0  501 -0.00000000000E+00  0.00000000000E+00  0.37215177691E+03  0.37215177691E+03  0.00000000000E+00 0.  1.
          1   -1    0    0  501    0  0.00000000000E+00 -0.00000000000E+00 -0.18008012787E+04  0.18008012787E+04  0.00000000000E+00 0. -1.
         23    2    1    2    0    0 -0.25920291756E+03 -0.21857123064E+03  0.88821468233E+02  0.36245198148E+03  0.92318201476E+02 0.  0.
        254    2    1    2    0    0  0.25920291756E+03  0.21857123064E+03 -0.15174709701E+04  0.18105010742E+04  0.92748933107E+03 0.  0.
        -24    2    4    4    0    0  0.38294573748E+03  0.50950916147E+03 -0.11658811963E+04  0.13310948855E+04  0.79294432159E+02 0.  0.
         24    2    4    4    0    0 -0.12374281991E+03 -0.29093793082E+03 -0.35158977381E+03  0.47940618867E+03  0.79106002371E+02 0.  0.
         13    1    3    3    0    0 -0.22292704660E+03 -0.17132088560E+03  0.10597315732E+03  0.30046235042E+03  0.00000000000E+00 0. -1.
        -13    1    3    3    0    0 -0.36275870963E+02 -0.47250345041E+02 -0.17151689085E+02  0.61989631061E+02  0.00000000000E+00 0.  1.
          2    1    6    6  502    0  0.87540163681E+01 -0.38004350854E+02 -0.29007850270E+02  0.48604720590E+02  0.00000000000E+00 0. -1.
          1    1    5    5  503    0  0.11759503760E+03  0.10614802726E+03 -0.32191855666E+03  0.35878622281E+03  0.00000000000E+00 0. -1.
         -4    1    5    5    0  503  0.26535069988E+03  0.40336113421E+03 -0.84396263959E+03  0.97230866269E+03  0.00000000000E+00 0.  1.
         -1    1    6    6    0  502 -0.13249683628E+03 -0.25293357997E+03 -0.32258192354E+03  0.43080146808E+03  0.00000000000E+00 0.  1.
<mgrwt>
<rscale>  0 0.16372799E+04</rscale>
<asrwt>0</asrwt>
<pdfrwt beam="1">  1        1 0.27704635E+00 0.16372799E+04</pdfrwt>
<pdfrwt beam="2">  1       -1 0.57254119E-01 0.16372799E+04</pdfrwt>
<totfact> 0.12024889E+01</totfact>
</mgrwt>
</event>
<event>
12    1  0.1495204E-007  0.2041116E+04  0.7818608E-02  0.8587635E-01
         -2   -1    0    0    0  501 -0.00000000000E+00  0.00000000000E+00  0.85558124971E+03  0.85558124971E+03  0.00000000000E+00 0.  1.
          2   -1    0    0  501    0  0.00000000000E+00 -0.00000000000E+00 -0.12173458358E+04  0.12173458358E+04  0.00000000000E+00 0. -1.
         23    2    1    2    0    0  0.69008585704E+03  0.12031134741E+03 -0.58280372478E+03  0.91585148757E+03  0.91817510713E+02 0.  0.
        254    2    1    2    0    0 -0.69008585704E+03 -0.12031134741E+03  0.22103913864E+03  0.11570755980E+04  0.89402031757E+03 0.  0.
        -24    2    4    4    0    0 -0.44075359189E+03 -0.50168501935E+03  0.15352680805E+03  0.68971870849E+03  0.78675464065E+02 0.  0.
         24    2    4    4    0    0 -0.24933226514E+03  0.38137367193E+03  0.67512330589E+02  0.46735688949E+03  0.79070166845E+02 0.  0.
         13    1    3    3    0    0  0.29901516035E+03  0.17698399720E+02 -0.28745883359E+03  0.41515765738E+03  0.00000000000E+00 0. -1.
        -13    1    3    3    0    0  0.39107069669E+03  0.10261294769E+03 -0.29534489119E+03  0.50069383019E+03  0.00000000000E+00 0.  1.
          4    1    6    6  502    0 -0.13832162160E+02  0.10128293073E+02  0.18129893550E+02  0.24952035403E+02  0.00000000000E+00 0. -1.
          1    1    5    5  503    0 -0.31161699188E+02 -0.73477328939E+02  0.15721995551E+02  0.81345869646E+02  0.00000000000E+00 0. -1.
         -2    1    5    5    0  503 -0.40959189271E+03 -0.42820769041E+03  0.13780481250E+03  0.60837283885E+03  0.00000000000E+00 0.  1.
         -3    1    6    6    0  502 -0.23550010298E+03  0.37124537886E+03  0.49382437038E+02  0.44240485409E+03  0.00000000000E+00 0.  1.
<mgrwt>
<rscale>  0 0.20411156E+04</rscale>
<asrwt>0</asrwt>
<pdfrwt beam="1">  1        2 0.18728397E+00 0.20411156E+04</pdfrwt>
<pdfrwt beam="2">  1       -2 0.13162789E+00 0.20411156E+04</pdfrwt>
<totfact> 0.72073262E+00</totfact>
</mgrwt>
</event>
<event>
12    1  0.1495204E-007  0.1589911E+04  0.7818608E-02  0.8826770E-01
         -1   -1    0    0    0  501 -0.00000000000E+00  0.00000000000E+00  0.34075296793E+03  0.34075296793E+03  0.00000000000E+00 0.  1.
          1   -1    0    0  501    0  0.00000000000E+00 -0.00000000000E+00 -0.18545824481E+04  0.18545824481E+04  0.00000000000E+00 0. -1.
         23    2    1    2    0    0 -0.18114173255E+03 -0.28701735444E+01 -0.12138956333E+04  0.12303712558E+04  0.86314850854E+02 0.  0.
        254    2    1    2    0    0  0.18114173255E+03  0.28701735444E+01 -0.29993384686E+03  0.96496416019E+03  0.89909674273E+03 0.  0.
        -24    2    4    4    0    0  0.53252444662E+03  0.75408921428E+01 -0.27294159964E+03  0.60351372031E+03  0.78054740328E+02 0.  0.
         24    2    4    4    0    0 -0.35138271407E+03 -0.46707185984E+01 -0.26992247214E+02  0.36145043988E+03  0.80163655824E+02 0.  0.
         13    1    3    3    0    0 -0.18860031474E+03  0.64822780910E+01 -0.11402794418E+04  0.11557894722E+04  0.00000000000E+00 0. -1.
        -13    1    3    3    0    0  0.74585821936E+01 -0.93524516354E+01 -0.73616191431E+02  0.74581783571E+02  0.00000000000E+00 0.  1.
          2    1    6    6  502    0 -0.11211470080E+03  0.34432027552E+02  0.18591331283E+01  0.11729760028E+03  0.00000000000E+00 0. -1.
          3    1    5    5  503    0  0.11198988593E+03 -0.19873938893E+02 -0.32373281464E+02  0.11825708161E+03  0.00000000000E+00 0. -1.
         -4    1    5    5    0  503  0.42053456069E+03  0.27414831036E+02 -0.24056831818E+03  0.48525663870E+03  0.00000000000E+00 0.  1.
         -1    1    6    6    0  502 -0.23926801327E+03 -0.39102746150E+02 -0.28851380343E+02  0.24415283959E+03  0.00000000000E+00 0.  1.
<mgrwt>
<rscale>  0 0.15899113E+04</rscale>
<asrwt>0</asrwt>
<pdfrwt beam="1">  1        1 0.28532037E+00 0.15899113E+04</pdfrwt>
<pdfrwt beam="2">  1       -1 0.52423534E-01 0.15899113E+04</pdfrwt>
<totfact> 0.13170898E+01</totfact>
</mgrwt>
</event>
<event>
12    1  0.1495204E-007  0.1612624E+04  0.7818608E-02  0.8812830E-01
         -1   -1    0    0    0  501 -0.00000000000E+00  0.00000000000E+00  0.33104973095E+03  0.33104973095E+03  0.00000000000E+00 0.  1.
          1   -1    0    0  501    0  0.00000000000E+00 -0.00000000000E+00 -0.19638720669E+04  0.19638720669E+04  0.00000000000E+00 0. -1.
         23    2    1    2    0    0 -0.37143593033E+03  0.22704654461E+03 -0.10429922477E+04  0.11357942565E+04  0.11260985989E+03 0.  0.
        254    2    1    2    0    0  0.37143593033E+03 -0.22704654461E+03 -0.58983008827E+03  0.11591275414E+04  0.89786543557E+03 0.  0.
        -24    2    4    4    0    0  0.24960271717E+03 -0.55014128480E+03 -0.22223770335E+03  0.64839108095E+03  0.77874562020E+02 0.  0.
         24    2    4    4    0    0  0.12183321317E+03  0.32309474019E+03 -0.36759238491E+03  0.51073646043E+03  0.80585529669E+02 0.  0.
         13    1    3    3    0    0 -0.14055532071E+03  0.82299942902E+02 -0.26068959878E+03  0.30738924135E+03  0.00000000000E+00 0.  1.
        -13    1    3    3    0    0 -0.23088060962E+03  0.14474660170E+03 -0.78230264893E+03  0.82840501515E+03  0.00000000000E+00 0. -1.
          4    1    6    6  502    0  0.95597202239E+02  0.30306714828E+03 -0.35201248808E+03  0.47423761260E+03  0.00000000000E+00 0. -1.
          3    1    5    5  503    0  0.16606605310E+03 -0.29729914178E+03 -0.15251758991E+03  0.37313044492E+03  0.00000000000E+00 0. -1.
         -4    1    5    5    0  503  0.83536664068E+02 -0.25284214302E+03 -0.69720113445E+02  0.27526063603E+03  0.00000000000E+00 0.  1.
         -3    1    6    6    0  502  0.26236010929E+02  0.20027591915E+02 -0.15579896837E+02  0.36498847829E+02  0.00000000000E+00 0.  1.
<mgrwt>
<rscale>  0 0.16126243E+04</rscale>
<asrwt>0</asrwt>
<pdfrwt beam="1">  1        1 0.30213415E+00 0.16126243E+04</pdfrwt>
<pdfrwt beam="2">  1       -1 0.50930730E-01 0.16126243E+04</pdfrwt>
<totfact> 0.11715458E+01</totfact>
</mgrwt>
</event>
<event>
12    1  0.1495204E-007  0.3606192E+04  0.7818608E-02  0.8089075E-01
         -1   -1    0    0    0  501 -0.00000000000E+00  0.00000000000E+00  0.78361173809E+03  0.78361173809E+03  0.00000000000E+00 0.  1.
          1   -1    0    0  501    0  0.00000000000E+00 -0.00000000000E+00 -0.41489373887E+04  0.41489373887E+04  0.00000000000E+00 0. -1.
         23    2    1    2    0    0 -0.18317468264E+03  0.14814329419E+04 -0.57642704905E+03  0.16026910987E+04  0.90299995456E+02 0.  0.
        254    2    1    2    0    0  0.18317468264E+03 -0.14814329419E+04 -0.27888986016E+04  0.33298580282E+04  0.10400973762E+04 0.  0.
        -24    2    4    4    0    0  0.43089225264E+03 -0.19262777026E+03 -0.51613522823E+03  0.70396495027E+03  0.79984286736E+02 0.  0.
         24    2    4    4    0    0 -0.24771757001E+03 -0.12888051716E+04 -0.22727633734E+04  0.26258930779E+04  0.86477396818E+02 0.  0.
         11    1    3    3    0    0 -0.52187842013E+02  0.17944529912E+03 -0.73115316462E+02  0.20067395380E+03  0.00000000000E+00 0. -1.
        -11    1    3    3    0    0 -0.13098684063E+03  0.13019876428E+04 -0.50331173259E+03  0.14020171449E+04  0.00000000000E+00 0.  1.
          2    1    6    6  502    0 -0.13750539073E+03 -0.49863450021E+03 -0.87304769417E+03  0.10147691233E+04  0.00000000000E+00 0. -1.
          3    1    5    5  503    0  0.91134478926E+02 -0.67985818876E+02 -0.15944459941E+03  0.19583193074E+03  0.00000000000E+00 0. -1.
         -4    1    5    5    0  503  0.33975777372E+03 -0.12464195139E+03 -0.35669062883E+03  0.50813301953E+03  0.00000000000E+00 0.  1.
         -1    1    6    6    0  502 -0.11021217927E+03 -0.79017067144E+03 -0.13997156792E+04  0.16111239546E+04  0.00000000000E+00 0.  1.
<mgrwt>
<rscale>  0 0.36061925E+04</rscale>
<asrwt>0</asrwt>
<pdfrwt beam="1">  1        1 0.63829804E+00 0.36061925E+04</pdfrwt>
<pdfrwt beam="2">  1       -1 0.12055566E+00 0.36061925E+04</pdfrwt>
<totfact> 0.34787754E-02</totfact>
</mgrwt>
</event>
<event>
12    1  0.1495204E-007  0.1356320E+04  0.7818608E-02  0.8986058E-01
         -2   -1    0    0    0  501 -0.00000000000E+00  0.00000000000E+00  0.64874609278E+03  0.64874609278E+03  0.00000000000E+00 0.  1.
          2   -1    0    0  501    0  0.00000000000E+00 -0.00000000000E+00 -0.70890776267E+03  0.70890776267E+03  0.00000000000E+00 0. -1.
         23    2    1    2    0    0 -0.10548404237E+03  0.28785848618E+03 -0.18138804116E+03  0.36761299666E+03  0.90820166148E+02 0.  0.
        254    2    1    2    0    0  0.10548404237E+03 -0.28785848618E+03  0.12122637127E+03  0.99004085878E+03  0.93353932841E+03 0.  0.
        -24    2    4    4    0    0  0.38452117090E+02 -0.11718488488E+03 -0.40371737400E+03  0.42959482628E+03  0.79706550179E+02 0.  0.
         24    2    4    4    0    0  0.67031925278E+02 -0.17067360130E+03  0.52494374528E+03  0.56044603250E+03  0.70078972944E+02 0.  0.
         11    1    3    3    0    0 -0.34766630039E+02  0.16386936516E+02 -0.13810431930E+02  0.40840889837E+02  0.00000000000E+00 0.  1.
        -11    1    3    3    0    0 -0.70717412330E+02  0.27147154967E+03 -0.16757760923E+03  0.32677210683E+03  0.00000000000E+00 0. -1.
          4    1    6    6  502    0  0.22570504546E+02 -0.63305325740E+02  0.10457331574E+03  0.12430836781E+03  0.00000000000E+00 0. -1.
          1    1    5    5  503    0  0.36513584580E+02 -0.28729846601E+02 -0.67594469108E+02  0.82022303056E+02  0.00000000000E+00 0. -1.
         -2    1    5    5    0  503  0.19385325107E+01 -0.88455038276E+02 -0.33612290490E+03  0.34757252322E+03  0.00000000000E+00 0.  1.
         -3    1    6    6    0  502  0.44461420732E+02 -0.10736827557E+03  0.42037042954E+03  0.43613766469E+03  0.00000000000E+00 0.  1.
<mgrwt>
<rscale>  0 0.13563202E+04</rscale>
<asrwt>0</asrwt>
<pdfrwt beam="1">  1        2 0.10906273E+00 0.13563202E+04</pdfrwt>
<pdfrwt beam="2">  1       -2 0.99807092E-01 0.13563202E+04</pdfrwt>
<totfact> 0.32673513E+01</totfact>
</mgrwt>
</event>
<event>
12    1  0.1495204E-007  0.1326058E+04  0.7818608E-02  0.9009152E-01
          1   -1    0    0  501    0  0.00000000000E+00  0.00000000000E+00  0.10226235762E+04  0.10226235762E+04  0.00000000000E+00 0. -1.
         -1   -1    0    0    0  501 -0.00000000000E+00 -0.00000000000E+00 -0.42988228144E+03  0.42988228144E+03  0.00000000000E+00 0.  1.
         23    2    1    2    0    0  0.20444660050E+03  0.14372772158E+03 -0.10667596549E+03  0.28627883711E+03  0.90109603028E+02 0.  0.
        254    2    1    2    0    0 -0.20444660050E+03 -0.14372772158E+03  0.69941726020E+03  0.11662270205E+04  0.89913563439E+03 0.  0.
        -24    2    4    4    0    0  0.83538016191E+02  0.32693598910E+03  0.13287346156E+03  0.37099667697E+03  0.78214042347E+02 0.  0.
         24    2    4    4    0    0 -0.28798461670E+03 -0.47066371068E+03  0.56654379864E+03  0.79523034352E+03  0.83426347583E+02 0.  0.
         11    1    3    3    0    0  0.22746820378E+02  0.32357570176E+01  0.13920123633E+02  0.26863689299E+02  0.00000000000E+00 0. -1.
        -11    1    3    3    0    0  0.18169978013E+03  0.14049196456E+03 -0.12059608912E+03  0.25941514782E+03  0.00000000000E+00 0.  1.
          4    1    6    6  502    0 -0.41201138140E+02 -0.65599754433E+02  0.12585608617E+03  0.14778570970E+03  0.00000000000E+00 0. -1.
          1    1    5    5  503    0  0.34025382264E+02  0.86612136693E+02  0.23856856831E+01  0.93086413385E+02  0.00000000000E+00 0. -1.
         -2    1    5    5    0  503  0.49512633927E+02  0.24032385240E+03  0.13048777588E+03  0.27791026358E+03  0.00000000000E+00 0.  1.
         -3    1    6    6    0  502 -0.24678347856E+03 -0.40506395624E+03  0.44068771248E+03  0.64744463382E+03  0.00000000000E+00 0.  1.
<mgrwt>
<rscale>  0 0.13260585E+04</rscale>
<asrwt>0</asrwt>
<pdfrwt beam="1">  1        1 0.15732670E+00 0.13260585E+04</pdfrwt>
<pdfrwt beam="2">  1       -1 0.66135736E-01 0.13260585E+04</pdfrwt>
<totfact> 0.33014591E+01</totfact>
</mgrwt>
</event>
<event>
12    1  0.1495204E-007  0.1756552E+04  0.7818608E-02  0.8729752E-01
          2   -1    0    0  501    0  0.00000000000E+00  0.00000000000E+00  0.15056862443E+04  0.15056862443E+04  0.00000000000E+00 0. -1.
         -2   -1    0    0    0  501 -0.00000000000E+00 -0.00000000000E+00 -0.51230392391E+03  0.51230392391E+03  0.00000000000E+00 0.  1.
         23    2    1    2    0    0  0.55890488247E+03  0.92443191636E+02  0.21344754004E+02  0.57413868965E+03  0.90880278919E+02 0.  0.
        254    2    1    2    0    0 -0.55890488247E+03 -0.92443191636E+02  0.97203756639E+03  0.14438514786E+04  0.90494731911E+03 0.  0.
        -24    2    4    4    0    0 -0.41547535813E+03 -0.36337476315E+03  0.17233005370E+03  0.58373156811E+03  0.79899339784E+02 0.  0.
         24    2    4    4    0    0 -0.14342952435E+03  0.27093157152E+03  0.79970751269E+03  0.86011991045E+03  0.79361260092E+02 0.  0.
         13    1    3    3    0    0  0.33831265937E+03  0.26868604348E+02 -0.21474092224E+02  0.34005663356E+03  0.00000000000E+00 0.  1.
        -13    1    3    3    0    0  0.22059222310E+03  0.65574587289E+02  0.42818846229E+02  0.23408205609E+03  0.00000000000E+00 0. -1.
          4    1    6    6  502    0 -0.11123516353E+03  0.25543111050E+03  0.73768054109E+03  0.78853718651E+03  0.00000000000E+00 0. -1.
          1    1    5    5  503    0 -0.29474714235E+03 -0.27618319333E+03  0.90989040678E+02  0.41404352395E+03  0.00000000000E+00 0. -1.
         -4    1    5    5    0  503 -0.12072821578E+03 -0.87191569820E+02  0.81341013020E+02  0.16968804416E+03  0.00000000000E+00 0.  1.
         -3    1    6    6    0  502 -0.32194360818E+02  0.15500461023E+02  0.62026971604E+02  0.71582723941E+02  0.00000000000E+00 0.  1.
<mgrwt>
<rscale>  0 0.17565523E+04</rscale>
<asrwt>0</asrwt>
<pdfrwt beam="1">  1        2 0.23164404E+00 0.17565523E+04</pdfrwt>
<pdfrwt beam="2">  1       -2 0.78815989E-01 0.17565523E+04</pdfrwt>
<totfact> 0.17061880E+01</totfact>
</mgrwt>
</event>
<event>
12    1  0.1495204E-007  0.1532003E+04  0.7818608E-02  0.8863446E-01
         -1   -1    0    0    0  501 -0.00000000000E+00  0.00000000000E+00  0.66117972379E+03  0.66117972379E+03  0.00000000000E+00 0.  1.
          1   -1    0    0  501    0  0.00000000000E+00 -0.00000000000E+00 -0.88744135041E+03  0.88744135041E+03  0.00000000000E+00 0. -1.
         23    2    1    2    0    0  0.46551708172E+03 -0.72653316460E+02  0.98057143120E+02  0.48840231558E+03  0.83288419268E+02 0.  0.
        254    2    1    2    0    0 -0.46551708172E+03  0.72653316460E+02 -0.32431876974E+03  0.10602187586E+04  0.89269059251E+03 0.  0.
        -24    2    4    4    0    0 -0.10783236004E+03 -0.39381006054E+03 -0.13373433998E+03  0.43705160361E+03  0.80094000189E+02 0.  0.
         24    2    4    4    0    0 -0.35768472168E+03  0.46646337700E+03 -0.19058442976E+03  0.62316715501E+03  0.80550828739E+02 0.  0.
         13    1    3    3    0    0  0.40207141630E+03 -0.67310352308E+02  0.54580463235E+02  0.41130418707E+03  0.00000000000E+00 0. -1.
        -13    1    3    3    0    0  0.63445665417E+02 -0.53429641524E+01  0.43476679885E+02  0.77098128511E+02  0.00000000000E+00 0.  1.
          2    1    6    6  502    0 -0.22172141078E+03  0.30349081382E+03 -0.16095380668E+03  0.40886817674E+03  0.00000000000E+00 0. -1.
          1    1    5    5  503    0 -0.26256043797E+02 -0.20106896041E+03 -0.35536639225E+02  0.20586636297E+03  0.00000000000E+00 0. -1.
         -2    1    5    5    0  503 -0.81576316244E+02 -0.19274110014E+03 -0.98197700755E+02  0.23118524063E+03  0.00000000000E+00 0.  1.
         -1    1    6    6    0  502 -0.13596331090E+03  0.16297256319E+03 -0.29630623079E+02  0.21429897827E+03  0.00000000000E+00 0.  1.
<mgrwt>
<rscale>  0 0.15320029E+04</rscale>
<asrwt>0</asrwt>
<pdfrwt beam="1">  1        1 0.13652944E+00 0.15320029E+04</pdfrwt>
<pdfrwt beam="2">  1       -1 0.10171996E+00 0.15320029E+04</pdfrwt>
<totfact> 0.16483107E+01</totfact>
</mgrwt>
</event>
<event>
12    1  0.1495204E-007  0.1548210E+04  0.7818608E-02  0.8853012E-01
         -2   -1    0    0    0  501 -0.00000000000E+00  0.00000000000E+00  0.20072728406E+03  0.20072728406E+03  0.00000000000E+00 0.  1.
          2   -1    0    0  501    0  0.00000000000E+00 -0.00000000000E+00 -0.29853352735E+04  0.29853352735E+04  0.00000000000E+00 0. -1.
         23    2    1    2    0    0  0.12968077100E+03 -0.96014716970E+02  0.64943054534E+02  0.19624640037E+03  0.90879706657E+02 0.  0.
        254    2    1    2    0    0 -0.12968077100E+03  0.96014716970E+02 -0.28495510439E+04  0.29898161572E+04  0.89051871030E+03 0.  0.
        -24    2    4    4    0    0  0.29167570259E+03  0.30025123387E+03 -0.14872250242E+04  0.15471014283E+04  0.80368140807E+02 0.  0.
         24    2    4    4    0    0 -0.42135647359E+03 -0.20423651690E+03 -0.13623260198E+04  0.14427147289E+04  0.78992227631E+02 0.  0.
         11    1    3    3    0    0  0.44878615283E+02 -0.22576220283E+02 -0.21479125979E+02  0.54636331180E+02  0.00000000000E+00 0. -1.
        -11    1    3    3    0    0  0.84802155716E+02 -0.73438496688E+02  0.86422180514E+02  0.14161006919E+03  0.00000000000E+00 0.  1.
          2    1    6    6  502    0 -0.37481435107E+03 -0.15087774164E+03 -0.11632250558E+04  0.12313985631E+04  0.00000000000E+00 0. -1.
          1    1    5    5  503    0  0.27694070198E+03  0.30296990873E+03 -0.14147386162E+04  0.14730825741E+04  0.00000000000E+00 0. -1.
         -2    1    5    5    0  503  0.14735000610E+02 -0.27186748577E+01 -0.72486408007E+02  0.74018854231E+02  0.00000000000E+00 0.  1.
         -1    1    6    6    0  502 -0.46542122517E+02 -0.53358775261E+02 -0.19910096398E+03  0.21131616579E+03  0.00000000000E+00 0.  1.
<mgrwt>
<rscale>  0 0.15482096E+04</rscale>
<asrwt>0</asrwt>
<pdfrwt beam="1">  1        2 0.45928235E+00 0.15482096E+04</pdfrwt>
<pdfrwt beam="2">  1       -2 0.30881121E-01 0.15482096E+04</pdfrwt>
<totfact> 0.16737914E+01</totfact>
</mgrwt>
</event>
<event>
12    1  0.1495204E-007  0.1979070E+04  0.7818608E-02  0.8616469E-01
          2   -1    0    0  501    0  0.00000000000E+00  0.00000000000E+00  0.14002012882E+04  0.14002012882E+04  0.00000000000E+00 0. -1.
         -2   -1    0    0    0  501 -0.00000000000E+00 -0.00000000000E+00 -0.69931314130E+03  0.69931314130E+03  0.00000000000E+00 0.  1.
         23    2    1    2    0    0 -0.67609397923E+03  0.35317594820E+03  0.48921447166E+03  0.91071530296E+03  0.90748248637E+02 0.  0.
        254    2    1    2    0    0  0.67609397923E+03 -0.35317594820E+03  0.21167367528E+03  0.11887991266E+04  0.88690546249E+03 0.  0.
        -24    2    4    4    0    0  0.57099394949E+03 -0.61270555002E+03  0.24385684069E+02  0.84208976995E+03  0.84132857303E+02 0.  0.
         24    2    4    4    0    0  0.10510002974E+03  0.25952960182E+03  0.18728799121E+03  0.34670935663E+03  0.82030213039E+02 0.  0.
         11    1    3    3    0    0 -0.18005307053E+03  0.50373864424E+02  0.12283679266E+03  0.22370854266E+03  0.00000000000E+00 0. -1.
        -11    1    3    3    0    0 -0.49604090870E+03  0.30280208378E+03  0.36637767900E+03  0.68700676031E+03  0.00000000000E+00 0.  1.
          4    1    6    6  502    0  0.93581211350E+02  0.25180290040E+03  0.15167858626E+03  0.30849398260E+03  0.00000000000E+00 0. -1.
          1    1    5    5  503    0  0.40583362680E+03 -0.48559700139E+03  0.61607097501E+01  0.63288493010E+03  0.00000000000E+00 0. -1.
         -2    1    5    5    0  503  0.16516032269E+03 -0.12710854862E+03  0.18224974319E+02  0.20920483984E+03  0.00000000000E+00 0.  1.
         -3    1    6    6    0  502  0.11518818387E+02  0.77267014191E+01  0.35609404943E+02  0.38215374030E+02  0.00000000000E+00 0.  1.
<mgrwt>
<rscale>  0 0.19790696E+04</rscale>
<asrwt>0</asrwt>
<pdfrwt beam="1">  1        2 0.21541558E+00 0.19790696E+04</pdfrwt>
<pdfrwt beam="2">  1       -2 0.10758664E+00 0.19790696E+04</pdfrwt>
<totfact> 0.93347371E+00</totfact>
</mgrwt>
</event>
<event>
12    1  0.1495204E-007  0.1726821E+04  0.7818608E-02  0.8746213E-01
         -2   -1    0    0    0  501 -0.00000000000E+00  0.00000000000E+00  0.80245842925E+03  0.80245842925E+03  0.00000000000E+00 0.  1.
          2   -1    0    0  501    0  0.00000000000E+00 -0.00000000000E+00 -0.92899259977E+03  0.92899259977E+03  0.00000000000E+00 0. -1.
         23    2    1    2    0    0  0.75741626379E+02 -0.52980216058E+03  0.23978499676E+03  0.59323632941E+03  0.89472758656E+02 0.  0.
        254    2    1    2    0    0 -0.75741626379E+02  0.52980216058E+03 -0.36631916728E+03  0.11382146996E+04  0.93536936382E+03 0.  0.
        -24    2    4    4    0    0  0.32401863796E+03  0.11181616278E+03  0.12700298084E+03  0.37390582455E+03  0.78643985681E+02 0.  0.
         24    2    4    4    0    0 -0.39976026434E+03  0.41798599780E+03 -0.49332214812E+03  0.76430887507E+03  0.79251191633E+02 0.  0.
         13    1    3    3    0    0  0.94422311671E+02 -0.48391804123E+03  0.21604168179E+03  0.53829940724E+03  0.00000000000E+00 0.  1.
        -13    1    3    3    0    0 -0.18680685292E+02 -0.45884119353E+02  0.23743314976E+02  0.54936922173E+02  0.00000000000E+00 0. -1.
          4    1    6    6  502    0 -0.28773515326E+03  0.30876738013E+03 -0.31223043803E+03  0.52499205697E+03  0.00000000000E+00 0. -1.
          1    1    5    5  503    0  0.28378291171E+03  0.97155040940E+02  0.80245765980E+02  0.31050157152E+03  0.00000000000E+00 0. -1.
         -2    1    5    5    0  503  0.40235726247E+02  0.14661121840E+02  0.46757214858E+02  0.63404253024E+02  0.00000000000E+00 0.  1.
         -3    1    6    6    0  502 -0.11202511108E+03  0.10921861767E+03 -0.18109171009E+03  0.23931681809E+03  0.00000000000E+00 0.  1.
<mgrwt>
<rscale>  0 0.17268213E+04</rscale>
<asrwt>0</asrwt>
<pdfrwt beam="1">  1        2 0.14292194E+00 0.17268213E+04</pdfrwt>
<pdfrwt beam="2">  1       -2 0.12345514E+00 0.17268213E+04</pdfrwt>
<totfact> 0.13168418E+01</totfact>
</mgrwt>
</event>
<event>
12    1  0.1495204E-007  0.1815369E+04  0.7818608E-02  0.8698169E-01
          1   -1    0    0  501    0  0.00000000000E+00  0.00000000000E+00  0.19111192294E+04  0.19111192294E+04  0.00000000000E+00 0. -1.
         -1   -1    0    0    0  501 -0.00000000000E+00 -0.00000000000E+00 -0.43110390495E+03  0.43110390495E+03  0.00000000000E+00 0.  1.
         23    2    1    2    0    0 -0.53250637466E+02 -0.22791277127E+03 -0.26239306519E+03  0.36241616103E+03  0.87837870058E+02 0.  0.
        254    2    1    2    0    0  0.53250637466E+02  0.22791277127E+03  0.17424083896E+04  0.19798069733E+04  0.91042231607E+03 0.  0.
        -24    2    4    4    0    0 -0.17112803469E+03 -0.11652578711E+02 -0.15442232627E+02  0.18970872676E+03  0.79563506781E+02 0.  0.
         24    2    4    4    0    0  0.22437867216E+03  0.23956534998E+03  0.17578506223E+04  0.17900982465E+04  0.81704202438E+02 0.  0.
         11    1    3    3    0    0 -0.46186198752E+02 -0.64782460556E+02 -0.47980365366E+02  0.92908813422E+02  0.00000000000E+00 0. -1.
        -11    1    3    3    0    0 -0.70644387143E+01 -0.16313031072E+03 -0.21441269983E+03  0.26950734761E+03  0.00000000000E+00 0.  1.
          4    1    6    6  502    0  0.19280919441E+03  0.23832024410E+03  0.16062877632E+04  0.16352774389E+04  0.00000000000E+00 0. -1.
          1    1    5    5  503    0 -0.11911723504E+03 -0.30884881432E+02  0.18876420848E+02  0.12449542501E+03  0.00000000000E+00 0. -1.
         -2    1    5    5    0  503 -0.52010799653E+02  0.19232302721E+02 -0.34318653475E+02  0.65213301748E+02  0.00000000000E+00 0.  1.
         -3    1    6    6    0  502  0.31569477743E+02  0.12451058789E+01  0.15156285910E+03  0.15482080762E+03  0.00000000000E+00 0.  1.
<mgrwt>
<rscale>  0 0.18153688E+04</rscale>
<asrwt>0</asrwt>
<pdfrwt beam="1">  1        1 0.29401834E+00 0.18153688E+04</pdfrwt>
<pdfrwt beam="2">  1       -1 0.66323679E-01 0.18153688E+04</pdfrwt>
<totfact> 0.74335882E+00</totfact>
</mgrwt>
</event>
<event>
12    1  0.1495204E-007  0.1212485E+04  0.7818608E-02  0.9101998E-01
         -1   -1    0    0    0  501 -0.00000000000E+00  0.00000000000E+00  0.22566385424E+03  0.22566385424E+03  0.00000000000E+00 0.  1.
          1   -1    0    0  501    0  0.00000000000E+00 -0.00000000000E+00 -0.16286613073E+04  0.16286613073E+04  0.00000000000E+00 0. -1.
         23    2    1    2    0    0 -0.20507330983E+03  0.46074700348E+02 -0.53102191824E+03  0.58054860040E+03  0.10428067590E+03 0.  0.
        254    2    1    2    0    0  0.20507330983E+03 -0.46074700348E+02 -0.87197553478E+03  0.12737765611E+04  0.90442658847E+03 0.  0.
        -24    2    4    4    0    0  0.44324677843E+03 -0.25792491736E+03 -0.77283252961E+03  0.93180476927E+03  0.89426168588E+02 0.  0.
         24    2    4    4    0    0 -0.23817346860E+03  0.21185021701E+03 -0.99143005172E+02  0.34197179183E+03  0.74217621499E+02 0.  0.
         13    1    3    3    0    0 -0.13968209660E+03  0.39930561616E+02 -0.46602925845E+03  0.48814834589E+03  0.00000000000E+00 0. -1.
        -13    1    3    3    0    0 -0.65391213230E+02  0.61441387323E+01 -0.64992659788E+02  0.92400254516E+02  0.00000000000E+00 0.  1.
          2    1    6    6  502    0 -0.13865107243E+03  0.16968598773E+03 -0.63054588063E+02  0.22802047144E+03  0.00000000000E+00 0. -1.
          1    1    5    5  503    0  0.12053264649E+03 -0.11582548486E+03 -0.22500009764E+03  0.28030109838E+03  0.00000000000E+00 0. -1.
         -2    1    5    5    0  503  0.32271413193E+03 -0.14209943250E+03 -0.54783243197E+03  0.65150367089E+03  0.00000000000E+00 0.  1.
         -1    1    6    6    0  502 -0.99522396170E+02  0.42164229279E+02 -0.36088417109E+02  0.11395132039E+03  0.00000000000E+00 0.  1.
<mgrwt>
<rscale>  0 0.12124850E+04</rscale>
<asrwt>0</asrwt>
<pdfrwt beam="1">  1        1 0.25056327E+00 0.12124850E+04</pdfrwt>
<pdfrwt beam="2">  1       -1 0.34717516E-01 0.12124850E+04</pdfrwt>
<totfact> 0.41523464E+01</totfact>
</mgrwt>
</event>
<event>
12    1  0.1495204E-007  0.1065554E+04  0.7818608E-02  0.9239431E-01
          1   -1    0    0  501    0  0.00000000000E+00  0.00000000000E+00  0.40349716510E+03  0.40349716510E+03  0.00000000000E+00 0. -1.
         -1   -1    0    0    0  501 -0.00000000000E+00 -0.00000000000E+00 -0.70347763552E+03  0.70347763552E+03  0.00000000000E+00 0.  1.
         23    2    1    2    0    0 -0.63855417241E+02  0.62752967690E+02  0.50130693117E+02  0.13694401854E+03  0.90692494482E+02 0.  0.
        254    2    1    2    0    0  0.63855417241E+02 -0.62752967690E+02 -0.35011116353E+03  0.97003078208E+03  0.90020355592E+03 0.  0.
        -24    2    4    4    0    0 -0.24731986628E+03  0.25381370720E+03  0.51720887787E+02  0.36677288650E+03  0.79112488342E+02 0.  0.
         24    2    4    4    0    0  0.31117528352E+03 -0.31656667490E+03 -0.40183205132E+03  0.60325789559E+03  0.73529411766E+02 0.  0.
         13    1    3    3    0    0 -0.81007323936E+02  0.57138789326E+02  0.18963741788E+02  0.10092894173E+03  0.00000000000E+00 0. -1.
        -13    1    3    3    0    0  0.17151906694E+02  0.56141783647E+01  0.31166951328E+02  0.36015076802E+02  0.00000000000E+00 0.  1.
          4    1    6    6  502    0  0.18884259640E+03 -0.15398890153E+03 -0.18520118722E+03  0.30606141174E+03  0.00000000000E+00 0. -1.
          1    1    5    5  503    0 -0.77305893465E+02  0.49070378527E+02 -0.14051922446E+02  0.92636708370E+02  0.00000000000E+00 0. -1.
         -2    1    5    5    0  503 -0.17001397282E+03  0.20474332868E+03  0.65772810233E+02  0.27413617813E+03  0.00000000000E+00 0.  1.
         -3    1    6    6    0  502  0.12233268712E+03 -0.16257777337E+03 -0.21663086410E+03  0.29719648385E+03  0.00000000000E+00 0.  1.
<mgrwt>
<rscale>  0 0.10655538E+04</rscale>
<asrwt>0</asrwt>
<pdfrwt beam="1">  1        1 0.62076487E-01 0.10655538E+04</pdfrwt>
<pdfrwt beam="2">  1       -1 0.10822733E+00 0.10655538E+04</pdfrwt>
<totfact> 0.46991363E+01</totfact>
</mgrwt>
</event>
<event>
12    1  0.1495204E-007  0.2194825E+04  0.7818608E-02  0.8520585E-01
          2   -1    0    0  501    0  0.00000000000E+00  0.00000000000E+00  0.26167403306E+04  0.26167403306E+04  0.00000000000E+00 0. -1.
         -2   -1    0    0    0  501 -0.00000000000E+00 -0.00000000000E+00 -0.46023455585E+03  0.46023455585E+03  0.00000000000E+00 0.  1.
         23    2    1    2    0    0 -0.45556792482E+03  0.75954219061E+03  0.62124427828E+03  0.10856733205E+04  0.91080360896E+02 0.  0.
        254    2    1    2    0    0  0.45556792482E+03 -0.75954219061E+03  0.15352614965E+04  0.19913015659E+04  0.90763846907E+03 0.  0.
        -24    2    4    4    0    0  0.61627368138E+03 -0.74293953741E+03  0.15303413889E+04  0.18110638193E+04  0.79088460246E+02 0.  0.
         24    2    4    4    0    0 -0.16070575656E+03 -0.16602653194E+02  0.49201075734E+01  0.18023774660E+03  0.79746156992E+02 0.  0.
         11    1    3    3    0    0 -0.29587033693E+02  0.16535099451E+02  0.22706480352E+02  0.40796891138E+02  0.00000000000E+00 0. -1.
        -11    1    3    3    0    0 -0.42598089112E+03  0.74300709116E+03  0.59853779793E+03  0.10448764294E+04  0.00000000000E+00 0.  1.
          4    1    6    6  502    0 -0.14209676418E+02 -0.29669679152E+02 -0.23480727044E+01  0.32980573226E+02  0.00000000000E+00 0. -1.
          1    1    5    5  503    0  0.62634245017E+02 -0.42752268863E+02  0.11499909805E+03  0.13775194261E+03  0.00000000000E+00 0. -1.
         -2    1    5    5    0  503  0.55363943636E+03 -0.70018726855E+03  0.14153422908E+04  0.16733118767E+04  0.00000000000E+00 0.  1.
         -1    1    6    6    0  502 -0.14649608014E+03  0.13067025958E+02  0.72681802778E+01  0.14725717337E+03  0.00000000000E+00 0.  1.
<mgrwt>
<rscale>  0 0.21948251E+04</rscale>
<asrwt>0</asrwt>
<pdfrwt beam="1">  1        2 0.40257543E+00 0.21948251E+04</pdfrwt>
<pdfrwt beam="2">  1       -2 0.70805318E-01 0.21948251E+04</pdfrwt>
<totfact> 0.49333848E+00</totfact>
</mgrwt>
</event>
<event>
12    1  0.1495204E-007  0.1399890E+04  0.7818608E-02  0.8953898E-01
          1   -1    0    0  501    0  0.00000000000E+00  0.00000000000E+00  0.59240197130E+04  0.59240197130E+04  0.00000000000E+00 0. -1.
         -1   -1    0    0    0  501 -0.00000000000E+00 -0.00000000000E+00 -0.82701159330E+02  0.82701159330E+02  0.00000000000E+00 0.  1.
         23    2    1    2    0    0 -0.11149462299E+03 -0.34886149675E+03  0.10799007260E+04  0.11437520571E+04  0.88587782918E+02 0.  0.
        254    2    1    2    0    0  0.11149462299E+03  0.34886149675E+03  0.47614178276E+04  0.48629688152E+04  0.91827586986E+03 0.  0.
        -24    2    4    4    0    0  0.31469164330E+03  0.68729904214E+02  0.59382929223E+03  0.68027447524E+03  0.79909343944E+02 0.  0.
         24    2    4    4    0    0 -0.20319702031E+03  0.28013159254E+03  0.41675885354E+04  0.41826943399E+04  0.79843614225E+02 0.  0.
         11    1    3    3    0    0 -0.30055894112E+01  0.49385468438E+01  0.29750813933E+02  0.30307321596E+02  0.00000000000E+00 0. -1.
        -11    1    3    3    0    0 -0.10848903358E+03 -0.35380004360E+03  0.10501499121E+04  0.11134447355E+04  0.00000000000E+00 0.  1.
          4    1    6    6  502    0 -0.49075623456E+02  0.65334532859E+02  0.63660925832E+03  0.64183203860E+03  0.00000000000E+00 0. -1.
          3    1    5    5  503    0  0.15437997462E+03  0.18715712078E+02  0.36221147792E+03  0.39418347147E+03  0.00000000000E+00 0. -1.
         -4    1    5    5    0  503  0.16031166868E+03  0.50014192137E+02  0.23161781431E+03  0.28609100377E+03  0.00000000000E+00 0.  1.
         -3    1    6    6    0  502 -0.15412139685E+03  0.21479705968E+03  0.35309792771E+04  0.35408623013E+04  0.00000000000E+00 0.  1.
<mgrwt>
<rscale>  0 0.13998904E+04</rscale>
<asrwt>0</asrwt>
<pdfrwt beam="1">  1        1 0.91138732E+00 0.13998904E+04</pdfrwt>
<pdfrwt beam="2">  1       -1 0.12723260E-01 0.13998904E+04</pdfrwt>
<totfact> 0.74868104E-03</totfact>
</mgrwt>
</event>
<event>
12    1  0.1495204E-007  0.1916771E+04  0.7818608E-02  0.8646553E-01
         -2   -1    0    0    0  501 -0.00000000000E+00  0.00000000000E+00  0.65511417679E+03  0.65511417679E+03  0.00000000000E+00 0.  1.
          2   -1    0    0  501    0  0.00000000000E+00 -0.00000000000E+00 -0.14020501706E+04  0.14020501706E+04  0.00000000000E+00 0. -1.
         23    2    1    2    0    0  0.67713967942E+03 -0.30236627013E+03 -0.19614726257E+03  0.77155721207E+03  0.82965511672E+02 0.  0.
        254    2    1    2    0    0 -0.67713967942E+03  0.30236627013E+03 -0.55078873129E+03  0.12856071354E+04  0.89413308475E+03 0.  0.
        -24    2    4    4    0    0 -0.55887796006E+03  0.48216843855E+03 -0.69318676233E+03  0.10156166799E+04  0.78347786118E+02 0.  0.
         24    2    4    4    0    0 -0.11826171935E+03 -0.17980216842E+03  0.14239803104E+03  0.26999045550E+03  0.79391389863E+02 0.  0.
         13    1    3    3    0    0  0.33293759250E+03 -0.17532517271E+03 -0.64573689126E+02  0.38178019594E+03  0.00000000000E+00 0.  1.
        -13    1    3    3    0    0  0.34420208691E+03 -0.12704109742E+03 -0.13157357344E+03  0.38977701612E+03  0.00000000000E+00 0. -1.
          2    1    6    6  502    0  0.42637646025E+01 -0.51051070966E+02  0.25172576532E+02  0.57079332027E+02  0.00000000000E+00 0. -1.
          3    1    5    5  503    0 -0.41741184789E+02  0.50111447826E+02 -0.90495626696E+02  0.11154793661E+03  0.00000000000E+00 0. -1.
         -4    1    5    5    0  503 -0.51713677527E+03  0.43205699072E+03 -0.60269113563E+03  0.90406874326E+03  0.00000000000E+00 0.  1.
         -3    1    6    6    0  502 -0.12252548396E+03 -0.12875109745E+03  0.11722545451E+03  0.21291112347E+03  0.00000000000E+00 0.  1.
<mgrwt>
<rscale>  0 0.19167712E+04</rscale>
<asrwt>0</asrwt>
<pdfrwt beam="1">  1        2 0.21570002E+00 0.19167712E+04</pdfrwt>
<pdfrwt beam="2">  1       -2 0.10078680E+00 0.19167712E+04</pdfrwt>
<totfact> 0.10945015E+01</totfact>
</mgrwt>
</event>
<event>
12    1  0.1495204E-007  0.2187872E+04  0.7818608E-02  0.8523493E-01
         -2   -1    0    0    0  501 -0.00000000000E+00  0.00000000000E+00  0.94072859953E+03  0.94072859953E+03  0.00000000000E+00 0.  1.
          2   -1    0    0  501    0  0.00000000000E+00 -0.00000000000E+00 -0.12720951606E+04  0.12720951606E+04  0.00000000000E+00 0. -1.
         23    2    1    2    0    0 -0.52587660274E+03 -0.21511210874E+03 -0.84899350835E+03  0.10256321275E+04  0.91169419271E+02 0.  0.
        254    2    1    2    0    0  0.52587660274E+03  0.21511210874E+03  0.51762694729E+03  0.11871916327E+04  0.90480213056E+03 0.  0.
        -24    2    4    4    0    0  0.37144578475E+03 -0.31766988726E+03  0.15936775798E+03  0.52110789809E+03  0.85259784648E+02 0.  0.
         24    2    4    4    0    0  0.15443081799E+03  0.53278199601E+03  0.35825918931E+03  0.66608373458E+03  0.87248850603E+02 0.  0.
         11    1    3    3    0    0 -0.43674093771E+03 -0.20901528296E+03 -0.68437279454E+03  0.83832938460E+03  0.00000000000E+00 0. -1.
        -11    1    3    3    0    0 -0.89135665033E+02 -0.60968257868E+01 -0.16462071380E+03  0.18730274285E+03  0.00000000000E+00 0.  1.
          2    1    6    6  502    0  0.66981115101E+02  0.12405084366E+03  0.63478707030E+02  0.15461121512E+03  0.00000000000E+00 0. -1.
          1    1    5    5  503    0  0.10618825751E+03 -0.62641529844E+02  0.90479949691E+01  0.12361947058E+03  0.00000000000E+00 0. -1.
         -2    1    5    5    0  503  0.26525752725E+03 -0.25502835742E+03  0.15031976301E+03  0.39748842751E+03  0.00000000000E+00 0.  1.
         -1    1    6    6    0  502  0.87449702885E+02  0.40873115234E+03  0.29478048228E+03  0.51147251946E+03  0.00000000000E+00 0.  1.
<mgrwt>
<rscale>  0 0.21878723E+04</rscale>
<asrwt>0</asrwt>
<pdfrwt beam="1">  1        2 0.19570695E+00 0.21878723E+04</pdfrwt>
<pdfrwt beam="2">  1       -2 0.14472748E+00 0.21878723E+04</pdfrwt>
<totfact> 0.51725395E+00</totfact>
</mgrwt>
</event>
<event>
12    1  0.1495204E-007  0.1679431E+04  0.7818608E-02  0.8773183E-01
         -1   -1    0    0    0  501 -0.00000000000E+00  0.00000000000E+00  0.56977453993E+03  0.56977453993E+03  0.00000000000E+00 0.  1.
          1   -1    0    0  501    0  0.00000000000E+00 -0.00000000000E+00 -0.12375458903E+04  0.12375458903E+04  0.00000000000E+00 0. -1.
         23    2    1    2    0    0 -0.26412355449E+03 -0.13585849211E+03  0.31326045420E+03  0.44180779094E+03  0.94038449863E+02 0.  0.
        254    2    1    2    0    0  0.26412355449E+03  0.13585849211E+03 -0.98103180454E+03  0.13655126393E+04  0.90220983398E+03 0.  0.
        -24    2    4    4    0    0 -0.24901567061E+03 -0.19655946889E+03 -0.26741562322E+03  0.42261403513E+03  0.80293699144E+02 0.  0.
         24    2    4    4    0    0  0.51313922510E+03  0.33241796100E+03 -0.71361618131E+03  0.94289860413E+03  0.77434864876E+02 0.  0.
         13    1    3    3    0    0 -0.71773810327E+01 -0.59725567601E+01  0.52631602153E+02  0.53453454313E+02  0.00000000000E+00 0. -1.
        -13    1    3    3    0    0 -0.25694617346E+03 -0.12988593535E+03  0.26062885205E+03  0.38835433663E+03  0.00000000000E+00 0.  1.
          2    1    6    6  502    0  0.44964173791E+03  0.25814046131E+03 -0.60641126354E+03  0.79784009099E+03  0.00000000000E+00 0. -1.
          1    1    5    5  503    0 -0.17481627026E+03 -0.10857258933E+03 -0.20988664558E+03  0.29394070745E+03  0.00000000000E+00 0. -1.
         -2    1    5    5    0  503 -0.74199400347E+02 -0.87986879563E+02 -0.57528977639E+02  0.12867332768E+03  0.00000000000E+00 0.  1.
         -1    1    6    6    0  502  0.63497487189E+02  0.74277499690E+02 -0.10720491778E+03  0.14505851314E+03  0.00000000000E+00 0.  1.
<mgrwt>
<rscale>  0 0.16794310E+04</rscale>
<asrwt>0</asrwt>
<pdfrwt beam="1">  1        1 0.19039167E+00 0.16794310E+04</pdfrwt>
<pdfrwt beam="2">  1       -1 0.87657622E-01 0.16794310E+04</pdfrwt>
<totfact> 0.12244345E+01</totfact>
</mgrwt>
</event>
<event>
12    1  0.1495204E-007  0.1332576E+04  0.7818608E-02  0.9004124E-01
          1   -1    0    0  501    0  0.00000000000E+00  0.00000000000E+00  0.42565670855E+03  0.42565670855E+03  0.00000000000E+00 0. -1.
         -1   -1    0    0    0  501 -0.00000000000E+00 -0.00000000000E+00 -0.10429519229E+04  0.10429519229E+04  0.00000000000E+00 0.  1.
         23    2    1    2    0    0 -0.23072675962E+03 -0.26366154570E+03 -0.23063554609E+03  0.42907450472E+03  0.90332315379E+02 0.  0.
        254    2    1    2    0    0  0.23072675962E+03  0.26366154570E+03 -0.38665966825E+03  0.10395341267E+04  0.89909579760E+03 0.  0.
        -24    2    4    4    0    0 -0.24740022509E+03  0.27267910585E+03  0.58132679869E+02  0.38153227691E+03  0.81404568165E+02 0.  0.
         24    2    4    4    0    0  0.47812698471E+03 -0.90175601517E+01 -0.44479234812E+03  0.65800184980E+03  0.80246317598E+02 0.  0.
         11    1    3    3    0    0 -0.60120283691E+01 -0.53694091709E+02 -0.40201587895E+02  0.67345138197E+02  0.00000000000E+00 0. -1.
        -11    1    3    3    0    0 -0.22471473125E+03 -0.20996745399E+03 -0.19043395819E+03  0.36172936653E+03  0.00000000000E+00 0.  1.
          4    1    6    6  502    0  0.17235159214E+03  0.48846752211E+01 -0.21305349361E+03  0.27408159826E+03  0.00000000000E+00 0. -1.
          1    1    5    5  503    0 -0.16736674710E+03  0.15633309049E+03  0.70885339918E+02  0.23974235052E+03  0.00000000000E+00 0. -1.
         -2    1    5    5    0  503 -0.80033477990E+02  0.11634601536E+03 -0.12752660049E+02  0.14178992640E+03  0.00000000000E+00 0.  1.
         -3    1    6    6    0  502  0.30577539257E+03 -0.13902235373E+02 -0.23173885451E+03  0.38392025154E+03  0.00000000000E+00 0.  1.
<mgrwt>
<rscale>  0 0.13325757E+04</rscale>
<asrwt>0</asrwt>
<pdfrwt beam="1">  1        1 0.65485648E-01 0.13325757E+04</pdfrwt>
<pdfrwt beam="2">  1       -1 0.16045414E+00 0.13325757E+04</pdfrwt>
<totfact> 0.15686051E+01</totfact>
</mgrwt>
</event>
<event>
12    1  0.1495204E-007  0.2678395E+04  0.7818608E-02  0.8342049E-01
          1   -1    0    0  501    0  0.00000000000E+00  0.00000000000E+00  0.16630307068E+04  0.16630307068E+04  0.00000000000E+00 0.  1.
         -1   -1    0    0    0  501 -0.00000000000E+00 -0.00000000000E+00 -0.10784225902E+04  0.10784225902E+04  0.00000000000E+00 0. -1.
         23    2    1    2    0    0  0.56715662703E+02 -0.51242623916E+03  0.13447856549E+04  0.14432152708E+04  0.92868418996E+02 0.  0.
        254    2    1    2    0    0 -0.56715662703E+02  0.51242623916E+03 -0.76017753837E+03  0.12982380262E+04  0.91747194286E+03 0.  0.
        -24    2    4    4    0    0  0.29484257982E+03  0.30072901443E+03  0.37195979809E+01  0.42767121581E+03  0.74288265735E+02 0.  0.
         24    2    4    4    0    0 -0.35155824252E+03  0.21169722472E+03 -0.76389713635E+03  0.87056681042E+03  0.77063763489E+02 0.  0.
         13    1    3    3    0    0  0.48332038551E+01 -0.15994993967E+02  0.11163144447E+03  0.11287505962E+03  0.00000000000E+00 0. -1.
        -13    1    3    3    0    0  0.51882458848E+02 -0.49643124519E+03  0.12331542104E+04  0.13303402112E+04  0.00000000000E+00 0.  1.
          2    1    6    6  502    0 -0.96930373204E+02  0.10059021211E+03 -0.24962315486E+03  0.28605175662E+03  0.00000000000E+00 0. -1.
          1    1    5    5  503    0  0.22828915563E+03  0.22545877823E+03  0.34209699260E+02  0.32267305866E+03  0.00000000000E+00 0. -1.
         -2    1    5    5    0  503  0.66553424189E+02  0.75270236203E+02 -0.30490101280E+02  0.10499815715E+03  0.00000000000E+00 0.  1.
         -1    1    6    6    0  502 -0.25462786932E+03  0.11110701261E+03 -0.51427398148E+03  0.58451505380E+03  0.00000000000E+00 0.  1.
<mgrwt>
<rscale>  0 0.26783950E+04</rscale>
<asrwt>0</asrwt>
<pdfrwt beam="1">  1        1 0.25585088E+00 0.26783950E+04</pdfrwt>
<pdfrwt beam="2">  1       -1 0.16591117E+00 0.26783950E+04</pdfrwt>
<totfact> 0.11658610E+00</totfact>
</mgrwt>
</event>
<event>
12    1  0.1495204E-007  0.3030927E+04  0.7818608E-02  0.8234954E-01
          2   -1    0    0  501    0  0.00000000000E+00  0.00000000000E+00  0.17457953991E+04  0.17457953991E+04  0.00000000000E+00 0. -1.
         -2   -1    0    0    0  501 -0.00000000000E+00 -0.00000000000E+00 -0.13155203406E+04  0.13155203406E+04  0.00000000000E+00 0.  1.
         23    2    1    2    0    0  0.77454538478E+03  0.98657892367E+03  0.77233875745E+03  0.14758529318E+04  0.91521550790E+02 0.  0.
        254    2    1    2    0    0 -0.77454538478E+03 -0.98657892367E+03 -0.34206369890E+03  0.15854628079E+04  0.90742835286E+03 0.  0.
        -24    2    4    4    0    0 -0.94601669881E+03 -0.85232627650E+03 -0.41552799625E+03  0.13418540701E+04  0.80629732557E+02 0.  0.
         24    2    4    4    0    0  0.17147131403E+03 -0.13425264717E+03  0.73464297357E+02  0.24360873784E+03  0.80759082183E+02 0.  0.
         13    1    3    3    0    0  0.67489486305E+03  0.81141512864E+03  0.63013006673E+03  0.12292035991E+04  0.00000000000E+00 0. -1.
        -13    1    3    3    0    0  0.99650521733E+02  0.17516379503E+03  0.14220869073E+03  0.24664933264E+03  0.00000000000E+00 0.  1.
          2    1    6    6  502    0  0.10274917840E+03 -0.32032019578E+02  0.47927988956E+02  0.11781568684E+03  0.00000000000E+00 0. -1.
          3    1    5    5  503    0 -0.66044414311E+03 -0.62594103214E+03 -0.26673209549E+03  0.94822711027E+03  0.00000000000E+00 0. -1.
         -4    1    5    5    0  503 -0.28557255570E+03 -0.22638524435E+03 -0.14879590076E+03  0.39362695984E+03  0.00000000000E+00 0.  1.
         -1    1    6    6    0  502  0.68722135627E+02 -0.10222062760E+03  0.25536308401E+02  0.12579305099E+03  0.00000000000E+00 0.  1.
<mgrwt>
<rscale>  0 0.30309268E+04</rscale>
<asrwt>0</asrwt>
<pdfrwt beam="1">  1        2 0.26858391E+00 0.30309268E+04</pdfrwt>
<pdfrwt beam="2">  1       -2 0.20238775E+00 0.30309268E+04</pdfrwt>
<totfact> 0.10131834E+00</totfact>
</mgrwt>
</event>
<event>
12    1  0.1495204E-007  0.1558164E+04  0.7818608E-02  0.8846670E-01
         -2   -1    0    0    0  501 -0.00000000000E+00  0.00000000000E+00  0.14923312498E+03  0.14923312498E+03  0.00000000000E+00 0.  1.
          2   -1    0    0  501    0  0.00000000000E+00 -0.00000000000E+00 -0.40672500243E+04  0.40672500243E+04  0.00000000000E+00 0. -1.
         23    2    1    2    0    0  0.24562780157E+03 -0.15153383824E+03 -0.24652600303E+04  0.24837925928E+04  0.91777481226E+02 0.  0.
        254    2    1    2    0    0 -0.24562780157E+03  0.15153383824E+03 -0.14527568690E+04  0.17326905564E+04  0.89912097236E+03 0.  0.
        -24    2    4    4    0    0 -0.48893907258E+03  0.32933478555E+03 -0.70661764607E+03  0.92375456098E+03  0.80567819507E+02 0.  0.
         24    2    4    4    0    0  0.24331127101E+03 -0.17780094731E+03 -0.74613922293E+03  0.80893599546E+03  0.82705219197E+02 0.  0.
         11    1    3    3    0    0  0.56284767646E+01  0.56452425529E+01 -0.16946263872E+02  0.18727636621E+02  0.00000000000E+00 0.  1.
        -11    1    3    3    0    0  0.23999932480E+03 -0.15717908079E+03 -0.24483137664E+04  0.24650649562E+04  0.00000000000E+00 0. -1.
          4    1    6    6  502    0  0.23511335282E+03 -0.18659799079E+03 -0.70975287708E+03  0.77061420008E+03  0.00000000000E+00 0. -1.
          3    1    5    5  503    0 -0.12323963067E+03  0.95366145337E+02 -0.13651383060E+03  0.20716837160E+03  0.00000000000E+00 0. -1.
         -4    1    5    5    0  503 -0.36569944191E+03  0.23396864021E+03 -0.57010381546E+03  0.71658618939E+03  0.00000000000E+00 0.  1.
         -3    1    6    6    0  502  0.81979181908E+01  0.87970434739E+01 -0.36386345854E+02  0.38321795380E+02  0.00000000000E+00 0.  1.
<mgrwt>
<rscale>  0 0.15581636E+04</rscale>
<asrwt>0</asrwt>
<pdfrwt beam="1">  1        2 0.62573066E+00 0.15581636E+04</pdfrwt>
<pdfrwt beam="2">  1       -2 0.22958946E-01 0.15581636E+04</pdfrwt>
<totfact> 0.49624213E+00</totfact>
</mgrwt>
</event>
<event>
12    1  0.1495204E-007  0.1902118E+04  0.7818608E-02  0.8653803E-01
          2   -1    0    0  501    0  0.00000000000E+00  0.00000000000E+00  0.21765574464E+04  0.21765574464E+04  0.00000000000E+00 0. -1.
         -2   -1    0    0    0  501 -0.00000000000E+00 -0.00000000000E+00 -0.41557042626E+03  0.41557042626E+03  0.00000000000E+00 0.  1.
         23    2    1    2    0    0 -0.55850467653E+03 -0.99543565907E+02  0.51514394457E+02  0.57737309741E+03  0.94178370948E+02 0.  0.
        254    2    1    2    0    0  0.55850467653E+03  0.99543565907E+02  0.17094726256E+04  0.20147547752E+04  0.90283096490E+03 0.  0.
        -24    2    4    4    0    0  0.44840378113E+03  0.48052234004E+03  0.10585016285E+04  0.12483828911E+04  0.77887579731E+02 0.  0.
         24    2    4    4    0    0  0.11010089540E+03 -0.38097877413E+03  0.65097099716E+03  0.76637188411E+03  0.79344767356E+02 0.  0.
         11    1    3    3    0    0 -0.53883185256E+03 -0.11234673569E+03  0.41912275737E+02  0.55201285601E+03  0.00000000000E+00 0.  1.
        -11    1    3    3    0    0 -0.19672823977E+02  0.12803169782E+02  0.96021187196E+01  0.25360241395E+02  0.00000000000E+00 0. -1.
          2    1    6    6  502    0 -0.10606895554E+02 -0.45477815459E+02  0.95600352939E+02  0.10639626598E+03  0.00000000000E+00 0. -1.
          1    1    5    5  503    0  0.75559048513E+02  0.10136262786E+03  0.15515737727E+03  0.20014335827E+03  0.00000000000E+00 0. -1.
         -2    1    5    5    0  503  0.37284473262E+03  0.37915971218E+03  0.90334425122E+03  0.10482395328E+04  0.00000000000E+00 0.  1.
         -1    1    6    6    0  502  0.12070779095E+03 -0.33550095867E+03  0.55537064422E+03  0.65997561813E+03  0.00000000000E+00 0.  1.
<mgrwt>
<rscale>  0 0.19021177E+04</rscale>
<asrwt>0</asrwt>
<pdfrwt beam="1">  1        2 0.33485499E+00 0.19021177E+04</pdfrwt>
<pdfrwt beam="2">  1       -2 0.63933913E-01 0.19021177E+04</pdfrwt>
<totfact> 0.11276658E+01</totfact>
</mgrwt>
</event>
<event>
12    1  0.1495204E-007  0.1688575E+04  0.7818608E-02  0.8767907E-01
         -2   -1    0    0    0  501 -0.00000000000E+00  0.00000000000E+00  0.56902929249E+03  0.56902929249E+03  0.00000000000E+00 0.  1.
          2   -1    0    0  501    0  0.00000000000E+00 -0.00000000000E+00 -0.12526973272E+04  0.12526973272E+04  0.00000000000E+00 0. -1.
         23    2    1    2    0    0  0.27583046036E+03 -0.34538973272E+03  0.18993401670E+03  0.49364636038E+03  0.11061323650E+03 0.  0.
        254    2    1    2    0    0 -0.27583046036E+03  0.34538973272E+03 -0.87360205136E+03  0.13280802593E+04  0.89735172623E+03 0.  0.
        -24    2    4    4    0    0  0.81771571308E+02  0.55443132381E+03 -0.60740577753E+03  0.83033340906E+03  0.80194195039E+02 0.  0.
         24    2    4    4    0    0 -0.35760203166E+03 -0.20904159109E+03 -0.26619627383E+03  0.49774685020E+03  0.72896301920E+02 0.  0.
         13    1    3    3    0    0  0.27627906293E+03 -0.32866517811E+03  0.15784174962E+03  0.45745484787E+03  0.00000000000E+00 0.  1.
        -13    1    3    3    0    0 -0.44860257469E+00 -0.16724554606E+02  0.32092267086E+02  0.36191512510E+02  0.00000000000E+00 0. -1.
          4    1    6    6  502    0 -0.29265611927E+03 -0.19036056542E+03 -0.19629791826E+03  0.40052168696E+03  0.00000000000E+00 0. -1.
          3    1    5    5  503    0  0.97273890612E+02  0.50055570981E+03 -0.55293549496E+03  0.75216746141E+03  0.00000000000E+00 0. -1.
         -4    1    5    5    0  503 -0.15502319304E+02  0.53875614001E+02 -0.54470282570E+02  0.78165947644E+02  0.00000000000E+00 0.  1.
         -3    1    6    6    0  502 -0.64945912391E+02 -0.18681025671E+02 -0.69898355568E+02  0.97225163242E+02  0.00000000000E+00 0.  1.
<mgrwt>
<rscale>  0 0.16885751E+04</rscale>
<asrwt>0</asrwt>
<pdfrwt beam="1">  1        2 0.19272266E+00 0.16885751E+04</pdfrwt>
<pdfrwt beam="2">  1       -2 0.87542969E-01 0.16885751E+04</pdfrwt>
<totfact> 0.18907213E+01</totfact>
</mgrwt>
</event>
<event>
12    1  0.1495204E-007  0.2212059E+04  0.7818608E-02  0.8513425E-01
         -1   -1    0    0    0  501 -0.00000000000E+00  0.00000000000E+00  0.10978859795E+04  0.10978859795E+04  0.00000000000E+00 0.  1.
          1   -1    0    0  501    0  0.00000000000E+00 -0.00000000000E+00 -0.11142338103E+04  0.11142338103E+04  0.00000000000E+00 0. -1.
         23    2    1    2    0    0 -0.89541405602E+03 -0.11439269645E+03  0.14667675114E+03  0.91916765395E+03  0.92212179376E+02 0.  0.
        254    2    1    2    0    0  0.89541405602E+03  0.11439269645E+03 -0.16302458191E+03  0.12929521359E+04  0.91120589921E+03 0.  0.
        -24    2    4    4    0    0  0.16197415261E+02 -0.28743258097E+03 -0.12623234913E+03  0.32296521235E+03  0.74108552521E+02 0.  0.
         24    2    4    4    0    0  0.87921664075E+03  0.40182527742E+03 -0.36792232777E+02  0.96998692356E+03  0.70961317210E+02 0.  0.
         13    1    3    3    0    0 -0.32691499915E+02 -0.21580627565E+02  0.12733599915E+02  0.41189831507E+02  0.00000000000E+00 0. -1.
        -13    1    3    3    0    0 -0.86272255610E+03 -0.92812068881E+02  0.13394315122E+03  0.87797782244E+03  0.00000000000E+00 0.  1.
          2    1    6    6  502    0  0.80133105248E+03  0.34299776748E+03 -0.30775263129E+02  0.87219610237E+03  0.00000000000E+00 0. -1.
          3    1    5    5  503    0 -0.14084224143E+02 -0.20085278635E+03 -0.11122069579E+03  0.23002228224E+03  0.00000000000E+00 0. -1.
         -4    1    5    5    0  503  0.30281639404E+02 -0.86579794621E+02 -0.15011653339E+02  0.92942930111E+02  0.00000000000E+00 0.  1.
         -1    1    6    6    0  502  0.77885588273E+02  0.58827509938E+02 -0.60169696480E+01  0.97790821195E+02  0.00000000000E+00 0.  1.
<mgrwt>
<rscale>  0 0.22120594E+04</rscale>
<asrwt>0</asrwt>
<pdfrwt beam="1">  1        1 0.17142059E+00 0.22120594E+04</pdfrwt>
<pdfrwt beam="2">  1       -1 0.16890554E+00 0.22120594E+04</pdfrwt>
<totfact> 0.28243098E+00</totfact>
</mgrwt>
</event>
<event>
12    1  0.1495204E-007  0.1142796E+04  0.7818608E-02  0.9164455E-01
          1   -1    0    0  501    0  0.00000000000E+00  0.00000000000E+00  0.16805018795E+04  0.16805018795E+04  0.00000000000E+00 0. -1.
         -1   -1    0    0    0  501 -0.00000000000E+00 -0.00000000000E+00 -0.19428474138E+03  0.19428474138E+03  0.00000000000E+00 0.  1.
         23    2    1    2    0    0 -0.11804937077E+03 -0.32862300660E+02  0.57158025798E+02  0.16417512107E+03  0.93117376047E+02 0.  0.
        254    2    1    2    0    0  0.11804937077E+03  0.32862300660E+02  0.14290591124E+04  0.17106114998E+04  0.93218355060E+03 0.  0.
        -24    2    4    4    0    0  0.40435511279E+03  0.30260855558E+03  0.99785265640E+03  0.11210246030E+04  0.76884598161E+02 0.  0.
         24    2    4    4    0    0 -0.28630574202E+03 -0.26974625492E+03  0.43120645595E+03  0.58958689686E+03  0.83304749754E+02 0.  0.
         13    1    3    3    0    0 -0.12151411292E+03 -0.36667330925E+02  0.73754688281E+02  0.14679893337E+03  0.00000000000E+00 0.  1.
        -13    1    3    3    0    0  0.34647421466E+01  0.38050302650E+01 -0.16596662483E+02  0.17376187702E+02  0.00000000000E+00 0. -1.
          2    1    6    6  502    0 -0.25368778906E+03 -0.21550599318E+03  0.39543912176E+03  0.51688724731E+03  0.00000000000E+00 0. -1.
          1    1    5    5  503    0  0.30815702341E+03  0.20295997678E+03  0.66515538072E+03  0.76064787106E+03  0.00000000000E+00 0. -1.
         -2    1    5    5    0  503  0.96198089384E+02  0.99648578803E+02  0.33269727567E+03  0.36037673191E+03  0.00000000000E+00 0.  1.
         -1    1    6    6    0  502 -0.32617952963E+02 -0.54240261735E+02  0.35767334194E+02  0.72699649545E+02  0.00000000000E+00 0.  1.
<mgrwt>
<rscale>  0 0.11427963E+04</rscale>
<asrwt>0</asrwt>
<pdfrwt beam="1">  1        1 0.25853874E+00 0.11427963E+04</pdfrwt>
<pdfrwt beam="2">  1       -1 0.29889961E-01 0.11427963E+04</pdfrwt>
<totfact> 0.50171207E+01</totfact>
</mgrwt>
</event>
<event>
12    1  0.1495204E-007  0.3219297E+04  0.7818608E-02  0.8183739E-01
         -2   -1    0    0    0  501 -0.00000000000E+00  0.00000000000E+00  0.12869474121E+04  0.12869474121E+04  0.00000000000E+00 0. -1.
          2   -1    0    0  501    0  0.00000000000E+00 -0.00000000000E+00 -0.20132662925E+04  0.20132662925E+04  0.00000000000E+00 0.  1.
         23    2    1    2    0    0  0.13287424349E+04  0.36938824237E+02 -0.10220476505E+04  0.16790954694E+04  0.88652469626E+02 0.  0.
        254    2    1    2    0    0 -0.13287424349E+04 -0.36938824237E+02  0.29572877018E+03  0.16211182352E+04  0.87957256215E+03 0.  0.
        -24    2    4    4    0    0 -0.25661581528E+02 -0.12020601537E+03 -0.17747001933E+03  0.22996496719E+03  0.79248189104E+02 0.  0.
         24    2    4    4    0    0 -0.13030808534E+04  0.83267191130E+02  0.47319878951E+03  0.13911532680E+04  0.80232071495E+02 0.  0.
         13    1    3    3    0    0  0.12463647947E+04  0.48219586303E+02 -0.97799560189E+03  0.15850002295E+04  0.00000000000E+00 0.  1.
        -13    1    3    3    0    0  0.82377640138E+02 -0.11280762065E+02 -0.44052048654E+02  0.94095239933E+02  0.00000000000E+00 0. -1.
          4    1    6    6  502    0 -0.90919159469E+03  0.29035630923E+02  0.30486851095E+03  0.95938377758E+03  0.00000000000E+00 0. -1.
          3    1    5    5  503    0  0.27373119134E+01 -0.10796449044E+03 -0.16369247813E+03  0.19610979443E+03  0.00000000000E+00 0. -1.
         -4    1    5    5    0  503 -0.28398893441E+02 -0.12241524924E+02 -0.13777541193E+02  0.33855172758E+02  0.00000000000E+00 0.  1.
         -3    1    6    6    0  502 -0.39388925866E+03  0.54231560207E+02  0.16833027855E+03  0.43176949046E+03  0.00000000000E+00 0.  1.
<mgrwt>
<rscale>  0 0.32192967E+04</rscale>
<asrwt>0</asrwt>
<pdfrwt beam="1">  1        2 0.30973327E+00 0.32192967E+04</pdfrwt>
<pdfrwt beam="2">  1       -2 0.19799191E+00 0.32192967E+04</pdfrwt>
<totfact> 0.75724223E-01</totfact>
</mgrwt>
</event>
<event>
12    1  0.1495204E-007  0.1580866E+04  0.7818608E-02  0.8832390E-01
          1   -1    0    0  501    0  0.00000000000E+00  0.00000000000E+00  0.20822251044E+04  0.20822251044E+04  0.00000000000E+00 0. -1.
         -1   -1    0    0    0  501 -0.00000000000E+00 -0.00000000000E+00 -0.30005600336E+03  0.30005600336E+03  0.00000000000E+00 0.  1.
         23    2    1    2    0    0 -0.27890796210E+03  0.18174671007E+03 -0.10621115534E+02  0.34543270390E+03  0.91593814642E+02 0.  0.
        254    2    1    2    0    0  0.27890796210E+03 -0.18174671007E+03  0.17927902165E+04  0.20368484038E+04  0.90765254459E+03 0.  0.
        -24    2    4    4    0    0 -0.99027545346E+02 -0.46897363199E+03  0.91592070511E+03  0.10366136967E+04  0.76905759497E+02 0.  0.
         24    2    4    4    0    0  0.37793550745E+03  0.28722692192E+03  0.87686951142E+03  0.10002347071E+04  0.78960603151E+02 0.  0.
         13    1    3    3    0    0 -0.18833625913E+03  0.83280788815E+02 -0.36579428376E+02  0.20915135876E+03  0.00000000000E+00 0. -1.
        -13    1    3    3    0    0 -0.90571702969E+02  0.98465921252E+02  0.25958312842E+02  0.13628134514E+03  0.00000000000E+00 0.  1.
          2    1    6    6  502    0  0.27594754636E+03  0.23390098356E+03  0.71896697285E+03  0.80484174004E+03  0.00000000000E+00 0. -1.
          1    1    5    5  503    0 -0.46543369325E+02 -0.36328473613E+03  0.66043878318E+03  0.75519631293E+03  0.00000000000E+00 0. -1.
         -2    1    5    5    0  503 -0.52484176022E+02 -0.10568889586E+03  0.25548192193E+03  0.28141738374E+03  0.00000000000E+00 0.  1.
         -1    1    6    6    0  502  0.10198796108E+03  0.53325938359E+02  0.15790253857E+03  0.19539296711E+03  0.00000000000E+00 0.  1.
<mgrwt>
<rscale>  0 0.15808658E+04</rscale>
<asrwt>0</asrwt>
<pdfrwt beam="1">  1        1 0.32034231E+00 0.15808658E+04</pdfrwt>
<pdfrwt beam="2">  1       -1 0.46162463E-01 0.15808658E+04</pdfrwt>
<totfact> 0.11764913E+01</totfact>
</mgrwt>
</event>
<event>
12    1  0.1495204E-007  0.2097328E+04  0.7818608E-02  0.8562421E-01
          1   -1    0    0  501    0  0.00000000000E+00  0.00000000000E+00  0.14580374656E+04  0.14580374656E+04  0.00000000000E+00 0. -1.
         -1   -1    0    0    0  501 -0.00000000000E+00 -0.00000000000E+00 -0.75423051046E+03  0.75423051046E+03  0.00000000000E+00 0.  1.
         23    2    1    2    0    0  0.48359971661E+03 -0.80752132037E+02 -0.44673760274E+03  0.66905336598E+03  0.87568990503E+02 0.  0.
        254    2    1    2    0    0 -0.48359971661E+03  0.80752132037E+02  0.11505445578E+04  0.15432146100E+04  0.90408459800E+03 0.  0.
        -24    2    4    4    0    0  0.24771119553E+03  0.38081379425E+02  0.47541353913E+03  0.54368754716E+03  0.82262311530E+02 0.  0.
         24    2    4    4    0    0 -0.73131091214E+03  0.42670752612E+02  0.67513101870E+03  0.99952706287E+03  0.81338881651E+02 0.  0.
         11    1    3    3    0    0  0.38186310601E+03 -0.99312750468E+02 -0.35854528720E+03  0.53313898480E+03  0.00000000000E+00 0.  1.
        -11    1    3    3    0    0  0.10173661060E+03  0.18560618431E+02 -0.88192315536E+02  0.13591438118E+03  0.00000000000E+00 0. -1.
          2    1    6    6  502    0 -0.25231686757E+03  0.27080630642E+02  0.28463079455E+03  0.38132905924E+03  0.00000000000E+00 0. -1.
          1    1    5    5  503    0  0.84852138696E+02 -0.25569727084E+02  0.17232839893E+03  0.19378021948E+03  0.00000000000E+00 0. -1.
         -2    1    5    5    0  503  0.16285905684E+03  0.63651106509E+02  0.30308514020E+03  0.34990732768E+03  0.00000000000E+00 0.  1.
         -1    1    6    6    0  502 -0.47899404457E+03  0.15590121971E+02  0.39050022415E+03  0.61819800363E+03  0.00000000000E+00 0.  1.
<mgrwt>
<rscale>  0 0.20973281E+04</rscale>
<asrwt>0</asrwt>
<pdfrwt beam="1">  1        1 0.22431346E+00 0.20973281E+04</pdfrwt>
<pdfrwt beam="2">  1       -1 0.11603546E+00 0.20973281E+04</pdfrwt>
<totfact> 0.43234449E+00</totfact>
</mgrwt>
</event>
<event>
12    1  0.1495204E-007  0.1490978E+04  0.7818608E-02  0.8890475E-01
          2   -1    0    0  501    0  0.00000000000E+00  0.00000000000E+00  0.19903557335E+04  0.19903557335E+04  0.00000000000E+00 0. -1.
         -2   -1    0    0    0  501 -0.00000000000E+00 -0.00000000000E+00 -0.27922341649E+03  0.27922341649E+03  0.00000000000E+00 0.  1.
         23    2    1    2    0    0 -0.34721557317E+01 -0.47114031963E+03  0.64838695519E+03  0.80662491349E+03  0.90845202172E+02 0.  0.
        254    2    1    2    0    0  0.34721557317E+01  0.47114031963E+03  0.10627453618E+04  0.14629542365E+04  0.88815659505E+03 0.  0.
        -24    2    4    4    0    0  0.72705616486E+02  0.40484491486E+03  0.12038913668E+04  0.12746790447E+04  0.79162694778E+02 0.  0.
         24    2    4    4    0    0 -0.69233460754E+02  0.66295404764E+02 -0.14114600503E+03  0.18827519172E+03  0.79605278109E+02 0.  0.
         13    1    3    3    0    0 -0.28111303778E+02 -0.47376404798E+02  0.66233651788E+02  0.86149090307E+02  0.00000000000E+00 0. -1.
        -13    1    3    3    0    0  0.24639148046E+02 -0.42376391483E+03  0.58215330340E+03  0.72047582318E+03  0.00000000000E+00 0.  1.
          4    1    6    6  502    0 -0.30921142525E+02  0.78500256288E+02 -0.93974408327E+02  0.12629171276E+03  0.00000000000E+00 0. -1.
          1    1    5    5  503    0  0.61822475574E+02  0.26279983769E+03  0.67636771427E+03  0.72825754928E+03  0.00000000000E+00 0. -1.
         -2    1    5    5    0  503  0.10883140912E+02  0.14204507717E+03  0.52752365253E+03  0.54642149545E+03  0.00000000000E+00 0.  1.
         -3    1    6    6    0  502 -0.38312318229E+02 -0.12204851524E+02 -0.47171596699E+02  0.61983478960E+02  0.00000000000E+00 0.  1.
<mgrwt>
<rscale>  0 0.14909781E+04</rscale>
<asrwt>0</asrwt>
<pdfrwt beam="1">  1        2 0.30620857E+00 0.14909781E+04</pdfrwt>
<pdfrwt beam="2">  1       -2 0.42957450E-01 0.14909781E+04</pdfrwt>
<totfact> 0.33613649E+01</totfact>
</mgrwt>
</event>
<event>
12    1  0.1495204E-007  0.2017210E+04  0.7818608E-02  0.8598616E-01
          2   -1    0    0  501    0  0.00000000000E+00  0.00000000000E+00  0.28954634514E+04  0.28954634514E+04  0.00000000000E+00 0. -1.
         -2   -1    0    0    0  501 -0.00000000000E+00 -0.00000000000E+00 -0.35133718086E+03  0.35133718086E+03  0.00000000000E+00 0.  1.
         23    2    1    2    0    0  0.28859897564E+03  0.13550899126E+03 -0.16831325623E+03  0.37104013017E+03  0.87689055885E+02 0.  0.
        254    2    1    2    0    0 -0.28859897564E+03 -0.13550899126E+03  0.27124395268E+04  0.28757605021E+04  0.90056550206E+03 0.  0.
        -24    2    4    4    0    0 -0.53424820232E+03  0.21587061530E+02  0.99557114108E+03  0.11324599859E+04  0.73597417143E+02 0.  0.
         24    2    4    4    0    0  0.24564922667E+03 -0.15709605279E+03  0.17168683857E+04  0.17433005162E+04  0.80230440391E+02 0.  0.
         13    1    3    3    0    0  0.18360667019E+03  0.11905478305E+03 -0.14419411165E+03  0.26206371847E+03  0.00000000000E+00 0. -1.
        -13    1    3    3    0    0  0.10499230546E+03  0.16454208212E+02 -0.24119144585E+02  0.10897641171E+03  0.00000000000E+00 0.  1.
          2    1    6    6  502    0  0.23959896241E+03 -0.13033895757E+03  0.16114901477E+04  0.16344101085E+04  0.00000000000E+00 0. -1.
          1    1    5    5  503    0 -0.28329345388E+03 -0.22823749520E+02  0.49687328313E+03  0.57241520249E+03  0.00000000000E+00 0. -1.
         -2    1    5    5    0  503 -0.25095474843E+03  0.44410811050E+02  0.49869785794E+03  0.56004478340E+03  0.00000000000E+00 0.  1.
         -1    1    6    6    0  502  0.60502642635E+01 -0.26757095215E+02  0.10537823805E+03  0.10889040774E+03  0.00000000000E+00 0.  1.
<mgrwt>
<rscale>  0 0.20172099E+04</rscale>
<asrwt>0</asrwt>
<pdfrwt beam="1">  1        2 0.44545590E+00 0.20172099E+04</pdfrwt>
<pdfrwt beam="2">  1       -2 0.54051876E-01 0.20172099E+04</pdfrwt>
<totfact> 0.60579242E+00</totfact>
</mgrwt>
</event>
<event>
12    1  0.1495204E-007  0.1463266E+04  0.7818608E-02  0.8909255E-01
         -1   -1    0    0    0  501 -0.00000000000E+00  0.00000000000E+00  0.35213594758E+03  0.35213594758E+03  0.00000000000E+00 0.  1.
          1   -1    0    0  501    0  0.00000000000E+00 -0.00000000000E+00 -0.15201149646E+04  0.15201149646E+04  0.00000000000E+00 0. -1.
         23    2    1    2    0    0  0.34322126776E+03 -0.26810263973E+03 -0.19875146147E+03  0.48750530166E+03  0.92083720816E+02 0.  0.
        254    2    1    2    0    0 -0.34322126776E+03  0.26810263973E+03 -0.96922755551E+03  0.13847456105E+04  0.88794058772E+03 0.  0.
        -24    2    4    4    0    0  0.17615353364E+03  0.24305483432E+03 -0.75560183593E+03  0.81692521854E+03  0.79542179471E+02 0.  0.
         24    2    4    4    0    0 -0.51937480140E+03  0.25047805410E+02 -0.21362571958E+03  0.56782039194E+03  0.80040443258E+02 0.  0.
         11    1    3    3    0    0  0.13587845219E+03 -0.16294476796E+03 -0.10639440681E+03  0.23734725820E+03  0.00000000000E+00 0. -1.
        -11    1    3    3    0    0  0.20734281556E+03 -0.10515787177E+03 -0.92357054662E+02  0.25015804346E+03  0.00000000000E+00 0.  1.
          2    1    6    6  502    0 -0.36686911689E+03  0.12034008031E+02 -0.18875020329E+03  0.41275223260E+03  0.00000000000E+00 0. -1.
          3    1    5    5  503    0  0.12987745808E+03  0.20042539206E+03 -0.50623305213E+03  0.55974136435E+03  0.00000000000E+00 0. -1.
         -4    1    5    5    0  503  0.46276075564E+02  0.42629442259E+02 -0.24936878380E+03  0.25718385418E+03  0.00000000000E+00 0.  1.
         -1    1    6    6    0  502 -0.15250568451E+03  0.13013797379E+02 -0.24875516282E+02  0.15506815934E+03  0.00000000000E+00 0.  1.
<mgrwt>
<rscale>  0 0.14632664E+04</rscale>
<asrwt>0</asrwt>
<pdfrwt beam="1">  1        1 0.23386384E+00 0.14632664E+04</pdfrwt>
<pdfrwt beam="2">  1       -1 0.54174762E-01 0.14632664E+04</pdfrwt>
<totfact> 0.21145264E+01</totfact>
</mgrwt>
</event>
<event>
12    1  0.1495204E-007  0.1257684E+04  0.7818608E-02  0.9063812E-01
         -2   -1    0    0    0  501 -0.00000000000E+00  0.00000000000E+00  0.92422722774E+03  0.92422722774E+03  0.00000000000E+00 0.  1.
          2   -1    0    0  501    0  0.00000000000E+00 -0.00000000000E+00 -0.42786251005E+03  0.42786251005E+03  0.00000000000E+00 0. -1.
         23    2    1    2    0    0  0.15775750222E+03  0.24098904368E+03  0.32250487756E+02  0.30441882128E+03  0.93099817962E+02 0.  0.
        254    2    1    2    0    0 -0.15775750222E+03 -0.24098904368E+03  0.46411422993E+03  0.10476709165E+04  0.89400737256E+03 0.  0.
        -24    2    4    4    0    0  0.28116372861E+03 -0.23380900838E+03  0.47094292211E+03  0.60155727560E+03  0.79776094547E+02 0.  0.
         24    2    4    4    0    0 -0.43892123082E+03 -0.71800353054E+01 -0.68286921789E+01  0.44611364091E+03  0.79166595199E+02 0.  0.
         11    1    3    3    0    0  0.54214134758E+02  0.10231789882E+03 -0.31476302592E+02  0.11999534345E+03  0.00000000000E+00 0. -1.
        -11    1    3    3    0    0  0.10354336746E+03  0.13867114487E+03  0.63726790348E+02  0.18442347782E+03  0.00000000000E+00 0.  1.
          4    1    6    6  502    0 -0.33444364837E+03  0.27813313400E+02  0.16933117512E+01  0.33560244582E+03  0.00000000000E+00 0. -1.
          1    1    5    5  503    0  0.85945017532E+02 -0.11632749081E+03  0.15462755955E+03  0.21172697827E+03  0.00000000000E+00 0. -1.
         -2    1    5    5    0  503  0.19521871107E+03 -0.11748151757E+03  0.31631536256E+03  0.38983029733E+03  0.00000000000E+00 0.  1.
         -3    1    6    6    0  502 -0.10447758245E+03 -0.34993348705E+02 -0.85220039300E+01  0.11051119509E+03  0.00000000000E+00 0.  1.
<mgrwt>
<rscale>  0 0.12576839E+04</rscale>
<asrwt>0</asrwt>
<pdfrwt beam="1">  1        2 0.65825002E-01 0.12576839E+04</pdfrwt>
<pdfrwt beam="2">  1       -2 0.14218880E+00 0.12576839E+04</pdfrwt>
<totfact> 0.24957295E+01</totfact>
</mgrwt>
</event>
<event>
12    1  0.1495204E-007  0.2420382E+04  0.7818608E-02  0.8431912E-01
          2   -1    0    0  501    0  0.00000000000E+00  0.00000000000E+00  0.11682058300E+04  0.11682058300E+04  0.00000000000E+00 0. -1.
         -2   -1    0    0    0  501 -0.00000000000E+00 -0.00000000000E+00 -0.12536846635E+04  0.12536846635E+04  0.00000000000E+00 0.  1.
         23    2    1    2    0    0  0.65114964899E+03  0.22472632873E+03 -0.81384886003E+03  0.10711096813E+04  0.10211853064E+03 0.  0.
        254    2    1    2    0    0 -0.65114964899E+03 -0.22472632873E+03  0.72837002648E+03  0.13507808122E+04  0.90531106198E+03 0.  0.
        -24    2    4    4    0    0 -0.75478667503E+03 -0.18681809727E+03  0.85966535516E+03  0.11617034295E+04  0.76983173781E+02 0.  0.
         24    2    4    4    0    0  0.10363702604E+03 -0.37908231457E+02 -0.13129532868E+03  0.18907738268E+03  0.79587223410E+02 0.  0.
         11    1    3    3    0    0  0.25323329194E+03  0.94720117277E+02 -0.24522100981E+03  0.36501006070E+03  0.00000000000E+00 0. -1.
        -11    1    3    3    0    0  0.39791635705E+03  0.13000621145E+03 -0.56862785022E+03  0.70609962064E+03  0.00000000000E+00 0.  1.
          2    1    6    6  502    0  0.65679571530E+02  0.17398326065E+02 -0.77696458570E+02  0.10321457039E+03  0.00000000000E+00 0. -1.
          1    1    5    5  503    0 -0.64826656434E+03 -0.13208483357E+03  0.72494669187E+03  0.98144976833E+03  0.00000000000E+00 0. -1.
         -2    1    5    5    0  503 -0.10652011069E+03 -0.54733263707E+02  0.13471866329E+03  0.18025366120E+03  0.00000000000E+00 0.  1.
         -1    1    6    6    0  502  0.37957454510E+02 -0.55306557522E+02 -0.53598870108E+02  0.85862812292E+02  0.00000000000E+00 0.  1.
<mgrwt>
<rscale>  0 0.24203816E+04</rscale>
<asrwt>0</asrwt>
<pdfrwt beam="1">  1        2 0.17972397E+00 0.24203816E+04</pdfrwt>
<pdfrwt beam="2">  1       -2 0.19287456E+00 0.24203816E+04</pdfrwt>
<totfact> 0.26346443E+00</totfact>
</mgrwt>
</event>
<event>
12    1  0.1495204E-007  0.1284590E+04  0.7818608E-02  0.9041875E-01
         -2   -1    0    0    0  501 -0.00000000000E+00  0.00000000000E+00  0.96597936177E+02  0.96597936177E+02  0.00000000000E+00 0. -1.
          2   -1    0    0  501    0  0.00000000000E+00 -0.00000000000E+00 -0.42707241500E+04  0.42707241500E+04  0.00000000000E+00 0.  1.
         23    2    1    2    0    0  0.27703594144E+03  0.83109314033E+02 -0.16957852066E+04  0.17226827934E+04  0.91062994532E+02 0.  0.
        254    2    1    2    0    0 -0.27703594144E+03 -0.83109314033E+02 -0.24783410073E+04  0.26446392928E+04  0.87651969155E+03 0.  0.
        -24    2    4    4    0    0 -0.42792068656E+02 -0.29899223071E+03 -0.27244509963E+03  0.41442081279E+03  0.79314327783E+02 0.  0.
         24    2    4    4    0    0 -0.23424387278E+03  0.21588291668E+03 -0.22058959076E+04  0.22302184800E+04  0.80137928141E+02 0.  0.
         13    1    3    3    0    0 -0.27088771815E+01 -0.82733554508E+01 -0.61278038496E+02  0.61893331045E+02  0.00000000000E+00 0. -1.
        -13    1    3    3    0    0  0.27974481862E+03  0.91382669484E+02 -0.16345071681E+04  0.16607894624E+04  0.00000000000E+00 0.  1.
          4    1    6    6  502    0 -0.80391639545E+02  0.37070276033E+02 -0.45804424182E+03  0.46652068393E+03  0.00000000000E+00 0. -1.
          1    1    5    5  503    0 -0.45974436548E+01 -0.20400680139E+03 -0.14202442557E+03  0.24861787739E+03  0.00000000000E+00 0. -1.
         -2    1    5    5    0  503 -0.38194625001E+02 -0.94985429322E+02 -0.13042067406E+03  0.16580293539E+03  0.00000000000E+00 0.  1.
         -3    1    6    6    0  502 -0.15385223324E+03  0.17881264064E+03 -0.17478516658E+04  0.17636977961E+04  0.00000000000E+00 0.  1.
<mgrwt>
<rscale>  0 0.12845904E+04</rscale>
<asrwt>0</asrwt>
<pdfrwt beam="1">  1        2 0.65703464E+00 0.12845904E+04</pdfrwt>
<pdfrwt beam="2">  1       -2 0.14861217E-01 0.12845904E+04</pdfrwt>
<totfact> 0.73594064E+00</totfact>
</mgrwt>
</event>
<event>
12    1  0.1495204E-007  0.1087823E+04  0.7818608E-02  0.9217142E-01
          3   -1    0    0  501    0  0.00000000000E+00  0.00000000000E+00  0.62088679572E+03  0.62088679572E+03  0.00000000000E+00 0. -1.
         -3   -1    0    0    0  501 -0.00000000000E+00 -0.00000000000E+00 -0.47647975911E+03  0.47647975911E+03  0.00000000000E+00 0.  1.
         23    2    1    2    0    0  0.35365524892E+02  0.10922702005E+03  0.10787705283E+03  0.18508489825E+03  0.97147819190E+02 0.  0.
        254    2    1    2    0    0 -0.35365524892E+02 -0.10922702005E+03  0.36529983783E+02  0.91228165658E+03  0.90429094818E+03 0.  0.
        -24    2    4    4    0    0 -0.92401299852E+02  0.37729394933E+03  0.10934385162E+03  0.41083457970E+03  0.77073014537E+02 0.  0.
         24    2    4    4    0    0  0.57035774960E+02 -0.48652096938E+03 -0.72813867842E+02  0.50144707689E+03  0.78686582684E+02 0.  0.
         13    1    3    3    0    0  0.17415920145E+02  0.31771759874E+02  0.98589464823E+02  0.10503638215E+03  0.00000000000E+00 0. -1.
        -13    1    3    3    0    0  0.17949604747E+02  0.77455260174E+02  0.92875880019E+01  0.80048516102E+02  0.00000000000E+00 0.  1.
          2    1    6    6  502    0  0.18770677010E+01 -0.30682489951E+03 -0.27290078666E+02  0.30804186524E+03  0.00000000000E+00 0. -1.
          1    1    5    5  503    0 -0.44491181432E+02  0.29319054763E+03  0.61474085714E+02  0.30285182129E+03  0.00000000000E+00 0. -1.
         -2    1    5    5    0  503 -0.47910118419E+02  0.84103401707E+02  0.47869765911E+02  0.10798275841E+03  0.00000000000E+00 0.  1.
         -1    1    6    6    0  502  0.55158707259E+02 -0.17969606987E+03 -0.45523789176E+02  0.19340521165E+03  0.00000000000E+00 0.  1.
<mgrwt>
<rscale>  0 0.10878235E+04</rscale>
<asrwt>0</asrwt>
<pdfrwt beam="1">  1        3 0.95521046E-01 0.10878235E+04</pdfrwt>
<pdfrwt beam="2">  1       -3 0.73304578E-01 0.10878235E+04</pdfrwt>
<totfact> 0.44721121E+00</totfact>
</mgrwt>
</event>
<event>
12    1  0.1495204E-007  0.2427845E+04  0.7818608E-02  0.8429152E-01
         -1   -1    0    0    0  501 -0.00000000000E+00  0.00000000000E+00  0.12423790191E+04  0.12423790191E+04  0.00000000000E+00 0.  1.
          1   -1    0    0  501    0  0.00000000000E+00 -0.00000000000E+00 -0.11861175629E+04  0.11861175629E+04  0.00000000000E+00 0. -1.
         23    2    1    2    0    0 -0.24250035109E+03 -0.27672452848E+03  0.10134589923E+04  0.10825428056E+04  0.97040774219E+02 0.  0.
        254    2    1    2    0    0  0.24250035109E+03  0.27672452848E+03 -0.95719753610E+03  0.13459537765E+04  0.87176921287E+03 0.  0.
        -24    2    4    4    0    0  0.22905428514E+03  0.81737357846E+02 -0.10742731429E+04  0.11043178803E+04  0.79425021312E+02 0.  0.
         24    2    4    4    0    0  0.13446065947E+02  0.19498717064E+03  0.11707560678E+03  0.24163589624E+03  0.80501026352E+02 0.  0.
         13    1    3    3    0    0 -0.13680389624E+02 -0.14138819863E+02  0.15308292329E+03  0.15434196024E+03  0.00000000000E+00 0. -1.
        -13    1    3    3    0    0 -0.22881996146E+03 -0.26258570862E+03  0.86037606901E+03  0.92820084532E+03  0.00000000000E+00 0.  1.
          4    1    6    6  502    0  0.30357160685E+02  0.16843915383E+03  0.69796980979E+02  0.18483756193E+03  0.00000000000E+00 0. -1.
          1    1    5    5  503    0  0.99704541506E+01 -0.10882208002E+02 -0.31868699449E+02  0.35120455742E+02  0.00000000000E+00 0. -1.
         -2    1    5    5    0  503  0.21908383099E+03  0.92619565848E+02 -0.10424044434E+04  0.10691974246E+04  0.00000000000E+00 0.  1.
         -3    1    6    6    0  502 -0.16911094738E+02  0.26548016808E+02  0.47278625805E+02  0.56798334304E+02  0.00000000000E+00 0.  1.
<mgrwt>
<rscale>  0 0.24278448E+04</rscale>
<asrwt>0</asrwt>
<pdfrwt beam="1">  1        1 0.18247963E+00 0.24278448E+04</pdfrwt>
<pdfrwt beam="2">  1       -1 0.19113523E+00 0.24278448E+04</pdfrwt>
<totfact> 0.16966395E+00</totfact>
</mgrwt>
</event>
<event>
12    1  0.1495204E-007  0.1605890E+04  0.7818608E-02  0.8816938E-01
          1   -1    0    0  501    0  0.00000000000E+00  0.00000000000E+00  0.20795590158E+04  0.20795590158E+04  0.00000000000E+00 0. -1.
         -1   -1    0    0    0  501 -0.00000000000E+00 -0.00000000000E+00 -0.31002750945E+03  0.31002750945E+03  0.00000000000E+00 0.  1.
         23    2    1    2    0    0  0.12689559823E+03 -0.11540266230E+03  0.13451976212E+04  0.13589504561E+04  0.88144397542E+02 0.  0.
        254    2    1    2    0    0 -0.12689559823E+03  0.11540266230E+03  0.42433388516E+03  0.10306360691E+04  0.92343445549E+03 0.  0.
        -24    2    4    4    0    0 -0.49919855209E+03 -0.78458394570E+02  0.23211063458E+03  0.56172099599E+03  0.79373903571E+02 0.  0.
         24    2    4    4    0    0  0.37230295386E+03  0.19386105687E+03  0.19222325058E+03  0.46891507314E+03  0.82097313799E+02 0.  0.
         13    1    3    3    0    0  0.11337768529E+03 -0.51439597955E+02  0.98869395161E+03  0.99650201289E+03  0.00000000000E+00 0. -1.
        -13    1    3    3    0    0  0.13517912941E+02 -0.63963064340E+02  0.35650366958E+03  0.36244844322E+03  0.00000000000E+00 0.  1.
          2    1    6    6  502    0  0.68355694867E+02  0.78833904731E+01  0.50871529663E+02  0.85571966182E+02  0.00000000000E+00 0. -1.
          3    1    5    5  503    0 -0.31646646845E+03 -0.61078808194E+02  0.18728655299E+03  0.37277057207E+03  0.00000000000E+00 0. -1.
         -4    1    5    5    0  503 -0.18273208363E+03 -0.17379586376E+02  0.44824081585E+02  0.18895042392E+03  0.00000000000E+00 0.  1.
         -3    1    6    6    0  502  0.30394725899E+03  0.18597766639E+03  0.14135172092E+03  0.38334310696E+03  0.00000000000E+00 0.  1.
<mgrwt>
<rscale>  0 0.16058898E+04</rscale>
<asrwt>0</asrwt>
<pdfrwt beam="1">  1        1 0.31993215E+00 0.16058898E+04</pdfrwt>
<pdfrwt beam="2">  1       -1 0.47696541E-01 0.16058898E+04</pdfrwt>
<totfact> 0.11084872E+01</totfact>
</mgrwt>
</event>
<event>
12    1  0.1495204E-007  0.1350114E+04  0.7818608E-02  0.8990742E-01
         -1   -1    0    0    0  501 -0.00000000000E+00  0.00000000000E+00  0.36583275890E+03  0.36583275890E+03  0.00000000000E+00 0.  1.
          1   -1    0    0  501    0  0.00000000000E+00 -0.00000000000E+00 -0.12456569385E+04  0.12456569385E+04  0.00000000000E+00 0. -1.
         23    2    1    2    0    0 -0.82427844524E+02  0.35317173184E+03 -0.28585506623E+03  0.47072661422E+03  0.91355375953E+02 0.  0.
        254    2    1    2    0    0  0.82427844524E+02 -0.35317173184E+03 -0.59396911335E+03  0.11407630832E+04  0.90388964071E+03 0.  0.
        -24    2    4    4    0    0  0.47840826463E+03 -0.25291486725E+03 -0.25207551602E+03  0.60232426617E+03  0.80075327658E+02 0.  0.
         24    2    4    4    0    0 -0.39598042010E+03 -0.10025686459E+03 -0.34189359732E+03  0.53843881699E+03  0.78569687242E+02 0.  0.
         13    1    3    3    0    0 -0.89667012533E+02  0.32926543383E+03 -0.23583939808E+03  0.41482058861E+03  0.00000000000E+00 0.  1.
        -13    1    3    3    0    0  0.72391680094E+01  0.23906298016E+02 -0.50015668149E+02  0.55906025603E+02  0.00000000000E+00 0. -1.
          2    1    6    6  502    0 -0.35855490863E+03 -0.84098614552E+02 -0.33344130317E+03  0.49680710757E+03  0.00000000000E+00 0. -1.
          3    1    5    5  503    0  0.26362916490E+03 -0.11811481972E+03 -0.95280895924E+02  0.30418727185E+03  0.00000000000E+00 0. -1.
         -4    1    5    5    0  503  0.21477909972E+03 -0.13480004753E+03 -0.15679462010E+03  0.29813699433E+03  0.00000000000E+00 0.  1.
         -1    1    6    6    0  502 -0.37425511474E+02 -0.16158250038E+02 -0.84522941573E+01  0.41631709428E+02  0.00000000000E+00 0.  1.
<mgrwt>
<rscale>  0 0.13501142E+04</rscale>
<asrwt>0</asrwt>
<pdfrwt beam="1">  1        1 0.19163953E+00 0.13501142E+04</pdfrwt>
<pdfrwt beam="2">  1       -1 0.56281963E-01 0.13501142E+04</pdfrwt>
<totfact> 0.30946139E+01</totfact>
</mgrwt>
</event>
<event>
12    1  0.1495204E-007  0.2353842E+04  0.7818608E-02  0.8456990E-01
         -1   -1    0    0    0  501 -0.00000000000E+00  0.00000000000E+00  0.13609499360E+04  0.13609499360E+04  0.00000000000E+00 0.  1.
          1   -1    0    0  501    0  0.00000000000E+00 -0.00000000000E+00 -0.10177762012E+04  0.10177762012E+04  0.00000000000E+00 0. -1.
         23    2    1    2    0    0  0.22153795112E+03 -0.28030153588E+03 -0.79762463544E+03  0.87867633912E+03  0.90658894012E+02 0.  0.
        254    2    1    2    0    0 -0.22153795112E+03  0.28030153588E+03  0.11407983703E+04  0.15000497980E+04  0.90613490178E+03 0.  0.
        -24    2    4    4    0    0 -0.40134220995E+03 -0.19566312753E+03  0.61330575661E+03  0.76285305124E+03  0.80257072831E+02 0.  0.
         24    2    4    4    0    0  0.17980425884E+03  0.47596466340E+03  0.52749261364E+03  0.73719674679E+03  0.79615662573E+02 0.  0.
         13    1    3    3    0    0  0.18460704349E+03 -0.17459440237E+03 -0.59899455344E+03  0.65065923562E+03  0.00000000000E+00 0. -1.
        -13    1    3    3    0    0  0.36930907628E+02 -0.10570713351E+03 -0.19863008200E+03  0.22801710350E+03  0.00000000000E+00 0.  1.
          2    1    6    6  502    0  0.16323460558E+03  0.35902808103E+03  0.43509727258E+03  0.58724469860E+03  0.00000000000E+00 0. -1.
          3    1    5    5  503    0 -0.38570454574E+03 -0.17263153824E+03  0.54915238301E+03  0.69291989751E+03  0.00000000000E+00 0. -1.
         -2    1    5    5    0  503 -0.15637664214E+02 -0.23031589289E+02  0.64153373598E+02  0.69933153734E+02  0.00000000000E+00 0.  1.
         -1    1    6    6    0  502  0.16569653255E+02  0.11693658238E+03  0.92395341059E+02  0.14995204819E+03  0.00000000000E+00 0.  1.
<mgrwt>
<rscale>  0 0.23538415E+04</rscale>
<asrwt>0</asrwt>
<pdfrwt beam="1">  1        1 0.15658095E+00 0.23538415E+04</pdfrwt>
<pdfrwt beam="2">  1       -1 0.20937691E+00 0.23538415E+04</pdfrwt>
<totfact> 0.17116779E+00</totfact>
</mgrwt>
</event>
<event>
12    1  0.1495204E-007  0.1367698E+04  0.7818608E-02  0.8977538E-01
         -2   -1    0    0    0  501 -0.00000000000E+00  0.00000000000E+00  0.26837978570E+03  0.26837978570E+03  0.00000000000E+00 0.  1.
          2   -1    0    0  501    0  0.00000000000E+00 -0.00000000000E+00 -0.17424914380E+04  0.17424914380E+04  0.00000000000E+00 0. -1.
         23    2    1    2    0    0 -0.11470715516E+03 -0.30102817578E+03 -0.11007078830E+03  0.36019388469E+03  0.11767906388E+03 0.  0.
        254    2    1    2    0    0  0.11470715516E+03  0.30102817578E+03 -0.13640408640E+04  0.16506773390E+04  0.87198194062E+03 0.  0.
        -24    2    4    4    0    0 -0.46187190788E+02  0.51997473490E+02 -0.13376056604E+04  0.13417924427E+04  0.79881554470E+02 0.  0.
         24    2    4    4    0    0  0.16089434595E+03  0.24903070229E+03 -0.26435203620E+02  0.30888489630E+03  0.82509259677E+02 0.  0.
         11    1    3    3    0    0 -0.11866246865E+03 -0.25037369309E+03 -0.12944512903E+03  0.30581662657E+03  0.00000000000E+00 0.  1.
        -11    1    3    3    0    0  0.39553134914E+01 -0.50654482694E+02  0.19374340739E+02  0.54377258122E+02  0.00000000000E+00 0. -1.
          2    1    6    6  502    0  0.58409306567E+01 -0.38668539910E+01  0.75494979483E+01  0.10298735359E+02  0.00000000000E+00 0. -1.
          3    1    5    5  503    0 -0.56525268354E+02  0.36963189315E+02 -0.57260878840E+03  0.57657801543E+03  0.00000000000E+00 0. -1.
         -4    1    5    5    0  503  0.10338077566E+02  0.15034284176E+02 -0.76499687199E+03  0.76521442727E+03  0.00000000000E+00 0.  1.
         -1    1    6    6    0  502  0.15505341529E+03  0.25289755628E+03 -0.33984701568E+02  0.29858616095E+03  0.00000000000E+00 0.  1.
<mgrwt>
<rscale>  0 0.13676980E+04</rscale>
<asrwt>0</asrwt>
<pdfrwt beam="1">  1        2 0.26807560E+00 0.13676980E+04</pdfrwt>
<pdfrwt beam="2">  1       -2 0.41289198E-01 0.13676980E+04</pdfrwt>
<totfact> 0.50342406E+01</totfact>
</mgrwt>
</event>
<event>
12    1  0.1495204E-007  0.1990506E+04  0.7818608E-02  0.8611072E-01
          1   -1    0    0  501    0  0.00000000000E+00  0.00000000000E+00  0.76140871792E+03  0.76140871792E+03  0.00000000000E+00 0. -1.
         -1   -1    0    0    0  501 -0.00000000000E+00 -0.00000000000E+00 -0.13009154671E+04  0.13009154671E+04  0.00000000000E+00 0.  1.
         23    2    1    2    0    0  0.74870431172E+03  0.23387414365E+03 -0.29811615152E+03  0.84425165215E+03  0.92910445655E+02 0.  0.
        254    2    1    2    0    0 -0.74870431172E+03 -0.23387414365E+03 -0.24139059766E+03  0.12180725329E+04  0.90009777983E+03 0.  0.
        -24    2    4    4    0    0 -0.23933928000E+03 -0.45701173088E+03  0.13796726530E+03  0.54017907944E+03  0.81335468591E+02 0.  0.
         24    2    4    4    0    0 -0.50936503171E+03  0.22313758724E+03 -0.37935786296E+03  0.67789345344E+03  0.79900110476E+02 0.  0.
         13    1    3    3    0    0  0.75153748223E+03  0.23354063541E+03 -0.29743404574E+03  0.84131850517E+03  0.00000000000E+00 0. -1.
        -13    1    3    3    0    0 -0.28331705115E+01  0.33350823818E+00 -0.68210577355E+00  0.29331469753E+01  0.00000000000E+00 0.  1.
          4    1    6    6  502    0 -0.10586974606E+03  0.72318239483E+02 -0.59395878531E+02  0.14130180918E+03  0.00000000000E+00 0. -1.
          1    1    5    5  503    0 -0.14969804206E+02 -0.37189051701E+01  0.10251618499E+02  0.18520825453E+02  0.00000000000E+00 0. -1.
         -2    1    5    5    0  503 -0.22436947580E+03 -0.45329282571E+03  0.12771564680E+03  0.52165825398E+03  0.00000000000E+00 0.  1.
         -3    1    6    6    0  502 -0.40349528566E+03  0.15081934775E+03 -0.31996198443E+03  0.53659164425E+03  0.00000000000E+00 0.  1.
<mgrwt>
<rscale>  0 0.19905058E+04</rscale>
<asrwt>0</asrwt>
<pdfrwt beam="1">  1        1 0.11713980E+00 0.19905058E+04</pdfrwt>
<pdfrwt beam="2">  1       -1 0.20014084E+00 0.19905058E+04</pdfrwt>
<totfact> 0.33343455E+00</totfact>
</mgrwt>
</event>
<event>
12    1  0.1495204E-007  0.1609852E+04  0.7818608E-02  0.8814518E-01
          2   -1    0    0  501    0  0.00000000000E+00  0.00000000000E+00  0.95035896276E+03  0.95035896276E+03  0.00000000000E+00 0. -1.
         -2   -1    0    0    0  501 -0.00000000000E+00 -0.00000000000E+00 -0.68174857291E+03  0.68174857291E+03  0.00000000000E+00 0.  1.
         23    2    1    2    0    0 -0.78724800997E+02 -0.16122098786E+03 -0.44132521462E+03  0.48437465211E+03  0.87527466150E+02 0.  0.
        254    2    1    2    0    0  0.78724800997E+02  0.16122098786E+03  0.70993560448E+03  0.11477328836E+04  0.88379432465E+03 0.  0.
        -24    2    4    4    0    0 -0.17950905394E+03  0.31414536103E+03  0.74769620237E+03  0.83501679775E+03  0.85396915578E+02 0.  0.
         24    2    4    4    0    0  0.25823385494E+03 -0.15292437317E+03 -0.37760597890E+02  0.31271608581E+03  0.79340404725E+02 0.  0.
         13    1    3    3    0    0 -0.22932744101E+02 -0.71004736842E+01 -0.16787196525E+02  0.29293983097E+02  0.00000000000E+00 0. -1.
        -13    1    3    3    0    0 -0.55792056895E+02 -0.15412051418E+03 -0.42453801810E+03  0.45508066902E+03  0.00000000000E+00 0.  1.
          4    1    6    6  502    0  0.25218595654E+03 -0.15835194049E+03 -0.45803831291E+02  0.30128240024E+03  0.00000000000E+00 0. -1.
          1    1    5    5  503    0 -0.11693197569E+03  0.25258891463E+03  0.50038870656E+03  0.57259331500E+03  0.00000000000E+00 0. -1.
         -2    1    5    5    0  503 -0.62577078257E+02  0.61556446400E+02  0.24730749581E+03  0.26242348275E+03  0.00000000000E+00 0.  1.
         -3    1    6    6    0  502  0.60478983971E+01  0.54275673201E+01  0.80432334009E+01  0.11433685564E+02  0.00000000000E+00 0.  1.
<mgrwt>
<rscale>  0 0.16098520E+04</rscale>
<asrwt>0</asrwt>
<pdfrwt beam="1">  1        2 0.14620907E+00 0.16098520E+04</pdfrwt>
<pdfrwt beam="2">  1       -2 0.10488440E+00 0.16098520E+04</pdfrwt>
<totfact> 0.19166804E+01</totfact>
</mgrwt>
</event>
<event>
12    1  0.1495204E-007  0.2187184E+04  0.7818608E-02  0.8523782E-01
          3   -1    0    0  501    0  0.00000000000E+00  0.00000000000E+00  0.86406880189E+03  0.86406880189E+03  0.00000000000E+00 0. -1.
         -3   -1    0    0    0  501 -0.00000000000E+00 -0.00000000000E+00 -0.13840832295E+04  0.13840832295E+04  0.00000000000E+00 0.  1.
         23    2    1    2    0    0 -0.45282762028E+03  0.73660446432E+03 -0.48969732954E+03  0.99797081058E+03  0.92213196851E+02 0.  0.
        254    2    1    2    0    0  0.45282762028E+03 -0.73660446432E+03 -0.30317098123E+02  0.12501812209E+04  0.90243834581E+03 0.  0.
        -24    2    4    4    0    0 -0.67633305683E+02 -0.71529848400E+03 -0.29482850182E+02  0.72340974269E+03  0.78906477021E+02 0.  0.
         24    2    4    4    0    0  0.52046092597E+03 -0.21305980320E+02 -0.83424794086E+00  0.52677147816E+03  0.78447268800E+02 0.  0.
         11    1    3    3    0    0 -0.37909332678E+03  0.65373258464E+03 -0.39827072009E+03  0.85422339532E+03  0.00000000000E+00 0. -1.
        -11    1    3    3    0    0 -0.73734293504E+02  0.82871879675E+02 -0.91426609445E+02  0.14374741526E+03  0.00000000000E+00 0.  1.
          2    1    6    6  502    0  0.16781057811E+03 -0.14392967866E+02  0.35692594650E+02  0.17216709605E+03  0.00000000000E+00 0. -1.
          3    1    5    5  503    0  0.16685902453E+02 -0.19585059494E+03 -0.87071998548E+01  0.19675286582E+03  0.00000000000E+00 0. -1.
         -4    1    5    5    0  503 -0.84319208137E+02 -0.51944788905E+03 -0.20775650328E+02  0.52665687687E+03  0.00000000000E+00 0.  1.
         -1    1    6    6    0  502  0.35265034786E+03 -0.69130124535E+01 -0.36526842590E+02  0.35460438212E+03  0.00000000000E+00 0.  1.
<mgrwt>
<rscale>  0 0.21871837E+04</rscale>
<asrwt>0</asrwt>
<pdfrwt beam="1">  1        3 0.13293366E+00 0.21871837E+04</pdfrwt>
<pdfrwt beam="2">  1       -3 0.21293588E+00 0.21871837E+04</pdfrwt>
<totfact> 0.12775603E-01</totfact>
</mgrwt>
</event>
<event>
12    1  0.1495204E-007  0.1834675E+04  0.7818608E-02  0.8688074E-01
          2   -1    0    0  501    0  0.00000000000E+00  0.00000000000E+00  0.13822056664E+04  0.13822056664E+04  0.00000000000E+00 0. -1.
         -2   -1    0    0    0  501 -0.00000000000E+00 -0.00000000000E+00 -0.60881511274E+03  0.60881511274E+03  0.00000000000E+00 0.  1.
         23    2    1    2    0    0 -0.60666433046E+03  0.10121115971E+03  0.63384174897E+03  0.88781213266E+03  0.90386456146E+02 0.  0.
        254    2    1    2    0    0  0.60666433046E+03 -0.10121115971E+03  0.13954880469E+03  0.11032086465E+04  0.90515752223E+03 0.  0.
        -24    2    4    4    0    0  0.62283447640E+03 -0.31689478362E+03  0.35482762786E+03  0.78776330694E+03  0.79519138546E+02 0.  0.
         24    2    4    4    0    0 -0.16170145934E+02  0.21568362391E+03 -0.21527882318E+03  0.31544533953E+03  0.79874221624E+02 0.  0.
         13    1    3    3    0    0 -0.59652459033E+03  0.10363527806E+03  0.63492309489E+03  0.87733072108E+03  0.00000000000E+00 0.  1.
        -13    1    3    3    0    0 -0.10139740131E+02 -0.24241183455E+01 -0.10813459202E+01  0.10481411578E+02  0.00000000000E+00 0. -1.
          4    1    6    6  502    0  0.59099190921E+01  0.86628869078E+02 -0.37319351542E+02  0.94510433820E+02  0.00000000000E+00 0. -1.
          3    1    5    5  503    0  0.22937236955E+03 -0.10852034141E+03  0.17147433097E+03  0.30625446053E+03  0.00000000000E+00 0. -1.
         -4    1    5    5    0  503  0.39346210685E+03 -0.20837444222E+03  0.18335329689E+03  0.48150884641E+03  0.00000000000E+00 0.  1.
         -3    1    6    6    0  502 -0.22080065026E+02  0.12905475484E+03 -0.17795947163E+03  0.22093490571E+03  0.00000000000E+00 0.  1.
<mgrwt>
<rscale>  0 0.18346746E+04</rscale>
<asrwt>0</asrwt>
<pdfrwt beam="1">  1        2 0.21264703E+00 0.18346746E+04</pdfrwt>
<pdfrwt beam="2">  1       -2 0.93663864E-01 0.18346746E+04</pdfrwt>
<totfact> 0.13437961E+01</totfact>
</mgrwt>
</event>
<event>
12    1  0.1495204E-007  0.2256645E+04  0.7818608E-02  0.8495214E-01
          2   -1    0    0  501    0  0.00000000000E+00  0.00000000000E+00  0.31951870992E+04  0.31951870992E+04  0.00000000000E+00 0. -1.
         -2   -1    0    0    0  501 -0.00000000000E+00 -0.00000000000E+00 -0.39844657767E+03  0.39844657767E+03  0.00000000000E+00 0.  1.
         23    2    1    2    0    0  0.81956912428E+03  0.22273168530E+02  0.48356800777E+03  0.95570467858E+03  0.85695805100E+02 0.  0.
        254    2    1    2    0    0 -0.81956912428E+03 -0.22273168530E+02  0.23131725137E+04  0.26379289983E+04  0.96732242713E+03 0.  0.
        -24    2    4    4    0    0 -0.59659017109E+03 -0.16795997647E+03  0.49083531521E+03  0.79450462709E+03  0.78663268848E+02 0.  0.
         24    2    4    4    0    0 -0.22297895319E+03  0.14568680794E+03  0.18223371985E+04  0.18434243712E+04  0.79726328870E+02 0.  0.
         13    1    3    3    0    0  0.65817148013E+03 -0.15478233694E+02  0.39529190101E+03  0.76790947381E+03  0.00000000000E+00 0.  1.
        -13    1    3    3    0    0  0.16139764415E+03  0.37751402224E+02  0.88276106760E+02  0.18779520477E+03  0.00000000000E+00 0. -1.
          4    1    6    6  502    0 -0.15369081919E+02  0.68844756499E+01  0.36352429759E+02  0.40063747121E+02  0.00000000000E+00 0. -1.
          3    1    5    5  503    0 -0.17061156229E+03 -0.85612927471E+02  0.15101361420E+03  0.24339882952E+03  0.00000000000E+00 0. -1.
         -4    1    5    5    0  503 -0.42597860881E+03 -0.82347048994E+02  0.33982170101E+03  0.55110579757E+03  0.00000000000E+00 0.  1.
         -3    1    6    6    0  502 -0.20760987127E+03  0.13880233229E+03  0.17859847688E+04  0.18033606241E+04  0.00000000000E+00 0.  1.
<mgrwt>
<rscale>  0 0.22566447E+04</rscale>
<asrwt>0</asrwt>
<pdfrwt beam="1">  1        2 0.49156723E+00 0.22566447E+04</pdfrwt>
<pdfrwt beam="2">  1       -2 0.61299475E-01 0.22566447E+04</pdfrwt>
<totfact> 0.29458896E+00</totfact>
</mgrwt>
</event>
<event>
12    1  0.1495204E-007  0.2004181E+04  0.7818608E-02  0.8604668E-01
         -2   -1    0    0    0  501 -0.00000000000E+00  0.00000000000E+00  0.11483420185E+04  0.11483420185E+04  0.00000000000E+00 0. -1.
          2   -1    0    0  501    0  0.00000000000E+00 -0.00000000000E+00 -0.87446567095E+03  0.87446567095E+03  0.00000000000E+00 0.  1.
         23    2    1    2    0    0 -0.81861621208E+02 -0.75300414977E+03 -0.10880893523E+03  0.76808020129E+03  0.66266406483E+02 0.  0.
        254    2    1    2    0    0  0.81861621208E+02  0.75300414977E+03  0.38268528278E+03  0.12547274882E+04  0.92421667875E+03 0.  0.
        -24    2    4    4    0    0  0.31421404853E+03 -0.34145669222E+02 -0.39198871572E+02  0.32813883600E+03  0.79007272685E+02 0.  0.
         24    2    4    4    0    0 -0.23235242733E+03  0.78714981900E+03  0.42188415435E+03  0.92658865216E+03  0.83593077339E+02 0.  0.
         13    1    3    3    0    0 -0.54653093424E+02 -0.26495307858E+03 -0.57610639748E+02  0.27659732516E+03  0.00000000000E+00 0. -1.
        -13    1    3    3    0    0 -0.27208527784E+02 -0.48805107119E+03 -0.51198295480E+02  0.49148287614E+03  0.00000000000E+00 0.  1.
          2    1    6    6  502    0 -0.45104960213E+02  0.29380943602E+03  0.15647486869E+03  0.33592086369E+03  0.00000000000E+00 0. -1.
          1    1    5    5  503    0  0.10487311967E+02 -0.18957844771E+02 -0.17583897140E+01  0.21736502134E+02  0.00000000000E+00 0. -1.
         -4    1    5    5    0  503  0.30372673657E+03 -0.15187824451E+02 -0.37440481858E+02  0.30640233387E+03  0.00000000000E+00 0.  1.
         -1    1    6    6    0  502 -0.18724746711E+03  0.49334038298E+03  0.26540928566E+03  0.59066778847E+03  0.00000000000E+00 0.  1.
<mgrwt>
<rscale>  0 0.20041813E+04</rscale>
<asrwt>0</asrwt>
<pdfrwt beam="1">  1        2 0.13453318E+00 0.20041813E+04</pdfrwt>
<pdfrwt beam="2">  1       -2 0.17666800E+00 0.20041813E+04</pdfrwt>
<totfact> 0.54197551E+00</totfact>
</mgrwt>
</event>
<event>
12    1  0.1495204E-007  0.1989590E+04  0.7818608E-02  0.8611503E-01
         -1   -1    0    0    0  501 -0.00000000000E+00  0.00000000000E+00  0.77190843900E+03  0.77190843900E+03  0.00000000000E+00 0.  1.
          1   -1    0    0  501    0  0.00000000000E+00 -0.00000000000E+00 -0.12820398623E+04  0.12820398623E+04  0.00000000000E+00 0. -1.
         23    2    1    2    0    0 -0.32549218252E+03  0.15318037684E+03 -0.93057562417E+03  0.10012928680E+04  0.84894207361E+02 0.  0.
        254    2    1    2    0    0  0.32549218252E+03 -0.15318037684E+03  0.42044420091E+03  0.10526554333E+04  0.89548911014E+03 0.  0.
        -24    2    4    4    0    0  0.63181716495E+02 -0.47704057249E+03  0.51872300155E+02  0.49043892515E+03  0.79246240803E+02 0.  0.
         24    2    4    4    0    0  0.26231046603E+03  0.32386019564E+03  0.36857190076E+03  0.56221650812E+03  0.80931755579E+02 0.  0.
         11    1    3    3    0    0 -0.67442244540E+02  0.41984998918E+01 -0.12048226678E+03  0.13813783102E+03  0.00000000000E+00 0.  1.
        -11    1    3    3    0    0 -0.25804993799E+03  0.14898187695E+03 -0.81009335739E+03  0.86315503697E+03  0.00000000000E+00 0. -1.
          4    1    6    6  502    0  0.86644659442E+02  0.67412973032E+02  0.64227594884E+02  0.12718879623E+03  0.00000000000E+00 0. -1.
          3    1    5    5  503    0  0.18369180974E+02 -0.21511794291E+02  0.12793574039E+02  0.31046088964E+02  0.00000000000E+00 0. -1.
         -4    1    5    5    0  503  0.44812535521E+02 -0.45552877819E+03  0.39078726116E+02  0.45939283618E+03  0.00000000000E+00 0.  1.
         -3    1    6    6    0  502  0.17566580659E+03  0.25644722261E+03  0.30434430587E+03  0.43502771188E+03  0.00000000000E+00 0.  1.
<mgrwt>
<rscale>  0 0.19895903E+04</rscale>
<asrwt>0</asrwt>
<pdfrwt beam="1">  1        1 0.19723690E+00 0.19895903E+04</pdfrwt>
<pdfrwt beam="2">  1       -1 0.11875515E+00 0.19895903E+04</pdfrwt>
<totfact> 0.54949000E+00</totfact>
</mgrwt>
</event>
<event>
12    1  0.1495204E-007  0.3097365E+04  0.7818608E-02  0.8216462E-01
         -2   -1    0    0    0  501 -0.00000000000E+00  0.00000000000E+00  0.98544019569E+03  0.98544019569E+03  0.00000000000E+00 0.  1.
          2   -1    0    0  501    0  0.00000000000E+00 -0.00000000000E+00 -0.24338533270E+04  0.24338533270E+04  0.00000000000E+00 0. -1.
         23    2    1    2    0    0 -0.78817931124E+03 -0.95156867222E+01  0.64699439720E+03  0.10238079017E+04  0.90904865985E+02 0.  0.
        254    2    1    2    0    0  0.78817931124E+03  0.95156867222E+01 -0.20954075286E+04  0.23954856210E+04  0.85223322794E+03 0.  0.
        -24    2    4    4    0    0  0.61451121672E+03  0.38293616321E+03 -0.11567824587E+04  0.13673571259E+04  0.85180469801E+02 0.  0.
         24    2    4    4    0    0  0.17366809451E+03 -0.37342047649E+03 -0.93862506985E+03  0.10281284951E+04  0.80173071371E+02 0.  0.
         11    1    3    3    0    0 -0.35206526419E+03 -0.40786357834E+02  0.32415671770E+03  0.48030308646E+03  0.00000000000E+00 0. -1.
        -11    1    3    3    0    0 -0.43611404705E+03  0.31270671112E+02  0.32283767950E+03  0.54350481525E+03  0.00000000000E+00 0.  1.
          4    1    6    6  502    0  0.16138103436E+03 -0.31967776910E+03 -0.74156979600E+03  0.82350681639E+03  0.00000000000E+00 0. -1.
          3    1    5    5  503    0  0.47173822471E+03  0.32358250977E+03 -0.95376860321E+03  0.11121677669E+04  0.00000000000E+00 0. -1.
         -4    1    5    5    0  503  0.14277299201E+03  0.59353653449E+02 -0.20301385550E+03  0.25518935901E+03  0.00000000000E+00 0.  1.
         -3    1    6    6    0  502  0.12287060150E+02 -0.53742707397E+02 -0.19705527385E+03  0.20462167871E+03  0.00000000000E+00 0.  1.
<mgrwt>
<rscale>  0 0.30973646E+04</rscale>
<asrwt>0</asrwt>
<pdfrwt beam="1">  1        2 0.37443898E+00 0.30973646E+04</pdfrwt>
<pdfrwt beam="2">  1       -2 0.15160618E+00 0.30973646E+04</pdfrwt>
<totfact> 0.94006060E-01</totfact>
</mgrwt>
</event>
<event>
12    1  0.1495204E-007  0.1567672E+04  0.7818608E-02  0.8840658E-01
         -2   -1    0    0    0  501 -0.00000000000E+00  0.00000000000E+00  0.13720118885E+03  0.13720118885E+03  0.00000000000E+00 0.  1.
          2   -1    0    0  501    0  0.00000000000E+00 -0.00000000000E+00 -0.44780863105E+04  0.44780863105E+04  0.00000000000E+00 0. -1.
         23    2    1    2    0    0  0.30186894819E+03  0.32115282710E+03 -0.68090159084E+03  0.81612932770E+03  0.90421805344E+02 0.  0.
        254    2    1    2    0    0 -0.30186894819E+03 -0.32115282710E+03 -0.36599835308E+04  0.37991581716E+04  0.91861818354E+03 0.  0.
        -24    2    4    4    0    0 -0.41392745377E+03  0.17800571627E+03 -0.22749046973E+04  0.23204524639E+04  0.79286086195E+02 0.  0.
         24    2    4    4    0    0  0.11205850558E+03 -0.49915854337E+03 -0.13850788335E+04  0.14787057077E+04  0.80067689778E+02 0.  0.
         13    1    3    3    0    0  0.37409113098E+02  0.91965189165E+02 -0.16995990395E+03  0.19683344917E+03  0.00000000000E+00 0. -1.
        -13    1    3    3    0    0  0.26445983509E+03  0.22918763793E+03 -0.51094168689E+03  0.61929587853E+03  0.00000000000E+00 0.  1.
          4    1    6    6  502    0  0.62292031387E+02 -0.30256281123E+03 -0.72199318448E+03  0.78530166837E+03  0.00000000000E+00 0. -1.
          1    1    5    5  503    0 -0.12567424269E+03  0.40646263580E+02 -0.85063089019E+03  0.86082463102E+03  0.00000000000E+00 0. -1.
         -2    1    5    5    0  503 -0.28825321109E+03  0.13735945269E+03 -0.14242738071E+04  0.14596278329E+04  0.00000000000E+00 0.  1.
         -3    1    6    6    0  502  0.49766474195E+02 -0.19659573214E+03 -0.66308564899E+03  0.69340403932E+03  0.00000000000E+00 0.  1.
<mgrwt>
<rscale>  0 0.15676719E+04</rscale>
<asrwt>0</asrwt>
<pdfrwt beam="1">  1        2 0.68893625E+00 0.15676719E+04</pdfrwt>
<pdfrwt beam="2">  1       -2 0.21107878E-01 0.15676719E+04</pdfrwt>
<totfact> 0.24928476E+00</totfact>
</mgrwt>
</event>
<event>
12    1  0.1495204E-007  0.1901596E+04  0.7818608E-02  0.8654062E-01
         -1   -1    0    0    0  501 -0.00000000000E+00  0.00000000000E+00  0.15955434628E+04  0.15955434628E+04  0.00000000000E+00 0.  1.
          1   -1    0    0  501    0  0.00000000000E+00 -0.00000000000E+00 -0.56658852216E+03  0.56658852216E+03  0.00000000000E+00 0. -1.
         23    2    1    2    0    0  0.17671958155E+03 -0.66700120568E+03  0.68409962076E+03  0.97591180351E+03  0.91055687500E+02 0.  0.
        254    2    1    2    0    0 -0.17671958155E+03  0.66700120568E+03  0.34485531988E+03  0.11862201814E+04  0.90115076892E+03 0.  0.
        -24    2    4    4    0    0 -0.15993353260E+03  0.47015552478E+03  0.64497797695E+03  0.81800471865E+03  0.80685665699E+02 0.  0.
         24    2    4    4    0    0 -0.16786048953E+02  0.19684568090E+03 -0.30012265707E+03  0.36821546279E+03  0.80492386126E+02 0.  0.
         13    1    3    3    0    0  0.86704985789E+02 -0.34832976484E+03  0.41894183736E+03  0.55169161922E+03  0.00000000000E+00 0. -1.
        -13    1    3    3    0    0  0.90014595759E+02 -0.31867144084E+03  0.26515778340E+03  0.42422018429E+03  0.00000000000E+00 0.  1.
          4    1    6    6  502    0 -0.11147579866E+00  0.19179898527E+03 -0.29107387736E+03  0.34858408635E+03  0.00000000000E+00 0. -1.
          3    1    5    5  503    0 -0.76679538861E+02  0.24902032321E+03  0.40219006337E+03  0.47921573443E+03  0.00000000000E+00 0. -1.
         -4    1    5    5    0  503 -0.83253993734E+02  0.22113520157E+03  0.24278791358E+03  0.33878898422E+03  0.00000000000E+00 0.  1.
         -3    1    6    6    0  502 -0.16674573154E+02  0.50466956324E+01 -0.90487797092E+01  0.19631376440E+02  0.00000000000E+00 0.  1.
<mgrwt>
<rscale>  0 0.19015958E+04</rscale>
<asrwt>0</asrwt>
<pdfrwt beam="1">  1        1 0.87167465E-01 0.19015958E+04</pdfrwt>
<pdfrwt beam="2">  1       -1 0.24546822E+00 0.19015958E+04</pdfrwt>
<totfact> 0.25968076E+00</totfact>
</mgrwt>
</event>
<event>
12    1  0.1495204E-007  0.2140594E+04  0.7818608E-02  0.8543569E-01
         -2   -1    0    0    0  501 -0.00000000000E+00  0.00000000000E+00  0.63038315532E+03  0.63038315532E+03  0.00000000000E+00 0.  1.
          2   -1    0    0  501    0  0.00000000000E+00 -0.00000000000E+00 -0.18172060045E+04  0.18172060045E+04  0.00000000000E+00 0. -1.
         23    2    1    2    0    0  0.15563182805E+03 -0.47892208930E+03 -0.13206141264E+04  0.14161964034E+04  0.89459201278E+02 0.  0.
        254    2    1    2    0    0 -0.15563182805E+03  0.47892208930E+03  0.13379127718E+03  0.10313927564E+04  0.89010295960E+03 0.  0.
        -24    2    4    4    0    0 -0.22601002370E+03  0.37612179241E+03 -0.32346152308E+03  0.55128163864E+03  0.82072861807E+02 0.  0.
         24    2    4    4    0    0  0.70378195652E+02  0.10280029689E+03  0.45725280026E+03  0.48011111781E+03  0.76847710678E+02 0.  0.
         11    1    3    3    0    0  0.10584827224E+03 -0.39139200337E+03 -0.96793970895E+03  0.10494278618E+04  0.00000000000E+00 0. -1.
        -11    1    3    3    0    0  0.49783555813E+02 -0.87530085933E+02 -0.35267441744E+03  0.36676854158E+03  0.00000000000E+00 0.  1.
          4    1    6    6  502    0  0.48743236683E+02  0.39508940659E+02  0.11144406904E+03  0.12789308050E+03  0.00000000000E+00 0. -1.
          1    1    5    5  503    0 -0.11430328021E+03  0.26129828610E+03 -0.22471617387E+03  0.36309694709E+03  0.00000000000E+00 0. -1.
         -2    1    5    5    0  503 -0.11170674349E+03  0.11482350632E+03 -0.98745349212E+02  0.18818469156E+03  0.00000000000E+00 0.  1.
         -3    1    6    6    0  502  0.21634958969E+02  0.63291356232E+02  0.34580873122E+03  0.35221803731E+03  0.00000000000E+00 0.  1.
<mgrwt>
<rscale>  0 0.21405944E+04</rscale>
<asrwt>0</asrwt>
<pdfrwt beam="1">  1        2 0.27957015E+00 0.21405944E+04</pdfrwt>
<pdfrwt beam="2">  1       -2 0.96982024E-01 0.21405944E+04</pdfrwt>
<totfact> 0.68843561E+00</totfact>
</mgrwt>
</event>
<event>
12    1  0.1495204E-007  0.1388000E+04  0.7818608E-02  0.8962551E-01
          2   -1    0    0  501    0  0.00000000000E+00  0.00000000000E+00  0.12807029251E+04  0.12807029251E+04  0.00000000000E+00 0. -1.
         -2   -1    0    0    0  501 -0.00000000000E+00 -0.00000000000E+00 -0.37607178801E+03  0.37607178801E+03  0.00000000000E+00 0.  1.
         23    2    1    2    0    0  0.72995099293E+02 -0.13154144222E+03 -0.15859654991E+03  0.23766277058E+03  0.93269991598E+02 0.  0.
        254    2    1    2    0    0 -0.72995099293E+02  0.13154144222E+03  0.10632276870E+04  0.14191119425E+04  0.92778993066E+03 0.  0.
        -24    2    4    4    0    0  0.21951242403E+03  0.30863491396E+03  0.98607118799E+03  0.10594446670E+04  0.81519323838E+02 0.  0.
         24    2    4    4    0    0 -0.29250752332E+03 -0.17709347174E+03  0.77156498975E+02  0.35966727552E+03  0.80527478645E+02 0.  0.
         11    1    3    3    0    0  0.69060933276E+02 -0.38037389578E+02 -0.46114949908E+02  0.91339170764E+02  0.00000000000E+00 0. -1.
        -11    1    3    3    0    0  0.39341660163E+01 -0.93504052647E+02 -0.11248160001E+03  0.14632359982E+03  0.00000000000E+00 0.  1.
          4    1    6    6  502    0 -0.20361621460E+03 -0.94539895674E+02  0.19466434971E+02  0.22533596431E+03  0.00000000000E+00 0. -1.
          1    1    5    5  503    0  0.20950178377E+03  0.31282386212E+03  0.96142181652E+03  0.10325123125E+04  0.00000000000E+00 0. -1.
         -2    1    5    5    0  503  0.10010640256E+02 -0.41889481570E+01  0.24649371470E+02  0.26932354499E+02  0.00000000000E+00 0.  1.
         -3    1    6    6    0  502 -0.88891308723E+02 -0.82553576064E+02  0.57690064004E+02  0.13433131121E+03  0.00000000000E+00 0.  1.
<mgrwt>
<rscale>  0 0.13880003E+04</rscale>
<asrwt>0</asrwt>
<pdfrwt beam="1">  1        2 0.19703122E+00 0.13880003E+04</pdfrwt>
<pdfrwt beam="2">  1       -2 0.57857199E-01 0.13880003E+04</pdfrwt>
<totfact> 0.46216116E+01</totfact>
</mgrwt>
</event>
<event>
12    1  0.1495204E-007  0.1120192E+04  0.7818608E-02  0.9185732E-01
          2   -1    0    0  501    0  0.00000000000E+00  0.00000000000E+00  0.32478255355E+04  0.32478255355E+04  0.00000000000E+00 0.  1.
         -2   -1    0    0    0  501 -0.00000000000E+00 -0.00000000000E+00 -0.96590044070E+02  0.96590044070E+02  0.00000000000E+00 0. -1.
         23    2    1    2    0    0  0.11171483370E+03  0.10254299702E+03  0.25811390215E+03  0.31286306884E+03  0.90913382154E+02 0.  0.
        254    2    1    2    0    0 -0.11171483370E+03 -0.10254299702E+03  0.28931215893E+04  0.30315525107E+04  0.89283975306E+03 0.  0.
        -24    2    4    4    0    0  0.16922637523E+03 -0.16471524947E+03  0.19369376402E+03  0.31571934014E+03  0.79954662370E+02 0.  0.
         24    2    4    4    0    0 -0.28094120893E+03  0.62172252445E+02  0.26994278253E+04  0.27158331706E+04  0.77755224051E+02 0.  0.
         11    1    3    3    0    0  0.11894458331E+03  0.82909649941E+02  0.25255590793E+03  0.29121523068E+03  0.00000000000E+00 0. -1.
        -11    1    3    3    0    0 -0.72297496119E+01  0.19633347083E+02  0.55579942213E+01  0.21647838158E+02  0.00000000000E+00 0.  1.
          4    1    6    6  502    0 -0.21749553937E+03  0.69786046286E+02  0.23015226713E+04  0.23128296540E+04  0.00000000000E+00 0. -1.
          3    1    5    5  503    0  0.90721221406E+02 -0.62938341604E+02  0.45165848156E+02  0.11929597100E+03  0.00000000000E+00 0. -1.
         -4    1    5    5    0  503  0.78505153819E+02 -0.10177690787E+03  0.14852791587E+03  0.19642336913E+03  0.00000000000E+00 0.  1.
         -3    1    6    6    0  502 -0.63445669552E+02 -0.76137938408E+01  0.39790515397E+03  0.40300351661E+03  0.00000000000E+00 0.  1.
<mgrwt>
<rscale>  0 0.11201921E+04</rscale>
<asrwt>0</asrwt>
<pdfrwt beam="1">  1        2 0.49966538E+00 0.11201921E+04</pdfrwt>
<pdfrwt beam="2">  1       -2 0.14860009E-01 0.11201921E+04</pdfrwt>
<totfact> 0.43704446E+01</totfact>
</mgrwt>
</event>
<event>
12    1  0.1495204E-007  0.2147262E+04  0.7818608E-02  0.8540705E-01
         -2   -1    0    0    0  501 -0.00000000000E+00  0.00000000000E+00  0.79883751640E+03  0.79883751640E+03  0.00000000000E+00 0.  1.
          2   -1    0    0  501    0  0.00000000000E+00 -0.00000000000E+00 -0.14429515693E+04  0.14429515693E+04  0.00000000000E+00 0. -1.
         23    2    1    2    0    0  0.59401458527E+03  0.57045173845E+03  0.75638956460E+02  0.83149834180E+03  0.86021667426E+02 0.  0.
        254    2    1    2    0    0 -0.59401458527E+03 -0.57045173845E+03 -0.71975300934E+03  0.14102907439E+04  0.89028482767E+03 0.  0.
        -24    2    4    4    0    0  0.10220153806E+03 -0.36017998011E+03  0.17425783010E+01  0.38272818498E+03  0.79391778832E+02 0.  0.
         24    2    4    4    0    0 -0.69621612333E+03 -0.21027175834E+03 -0.72149558764E+03  0.10275625589E+04  0.79986415749E+02 0.  0.
         13    1    3    3    0    0  0.77575376239E+02  0.46069331924E+02  0.25699747431E+02  0.93812575706E+02  0.00000000000E+00 0.  1.
        -13    1    3    3    0    0  0.51643920903E+03  0.52438240653E+03  0.49939209028E+02  0.73768576609E+03  0.00000000000E+00 0. -1.
          4    1    6    6  502    0 -0.60720233250E+03 -0.17165147105E+03 -0.65767280525E+03  0.91142329292E+03  0.00000000000E+00 0. -1.
          1    1    5    5  503    0  0.42484378422E+01 -0.14840556475E+03  0.13659282316E+02  0.14909338304E+03  0.00000000000E+00 0. -1.
         -2    1    5    5    0  503  0.97953100220E+02 -0.21177441536E+03 -0.11916704016E+02  0.23363480194E+03  0.00000000000E+00 0.  1.
         -3    1    6    6    0  502 -0.89013790826E+02 -0.38620287288E+02 -0.63822782389E+02  0.11613926597E+03  0.00000000000E+00 0.  1.
<mgrwt>
<rscale>  0 0.21472623E+04</rscale>
<asrwt>0</asrwt>
<pdfrwt beam="1">  1        2 0.22199255E+00 0.21472623E+04</pdfrwt>
<pdfrwt beam="2">  1       -2 0.12289808E+00 0.21472623E+04</pdfrwt>
<totfact> 0.62821825E+00</totfact>
</mgrwt>
</event>
<event>
12    1  0.1495204E-007  0.1503353E+04  0.7818608E-02  0.8882226E-01
         -1   -1    0    0    0  501 -0.00000000000E+00  0.00000000000E+00  0.27761062900E+03  0.27761062900E+03  0.00000000000E+00 0.  1.
          1   -1    0    0  501    0  0.00000000000E+00 -0.00000000000E+00 -0.20352878182E+04  0.20352878182E+04  0.00000000000E+00 0. -1.
         23    2    1    2    0    0 -0.13043284034E+02  0.17622319629E+03  0.12514280829E+03  0.23515840974E+03  0.91727929428E+02 0.  0.
        254    2    1    2    0    0  0.13043284034E+02 -0.17622319629E+03 -0.18828199975E+04  0.20777400375E+04  0.86067867296E+03 0.  0.
        -24    2    4    4    0    0 -0.29500322877E+03  0.59077890909E+02 -0.14815657798E+04  0.15143799014E+04  0.88273571793E+02 0.  0.
         24    2    4    4    0    0  0.30804651281E+03 -0.23530108720E+03 -0.40125421765E+03  0.56336013609E+03  0.78169303811E+02 0.  0.
         11    1    3    3    0    0  0.17484331349E+02  0.18470315855E+02 -0.78099406703E+01  0.26605442748E+02  0.00000000000E+00 0. -1.
        -11    1    3    3    0    0 -0.30527615383E+02  0.15775288044E+03  0.13295274896E+03  0.20855296700E+03  0.00000000000E+00 0.  1.
          4    1    6    6  502    0  0.15368709740E+02 -0.34801361785E+02 -0.21604236858E+02  0.43750143673E+02  0.00000000000E+00 0. -1.
          3    1    5    5  503    0 -0.23019919617E+02  0.29181231308E+02 -0.25279821337E+03  0.25551594401E+03  0.00000000000E+00 0. -1.
         -4    1    5    5    0  503 -0.27198330916E+03  0.29896659601E+02 -0.12287675665E+04  0.12588639574E+04  0.00000000000E+00 0.  1.
         -3    1    6    6    0  502  0.29267780307E+03 -0.20049972541E+03 -0.37964998079E+03  0.51960999241E+03  0.00000000000E+00 0.  1.
<mgrwt>
<rscale>  0 0.15033530E+04</rscale>
<asrwt>0</asrwt>
<pdfrwt beam="1">  1        1 0.31312121E+00 0.15033530E+04</pdfrwt>
<pdfrwt beam="2">  1       -1 0.42709327E-01 0.15033530E+04</pdfrwt>
<totfact> 0.14731451E+01</totfact>
</mgrwt>
</event>
<event>
12    1  0.1495204E-007  0.2895773E+04  0.7818608E-02  0.8274136E-01
         -1   -1    0    0    0  501 -0.00000000000E+00  0.00000000000E+00  0.24681034486E+04  0.24681034486E+04  0.00000000000E+00 0.  1.
          1   -1    0    0  501    0  0.00000000000E+00 -0.00000000000E+00 -0.84938727841E+03  0.84938727841E+03  0.00000000000E+00 0. -1.
         23    2    1    2    0    0 -0.11863066206E+03 -0.12856607346E+04  0.53145769574E+03  0.13993060990E+04  0.92809039877E+02 0.  0.
        254    2    1    2    0    0  0.11863066206E+03  0.12856607346E+04  0.10872584744E+04  0.19181846279E+04  0.91121046858E+03 0.  0.
        -24    2    4    4    0    0  0.35387743716E+03  0.28088653268E+03  0.64700260567E+03  0.79325145832E+03  0.80678495286E+02 0.  0.
         24    2    4    4    0    0 -0.23524677510E+03  0.10047742020E+04  0.44025586873E+03  0.11249331696E+04  0.82080229067E+02 0.  0.
         13    1    3    3    0    0 -0.11835534126E+03 -0.12812125618E+04  0.53514822642E+03  0.13935197306E+04  0.00000000000E+00 0. -1.
        -13    1    3    3    0    0 -0.27532079621E+00 -0.44481728643E+01 -0.36905306796E+01  0.57863684699E+01  0.00000000000E+00 0.  1.
          2    1    6    6  502    0 -0.84807414601E+02  0.50258745307E+03  0.24495875564E+03  0.56550087313E+03  0.00000000000E+00 0. -1.
          1    1    5    5  503    0  0.19741107517E+03  0.10645365752E+03  0.30116256158E+03  0.37550286590E+03  0.00000000000E+00 0. -1.
         -2    1    5    5    0  503  0.15646636200E+03  0.17443287516E+03  0.34584004409E+03  0.41774859242E+03  0.00000000000E+00 0.  1.
         -3    1    6    6    0  502 -0.15043936050E+03  0.50218674889E+03  0.19529711310E+03  0.55943229647E+03  0.00000000000E+00 0.  1.
<mgrwt>
<rscale>  0 0.28957732E+04</rscale>
<asrwt>0</asrwt>
<pdfrwt beam="1">  1        1 0.13067497E+00 0.28957732E+04</pdfrwt>
<pdfrwt beam="2">  1       -1 0.37970822E+00 0.28957732E+04</pdfrwt>
<totfact> 0.16916000E-01</totfact>
</mgrwt>
</event>
<event>
12    1  0.1495204E-007  0.2105852E+04  0.7818608E-02  0.8558670E-01
          1   -1    0    0  501    0  0.00000000000E+00  0.00000000000E+00  0.26837902032E+04  0.26837902032E+04  0.00000000000E+00 0. -1.
         -1   -1    0    0    0  501 -0.00000000000E+00 -0.00000000000E+00 -0.41309224088E+03  0.41309224088E+03  0.00000000000E+00 0.  1.
         23    2    1    2    0    0 -0.15645078782E+03  0.57311690745E+03  0.19990923932E+02  0.60225320748E+03  0.96795920733E+02 0.  0.
        254    2    1    2    0    0  0.15645078782E+03 -0.57311690745E+03  0.22507070384E+04  0.24946292366E+04  0.89696879367E+03 0.  0.
        -24    2    4    4    0    0  0.19988227860E+03  0.17864398111E+03  0.94238170000E+03  0.98309732313E+03  0.80811391359E+02 0.  0.
         24    2    4    4    0    0 -0.43431490782E+02 -0.75176088856E+03  0.13083253384E+04  0.15115319135E+04  0.77348603108E+02 0.  0.
         13    1    3    3    0    0 -0.16151643258E+03  0.52951688059E+03  0.37784531379E+02  0.55489039966E+03  0.00000000000E+00 0.  1.
        -13    1    3    3    0    0  0.50656447600E+01  0.43600026861E+02 -0.17793607447E+02  0.47362807825E+02  0.00000000000E+00 0. -1.
          2    1    6    6  502    0  0.15155053105E+02 -0.39157846978E+03  0.69432124361E+03  0.79727370642E+03  0.00000000000E+00 0. -1.
          1    1    5    5  503    0  0.41360925318E+02  0.79573477109E+02  0.23809163518E+03  0.25442148326E+03  0.00000000000E+00 0. -1.
         -2    1    5    5    0  503  0.15852135328E+03  0.99070503997E+02  0.70429006482E+03  0.72867583987E+03  0.00000000000E+00 0.  1.
         -1    1    6    6    0  502 -0.58586543887E+02 -0.36018241877E+03  0.61400409483E+03  0.71425820708E+03  0.00000000000E+00 0.  1.
<mgrwt>
<rscale>  0 0.21058518E+04</rscale>
<asrwt>0</asrwt>
<pdfrwt beam="1">  1        1 0.41289079E+00 0.21058518E+04</pdfrwt>
<pdfrwt beam="2">  1       -1 0.63552654E-01 0.21058518E+04</pdfrwt>
<totfact> 0.23269495E+00</totfact>
</mgrwt>
</event>
<event>
12    1  0.1495204E-007  0.3396509E+04  0.7818608E-02  0.8138764E-01
         -2   -1    0    0    0  501 -0.00000000000E+00  0.00000000000E+00  0.17987396939E+04  0.17987396939E+04  0.00000000000E+00 0. -1.
          2   -1    0    0  501    0  0.00000000000E+00 -0.00000000000E+00 -0.16033826038E+04  0.16033826038E+04  0.00000000000E+00 0.  1.
         23    2    1    2    0    0  0.14231033072E+04  0.24658481950E+03  0.72120339989E+03  0.16169101418E+04  0.90757735289E+02 0.  0.
        254    2    1    2    0    0 -0.14231033072E+04 -0.24658481950E+03 -0.52584630979E+03  0.17852121559E+04  0.90798733689E+03 0.  0.
        -24    2    4    4    0    0 -0.56840889294E+03 -0.48925533667E+03 -0.92018795509E+01  0.75431482489E+03  0.80291509091E+02 0.  0.
         24    2    4    4    0    0 -0.85469441422E+03  0.24267051717E+03 -0.51664443023E+03  0.10308973310E+04  0.80226667354E+02 0.  0.
         13    1    3    3    0    0  0.90273959990E+03  0.18294687552E+03  0.42032213618E+03  0.10124618722E+04  0.00000000000E+00 0.  1.
        -13    1    3    3    0    0  0.52036370726E+03  0.63637943972E+02  0.30088126371E+03  0.60444826958E+03  0.00000000000E+00 0. -1.
          4    1    6    6  502    0 -0.17472637553E+03  0.40747728253E+02 -0.69497181032E+02  0.19240463049E+03  0.00000000000E+00 0. -1.
          1    1    5    5  503    0 -0.42914893368E+03 -0.36703459438E+03 -0.41555593992E+02  0.56622439734E+03  0.00000000000E+00 0. -1.
         -2    1    5    5    0  503 -0.13925995927E+03 -0.12222074229E+03  0.32353714441E+02  0.18809042756E+03  0.00000000000E+00 0.  1.
         -3    1    6    6    0  502 -0.67996803869E+03  0.20192278892E+03 -0.44714724920E+03  0.83849270050E+03  0.00000000000E+00 0.  1.
<mgrwt>
<rscale>  0 0.33965088E+04</rscale>
<asrwt>0</asrwt>
<pdfrwt beam="1">  1        2 0.24667425E+00 0.33965088E+04</pdfrwt>
<pdfrwt beam="2">  1       -2 0.27672918E+00 0.33965088E+04</pdfrwt>
<totfact> 0.40569049E-01</totfact>
</mgrwt>
</event>
<event>
12    1  0.1495204E-007  0.1669801E+04  0.7818608E-02  0.8778778E-01
         -2   -1    0    0    0  501 -0.00000000000E+00  0.00000000000E+00  0.46901007751E+03  0.46901007751E+03  0.00000000000E+00 0.  1.
          2   -1    0    0  501    0  0.00000000000E+00 -0.00000000000E+00 -0.14862349344E+04  0.14862349344E+04  0.00000000000E+00 0. -1.
         23    2    1    2    0    0  0.13809519546E+03  0.17383339214E+03 -0.99475995266E+03  0.10233517798E+04  0.91723337690E+02 0.  0.
        254    2    1    2    0    0 -0.13809519546E+03 -0.17383339214E+03 -0.22464904214E+02  0.93189323205E+03  0.90478284289E+03 0.  0.
        -24    2    4    4    0    0 -0.12873474908E+02 -0.37029113917E+03  0.32966002366E+03  0.50215789153E+03  0.78775394164E+02 0.  0.
         24    2    4    4    0    0 -0.12522172055E+03  0.19645774703E+03 -0.35212492788E+03  0.42973534051E+03  0.80027322758E+02 0.  0.
         11    1    3    3    0    0  0.65293562889E+02  0.12767234994E+03 -0.46452330257E+03  0.48615365568E+03  0.00000000000E+00 0. -1.
        -11    1    3    3    0    0  0.72801632572E+02  0.46161042200E+02 -0.53023665008E+03  0.53719812417E+03  0.00000000000E+00 0.  1.
          2    1    6    6  502    0 -0.10053477197E+03  0.14948811757E+03 -0.20278329711E+03  0.27124712580E+03  0.00000000000E+00 0. -1.
          3    1    5    5  503    0  0.20675737294E+02 -0.26456722783E+03  0.25790883299E+03  0.37005441531E+03  0.00000000000E+00 0. -1.
         -4    1    5    5    0  503 -0.33549212203E+02 -0.10572391134E+03  0.71751190671E+02  0.13210347622E+03  0.00000000000E+00 0.  1.
         -1    1    6    6    0  502 -0.24686948585E+02  0.46969629456E+02 -0.14934163077E+03  0.15848821471E+03  0.00000000000E+00 0.  1.
<mgrwt>
<rscale>  0 0.16698014E+04</rscale>
<asrwt>0</asrwt>
<pdfrwt beam="1">  1        2 0.22865152E+00 0.16698014E+04</pdfrwt>
<pdfrwt beam="2">  1       -2 0.72155398E-01 0.16698014E+04</pdfrwt>
<totfact> 0.21437709E+01</totfact>
</mgrwt>
</event>
<event>
12    1  0.1495204E-007  0.1294755E+04  0.7818608E-02  0.9033735E-01
         -1   -1    0    0    0  501 -0.00000000000E+00  0.00000000000E+00  0.22993812031E+03  0.22993812031E+03  0.00000000000E+00 0.  1.
          1   -1    0    0  501    0  0.00000000000E+00 -0.00000000000E+00 -0.18226551565E+04  0.18226551565E+04  0.00000000000E+00 0. -1.
         23    2    1    2    0    0 -0.16227834334E+01 -0.16825596474E+03 -0.84010289784E+03  0.86152548848E+03  0.90225191780E+02 0.  0.
        254    2    1    2    0    0  0.16227834334E+01  0.16825596474E+03 -0.75261413830E+03  0.11910677883E+04  0.90769032826E+03 0.  0.
        -24    2    4    4    0    0 -0.27307323959E+03 -0.23082155348E+03 -0.54827704076E+03  0.65968484642E+03  0.82029259647E+02 0.  0.
         24    2    4    4    0    0  0.27469602303E+03  0.39907751821E+03 -0.20433709755E+03  0.53138294187E+03  0.76768553897E+02 0.  0.
         11    1    3    3    0    0  0.12801877906E+02 -0.17460626191E+03 -0.76301920209E+03  0.78284707161E+03  0.00000000000E+00 0. -1.
        -11    1    3    3    0    0 -0.14424661340E+02  0.63502971704E+01 -0.77083695753E+02  0.78678416861E+02  0.00000000000E+00 0.  1.
          4    1    6    6  502    0  0.77039433247E+02  0.10682950369E+03 -0.93664612946E+02  0.16161892479E+03  0.00000000000E+00 0. -1.
          1    1    5    5  503    0 -0.21845271497E+03 -0.13660320291E+03 -0.37314230371E+03  0.45345033084E+03  0.00000000000E+00 0. -1.
         -2    1    5    5    0  503 -0.54620524625E+02 -0.94218350566E+02 -0.17513473704E+03  0.20623451557E+03  0.00000000000E+00 0.  1.
         -3    1    6    6    0  502  0.19765658978E+03  0.29224801452E+03 -0.11067248460E+03  0.36976401708E+03  0.00000000000E+00 0.  1.
<mgrwt>
<rscale>  0 0.12947554E+04</rscale>
<asrwt>0</asrwt>
<pdfrwt beam="1">  1        1 0.28040848E+00 0.12947554E+04</pdfrwt>
<pdfrwt beam="2">  1       -1 0.35375096E-01 0.12947554E+04</pdfrwt>
<totfact> 0.29438482E+01</totfact>
</mgrwt>
</event>
<event>
12    1  0.1495204E-007  0.1893961E+04  0.7818608E-02  0.8657868E-01
          1   -1    0    0  501    0  0.00000000000E+00  0.00000000000E+00  0.13387693824E+04  0.13387693824E+04  0.00000000000E+00 0. -1.
         -1   -1    0    0    0  501 -0.00000000000E+00 -0.00000000000E+00 -0.66984783407E+03  0.66984783407E+03  0.00000000000E+00 0.  1.
         23    2    1    2    0    0 -0.13145060363E+03  0.37457038265E+03  0.90806132282E+03  0.99535465114E+03  0.92592023342E+02 0.  0.
        254    2    1    2    0    0  0.13145060363E+03 -0.37457038265E+03 -0.23913977451E+03  0.10132625653E+04  0.90107211796E+03 0.  0.
        -24    2    4    4    0    0  0.38887551861E+03 -0.25817232598E+01  0.13643453972E+03  0.41986273051E+03  0.80246461408E+02 0.  0.
         24    2    4    4    0    0 -0.25742491498E+03 -0.37198865939E+03 -0.37557431423E+03  0.59339983481E+03  0.80150788355E+02 0.  0.
         13    1    3    3    0    0  0.11264207690E+02  0.39255543391E+02  0.12821403217E+03  0.13456120580E+03  0.00000000000E+00 0.  1.
        -13    1    3    3    0    0 -0.14271481132E+03  0.33531483926E+03  0.77984729065E+03  0.86079344534E+03  0.00000000000E+00 0. -1.
          4    1    6    6  502    0 -0.20934308042E+03 -0.31278478717E+03 -0.34708609300E+03  0.51198398838E+03  0.00000000000E+00 0. -1.
          3    1    5    5  503    0  0.33386557511E+03  0.14784114174E+02  0.13939909688E+03  0.36210067728E+03  0.00000000000E+00 0. -1.
         -4    1    5    5    0  503  0.55009943505E+02 -0.17365837434E+02 -0.29645571576E+01  0.57762053230E+02  0.00000000000E+00 0.  1.
         -3    1    6    6    0  502 -0.48081834559E+02 -0.59203872225E+02 -0.28488221229E+02  0.81415846429E+02  0.00000000000E+00 0.  1.
<mgrwt>
<rscale>  0 0.18939607E+04</rscale>
<asrwt>0</asrwt>
<pdfrwt beam="1">  1        1 0.20596452E+00 0.18939607E+04</pdfrwt>
<pdfrwt beam="2">  1       -1 0.10305351E+00 0.18939607E+04</pdfrwt>
<totfact> 0.70655441E+00</totfact>
</mgrwt>
</event>
<event>
12    1  0.1495204E-007  0.2312716E+04  0.7818608E-02  0.8472924E-01
         -1   -1    0    0    0  501 -0.00000000000E+00  0.00000000000E+00  0.57825487450E+03  0.57825487450E+03  0.00000000000E+00 0.  1.
          1   -1    0    0  501    0  0.00000000000E+00 -0.00000000000E+00 -0.23124118187E+04  0.23124118187E+04  0.00000000000E+00 0. -1.
         23    2    1    2    0    0  0.24741876609E+03  0.17163851859E+03  0.42446162736E+03  0.52833925479E+03  0.91098123898E+02 0.  0.
        254    2    1    2    0    0 -0.24741876609E+03 -0.17163851859E+03 -0.21586185715E+04  0.23623274384E+04  0.91119754273E+03 0.  0.
        -24    2    4    4    0    0 -0.26948047734E+03  0.99761796124E+02 -0.20273903914E+04  0.20492076847E+04  0.79800954398E+02 0.  0.
         24    2    4    4    0    0  0.22061711246E+02 -0.27140031472E+03 -0.13122818017E+03  0.31311975370E+03  0.81720835494E+02 0.  0.
         13    1    3    3    0    0  0.93177050643E+01  0.38279905260E+01  0.64486036041E+02  0.65268077828E+02  0.00000000000E+00 0. -1.
        -13    1    3    3    0    0  0.23810106103E+03  0.16781052806E+03  0.35997559132E+03  0.46307117697E+03  0.00000000000E+00 0.  1.
          2    1    6    6  502    0  0.51806929954E+02 -0.15547660943E+03 -0.86896900402E+02  0.18549394968E+03  0.00000000000E+00 0. -1.
          1    1    5    5  503    0 -0.20098758985E+03  0.88953484973E+02 -0.12926718200E+04  0.13112243012E+04  0.00000000000E+00 0. -1.
         -4    1    5    5    0  503 -0.68492887487E+02  0.10808311151E+02 -0.73471857133E+03  0.73798338348E+03  0.00000000000E+00 0.  1.
         -1    1    6    6    0  502 -0.29745218708E+02 -0.11592370529E+03 -0.44331279764E+02  0.12762580401E+03  0.00000000000E+00 0.  1.
<mgrwt>
<rscale>  0 0.23127156E+04</rscale>
<asrwt>0</asrwt>
<pdfrwt beam="1">  1        1 0.35575567E+00 0.23127156E+04</pdfrwt>
<pdfrwt beam="2">  1       -1 0.88962288E-01 0.23127156E+04</pdfrwt>
<totfact> 0.20416463E+00</totfact>
</mgrwt>
</event>
<event>
12    1  0.1495204E-007  0.1627262E+04  0.7818608E-02  0.8803973E-01
          1   -1    0    0  501    0  0.00000000000E+00  0.00000000000E+00  0.88725304875E+03  0.88725304875E+03  0.00000000000E+00 0. -1.
         -1   -1    0    0    0  501 -0.00000000000E+00 -0.00000000000E+00 -0.74611781745E+03  0.74611781745E+03  0.00000000000E+00 0.  1.
         23    2    1    2    0    0 -0.53023212107E+03  0.33510493144E+02  0.14323901782E+03  0.55762185140E+03  0.90308679383E+02 0.  0.
        254    2    1    2    0    0  0.53023212107E+03 -0.33510493144E+02 -0.21037865119E+01  0.10757490148E+04  0.93539428133E+03 0.  0.
        -24    2    4    4    0    0 -0.22952310549E+03 -0.16092751645E+03 -0.65044876781E+02  0.29867223850E+03  0.79973424035E+02 0.  0.
         24    2    4    4    0    0  0.75975522656E+03  0.12741702331E+03  0.62941090269E+02  0.77707677629E+03  0.80147572012E+02 0.  0.
         13    1    3    3    0    0 -0.32167175967E+03  0.48097776983E+02  0.12239703246E+03  0.34751568408E+03  0.00000000000E+00 0.  1.
        -13    1    3    3    0    0 -0.20856036140E+03 -0.14587283839E+02  0.20841985351E+02  0.21010616733E+03  0.00000000000E+00 0. -1.
          2    1    6    6  502    0  0.59788864707E+03  0.13150488143E+03  0.60231442301E+02  0.61513591569E+03  0.00000000000E+00 0. -1.
          1    1    5    5  503    0 -0.21354213922E+03 -0.13684557017E+03 -0.33403608125E+02  0.25581781864E+03  0.00000000000E+00 0. -1.
         -2    1    5    5    0  503 -0.15980966268E+02 -0.24081946279E+02 -0.31641268656E+02  0.42854419861E+02  0.00000000000E+00 0.  1.
         -1    1    6    6    0  502  0.16186657949E+03 -0.40878581268E+01  0.27096479677E+01  0.16194086060E+03  0.00000000000E+00 0.  1.
<mgrwt>
<rscale>  0 0.16272619E+04</rscale>
<asrwt>0</asrwt>
<pdfrwt beam="1">  1        1 0.13650047E+00 0.16272619E+04</pdfrwt>
<pdfrwt beam="2">  1       -1 0.11478736E+00 0.16272619E+04</pdfrwt>
<totfact> 0.12308488E+01</totfact>
</mgrwt>
</event>
<event>
12    1  0.1495204E-007  0.2511981E+04  0.7818608E-02  0.8398730E-01
          1   -1    0    0  501    0  0.00000000000E+00  0.00000000000E+00  0.13381952840E+04  0.13381952840E+04  0.00000000000E+00 0. -1.
         -1   -1    0    0    0  501 -0.00000000000E+00 -0.00000000000E+00 -0.11788356209E+04  0.11788356209E+04  0.00000000000E+00 0.  1.
         23    2    1    2    0    0  0.31673330500E+03  0.10163255953E+04 -0.16226238266E+03  0.10805780516E+04  0.89900738407E+02 0.  0.
        254    2    1    2    0    0 -0.31673330500E+03 -0.10163255953E+04  0.32162204572E+03  0.14364528533E+04  0.90924053872E+03 0.  0.
        -24    2    4    4    0    0 -0.89688315529E+02 -0.91396596915E+03 -0.11370828529E+03  0.92872363425E+03  0.78868421844E+02 0.  0.
         24    2    4    4    0    0 -0.22704498947E+03 -0.10235962611E+03  0.43533033100E+03  0.50772921900E+03  0.79054047583E+02 0.  0.
         13    1    3    3    0    0  0.13439526155E+03  0.47717154439E+03 -0.32372591152E+02  0.49679246548E+03  0.00000000000E+00 0. -1.
        -13    1    3    3    0    0  0.18233804344E+03  0.53915405088E+03 -0.12988979150E+03  0.58378558615E+03  0.00000000000E+00 0.  1.
          2    1    6    6  502    0 -0.21616668089E+03 -0.10371550490E+03  0.43507386882E+03  0.49676373783E+03  0.00000000000E+00 0. -1.
          1    1    5    5  503    0 -0.39538157363E+02 -0.59939017944E+03 -0.10671733100E+03  0.61009871482E+03  0.00000000000E+00 0. -1.
         -2    1    5    5    0  503 -0.50150158166E+02 -0.31457578972E+03 -0.69909542877E+01  0.31862491943E+03  0.00000000000E+00 0.  1.
         -1    1    6    6    0  502 -0.10878308571E+02  0.13558787870E+01  0.25646218189E+00  0.10965481180E+02  0.00000000000E+00 0.  1.
<mgrwt>
<rscale>  0 0.25119811E+04</rscale>
<asrwt>0</asrwt>
<pdfrwt beam="1">  1        1 0.20587620E+00 0.25119811E+04</pdfrwt>
<pdfrwt beam="2">  1       -1 0.18135933E+00 0.25119811E+04</pdfrwt>
<totfact> 0.15343503E+00</totfact>
</mgrwt>
</event>
<event>
12    1  0.1495204E-007  0.1825074E+04  0.7818608E-02  0.8693078E-01
          2   -1    0    0  501    0  0.00000000000E+00  0.00000000000E+00  0.15981981496E+04  0.15981981496E+04  0.00000000000E+00 0. -1.
         -2   -1    0    0    0  501 -0.00000000000E+00 -0.00000000000E+00 -0.52103935229E+03  0.52103935229E+03  0.00000000000E+00 0.  1.
         23    2    1    2    0    0  0.48044822884E+03 -0.44974815821E+03  0.18696263825E+03  0.69022856923E+03  0.91414130588E+02 0.  0.
        254    2    1    2    0    0 -0.48044822884E+03  0.44974815821E+03  0.89019615904E+03  0.14290089326E+04  0.90361132217E+03 0.  0.
        -24    2    4    4    0    0  0.61526428440E+02  0.52426755922E+03  0.60512118184E+03  0.80692310705E+03  0.79443570809E+02 0.  0.
         24    2    4    4    0    0 -0.54197465728E+03 -0.74519401002E+02  0.28507497720E+03  0.62208582558E+03  0.80208238358E+02 0.  0.
         13    1    3    3    0    0  0.32751674326E+03 -0.30669674942E+03  0.82532277969E+02  0.45622548167E+03  0.00000000000E+00 0.  1.
        -13    1    3    3    0    0  0.15293148558E+03 -0.14305140880E+03  0.10443036028E+03  0.23400308756E+03  0.00000000000E+00 0. -1.
          4    1    6    6  502    0 -0.49842717092E+03 -0.71532503458E+02  0.28467449025E+03  0.57843418741E+03  0.00000000000E+00 0. -1.
          1    1    5    5  503    0  0.35881515513E+02  0.48769639089E+03  0.54944085485E+03  0.73554096135E+03  0.00000000000E+00 0. -1.
         -2    1    5    5    0  503  0.25644912927E+02  0.36571168324E+02  0.55680326992E+02  0.71382145706E+02  0.00000000000E+00 0.  1.
         -3    1    6    6    0  502 -0.43547486357E+02 -0.29868975438E+01  0.40048694874E+00  0.43651638168E+02  0.00000000000E+00 0.  1.
<mgrwt>
<rscale>  0 0.18250744E+04</rscale>
<asrwt>0</asrwt>
<pdfrwt beam="1">  1        2 0.24587664E+00 0.18250744E+04</pdfrwt>
<pdfrwt beam="2">  1       -2 0.80159901E-01 0.18250744E+04</pdfrwt>
<totfact> 0.14491806E+01</totfact>
</mgrwt>
</event>
<event>
12    1  0.1495204E-007  0.1388587E+04  0.7818608E-02  0.8962122E-01
          2   -1    0    0  501    0  0.00000000000E+00  0.00000000000E+00  0.13819233224E+04  0.13819233224E+04  0.00000000000E+00 0. -1.
         -2   -1    0    0    0  501 -0.00000000000E+00 -0.00000000000E+00 -0.34882061287E+03  0.34882061287E+03  0.00000000000E+00 0.  1.
         23    2    1    2    0    0  0.34996912729E+03  0.65900282526E+02  0.53122680657E+03  0.64604180002E+03  0.91361097091E+02 0.  0.
        254    2    1    2    0    0 -0.34996912729E+03 -0.65900282526E+02  0.50187590295E+03  0.10847021352E+04  0.89324020451E+03 0.  0.
        -24    2    4    4    0    0 -0.18608116058E+03 -0.44771023726E+03  0.43529315676E+03  0.65641650028E+03  0.79572826064E+02 0.  0.
         24    2    4    4    0    0 -0.16388796670E+03  0.38180995473E+03  0.66582746192E+02  0.42828563496E+03  0.79732150743E+02 0.  0.
         13    1    3    3    0    0  0.14384352713E+03  0.70848058394E+02  0.20757107446E+03  0.26229021832E+03  0.00000000000E+00 0.  1.
        -13    1    3    3    0    0  0.20612560015E+03 -0.49477758675E+01  0.32365573212E+03  0.38375158170E+03  0.00000000000E+00 0. -1.
          4    1    6    6  502    0 -0.85895570941E+02  0.28497547242E+03  0.32801607673E+02  0.29944117028E+03  0.00000000000E+00 0. -1.
          3    1    5    5  503    0 -0.13796291817E+03 -0.27211470222E+03  0.23038021508E+03  0.38230252609E+03  0.00000000000E+00 0. -1.
         -4    1    5    5    0  503 -0.48118242410E+02 -0.17559553504E+03  0.20491294168E+03  0.27411397419E+03  0.00000000000E+00 0.  1.
         -3    1    6    6    0  502 -0.77992395764E+02  0.96834482310E+02  0.33781138519E+02  0.12884446469E+03  0.00000000000E+00 0.  1.
<mgrwt>
<rscale>  0 0.13885868E+04</rscale>
<asrwt>0</asrwt>
<pdfrwt beam="1">  1        2 0.21260359E+00 0.13885868E+04</pdfrwt>
<pdfrwt beam="2">  1       -2 0.53664710E-01 0.13885868E+04</pdfrwt>
<totfact> 0.47224831E+01</totfact>
</mgrwt>
</event>
<event>
12    1  0.1495204E-007  0.1220771E+04  0.7818608E-02  0.9094868E-01
          4   -1    0    0  501    0  0.00000000000E+00  0.00000000000E+00  0.13884793422E+04  0.13884793422E+04  0.00000000000E+00 0. -1.
         -4   -1    0    0    0  501 -0.00000000000E+00 -0.00000000000E+00 -0.26832983113E+03  0.26832983113E+03  0.00000000000E+00 0.  1.
         23    2    1    2    0    0 -0.48767637320E+02  0.26944093084E+03  0.26138075705E+03  0.38960712150E+03  0.92179777118E+02 0.  0.
        254    2    1    2    0    0  0.48767637320E+02 -0.26944093084E+03  0.85876875403E+03  0.12672020518E+04  0.89069667654E+03 0.  0.
        -24    2    4    4    0    0  0.26278233758E+03  0.15775573099E+03  0.45865448050E+02  0.32086072927E+03  0.83105599439E+02 0.  0.
         24    2    4    4    0    0 -0.21401470026E+03 -0.42719666183E+03  0.81290330598E+03  0.94634132256E+03  0.80317084790E+02 0.  0.
         13    1    3    3    0    0 -0.46763844641E+02  0.22094981110E+03  0.25503912449E+03  0.34066204839E+03  0.00000000000E+00 0. -1.
        -13    1    3    3    0    0 -0.20037926792E+01  0.48491119741E+02  0.63416325571E+01  0.48945073116E+02  0.00000000000E+00 0.  1.
          2    1    6    6  502    0 -0.52284700842E+02 -0.19225342155E+03  0.34074649542E+03  0.39471919409E+03  0.00000000000E+00 0. -1.
          3    1    5    5  503    0  0.21705160374E+03  0.16310813196E+03  0.38061359031E+02  0.27416113592E+03  0.00000000000E+00 0. -1.
         -4    1    5    5    0  503  0.45730733840E+02 -0.53524009674E+01  0.78040890194E+01  0.46699593350E+02  0.00000000000E+00 0.  1.
         -1    1    6    6    0  502 -0.16172999941E+03 -0.23494324028E+03  0.47215681056E+03  0.55162212847E+03  0.00000000000E+00 0.  1.
<mgrwt>
<rscale>  0 0.12207709E+04</rscale>
<asrwt>0</asrwt>
<pdfrwt beam="1">  1        4 0.21361220E+00 0.12207709E+04</pdfrwt>
<pdfrwt beam="2">  1       -4 0.41281513E-01 0.12207709E+04</pdfrwt>
<totfact> 0.12093929E+00</totfact>
</mgrwt>
</event>
<event>
12    1  0.1495204E-007  0.2025858E+04  0.7818608E-02  0.8594626E-01
         -2   -1    0    0    0  501 -0.00000000000E+00  0.00000000000E+00  0.56560077593E+03  0.56560077593E+03  0.00000000000E+00 0. -1.
          2   -1    0    0  501    0  0.00000000000E+00 -0.00000000000E+00 -0.18140441854E+04  0.18140441854E+04  0.00000000000E+00 0.  1.
         23    2    1    2    0    0 -0.24050967799E+03  0.12257515527E+03  0.39734870669E+03  0.48833350973E+03  0.87829653948E+02 0.  0.
        254    2    1    2    0    0  0.24050967799E+03 -0.12257515527E+03 -0.16457921162E+04  0.18913114516E+04  0.89194043714E+03 0.  0.
        -24    2    4    4    0    0  0.44897983934E+03  0.14739620114E+03 -0.49791630754E+03  0.69116274351E+03  0.80478273207E+02 0.  0.
         24    2    4    4    0    0 -0.20847016135E+03 -0.26997135641E+03 -0.11478758086E+04  0.12001487081E+04  0.79960665610E+02 0.  0.
         13    1    3    3    0    0  0.74842807537E+01  0.26759544467E+01  0.70767295938E+01  0.10642146980E+02  0.00000000000E+00 0.  1.
        -13    1    3    3    0    0 -0.24799395875E+03  0.11989920082E+03  0.39027197710E+03  0.47769136275E+03  0.00000000000E+00 0. -1.
          2    1    6    6  502    0 -0.13288421960E+03 -0.21179150654E+03 -0.91371194851E+03  0.94730321593E+03  0.00000000000E+00 0. -1.
          3    1    5    5  503    0  0.32021994817E+03  0.14079241483E+03 -0.34785904773E+03  0.49332467642E+03  0.00000000000E+00 0. -1.
         -4    1    5    5    0  503  0.12875989117E+03  0.66037863124E+01 -0.15005725981E+03  0.19783806709E+03  0.00000000000E+00 0.  1.
         -1    1    6    6    0  502 -0.75585941747E+02 -0.58179849864E+02 -0.23416386011E+03  0.25284549216E+03  0.00000000000E+00 0.  1.
<mgrwt>
<rscale>  0 0.20258576E+04</rscale>
<asrwt>0</asrwt>
<pdfrwt beam="1">  1        2 0.27908372E+00 0.20258576E+04</pdfrwt>
<pdfrwt beam="2">  1       -2 0.87015503E-01 0.20258576E+04</pdfrwt>
<totfact> 0.89734221E+00</totfact>
</mgrwt>
</event>
<event>
12    1  0.1495204E-007  0.1497343E+04  0.7818608E-02  0.8886222E-01
         -2   -1    0    0    0  501 -0.00000000000E+00  0.00000000000E+00  0.31417467401E+03  0.31417467401E+03  0.00000000000E+00 0. -1.
          2   -1    0    0  501    0  0.00000000000E+00 -0.00000000000E+00 -0.17840670416E+04  0.17840670416E+04  0.00000000000E+00 0.  1.
         23    2    1    2    0    0  0.12369143379E+03  0.42865881785E+03 -0.24276768954E+03  0.51696902671E+03  0.96295745390E+02 0.  0.
        254    2    1    2    0    0 -0.12369143379E+03 -0.42865881785E+03 -0.12271246781E+04  0.15812726889E+04  0.89193070823E+03 0.  0.
        -24    2    4    4    0    0 -0.12771445940E+03 -0.94732731312E+02 -0.12230456430E+04  0.12357371887E+04  0.76944664284E+02 0.  0.
         24    2    4    4    0    0  0.40230256101E+01 -0.33392608654E+03 -0.40790351104E+01  0.34553550018E+03  0.88630284597E+02 0.  0.
         11    1    3    3    0    0  0.78202690705E+02  0.27764250554E+03 -0.10316040324E+03  0.30633819630E+03  0.00000000000E+00 0. -1.
        -11    1    3    3    0    0  0.45488743082E+02  0.15101631232E+03 -0.13960728631E+03  0.21063083042E+03  0.00000000000E+00 0.  1.
          2    1    6    6  502    0  0.78337831724E+01 -0.30112966345E+03  0.24009683067E+02  0.30218687471E+03  0.00000000000E+00 0. -1.
          1    1    5    5  503    0 -0.42994998507E+02 -0.74290082265E+02 -0.73227849195E+03  0.73729192047E+03  0.00000000000E+00 0. -1.
         -2    1    5    5    0  503 -0.84719460890E+02 -0.20442649047E+02 -0.49076715102E+03  0.49844526828E+03  0.00000000000E+00 0.  1.
         -1    1    6    6    0  502 -0.38107575623E+01 -0.32796423093E+02 -0.28088718178E+02  0.43348625466E+02  0.00000000000E+00 0.  1.
<mgrwt>
<rscale>  0 0.14973426E+04</rscale>
<asrwt>0</asrwt>
<pdfrwt beam="1">  1        2 0.27447186E+00 0.14973426E+04</pdfrwt>
<pdfrwt beam="2">  1       -2 0.48334564E-01 0.14973426E+04</pdfrwt>
<totfact> 0.34504080E+01</totfact>
</mgrwt>
</event>
<event>
12    1  0.1495204E-007  0.2430426E+04  0.7818608E-02  0.8428200E-01
         -1   -1    0    0    0  501 -0.00000000000E+00  0.00000000000E+00  0.12487373126E+04  0.12487373126E+04  0.00000000000E+00 0.  1.
          1   -1    0    0  501    0  0.00000000000E+00 -0.00000000000E+00 -0.11825885074E+04  0.11825885074E+04  0.00000000000E+00 0. -1.
         23    2    1    2    0    0  0.92131696062E+03 -0.49993500927E+03  0.33328104975E+01  0.10522734457E+04  0.92240671192E+02 0.  0.
        254    2    1    2    0    0 -0.92131696062E+03  0.49993500927E+03  0.62815994678E+02  0.13790523744E+04  0.89391254976E+03 0.  0.
        -24    2    4    4    0    0 -0.56628100875E+03 -0.16751350072E+03 -0.91812098941E+02  0.60314274923E+03  0.81343473257E+02 0.  0.
         24    2    4    4    0    0 -0.35503595187E+03  0.66744850999E+03  0.15462809362E+03  0.77590962513E+03  0.81165623376E+02 0.  0.
         11    1    3    3    0    0  0.69432543339E+03 -0.34432677878E+03  0.31311434842E+02  0.77564756429E+03  0.00000000000E+00 0.  1.
        -11    1    3    3    0    0  0.22699152723E+03 -0.15560823049E+03 -0.27978624344E+02  0.27662588139E+03  0.00000000000E+00 0. -1.
          4    1    6    6  502    0 -0.24495587926E+02  0.10130809930E+03  0.31438529337E+02  0.10886572435E+03  0.00000000000E+00 0. -1.
          1    1    5    5  503    0 -0.64574694271E+02 -0.20536060759E+02 -0.37738264114E+02  0.77561572380E+02  0.00000000000E+00 0. -1.
         -2    1    5    5    0  503 -0.50170631448E+03 -0.14697743996E+03 -0.54073834827E+02  0.52558117685E+03  0.00000000000E+00 0.  1.
         -3    1    6    6    0  502 -0.33054036394E+03  0.56614041069E+03  0.12318956428E+03  0.66704390078E+03  0.00000000000E+00 0.  1.
<mgrwt>
<rscale>  0 0.24304258E+04</rscale>
<asrwt>0</asrwt>
<pdfrwt beam="1">  1        1 0.18193669E+00 0.24304258E+04</pdfrwt>
<pdfrwt beam="2">  1       -1 0.19211343E+00 0.24304258E+04</pdfrwt>
<totfact> 0.16797054E+00</totfact>
</mgrwt>
</event>
<event>
12    1  0.1495204E-007  0.2344550E+04  0.7818608E-02  0.8460560E-01
          2   -1    0    0  501    0  0.00000000000E+00  0.00000000000E+00  0.12273690638E+04  0.12273690638E+04  0.00000000000E+00 0.  1.
         -2   -1    0    0    0  501 -0.00000000000E+00 -0.00000000000E+00 -0.11196544213E+04  0.11196544213E+04  0.00000000000E+00 0. -1.
         23    2    1    2    0    0  0.47577320752E+03 -0.31363317635E+03  0.86329544284E+03  0.10379525630E+04  0.85677226821E+02 0.  0.
        254    2    1    2    0    0 -0.47577320752E+03  0.31363317635E+03 -0.75558080029E+03  0.13090709221E+04  0.90445476335E+03 0.  0.
        -24    2    4    4    0    0 -0.54376879755E+03  0.39444759035E+03 -0.15532045387E+03  0.69415213718E+03  0.80307779445E+02 0.  0.
         24    2    4    4    0    0  0.67995590030E+02 -0.80814413996E+02 -0.60026034642E+03  0.61491878489E+03  0.81598154102E+02 0.  0.
         11    1    3    3    0    0  0.23891676864E+03 -0.15322998999E+03  0.50689126247E+03  0.58094698909E+03  0.00000000000E+00 0. -1.
        -11    1    3    3    0    0  0.23685643888E+03 -0.16040318637E+03  0.35640418038E+03  0.45700557396E+03  0.00000000000E+00 0.  1.
          2    1    6    6  502    0  0.66738692160E+02 -0.37392590936E+02 -0.49759791533E+03  0.50344408252E+03  0.00000000000E+00 0. -1.
          1    1    5    5  503    0 -0.26025645860E+03  0.14932568392E+03 -0.93643769900E+02  0.31432584966E+03  0.00000000000E+00 0. -1.
         -2    1    5    5    0  503 -0.28351233895E+03  0.24512190643E+03 -0.61676683973E+02  0.37982628752E+03  0.00000000000E+00 0.  1.
         -1    1    6    6    0  502  0.12568978699E+01 -0.43421823060E+02 -0.10266243109E+03  0.11147470237E+03  0.00000000000E+00 0.  1.
<mgrwt>
<rscale>  0 0.23445504E+04</rscale>
<asrwt>0</asrwt>
<pdfrwt beam="1">  1        2 0.18882601E+00 0.23445504E+04</pdfrwt>
<pdfrwt beam="2">  1       -2 0.17225452E+00 0.23445504E+04</pdfrwt>
<totfact> 0.33853096E+00</totfact>
</mgrwt>
</event>
<event>
12    1  0.1495204E-007  0.1668606E+04  0.7818608E-02  0.8779475E-01
          4   -1    0    0  501    0  0.00000000000E+00  0.00000000000E+00  0.38186361500E+03  0.38186361500E+03  0.00000000000E+00 0. -1.
         -4   -1    0    0    0  501 -0.00000000000E+00 -0.00000000000E+00 -0.18228016798E+04  0.18228016798E+04  0.00000000000E+00 0.  1.
         23    2    1    2    0    0  0.24495984762E+02  0.41080014106E+03 -0.10376739649E+04  0.11200713229E+04  0.91846076679E+02 0.  0.
        254    2    1    2    0    0 -0.24495984762E+02 -0.41080014106E+03 -0.40326409988E+03  0.10845939719E+04  0.91889354141E+03 0.  0.
        -24    2    4    4    0    0  0.36760024179E+02 -0.56546145270E+03 -0.58972381944E+03  0.82200859423E+03  0.82619561285E+02 0.  0.
         24    2    4    4    0    0 -0.61256008941E+02  0.15466131164E+03  0.18645971956E+03  0.26258537766E+03  0.80693454447E+02 0.  0.
         11    1    3    3    0    0  0.16777133323E+02  0.67472525053E+02 -0.27490286451E+03  0.28355881005E+03  0.00000000000E+00 0. -1.
        -11    1    3    3    0    0  0.77188514384E+01  0.34332761600E+03 -0.76277110043E+03  0.83651251289E+03  0.00000000000E+00 0.  1.
          4    1    6    6  502    0 -0.67522430275E+02  0.16007571122E+03  0.18565288349E+03  0.25426463589E+03  0.00000000000E+00 0. -1.
          1    1    5    5  503    0  0.58855476160E+02 -0.48726442363E+03 -0.51847216378E+03  0.71393555047E+03  0.00000000000E+00 0. -1.
         -2    1    5    5    0  503 -0.22095451981E+02 -0.78197029067E+02 -0.71251655667E+02  0.10807304376E+03  0.00000000000E+00 0.  1.
         -1    1    6    6    0  502  0.62664213339E+01 -0.54143995841E+01  0.80683607388E+00  0.83207417723E+01  0.00000000000E+00 0.  1.
<mgrwt>
<rscale>  0 0.16686062E+04</rscale>
<asrwt>0</asrwt>
<pdfrwt beam="1">  1        4 0.58748247E-01 0.16686062E+04</pdfrwt>
<pdfrwt beam="2">  1       -4 0.28043103E+00 0.16686062E+04</pdfrwt>
<totfact> 0.21471648E-01</totfact>
</mgrwt>
</event>
<event>
12    1  0.1495204E-007  0.1527799E+04  0.7818608E-02  0.8866175E-01
         -2   -1    0    0    0  501 -0.00000000000E+00  0.00000000000E+00  0.24838046891E+03  0.24838046891E+03  0.00000000000E+00 0.  1.
          2   -1    0    0  501    0  0.00000000000E+00 -0.00000000000E+00 -0.23493885973E+04  0.23493885973E+04  0.00000000000E+00 0. -1.
         23    2    1    2    0    0  0.20238041881E+03  0.11582971074E+03 -0.14337775440E+04  0.14554758406E+04  0.91200445565E+02 0.  0.
        254    2    1    2    0    0 -0.20238041881E+03 -0.11582971074E+03 -0.66723058446E+03  0.11422932256E+04  0.89736436558E+03 0.  0.
        -24    2    4    4    0    0  0.21528189326E+03 -0.24978095781E+03 -0.60259888769E+03  0.69166705571E+03  0.80876919200E+02 0.  0.
         24    2    4    4    0    0 -0.41766231208E+03  0.13395124707E+03 -0.64631696778E+02  0.45062616990E+03  0.80634640494E+02 0.  0.
         11    1    3    3    0    0  0.50250210131E+01  0.14694853663E+02 -0.25589243038E+02  0.29933241048E+02  0.00000000000E+00 0.  1.
        -11    1    3    3    0    0  0.19735539780E+03  0.10113485708E+03 -0.14081883009E+04  0.14255425996E+04  0.00000000000E+00 0. -1.
          2    1    6    6  502    0 -0.19611540216E+03  0.20877737473E+02 -0.30042953151E+02  0.19949864641E+03  0.00000000000E+00 0. -1.
          3    1    5    5  503    0  0.12432000386E+02  0.10428458623E+01 -0.52488302539E+02  0.53950570567E+02  0.00000000000E+00 0. -1.
         -4    1    5    5    0  503  0.20284989288E+03 -0.25082380368E+03 -0.55011058515E+03  0.63771648514E+03  0.00000000000E+00 0.  1.
         -1    1    6    6    0  502 -0.22154690992E+03  0.11307350960E+03 -0.34588743627E+02  0.25112752349E+03  0.00000000000E+00 0.  1.
<mgrwt>
<rscale>  0 0.15277987E+04</rscale>
<asrwt>0</asrwt>
<pdfrwt beam="1">  1        2 0.36144439E+00 0.15277987E+04</pdfrwt>
<pdfrwt beam="2">  1       -2 0.38212381E-01 0.15277987E+04</pdfrwt>
<totfact> 0.26539716E+01</totfact>
</mgrwt>
</event>
<event>
12    1  0.1495204E-007  0.1505736E+04  0.7818608E-02  0.8880647E-01
         -1   -1    0    0    0  501 -0.00000000000E+00  0.00000000000E+00  0.18404190059E+03  0.18404190059E+03  0.00000000000E+00 0.  1.
          1   -1    0    0  501    0  0.00000000000E+00 -0.00000000000E+00 -0.30797898854E+04  0.30797898854E+04  0.00000000000E+00 0. -1.
         23    2    1    2    0    0 -0.39577198852E+03 -0.19638668917E+03 -0.52868817423E+03  0.69509771856E+03  0.91904592869E+02 0.  0.
        254    2    1    2    0    0  0.39577198852E+03  0.19638668917E+03 -0.23670598106E+04  0.25687340675E+04  0.89454981070E+03 0.  0.
        -24    2    4    4    0    0 -0.80926769418E+02  0.39901643027E+03 -0.63122111473E+03  0.75551592945E+03  0.81246355833E+02 0.  0.
         24    2    4    4    0    0  0.47669875794E+03 -0.20262974110E+03 -0.17358386959E+04  0.18132181380E+04  0.79520564403E+02 0.  0.
         11    1    3    3    0    0 -0.31144303921E+03 -0.17489550766E+03 -0.37107226579E+03  0.51505323192E+03  0.00000000000E+00 0.  1.
        -11    1    3    3    0    0 -0.84328949308E+02 -0.21491181509E+02 -0.15761590844E+03  0.18004448664E+03  0.00000000000E+00 0. -1.
          2    1    6    6  502    0  0.16378027061E+03 -0.72589326034E+02 -0.47575952467E+03  0.50837025150E+03  0.00000000000E+00 0. -1.
          1    1    5    5  503    0 -0.84943733350E+01  0.44933859716E+02 -0.32264443652E+02  0.55966065178E+02  0.00000000000E+00 0. -1.
         -2    1    5    5    0  503 -0.72432396083E+02  0.35408257055E+03 -0.59895667108E+03  0.69954986427E+03  0.00000000000E+00 0.  1.
         -1    1    6    6    0  502  0.31291848733E+03 -0.13004041506E+03 -0.12600791712E+04  0.13048478865E+04  0.00000000000E+00 0.  1.
<mgrwt>
<rscale>  0 0.15057362E+04</rscale>
<asrwt>0</asrwt>
<pdfrwt beam="1">  1        1 0.47381377E+00 0.15057362E+04</pdfrwt>
<pdfrwt beam="2">  1       -1 0.28314142E-01 0.15057362E+04</pdfrwt>
<totfact> 0.57420239E+00</totfact>
</mgrwt>
</event>
<event>
12    1  0.1495204E-007  0.3860217E+04  0.7818608E-02  0.8033355E-01
          2   -1    0    0  501    0  0.00000000000E+00  0.00000000000E+00  0.18602786934E+04  0.18602786934E+04  0.00000000000E+00 0.  1.
         -2   -1    0    0    0  501 -0.00000000000E+00 -0.00000000000E+00 -0.20025592602E+04  0.20025592602E+04  0.00000000000E+00 0. -1.
         23    2    1    2    0    0  0.21976262373E+03  0.14761380853E+04 -0.11815746921E+04  0.19056013881E+04  0.88986738472E+02 0.  0.
        254    2    1    2    0    0 -0.21976262373E+03 -0.14761380853E+04  0.10392941253E+04  0.19572365655E+04  0.72343862004E+03 0.  0.
        -24    2    4    4    0    0  0.22626645412E+03 -0.52829921837E+03  0.20436570077E+03  0.61514821432E+03  0.79658103988E+02 0.  0.
         24    2    4    4    0    0 -0.44602907785E+03 -0.94783886689E+03  0.83492842454E+03  0.13420883512E+04  0.82190099543E+02 0.  0.
         11    1    3    3    0    0  0.22108640493E+03  0.13117090244E+04 -0.10373074966E+04  0.16868510918E+04  0.00000000000E+00 0. -1.
        -11    1    3    3    0    0 -0.13237812019E+01  0.16442906086E+03 -0.14426719546E+03  0.21875029632E+03  0.00000000000E+00 0.  1.
          4    1    6    6  502    0 -0.16996582916E+03 -0.27618241244E+03  0.24325729902E+03  0.40538774223E+03  0.00000000000E+00 0. -1.
          3    1    5    5  503    0  0.22362034113E+03 -0.45624329644E+03  0.17986316523E+03  0.53899421214E+03  0.00000000000E+00 0. -1.
         -4    1    5    5    0  503  0.26461129916E+01 -0.72055921935E+02  0.24502535537E+02  0.76154002177E+02  0.00000000000E+00 0.  1.
         -3    1    6    6    0  502 -0.27606324869E+03 -0.67165645446E+03  0.59167112553E+03  0.93670060898E+03  0.00000000000E+00 0.  1.
<mgrwt>
<rscale>  0 0.38602167E+04</rscale>
<asrwt>0</asrwt>
<pdfrwt beam="1">  1        2 0.28619672E+00 0.38602167E+04</pdfrwt>
<pdfrwt beam="2">  1       -2 0.30808604E+00 0.38602167E+04</pdfrwt>
<totfact> 0.18071870E-01</totfact>
</mgrwt>
</event>
<event>
12    1  0.1495204E-007  0.1402871E+04  0.7818608E-02  0.8951743E-01
         -1   -1    0    0    0  501 -0.00000000000E+00  0.00000000000E+00  0.10546911267E+04  0.10546911267E+04  0.00000000000E+00 0.  1.
          1   -1    0    0  501    0  0.00000000000E+00 -0.00000000000E+00 -0.46649864272E+03  0.46649864272E+03  0.00000000000E+00 0. -1.
         23    2    1    2    0    0 -0.56052249914E+02  0.90196055668E+02  0.56298839932E+03  0.58019129602E+03  0.91590496430E+02 0.  0.
        254    2    1    2    0    0  0.56052249914E+02 -0.90196055668E+02  0.25204084705E+02  0.94099847345E+03  0.93464736557E+03 0.  0.
        -24    2    4    4    0    0  0.13049094985E+02  0.37874342736E+03 -0.17172219683E+03  0.42451685458E+03  0.84315978856E+02 0.  0.
         24    2    4    4    0    0  0.43003154929E+02 -0.46893948303E+03  0.19692628154E+03  0.51648161887E+03  0.78865659157E+02 0.  0.
         13    1    3    3    0    0  0.17248730529E+02 -0.31734407290E+01  0.13179696034E+03  0.13295874618E+03  0.00000000000E+00 0. -1.
        -13    1    3    3    0    0 -0.73300980443E+02  0.93369496397E+02  0.43119143898E+03  0.44723254984E+03  0.00000000000E+00 0.  1.
          2    1    6    6  502    0  0.51156104720E+02 -0.45658009588E+03  0.20045142156E+03  0.50126151199E+03  0.00000000000E+00 0. -1.
          1    1    5    5  503    0 -0.25487914728E+02  0.21741872816E+03 -0.12551036510E+03  0.25233586527E+03  0.00000000000E+00 0. -1.
         -2    1    5    5    0  503  0.38537009713E+02  0.16132469920E+03 -0.46211831731E+02  0.17218098931E+03  0.00000000000E+00 0.  1.
         -1    1    6    6    0  502 -0.81529497907E+01 -0.12359387150E+02 -0.35251400280E+01  0.15220106873E+02  0.00000000000E+00 0.  1.
<mgrwt>
<rscale>  0 0.14028713E+04</rscale>
<asrwt>0</asrwt>
<pdfrwt beam="1">  1        1 0.71769022E-01 0.14028713E+04</pdfrwt>
<pdfrwt beam="2">  1       -1 0.16226017E+00 0.14028713E+04</pdfrwt>
<totfact> 0.13353501E+01</totfact>
</mgrwt>
</event>
<event>
12    1  0.1495204E-007  0.1356600E+04  0.7818608E-02  0.8985847E-01
          1   -1    0    0  501    0  0.00000000000E+00  0.00000000000E+00  0.65585396494E+03  0.65585396494E+03  0.00000000000E+00 0. -1.
         -1   -1    0    0    0  501 -0.00000000000E+00 -0.00000000000E+00 -0.70151399173E+03  0.70151399173E+03  0.00000000000E+00 0.  1.
         23    2    1    2    0    0  0.28846460112E+03 -0.92097931651E+01  0.20183293416E+03  0.36428406260E+03  0.93111216097E+02 0.  0.
        254    2    1    2    0    0 -0.28846460112E+03  0.92097931651E+01 -0.24749296095E+03  0.99308389407E+03  0.91742367996E+03 0.  0.
        -24    2    4    4    0    0 -0.53341831825E+03 -0.25135793152E+03 -0.15424001982E+03  0.61481609640E+03  0.80578760809E+02 0.  0.
         24    2    4    4    0    0  0.24495371713E+03  0.26056772468E+03 -0.93252941134E+02  0.37826779767E+03  0.80576380187E+02 0.  0.
         11    1    3    3    0    0  0.16399492229E+03  0.15812791424E+02  0.16240342681E+03  0.23134228310E+03  0.00000000000E+00 0. -1.
        -11    1    3    3    0    0  0.12446967883E+03 -0.25022584589E+02  0.39429507351E+02  0.13294177950E+03  0.00000000000E+00 0.  1.
          4    1    6    6  502    0  0.13765562375E+01  0.17662738060E+02  0.83445091957E+01  0.19583106408E+02  0.00000000000E+00 0. -1.
          1    1    5    5  503    0 -0.45976045568E+01 -0.15378718593E+02 -0.49786499096E+01  0.16805651078E+02  0.00000000000E+00 0. -1.
         -2    1    5    5    0  503 -0.52882071369E+03 -0.23597921293E+03 -0.14926136991E+03  0.59801044532E+03  0.00000000000E+00 0.  1.
         -3    1    6    6    0  502  0.24357716089E+03  0.24290498662E+03 -0.10159745033E+03  0.35868469127E+03  0.00000000000E+00 0.  1.
<mgrwt>
<rscale>  0 0.13565998E+04</rscale>
<asrwt>0</asrwt>
<pdfrwt beam="1">  1        1 0.10090061E+00 0.13565998E+04</pdfrwt>
<pdfrwt beam="2">  1       -1 0.10792523E+00 0.13565998E+04</pdfrwt>
<totfact> 0.23481445E+01</totfact>
</mgrwt>
</event>
<event>
12    1  0.1495204E-007  0.1333364E+04  0.7818608E-02  0.9003518E-01
          2   -1    0    0  501    0  0.00000000000E+00  0.00000000000E+00  0.16498605921E+04  0.16498605921E+04  0.00000000000E+00 0. -1.
         -2   -1    0    0    0  501 -0.00000000000E+00 -0.00000000000E+00 -0.26939552014E+03  0.26939552014E+03  0.00000000000E+00 0.  1.
         23    2    1    2    0    0 -0.19087807438E+03  0.25536562492E+02  0.79580374982E+03  0.82369479660E+03  0.89905252475E+02 0.  0.
        254    2    1    2    0    0  0.19087807438E+03 -0.25536562492E+02  0.58466132217E+03  0.10955613157E+04  0.90627765030E+03 0.  0.
        -24    2    4    4    0    0  0.22048077095E+03 -0.39922406149E+02 -0.19717418630E+03  0.30912598612E+03  0.80471402852E+02 0.  0.
         24    2    4    4    0    0 -0.29602696573E+02  0.14385843657E+02  0.78183550847E+03  0.78643532954E+03  0.78297465561E+02 0.  0.
         11    1    3    3    0    0 -0.12117253949E+02 -0.90376050408E+01  0.20295198126E+03  0.20351415883E+03  0.00000000000E+00 0.  1.
        -11    1    3    3    0    0 -0.17876082043E+03  0.34574167533E+02  0.59285176856E+03  0.62018063777E+03  0.00000000000E+00 0. -1.
          4    1    6    6  502    0  0.60754903659E+01 -0.94759009959E+01  0.57894149239E+03  0.57905090958E+03  0.00000000000E+00 0. -1.
          3    1    5    5  503    0  0.81292684303E+02 -0.27344806095E+02 -0.12564885135E+03  0.15213110395E+03  0.00000000000E+00 0. -1.
         -4    1    5    5    0  503  0.13918808665E+03 -0.12577600054E+02 -0.71525334947E+02  0.15699488217E+03  0.00000000000E+00 0.  1.
         -3    1    6    6    0  502 -0.35678186939E+02  0.23861744653E+02  0.20289401608E+03  0.20738441996E+03  0.00000000000E+00 0.  1.
<mgrwt>
<rscale>  0 0.13333642E+04</rscale>
<asrwt>0</asrwt>
<pdfrwt beam="1">  1        2 0.25382470E+00 0.13333642E+04</pdfrwt>
<pdfrwt beam="2">  1       -2 0.41445466E-01 0.13333642E+04</pdfrwt>
<totfact> 0.56397884E+01</totfact>
</mgrwt>
</event>
<event>
12    1  0.1495204E-007  0.1542684E+04  0.7818608E-02  0.8856555E-01
          1   -1    0    0  501    0  0.00000000000E+00  0.00000000000E+00  0.28014562583E+03  0.28014562583E+03  0.00000000000E+00 0. -1.
         -1   -1    0    0    0  501 -0.00000000000E+00 -0.00000000000E+00 -0.21237817884E+04  0.21237817884E+04  0.00000000000E+00 0.  1.
         23    2    1    2    0    0  0.18399563721E+03  0.19761535227E+03  0.48411840422E+02  0.28963859110E+03  0.92954748109E+02 0.  0.
        254    2    1    2    0    0 -0.18399563721E+03 -0.19761535227E+03 -0.18920480030E+04  0.21142888231E+04  0.90413790984E+03 0.  0.
        -24    2    4    4    0    0 -0.83071052829E+02  0.26018804079E+03 -0.14043547231E+04  0.14329071928E+04  0.80076329056E+02 0.  0.
         24    2    4    4    0    0 -0.10092458439E+03 -0.45780339306E+03 -0.48769327992E+03  0.68138163036E+03  0.81648468950E+02 0.  0.
         11    1    3    3    0    0  0.14661189694E+03  0.12146206134E+03  0.68712303435E+02  0.20240914335E+03  0.00000000000E+00 0. -1.
        -11    1    3    3    0    0  0.37383740278E+02  0.76153290933E+02 -0.20300463013E+02  0.87229447755E+02  0.00000000000E+00 0.  1.
          2    1    6    6  502    0 -0.29345725933E+02 -0.31022361462E+03 -0.32933923309E+03  0.45339187592E+03  0.00000000000E+00 0. -1.
          3    1    5    5  503    0 -0.24115544801E+02  0.22622538788E+02 -0.88394904262E+02  0.94376892626E+02  0.00000000000E+00 0. -1.
         -4    1    5    5    0  503 -0.58955508028E+02  0.23756550200E+03 -0.13159598188E+04  0.13385303001E+04  0.00000000000E+00 0.  1.
         -1    1    6    6    0  502 -0.71578858452E+02 -0.14757977844E+03 -0.15835404683E+03  0.22798975444E+03  0.00000000000E+00 0.  1.
<mgrwt>
<rscale>  0 0.15426836E+04</rscale>
<asrwt>0</asrwt>
<pdfrwt beam="1">  1        1 0.43099327E-01 0.15426836E+04</pdfrwt>
<pdfrwt beam="2">  1       -1 0.32673566E+00 0.15426836E+04</pdfrwt>
<totfact> 0.20511090E+00</totfact>
</mgrwt>
</event>
<event>
12    1  0.1495204E-007  0.3701458E+04  0.7818608E-02  0.8067639E-01
         -1   -1    0    0    0  501 -0.00000000000E+00  0.00000000000E+00  0.14684556325E+04  0.14684556325E+04  0.00000000000E+00 0.  1.
          1   -1    0    0  501    0  0.00000000000E+00 -0.00000000000E+00 -0.23325170388E+04  0.23325170388E+04  0.00000000000E+00 0. -1.
         23    2    1    2    0    0 -0.13477284436E+04 -0.88686107811E+03  0.26233237982E+03  0.16370291077E+04  0.90285614797E+02 0.  0.
        254    2    1    2    0    0  0.13477284436E+04  0.88686107811E+03 -0.11263937861E+04  0.21639435637E+04  0.90055219497E+03 0.  0.
        -24    2    4    4    0    0  0.10697537425E+04  0.29274643365E+03 -0.39918933838E+03  0.11814722591E+04  0.80318286793E+02 0.  0.
         24    2    4    4    0    0  0.27797470111E+03  0.59411464447E+03 -0.72720444770E+03  0.98247130455E+03  0.78621945308E+02 0.  0.
         13    1    3    3    0    0 -0.20947227470E+03 -0.10532205079E+03  0.54867916304E+02  0.24079422022E+03  0.00000000000E+00 0. -1.
        -13    1    3    3    0    0 -0.11382561689E+04 -0.78153902732E+03  0.20746446351E+03  0.13962348874E+04  0.00000000000E+00 0.  1.
          2    1    6    6  502    0  0.48825224975E+02  0.86425667625E+02 -0.72733141104E+02  0.12305855693E+03  0.00000000000E+00 0. -1.
          1    1    5    5  503    0  0.30350455494E+03  0.11048734998E+03 -0.14297462061E+03  0.35321977792E+03  0.00000000000E+00 0. -1.
         -2    1    5    5    0  503  0.76624918756E+03  0.18225908366E+03 -0.25621471777E+03  0.82825248120E+03  0.00000000000E+00 0.  1.
         -1    1    6    6    0  502  0.22914947613E+03  0.50768897684E+03 -0.65447130660E+03  0.85941274762E+03  0.00000000000E+00 0.  1.
<mgrwt>
<rscale>  0 0.37014580E+04</rscale>
<asrwt>0</asrwt>
<pdfrwt beam="1">  1        1 0.35884878E+00 0.37014580E+04</pdfrwt>
<pdfrwt beam="2">  1       -1 0.22591625E+00 0.37014580E+04</pdfrwt>
<totfact> 0.14251454E-01</totfact>
</mgrwt>
</event>
<event>
12    1  0.1495204E-007  0.2542487E+04  0.7818608E-02  0.8388004E-01
          4   -1    0    0  501    0  0.00000000000E+00  0.00000000000E+00  0.12730099271E+04  0.12730099271E+04  0.00000000000E+00 0. -1.
         -4   -1    0    0    0  501 -0.00000000000E+00 -0.00000000000E+00 -0.12694792298E+04  0.12694792298E+04  0.00000000000E+00 0.  1.
         23    2    1    2    0    0  0.98690178381E+03  0.28457359077E+02 -0.51277139740E+03  0.11159051222E+04  0.86745510011E+02 0.  0.
        254    2    1    2    0    0 -0.98690178381E+03 -0.28457359077E+02  0.51630209477E+03  0.14265840347E+04  0.89094848499E+03 0.  0.
        -24    2    4    4    0    0 -0.23894395215E+03 -0.10221165296E+03  0.60734455298E+03  0.66569517548E+03  0.82104971574E+02 0.  0.
         24    2    4    4    0    0 -0.74795783167E+03  0.73754293887E+02 -0.91042458208E+02  0.76088885925E+03  0.76042837349E+02 0.  0.
         13    1    3    3    0    0  0.48092220532E+03 -0.10938286486E+02 -0.20951183283E+03  0.52469135858E+03  0.00000000000E+00 0.  1.
        -13    1    3    3    0    0  0.50597957850E+03  0.39395645563E+02 -0.30325956457E+03  0.59121376358E+03  0.00000000000E+00 0. -1.
          2    1    6    6  502    0 -0.42151870919E+03  0.51210301420E+01 -0.61406884797E+02  0.42599888808E+03  0.00000000000E+00 0. -1.
          3    1    5    5  503    0 -0.80118962864E+02 -0.23417385217E+02  0.29453802500E+03  0.30613733897E+03  0.00000000000E+00 0. -1.
         -4    1    5    5    0  503 -0.15882498928E+03 -0.78794267747E+02  0.31280652798E+03  0.35955783651E+03  0.00000000000E+00 0.  1.
         -1    1    6    6    0  502 -0.32643912248E+03  0.68633263745E+02 -0.29635573412E+02  0.33488997117E+03  0.00000000000E+00 0.  1.
<mgrwt>
<rscale>  0 0.25424867E+04</rscale>
<asrwt>0</asrwt>
<pdfrwt beam="1">  1        4 0.19584768E+00 0.25424867E+04</pdfrwt>
<pdfrwt beam="2">  1       -4 0.19530450E+00 0.25424867E+04</pdfrwt>
<totfact> 0.35130882E-02</totfact>
</mgrwt>
</event>
<event>
12    1  0.1495204E-007  0.1574201E+04  0.7818608E-02  0.8836556E-01
         -1   -1    0    0    0  501 -0.00000000000E+00  0.00000000000E+00  0.60724706438E+03  0.60724706438E+03  0.00000000000E+00 0.  1.
          1   -1    0    0  501    0  0.00000000000E+00 -0.00000000000E+00 -0.10202220422E+04  0.10202220422E+04  0.00000000000E+00 0. -1.
         23    2    1    2    0    0 -0.24342824690E+03 -0.26826423793E+03 -0.54114433509E+03  0.65392575044E+03  0.59654697685E+02 0.  0.
        254    2    1    2    0    0  0.24342824690E+03  0.26826423793E+03  0.12816935724E+03  0.97354335616E+03  0.89450336469E+03 0.  0.
        -24    2    4    4    0    0  0.58696927668E+02  0.43372822677E+03  0.39863989727E+03  0.59801794776E+03  0.84535165058E+02 0.  0.
         24    2    4    4    0    0  0.18473131923E+03 -0.16546398884E+03 -0.27047054003E+03  0.37552540840E+03  0.79756049419E+02 0.  0.
         13    1    3    3    0    0 -0.40295945876E+00  0.27284882858E+01 -0.71974820847E+01  0.77078384136E+01  0.00000000000E+00 0.  1.
        -13    1    3    3    0    0 -0.24302528744E+03 -0.27099272621E+03 -0.53394685300E+03  0.64621791203E+03  0.00000000000E+00 0. -1.
          2    1    6    6  502    0  0.59255051476E+02 -0.10000725862E+03 -0.95207916770E+02  0.15025698093E+03  0.00000000000E+00 0. -1.
          1    1    5    5  503    0  0.71830479938E+02  0.27880155762E+03  0.22873592032E+03  0.36770918893E+03  0.00000000000E+00 0. -1.
         -2    1    5    5    0  503 -0.13133552269E+02  0.15492666915E+03  0.16990397696E+03  0.23030875883E+03  0.00000000000E+00 0.  1.
         -1    1    6    6    0  502  0.12547626775E+03 -0.65456730218E+02 -0.17526262326E+03  0.22526842747E+03  0.00000000000E+00 0.  1.
<mgrwt>
<rscale>  0 0.15742005E+04</rscale>
<asrwt>0</asrwt>
<pdfrwt beam="1">  1        1 0.15695724E+00 0.15742005E+04</pdfrwt>
<pdfrwt beam="2">  1       -1 0.93422626E-01 0.15742005E+04</pdfrwt>
<totfact> 0.15601887E+01</totfact>
</mgrwt>
</event>
<event>
12    1  0.1495204E-007  0.1700346E+04  0.7818608E-02  0.8761167E-01
         -2   -1    0    0    0  501 -0.00000000000E+00  0.00000000000E+00  0.10707513654E+04  0.10707513654E+04  0.00000000000E+00 0.  1.
          2   -1    0    0  501    0  0.00000000000E+00 -0.00000000000E+00 -0.67503433547E+03  0.67503433547E+03  0.00000000000E+00 0. -1.
         23    2    1    2    0    0  0.58428765104E+03 -0.13096289191E+03  0.50475551604E+02  0.60761732077E+03  0.90042706382E+02 0.  0.
        254    2    1    2    0    0 -0.58428765104E+03  0.13096289191E+03  0.34524147837E+03  0.11381683801E+04  0.90426337145E+03 0.  0.
        -24    2    4    4    0    0 -0.25458109224E+03  0.50975123986E+03  0.20488247273E+03  0.61103468447E+03  0.82028647018E+02 0.  0.
         24    2    4    4    0    0 -0.32970655881E+03 -0.37878834795E+03  0.14035900564E+03  0.52713369567E+03  0.77345039824E+02 0.  0.
         13    1    3    3    0    0  0.34939917247E+02  0.13418528269E+02  0.55770285363E+01  0.37841220453E+02  0.00000000000E+00 0.  1.
        -13    1    3    3    0    0  0.54934773380E+03 -0.14438142018E+03  0.44898523067E+02  0.56977610032E+03  0.00000000000E+00 0. -1.
          4    1    6    6  502    0 -0.93557231223E+02 -0.16390591945E+03  0.47249455681E+02  0.19455235030E+03  0.00000000000E+00 0. -1.
          3    1    5    5  503    0 -0.17938782426E+03  0.27190783609E+03  0.12816764988E+03  0.35005829414E+03  0.00000000000E+00 0. -1.
         -4    1    5    5    0  503 -0.75193267978E+02  0.23784340377E+03  0.76714822851E+02  0.26097639033E+03  0.00000000000E+00 0.  1.
         -3    1    6    6    0  502 -0.23614932758E+03 -0.21488242850E+03  0.93109549955E+02  0.33258134537E+03  0.00000000000E+00 0.  1.
<mgrwt>
<rscale>  0 0.17003458E+04</rscale>
<asrwt>0</asrwt>
<pdfrwt beam="1">  1        2 0.10385144E+00 0.17003458E+04</pdfrwt>
<pdfrwt beam="2">  1       -2 0.16473098E+00 0.17003458E+04</pdfrwt>
<totfact> 0.94849244E+00</totfact>
</mgrwt>
</event>
<event>
12    1  0.1495204E-007  0.2320767E+04  0.7818608E-02  0.8469778E-01
         -1   -1    0    0    0  501 -0.00000000000E+00  0.00000000000E+00  0.92647865453E+03  0.92647865453E+03  0.00000000000E+00 0.  1.
          1   -1    0    0  501    0  0.00000000000E+00 -0.00000000000E+00 -0.14533419769E+04  0.14533419769E+04  0.00000000000E+00 0. -1.
         23    2    1    2    0    0  0.14891332201E+03 -0.93994724627E+03 -0.47931497367E+03  0.10691477484E+04  0.87510346068E+02 0.  0.
        254    2    1    2    0    0 -0.14891332201E+03  0.93994724627E+03 -0.47548348737E+02  0.13106728831E+04  0.89995919782E+03 0.  0.
        -24    2    4    4    0    0 -0.28727317104E+03 -0.13136900874E+02 -0.15864507666E+03  0.33806357873E+03  0.80126587078E+02 0.  0.
         24    2    4    4    0    0  0.13835984903E+03  0.95308414714E+03  0.11109672792E+03  0.97260930435E+03  0.78189107935E+02 0.  0.
         13    1    3    3    0    0  0.12660327426E+03 -0.70348632868E+03 -0.39787415884E+03  0.81806188639E+03  0.00000000000E+00 0. -1.
        -13    1    3    3    0    0  0.22310047748E+02 -0.23646091758E+03 -0.81440814835E+02  0.25108586200E+03  0.00000000000E+00 0.  1.
          4    1    6    6  502    0  0.97457511751E+02  0.84626204426E+03  0.97160872141E+02  0.85737835827E+03  0.00000000000E+00 0. -1.
          1    1    5    5  503    0 -0.28789694752E+03 -0.21238069592E+02 -0.14724125811E+03  0.32406125360E+03  0.00000000000E+00 0. -1.
         -2    1    5    5    0  503  0.62377648722E+00  0.81011687182E+01 -0.11403818553E+02  0.14002325139E+02  0.00000000000E+00 0.  1.
         -3    1    6    6    0  502  0.40902337275E+02  0.10682210288E+03  0.13935855780E+02  0.11523094608E+03  0.00000000000E+00 0.  1.
<mgrwt>
<rscale>  0 0.23207674E+04</rscale>
<asrwt>0</asrwt>
<pdfrwt beam="1">  1        1 0.22359107E+00 0.23207674E+04</pdfrwt>
<pdfrwt beam="2">  1       -1 0.14253518E+00 0.23207674E+04</pdfrwt>
<totfact> 0.25432937E+00</totfact>
</mgrwt>
</event>
<event>
12    1  0.1495204E-007  0.1700998E+04  0.7818608E-02  0.8760795E-01
          1   -1    0    0  501    0  0.00000000000E+00  0.00000000000E+00  0.24567480868E+04  0.24567480868E+04  0.00000000000E+00 0. -1.
         -1   -1    0    0    0  501 -0.00000000000E+00 -0.00000000000E+00 -0.29443343635E+03  0.29443343635E+03  0.00000000000E+00 0.  1.
         23    2    1    2    0    0 -0.52560529723E+03  0.26325792933E+03  0.99675679716E+03  0.11615795679E+04  0.10088267471E+03 0.  0.
        254    2    1    2    0    0  0.52560529723E+03 -0.26325792933E+03  0.11655578533E+04  0.15896019552E+04  0.90705214893E+03 0.  0.
        -24    2    4    4    0    0  0.18004933013E+03  0.22858985211E+03  0.85851046060E+03  0.90992157348E+03  0.79031494771E+02 0.  0.
         24    2    4    4    0    0  0.34555596710E+03 -0.49184778144E+03  0.30704739268E+03  0.67968038174E+03  0.79775644579E+02 0.  0.
         11    1    3    3    0    0 -0.40235448031E+03  0.20196234545E+03  0.67211089748E+03  0.80895672030E+03  0.00000000000E+00 0. -1.
        -11    1    3    3    0    0 -0.12325081692E+03  0.61295583881E+02  0.32464589967E+03  0.35262284760E+03  0.00000000000E+00 0.  1.
          2    1    6    6  502    0  0.15782284709E+03 -0.15776917693E+03  0.11216839924E+03  0.24976171452E+03  0.00000000000E+00 0. -1.
          1    1    5    5  503    0  0.16314248025E+03  0.23256270691E+03  0.81368454438E+03  0.86184883784E+03  0.00000000000E+00 0. -1.
         -2    1    5    5    0  503  0.16906849877E+02 -0.39728548065E+01  0.44825916216E+02  0.48072735648E+02  0.00000000000E+00 0.  1.
         -1    1    6    6    0  502  0.18773312001E+03 -0.33407860451E+03  0.19487899344E+03  0.42991866722E+03  0.00000000000E+00 0.  1.
<mgrwt>
<rscale>  0 0.17009983E+04</rscale>
<asrwt>0</asrwt>
<pdfrwt beam="1">  1        1 0.37796123E+00 0.17009983E+04</pdfrwt>
<pdfrwt beam="2">  1       -1 0.45297453E-01 0.17009983E+04</pdfrwt>
<totfact> 0.66907410E+00</totfact>
</mgrwt>
</event>
<event>
12    1  0.1495204E-007  0.1436249E+04  0.7818608E-02  0.8927990E-01
          1   -1    0    0  501    0  0.00000000000E+00  0.00000000000E+00  0.20648296542E+04  0.20648296542E+04  0.00000000000E+00 0. -1.
         -1   -1    0    0    0  501 -0.00000000000E+00 -0.00000000000E+00 -0.24975568548E+03  0.24975568548E+03  0.00000000000E+00 0.  1.
         23    2    1    2    0    0 -0.27299839043E+03 -0.32179144126E+03  0.47084282696E+03  0.63896780856E+03  0.92244456905E+02 0.  0.
        254    2    1    2    0    0  0.27299839043E+03  0.32179144126E+03  0.13442311418E+04  0.16756175312E+04  0.90700545496E+03 0.  0.
        -24    2    4    4    0    0  0.40476037782E+03  0.47676565578E+03  0.13104577340E+04  0.14542522178E+04  0.80084870107E+02 0.  0.
         24    2    4    4    0    0 -0.13176198739E+03 -0.15497421452E+03  0.33773407758E+02  0.22136531332E+03  0.80521614390E+02 0.  0.
         13    1    3    3    0    0 -0.17092155214E+03 -0.23932537923E+03  0.37449623643E+03  0.47617039516E+03  0.00000000000E+00 0. -1.
        -13    1    3    3    0    0 -0.10207683829E+03 -0.82466062024E+02  0.96346590531E+02  0.16279741339E+03  0.00000000000E+00 0.  1.
          4    1    6    6  502    0 -0.24452202028E+02 -0.93248598870E+01  0.30816540024E+02  0.40429226248E+02  0.00000000000E+00 0. -1.
          3    1    5    5  503    0  0.20141130439E+03  0.19972381932E+03  0.52027319807E+03  0.59257093936E+03  0.00000000000E+00 0. -1.
         -4    1    5    5    0  503  0.20334907344E+03  0.27704183645E+03  0.79018453596E+03  0.86168127848E+03  0.00000000000E+00 0.  1.
         -3    1    6    6    0  502 -0.10730978536E+03 -0.14564935463E+03  0.29568677338E+01  0.18093608707E+03  0.00000000000E+00 0.  1.
<mgrwt>
<rscale>  0 0.14362492E+04</rscale>
<asrwt>0</asrwt>
<pdfrwt beam="1">  1        1 0.31766609E+00 0.14362492E+04</pdfrwt>
<pdfrwt beam="2">  1       -1 0.38423953E-01 0.14362492E+04</pdfrwt>
<totfact> 0.17179229E+01</totfact>
</mgrwt>
</event>
<event>
12    1  0.1495204E-007  0.1201554E+04  0.7818608E-02  0.9111497E-01
          1   -1    0    0  501    0  0.00000000000E+00  0.00000000000E+00  0.27087025867E+04  0.27087025867E+04  0.00000000000E+00 0. -1.
         -1   -1    0    0    0  501 -0.00000000000E+00 -0.00000000000E+00 -0.13324947345E+03  0.13324947345E+03  0.00000000000E+00 0.  1.
         23    2    1    2    0    0 -0.57000543014E+02 -0.10566094200E+03  0.10491639276E+04  0.10599666852E+04  0.91493879556E+02 0.  0.
        254    2    1    2    0    0  0.57000543014E+02  0.10566094200E+03  0.15262891856E+04  0.17819853750E+04  0.91186616455E+03 0.  0.
        -24    2    4    4    0    0  0.34118561254E+03 -0.20443128754E+03  0.37019409729E+03  0.54911913461E+03  0.79299311438E+02 0.  0.
         24    2    4    4    0    0 -0.28418506952E+03  0.31009222954E+03  0.11560950883E+04  0.12328662404E+04  0.80529304692E+02 0.  0.
         13    1    3    3    0    0 -0.27391901585E+02 -0.86322123991E+02  0.95659535071E+03  0.96087277532E+03  0.00000000000E+00 0. -1.
        -13    1    3    3    0    0 -0.29608641429E+02 -0.19338818008E+02  0.92568576939E+02  0.99093909832E+02  0.00000000000E+00 0.  1.
          4    1    6    6  502    0 -0.84275766202E+02  0.14990123051E+03  0.47843665709E+03  0.50840379476E+03  0.00000000000E+00 0. -1.
          3    1    5    5  503    0  0.25075795986E+02 -0.41012248247E+02  0.29099001591E+02  0.56192098592E+02  0.00000000000E+00 0. -1.
         -4    1    5    5    0  503  0.31610981655E+03 -0.16341903930E+03  0.34109509570E+03  0.49292703602E+03  0.00000000000E+00 0.  1.
         -3    1    6    6    0  502 -0.19990930332E+03  0.16019099903E+03  0.67765843119E+03  0.72446244560E+03  0.00000000000E+00 0.  1.
<mgrwt>
<rscale>  0 0.12015543E+04</rscale>
<asrwt>0</asrwt>
<pdfrwt beam="1">  1        1 0.41672343E+00 0.12015543E+04</pdfrwt>
<pdfrwt beam="2">  1       -1 0.20499921E-01 0.12015543E+04</pdfrwt>
<totfact> 0.18958234E+01</totfact>
</mgrwt>
</event>
<event>
12    1  0.1495204E-007  0.1855808E+04  0.7818608E-02  0.8677172E-01
         -2   -1    0    0    0  501 -0.00000000000E+00  0.00000000000E+00  0.83570861466E+03  0.83570861466E+03  0.00000000000E+00 0.  1.
          2   -1    0    0  501    0  0.00000000000E+00 -0.00000000000E+00 -0.10302704796E+04  0.10302704796E+04  0.00000000000E+00 0. -1.
         23    2    1    2    0    0 -0.30319822715E+03 -0.12541175031E+03 -0.70150265722E+03  0.78012348298E+03  0.93964879372E+02 0.  0.
        254    2    1    2    0    0  0.30319822715E+03  0.12541175031E+03  0.50694079224E+03  0.10858556113E+04  0.90246117352E+03 0.  0.
        -24    2    4    4    0    0  0.39216792052E+03 -0.27193073455E+03  0.46038828011E+03  0.66835387469E+03  0.83651246681E+02 0.  0.
         24    2    4    4    0    0 -0.88969693367E+02  0.39734248486E+03  0.46552512123E+02  0.41750173662E+03  0.79648647713E+02 0.  0.
         11    1    3    3    0    0 -0.28613234377E+03 -0.14005797275E+03 -0.66210248872E+03  0.73475687098E+03  0.00000000000E+00 0. -1.
        -11    1    3    3    0    0 -0.17065883375E+02  0.14646222434E+02 -0.39400168499E+02  0.45366612004E+02  0.00000000000E+00 0.  1.
          4    1    6    6  502    0 -0.31510415265E+02  0.52134109605E+02 -0.13588145064E+02  0.62414015579E+02  0.00000000000E+00 0. -1.
          1    1    5    5  503    0  0.39967392567E+02 -0.55178389520E+02  0.41817292290E+02  0.79942060726E+02  0.00000000000E+00 0. -1.
         -4    1    5    5    0  503  0.35220052795E+03 -0.21675234503E+03  0.41857098782E+03  0.58841181396E+03  0.00000000000E+00 0.  1.
         -3    1    6    6    0  502 -0.57459278102E+02  0.34520837526E+03  0.60140657187E+02  0.35508772104E+03  0.00000000000E+00 0.  1.
<mgrwt>
<rscale>  0 0.18558081E+04</rscale>
<asrwt>0</asrwt>
<pdfrwt beam="1">  1        2 0.15850315E+00 0.18558081E+04</pdfrwt>
<pdfrwt beam="2">  1       -2 0.12857056E+00 0.18558081E+04</pdfrwt>
<totfact> 0.10113066E+01</totfact>
</mgrwt>
</event>
<event>
12    1  0.1495204E-007  0.2450212E+04  0.7818608E-02  0.8420940E-01
          1   -1    0    0  501    0  0.00000000000E+00  0.00000000000E+00  0.11139145102E+04  0.11139145102E+04  0.00000000000E+00 0. -1.
         -1   -1    0    0    0  501 -0.00000000000E+00 -0.00000000000E+00 -0.13473971553E+04  0.13473971553E+04  0.00000000000E+00 0.  1.
         23    2    1    2    0    0  0.24698714185E+03 -0.51030488751E+03  0.80497692106E+03  0.98889625074E+03  0.92272557310E+02 0.  0.
        254    2    1    2    0    0 -0.24698714185E+03  0.51030488751E+03 -0.10384595662E+04  0.14724154148E+04  0.87646743041E+03 0.  0.
        -24    2    4    4    0    0 -0.55323162390E+03  0.31617639648E+03 -0.81829804108E+03  0.10406058826E+04  0.84948075751E+02 0.  0.
         24    2    4    4    0    0  0.30624448206E+03  0.19412849102E+03 -0.22016152510E+03  0.43180953211E+03  0.80726829930E+02 0.  0.
         13    1    3    3    0    0  0.25382267795E+03 -0.49444752386E+03  0.76725060518E+03  0.94740582479E+03  0.00000000000E+00 0. -1.
        -13    1    3    3    0    0 -0.68355361015E+01 -0.15857363643E+02  0.37726315877E+02  0.41490425945E+02  0.00000000000E+00 0.  1.
          4    1    6    6  502    0  0.18582719123E+03  0.71811358704E+02 -0.10597179138E+03  0.22565158277E+03  0.00000000000E+00 0. -1.
          3    1    5    5  503    0 -0.55468958918E+03  0.31882539568E+03 -0.81370225359E+03  0.10351045990E+04  0.00000000000E+00 0. -1.
         -2    1    5    5    0  503  0.14579652812E+01 -0.26489992020E+01 -0.45957874895E+01  0.55012836850E+01  0.00000000000E+00 0.  1.
         -3    1    6    6    0  502  0.12041729083E+03  0.12231713232E+03 -0.11418973371E+03  0.20615794934E+03  0.00000000000E+00 0.  1.
<mgrwt>
<rscale>  0 0.24502124E+04</rscale>
<asrwt>0</asrwt>
<pdfrwt beam="1">  1        1 0.17137146E+00 0.24502124E+04</pdfrwt>
<pdfrwt beam="2">  1       -1 0.20729187E+00 0.24502124E+04</pdfrwt>
<totfact> 0.14811979E+00</totfact>
</mgrwt>
</event>
<event>
12    1  0.1495204E-007  0.2388124E+04  0.7818608E-02  0.8443963E-01
          2   -1    0    0  501    0  0.00000000000E+00  0.00000000000E+00  0.25740015059E+04  0.25740015059E+04  0.00000000000E+00 0. -1.
         -2   -1    0    0    0  501 -0.00000000000E+00 -0.00000000000E+00 -0.55391716212E+03  0.55391716212E+03  0.00000000000E+00 0.  1.
         23    2    1    2    0    0  0.13012266653E+03 -0.37907778405E+03 -0.34812238173E+03  0.53664321477E+03  0.78516702654E+02 0.  0.
        254    2    1    2    0    0 -0.13012266653E+03  0.37907778405E+03  0.23682067255E+04  0.25912754533E+04  0.97245745674E+03 0.  0.
        -24    2    4    4    0    0  0.33749818842E+03  0.45090771910E+03  0.11844186255E+04  0.13139808688E+04  0.80470148733E+02 0.  0.
         24    2    4    4    0    0 -0.46762085495E+03 -0.71829935050E+02  0.11837881001E+04  0.12772945845E+04  0.79362372445E+02 0.  0.
         11    1    3    3    0    0  0.12951136305E+03 -0.31962854836E+03 -0.32156426437E+03  0.47152855502E+03  0.00000000000E+00 0.  1.
        -11    1    3    3    0    0  0.61130348381E+00 -0.59449235697E+02 -0.26558117359E+02  0.65114659752E+02  0.00000000000E+00 0. -1.
          2    1    6    6  502    0 -0.40216924042E+03 -0.62459362059E+02  0.10810037565E+04  0.11550802532E+04  0.00000000000E+00 0. -1.
          1    1    5    5  503    0  0.32364572526E+03  0.43477695988E+03  0.11661182524E+04  0.12859274237E+04  0.00000000000E+00 0. -1.
         -2    1    5    5    0  503  0.13852463161E+02  0.16130759220E+02  0.18300373030E+02  0.28053445094E+02  0.00000000000E+00 0.  1.
         -1    1    6    6    0  502 -0.65451614528E+02 -0.93705729907E+01  0.10278434360E+03  0.12221433129E+03  0.00000000000E+00 0.  1.
<mgrwt>
<rscale>  0 0.23881236E+04</rscale>
<asrwt>0</asrwt>
<pdfrwt beam="1">  1        2 0.39600023E+00 0.23881236E+04</pdfrwt>
<pdfrwt beam="2">  1       -2 0.85218026E-01 0.23881236E+04</pdfrwt>
<totfact> 0.33983813E+00</totfact>
</mgrwt>
</event>
<event>
12    1  0.1495204E-007  0.1466484E+04  0.7818608E-02  0.8907052E-01
         -2   -1    0    0    0  501 -0.00000000000E+00  0.00000000000E+00  0.22011330657E+03  0.22011330657E+03  0.00000000000E+00 0.  1.
          2   -1    0    0  501    0  0.00000000000E+00 -0.00000000000E+00 -0.24425779630E+04  0.24425779630E+04  0.00000000000E+00 0. -1.
         23    2    1    2    0    0  0.12241757567E+03 -0.52983869230E+02 -0.14979952659E+04  0.15066496382E+04  0.90608843413E+02 0.  0.
        254    2    1    2    0    0 -0.12241757567E+03  0.52983869230E+02 -0.72446939056E+03  0.11560416314E+04  0.89094500524E+03 0.  0.
        -24    2    4    4    0    0  0.67937934755E+02  0.10725636629E+03  0.17555689565E+03  0.23112417995E+03  0.80490197302E+02 0.  0.
         24    2    4    4    0    0 -0.19035551042E+03 -0.54272497063E+02 -0.90002628621E+03  0.92491745142E+03  0.79020578218E+02 0.  0.
         11    1    3    3    0    0  0.49756416057E+02 -0.70688608436E+02 -0.79008933584E+03  0.79480421420E+03  0.00000000000E+00 0.  1.
        -11    1    3    3    0    0  0.72661159612E+02  0.17704739205E+02 -0.70790593007E+03  0.71184542405E+03  0.00000000000E+00 0. -1.
          4    1    6    6  502    0 -0.24901850608E+02 -0.39191320124E+02 -0.22560218539E+03  0.23033108298E+03  0.00000000000E+00 0. -1.
          1    1    5    5  503    0  0.30803113912E+02  0.12333390550E+02  0.66422476914E+01  0.33838791402E+02  0.00000000000E+00 0. -1.
         -2    1    5    5    0  503  0.37134820844E+02  0.94922975743E+02  0.16891464795E+03  0.19728538855E+03  0.00000000000E+00 0.  1.
         -3    1    6    6    0  502 -0.16545365982E+03 -0.15081176939E+02 -0.67442410082E+03  0.69458636843E+03  0.00000000000E+00 0.  1.
<mgrwt>
<rscale>  0 0.14664841E+04</rscale>
<asrwt>0</asrwt>
<pdfrwt beam="1">  1        2 0.37578125E+00 0.14664841E+04</pdfrwt>
<pdfrwt beam="2">  1       -2 0.33863584E-01 0.14664841E+04</pdfrwt>
<totfact> 0.29776667E+01</totfact>
</mgrwt>
</event>
<event>
12    1  0.1495204E-007  0.1163474E+04  0.7818608E-02  0.9145442E-01
         -1   -1    0    0    0  501 -0.00000000000E+00  0.00000000000E+00  0.24676647599E+03  0.24676647599E+03  0.00000000000E+00 0.  1.
          1   -1    0    0  501    0  0.00000000000E+00 -0.00000000000E+00 -0.13714096201E+04  0.13714096201E+04  0.00000000000E+00 0. -1.
         23    2    1    2    0    0 -0.60821902351E+02 -0.10482730165E+03 -0.48369756522E+03  0.50710026574E+03  0.92191528546E+02 0.  0.
        254    2    1    2    0    0  0.60821902351E+02  0.10482730165E+03 -0.64094557888E+03  0.11110758304E+04  0.89943882434E+03 0.  0.
        -24    2    4    4    0    0  0.35680945474E+03  0.33714243456E+03 -0.48936636795E+03  0.69771328623E+03  0.79664167128E+02 0.  0.
         24    2    4    4    0    0 -0.29598755239E+03 -0.23231513292E+03 -0.15157921094E+03  0.41336254413E+03  0.79456803038E+02 0.  0.
         11    1    3    3    0    0 -0.62465364796E+02 -0.11698857681E+03 -0.37594898554E+03  0.39865509984E+03  0.00000000000E+00 0. -1.
        -11    1    3    3    0    0  0.16434624449E+01  0.12161275167E+02 -0.10774857968E+03  0.10844516590E+03  0.00000000000E+00 0.  1.
          2    1    6    6  502    0 -0.40139823065E+02 -0.19806851472E+02 -0.46553915392E+02  0.64581605735E+02  0.00000000000E+00 0. -1.
          1    1    5    5  503    0  0.16855563786E+03  0.10980179166E+03 -0.22008093967E+03  0.29816615588E+03  0.00000000000E+00 0. -1.
         -2    1    5    5    0  503  0.18825381688E+03  0.22734064291E+03 -0.26928542827E+03  0.39954713035E+03  0.00000000000E+00 0.  1.
         -1    1    6    6    0  502 -0.25584772932E+03 -0.21250828145E+03 -0.10502529555E+03  0.34878093839E+03  0.00000000000E+00 0.  1.
<mgrwt>
<rscale>  0 0.11634740E+04</rscale>
<asrwt>0</asrwt>
<pdfrwt beam="1">  1        1 0.21098610E+00 0.11634740E+04</pdfrwt>
<pdfrwt beam="2">  1       -1 0.37964073E-01 0.11634740E+04</pdfrwt>
<totfact> 0.53478851E+01</totfact>
</mgrwt>
</event>
<event>
12    1  0.1495204E-007  0.1040007E+04  0.7818608E-02  0.9265723E-01
          2   -1    0    0  501    0  0.00000000000E+00  0.00000000000E+00  0.23649023462E+04  0.23649023462E+04  0.00000000000E+00 0. -1.
         -2   -1    0    0    0  501 -0.00000000000E+00 -0.00000000000E+00 -0.11434020002E+03  0.11434020002E+03  0.00000000000E+00 0.  1.
         23    2    1    2    0    0 -0.33865668819E+02 -0.60420450344E+02  0.51253364639E+03  0.52519260693E+03  0.91318242169E+02 0.  0.
        254    2    1    2    0    0  0.33865668819E+02  0.60420450344E+02  0.17380284998E+04  0.19540499393E+04  0.89037665332E+03 0.  0.
        -24    2    4    4    0    0 -0.26241237406E+02  0.32194569380E+03  0.19476936760E+03  0.38565779756E+03  0.80369135666E+02 0.  0.
         24    2    4    4    0    0  0.60106906225E+02 -0.26152524346E+03  0.15432591322E+04  0.15683921417E+04  0.78720187849E+02 0.  0.
         13    1    3    3    0    0 -0.68582147612E+01 -0.51945755555E+02  0.47649309735E+03  0.47936527664E+03  0.00000000000E+00 0. -1.
        -13    1    3    3    0    0 -0.27007454058E+02 -0.84746947891E+01  0.36040549039E+02  0.45827330290E+02  0.00000000000E+00 0.  1.
          2    1    6    6  502    0  0.71565636892E+01 -0.57237362045E+02  0.18347639772E+03  0.19233023823E+03  0.00000000000E+00 0. -1.
          1    1    5    5  503    0 -0.14687914202E+02  0.18673047804E+03  0.15802588861E+03  0.24506364015E+03  0.00000000000E+00 0. -1.
         -2    1    5    5    0  503 -0.11553323203E+02  0.13521521576E+03  0.36743478994E+02  0.14059415741E+03  0.00000000000E+00 0.  1.
         -1    1    6    6    0  502  0.52950342535E+02 -0.20428788141E+03  0.13597827345E+04  0.13760619035E+04  0.00000000000E+00 0.  1.
<mgrwt>
<rscale>  0 0.10400066E+04</rscale>
<asrwt>0</asrwt>
<pdfrwt beam="1">  1        2 0.36383109E+00 0.10400066E+04</pdfrwt>
<pdfrwt beam="2">  1       -2 0.17590802E-01 0.10400066E+04</pdfrwt>
<totfact> 0.11182532E+02</totfact>
</mgrwt>
</event>
<event>
12    1  0.1495204E-007  0.1594625E+04  0.7818608E-02  0.8823857E-01
         -1   -1    0    0    0  501 -0.00000000000E+00  0.00000000000E+00  0.86490320518E+03  0.86490320518E+03  0.00000000000E+00 0.  1.
          1   -1    0    0  501    0  0.00000000000E+00 -0.00000000000E+00 -0.73500416922E+03  0.73500416922E+03  0.00000000000E+00 0. -1.
         23    2    1    2    0    0 -0.14706962047E+03  0.31567309139E+03  0.45138197915E+03  0.57741739936E+03  0.91576132728E+02 0.  0.
        254    2    1    2    0    0  0.14706962047E+03 -0.31567309139E+03 -0.32148294319E+03  0.10224899750E+04  0.90601075733E+03 0.  0.
        -24    2    4    4    0    0 -0.13953724228E+03 -0.54844421997E+03 -0.87545794374E+02  0.57812950245E+03  0.79421351575E+02 0.  0.
         24    2    4    4    0    0  0.28660686275E+03  0.23277112858E+03 -0.23393714881E+03  0.44436047259E+03  0.80023421158E+02 0.  0.
         11    1    3    3    0    0 -0.66670510610E+02  0.54188917925E+02  0.12261609428E+03  0.14972008010E+03  0.00000000000E+00 0.  1.
        -11    1    3    3    0    0 -0.80399109862E+02  0.26148417346E+03  0.32876588488E+03  0.42769731926E+03  0.00000000000E+00 0. -1.
          2    1    6    6  502    0  0.33228564412E+00  0.32844340974E+01  0.53770802183E+01  0.63095889536E+01  0.00000000000E+00 0. -1.
          1    1    5    5  503    0 -0.98242371212E+01 -0.16113225329E+03 -0.44245483097E+02  0.16738512914E+03  0.00000000000E+00 0. -1.
         -2    1    5    5    0  503 -0.12971300516E+03 -0.38731196668E+03 -0.43300311277E+02  0.41074437330E+03  0.00000000000E+00 0.  1.
         -1    1    6    6    0  502  0.28627457711E+03  0.22948669448E+03 -0.23931422903E+03  0.43805088364E+03  0.00000000000E+00 0.  1.
<mgrwt>
<rscale>  0 0.15946253E+04</rscale>
<asrwt>0</asrwt>
<pdfrwt beam="1">  1        1 0.11307756E+00 0.15946253E+04</pdfrwt>
<pdfrwt beam="2">  1       -1 0.13306203E+00 0.15946253E+04</pdfrwt>
<totfact> 0.11600401E+01</totfact>
</mgrwt>
</event>
<event>
12    1  0.1495204E-007  0.1349188E+04  0.7818608E-02  0.8991443E-01
          2   -1    0    0  501    0  0.00000000000E+00  0.00000000000E+00  0.17701652986E+04  0.17701652986E+04  0.00000000000E+00 0. -1.
         -2   -1    0    0    0  501 -0.00000000000E+00 -0.00000000000E+00 -0.25708178607E+03  0.25708178607E+03  0.00000000000E+00 0.  1.
         23    2    1    2    0    0  0.33331973957E+03 -0.96987224701E+02  0.24694095479E+03  0.43560360776E+03  0.90896080213E+02 0.  0.
        254    2    1    2    0    0 -0.33331973957E+03  0.96987224701E+02  0.12661425577E+04  0.15916434769E+04  0.89983521296E+03 0.  0.
        -24    2    4    4    0    0  0.73354125036E+02 -0.28754669936E+02  0.11326580992E+04  0.11383246318E+04  0.81614576149E+02 0.  0.
         24    2    4    4    0    0 -0.40667386461E+03  0.12574189464E+03  0.13348445854E+03  0.45331884507E+03  0.80530853763E+02 0.  0.
         13    1    3    3    0    0  0.27375320592E+03 -0.53612300207E+02  0.15979217586E+03  0.32147882659E+03  0.00000000000E+00 0.  1.
        -13    1    3    3    0    0  0.59566533655E+02 -0.43374924494E+02  0.87148778938E+02  0.11412478117E+03  0.00000000000E+00 0. -1.
          2    1    6    6  502    0 -0.19901710641E+03  0.98129532853E+02  0.89512349115E+02  0.23926904210E+03  0.00000000000E+00 0. -1.
          3    1    5    5  503    0  0.76090708239E+01  0.44595855181E+01  0.10333679298E+02  0.13585683260E+02  0.00000000000E+00 0. -1.
         -4    1    5    5    0  503  0.65745054212E+02 -0.33214255454E+02  0.11223244199E+04  0.11247389485E+04  0.00000000000E+00 0.  1.
         -1    1    6    6    0  502 -0.20765675819E+03  0.27612361785E+02  0.43972109422E+02  0.21404980298E+03  0.00000000000E+00 0.  1.
<mgrwt>
<rscale>  0 0.13491883E+04</rscale>
<asrwt>0</asrwt>
<pdfrwt beam="1">  1        2 0.27233312E+00 0.13491883E+04</pdfrwt>
<pdfrwt beam="2">  1       -2 0.39551045E-01 0.13491883E+04</pdfrwt>
<totfact> 0.52946536E+01</totfact>
</mgrwt>
</event>
<event>
12    1  0.1495204E-007  0.1286163E+04  0.7818608E-02  0.9040611E-01
         -1   -1    0    0    0  501 -0.00000000000E+00  0.00000000000E+00  0.32573394502E+03  0.32573394502E+03  0.00000000000E+00 0.  1.
          1   -1    0    0  501    0  0.00000000000E+00 -0.00000000000E+00 -0.12696052965E+04  0.12696052965E+04  0.00000000000E+00 0. -1.
         23    2    1    2    0    0 -0.25603885140E+03  0.34875993523E+02 -0.48686694953E+03  0.55824588401E+03  0.88469272156E+02 0.  0.
        254    2    1    2    0    0  0.25603885140E+03 -0.34875993523E+02 -0.45700440199E+03  0.10370933576E+04  0.89439218495E+03 0.  0.
        -24    2    4    4    0    0  0.32693886419E+03 -0.15905476259E+02 -0.69680614007E+03  0.77400299297E+03  0.79998944932E+02 0.  0.
         24    2    4    4    0    0 -0.70900012787E+02 -0.18970517264E+02  0.23980173808E+03  0.26309036459E+03  0.79529705224E+02 0.  0.
         13    1    3    3    0    0 -0.84257152446E+02 -0.22080594575E+02 -0.21147216470E+03  0.22870788539E+03  0.00000000000E+00 0. -1.
        -13    1    3    3    0    0 -0.17178169896E+03  0.56956588098E+02 -0.27539478483E+03  0.32953799862E+03  0.00000000000E+00 0.  1.
          4    1    6    6  502    0 -0.13137189993E+02  0.29829583231E+02  0.73769924564E+02  0.80649808226E+02  0.00000000000E+00 0. -1.
          3    1    5    5  503    0  0.30398014380E+02 -0.18030562562E+02 -0.12463232961E+03  0.12954674079E+03  0.00000000000E+00 0. -1.
         -4    1    5    5    0  503  0.29654084981E+03  0.21250863028E+01 -0.57217381046E+03  0.64445625218E+03  0.00000000000E+00 0.  1.
         -1    1    6    6    0  502 -0.57762822794E+02 -0.48800100495E+02  0.16603181352E+03  0.18244055636E+03  0.00000000000E+00 0.  1.
<mgrwt>
<rscale>  0 0.12861626E+04</rscale>
<asrwt>0</asrwt>
<pdfrwt beam="1">  1        1 0.19532389E+00 0.12861626E+04</pdfrwt>
<pdfrwt beam="2">  1       -1 0.50112915E-01 0.12861626E+04</pdfrwt>
<totfact> 0.37381014E+01</totfact>
</mgrwt>
</event>
<event>
12    1  0.1495204E-007  0.1454014E+04  0.7818608E-02  0.8915622E-01
          2   -1    0    0  501    0  0.00000000000E+00  0.00000000000E+00  0.32319857461E+03  0.32319857461E+03  0.00000000000E+00 0. -1.
         -2   -1    0    0    0  501 -0.00000000000E+00 -0.00000000000E+00 -0.16353393419E+04  0.16353393419E+04  0.00000000000E+00 0.  1.
         23    2    1    2    0    0 -0.36602003141E+00 -0.24284655504E+03  0.88190248572E+02  0.27405420508E+03  0.91398053097E+02 0.  0.
        254    2    1    2    0    0  0.36602003141E+00  0.24284655504E+03 -0.14003310158E+04  0.16844837114E+04  0.90420342670E+03 0.  0.
        -24    2    4    4    0    0  0.23905700859E+03  0.41717016219E+03 -0.37590171542E+03  0.61537393694E+03  0.78764110080E+02 0.  0.
         24    2    4    4    0    0 -0.23869098856E+03 -0.17432360715E+03 -0.10244293004E+04  0.10691097745E+04  0.78601592163E+02 0.  0.
         13    1    3    3    0    0  0.19319667403E+02 -0.19627061699E+03  0.34343129521E+02  0.20018705050E+03  0.00000000000E+00 0.  1.
        -13    1    3    3    0    0 -0.19685687434E+02 -0.46575938054E+02  0.53847119051E+02  0.73867154578E+02  0.00000000000E+00 0. -1.
          4    1    6    6  502    0 -0.19938681755E+03 -0.14724084553E+03 -0.73236998325E+03  0.77317576395E+03  0.00000000000E+00 0. -1.
          3    1    5    5  503    0  0.14510545757E+03  0.30316912448E+03 -0.29351715634E+03  0.44622800553E+03  0.00000000000E+00 0. -1.
         -4    1    5    5    0  503  0.93951551026E+02  0.11400103771E+03 -0.82384559077E+02  0.16914593141E+03  0.00000000000E+00 0.  1.
         -3    1    6    6    0  502 -0.39304171013E+02 -0.27082761619E+02 -0.29205931718E+03  0.29593401053E+03  0.00000000000E+00 0.  1.
<mgrwt>
<rscale>  0 0.14540142E+04</rscale>
<asrwt>0</asrwt>
<pdfrwt beam="1">  1        2 0.49722858E-01 0.14540142E+04</pdfrwt>
<pdfrwt beam="2">  1       -2 0.25159066E+00 0.14540142E+04</pdfrwt>
<totfact> 0.61595583E+00</totfact>
</mgrwt>
</event>
<event>
12    1  0.1495204E-007  0.1792082E+04  0.7818608E-02  0.8710521E-01
          2   -1    0    0  501    0  0.00000000000E+00  0.00000000000E+00  0.44961687742E+03  0.44961687742E+03  0.00000000000E+00 0.  1.
         -2   -1    0    0    0  501 -0.00000000000E+00 -0.00000000000E+00 -0.17857201524E+04  0.17857201524E+04  0.00000000000E+00 0. -1.
         23    2    1    2    0    0  0.41387344264E+03 -0.47338114777E+03 -0.27677832782E+03  0.69291677897E+03  0.90257865254E+02 0.  0.
        254    2    1    2    0    0 -0.41387344264E+03  0.47338114777E+03 -0.10593249471E+04  0.15424202508E+04  0.92817560244E+03 0.  0.
        -24    2    4    4    0    0  0.54277842398E+02  0.36941468992E+03 -0.50178948057E+01  0.38143233020E+03  0.77795539373E+02 0.  0.
         24    2    4    4    0    0 -0.46815128504E+03  0.10396645785E+03 -0.10543070523E+04  0.11609879206E+04  0.79717885196E+02 0.  0.
         11    1    3    3    0    0  0.22140912001E+03 -0.25064386888E+03 -0.19612112846E+03  0.38769555641E+03  0.00000000000E+00 0.  1.
        -11    1    3    3    0    0  0.19246432263E+03 -0.22273727890E+03 -0.80657199361E+02  0.30522122256E+03  0.00000000000E+00 0. -1.
          2    1    6    6  502    0 -0.10989640983E+03  0.18548172598E+02 -0.17265197453E+03  0.20549929418E+03  0.00000000000E+00 0. -1.
          3    1    5    5  503    0 -0.50033154490E+01  0.16921401752E+03 -0.27218961207E+02  0.17146220791E+03  0.00000000000E+00 0. -1.
         -4    1    5    5    0  503  0.59281157847E+02  0.20020067240E+03  0.22201066402E+02  0.20997012229E+03  0.00000000000E+00 0.  1.
         -1    1    6    6    0  502 -0.35825487521E+03  0.85418285253E+02 -0.88165507781E+03  0.95548862646E+03  0.00000000000E+00 0.  1.
<mgrwt>
<rscale>  0 0.17920825E+04</rscale>
<asrwt>0</asrwt>
<pdfrwt beam="1">  1        2 0.69171826E-01 0.17920825E+04</pdfrwt>
<pdfrwt beam="2">  1       -2 0.27472618E+00 0.17920825E+04</pdfrwt>
<totfact> 0.29846949E+00</totfact>
</mgrwt>
</event>
<event>
12    1  0.1495204E-007  0.1550339E+04  0.7818608E-02  0.8851651E-01
         -1   -1    0    0    0  501 -0.00000000000E+00  0.00000000000E+00  0.39933979258E+03  0.39933979258E+03  0.00000000000E+00 0.  1.
          1   -1    0    0  501    0  0.00000000000E+00 -0.00000000000E+00 -0.15047033393E+04  0.15047033393E+04  0.00000000000E+00 0. -1.
         23    2    1    2    0    0 -0.47621679627E+03  0.19743128286E+03 -0.36983064288E+03  0.64070307120E+03  0.89242212716E+02 0.  0.
        254    2    1    2    0    0  0.47621679627E+03 -0.19743128286E+03 -0.73553290383E+03  0.12633400607E+04  0.88840188415E+03 0.  0.
        -24    2    4    4    0    0  0.34090580353E+03 -0.30709037635E+03  0.36027146952E+02  0.46835245140E+03  0.86803210108E+02 0.  0.
         24    2    4    4    0    0  0.13531099273E+03  0.10965909350E+03 -0.77156005078E+03  0.79498760927E+03  0.79788504063E+02 0.  0.
         13    1    3    3    0    0 -0.42093088194E+02  0.40038993519E+02 -0.66062534812E+02  0.87972766135E+02  0.00000000000E+00 0.  1.
        -13    1    3    3    0    0 -0.43412370807E+03  0.15739228934E+03 -0.30376810807E+03  0.55273030506E+03  0.00000000000E+00 0. -1.
          4    1    6    6  502    0  0.12861734640E+03  0.84621513088E+02 -0.52614233366E+03  0.54820523304E+03  0.00000000000E+00 0. -1.
          1    1    5    5  503    0  0.13257407263E+03 -0.16100948145E+03  0.46522827638E+02  0.21369209471E+03  0.00000000000E+00 0. -1.
         -2    1    5    5    0  503  0.20833173090E+03 -0.14608089490E+03 -0.10495680686E+02  0.25466035669E+03  0.00000000000E+00 0.  1.
         -1    1    6    6    0  502  0.66936463376E+01  0.25037580407E+02 -0.24541771713E+03  0.24678237622E+03  0.00000000000E+00 0.  1.
<mgrwt>
<rscale>  0 0.15503392E+04</rscale>
<asrwt>0</asrwt>
<pdfrwt beam="1">  1        1 0.23149283E+00 0.15503392E+04</pdfrwt>
<pdfrwt beam="2">  1       -1 0.61436890E-01 0.15503392E+04</pdfrwt>
<totfact> 0.16807368E+01</totfact>
</mgrwt>
</event>
<event>
12    1  0.1495204E-007  0.1459948E+04  0.7818608E-02  0.8911533E-01
         -1   -1    0    0    0  501 -0.00000000000E+00  0.00000000000E+00  0.22666251207E+03  0.22666251207E+03  0.00000000000E+00 0.  1.
          1   -1    0    0  501    0  0.00000000000E+00 -0.00000000000E+00 -0.23509040983E+04  0.23509040983E+04  0.00000000000E+00 0. -1.
         23    2    1    2    0    0 -0.45047314128E+02 -0.33167286510E+03 -0.14722984436E+03  0.37633499591E+03  0.88967702713E+02 0.  0.
        254    2    1    2    0    0  0.45047314128E+02  0.33167286510E+03 -0.19770117419E+04  0.22012316145E+04  0.90818998181E+03 0.  0.
        -24    2    4    4    0    0 -0.31836001406E+03  0.13271744078E+03 -0.27679867408E+03  0.44945432230E+03  0.80154003095E+02 0.  0.
         24    2    4    4    0    0  0.36340732819E+03  0.19895542432E+03 -0.17002130678E+04  0.17517772922E+04  0.79693528104E+02 0.  0.
         11    1    3    3    0    0 -0.63814826741E+02 -0.22245484215E+03 -0.12598892350E+03  0.26349895209E+03  0.00000000000E+00 0.  1.
        -11    1    3    3    0    0  0.18767512613E+02 -0.10921802295E+03 -0.21240920856E+02  0.11283604382E+03  0.00000000000E+00 0. -1.
          2    1    6    6  502    0  0.64451533001E+02  0.56945292960E+02 -0.25363382838E+03  0.26781875475E+03  0.00000000000E+00 0. -1.
          1    1    5    5  503    0  0.57095073758E+00 -0.55773504831E+01 -0.96228799712E+00  0.56884814622E+01  0.00000000000E+00 0. -1.
         -2    1    5    5    0  503 -0.31893096480E+03  0.13829479126E+03 -0.27583638609E+03  0.44376584083E+03  0.00000000000E+00 0.  1.
         -1    1    6    6    0  502  0.29895579519E+03  0.14201013136E+03 -0.14465792395E+04  0.14839585375E+04  0.00000000000E+00 0.  1.
<mgrwt>
<rscale>  0 0.14599477E+04</rscale>
<asrwt>0</asrwt>
<pdfrwt beam="1">  1        1 0.36167753E+00 0.14599477E+04</pdfrwt>
<pdfrwt beam="2">  1       -1 0.34871158E-01 0.14599477E+04</pdfrwt>
<totfact> 0.13045990E+01</totfact>
</mgrwt>
</event>
<event>
12    1  0.1495204E-007  0.1946823E+04  0.7818608E-02  0.8631894E-01
         -1   -1    0    0    0  501 -0.00000000000E+00  0.00000000000E+00  0.64495886366E+03  0.64495886366E+03  0.00000000000E+00 0.  1.
          1   -1    0    0  501    0  0.00000000000E+00 -0.00000000000E+00 -0.14691318244E+04  0.14691318244E+04  0.00000000000E+00 0. -1.
         23    2    1    2    0    0 -0.69928956232E+03  0.20428991618E+03 -0.49051694745E+03  0.88398626583E+03  0.10042201260E+03 0.  0.
        254    2    1    2    0    0  0.69928956232E+03 -0.20428991618E+03 -0.33365601328E+03  0.12301044222E+04  0.93332218048E+03 0.  0.
        -24    2    4    4    0    0  0.27660774670E+03 -0.30595227210E+03  0.25664398422E+03  0.49263426144E+03  0.81876385909E+02 0.  0.
         24    2    4    4    0    0  0.42268181562E+03  0.10166235593E+03 -0.59029999750E+03  0.73747016079E+03  0.80081203381E+02 0.  0.
         11    1    3    3    0    0 -0.11110694112E+03  0.63911535135E+02 -0.58992623210E+02  0.14110126251E+03  0.00000000000E+00 0.  1.
        -11    1    3    3    0    0 -0.58818262120E+03  0.14037838104E+03 -0.43152432424E+03  0.74288500332E+03  0.00000000000E+00 0. -1.
          2    1    6    6  502    0  0.38942565528E+03  0.77191653127E+02 -0.55912144301E+03  0.68573149289E+03  0.00000000000E+00 0. -1.
          3    1    5    5  503    0  0.16980169861E+03 -0.20649889758E+03  0.12123550244E+03  0.29355145819E+03  0.00000000000E+00 0. -1.
         -4    1    5    5    0  503  0.10680604808E+03 -0.99453374528E+02  0.13540848179E+03  0.19908280325E+03  0.00000000000E+00 0.  1.
         -1    1    6    6    0  502  0.33256160340E+02  0.24470702800E+02 -0.31178554490E+02  0.51738667901E+02  0.00000000000E+00 0.  1.
<mgrwt>
<rscale>  0 0.19468226E+04</rscale>
<asrwt>0</asrwt>
<pdfrwt beam="1">  1        1 0.22602028E+00 0.19468226E+04</pdfrwt>
<pdfrwt beam="2">  1       -1 0.99224440E-01 0.19468226E+04</pdfrwt>
<totfact> 0.62141509E+00</totfact>
</mgrwt>
</event>
<event>
12    1  0.1495204E-007  0.1719788E+04  0.7818608E-02  0.8750158E-01
         -2   -1    0    0    0  501 -0.00000000000E+00  0.00000000000E+00  0.39933814815E+03  0.39933814815E+03  0.00000000000E+00 0.  1.
          2   -1    0    0  501    0  0.00000000000E+00 -0.00000000000E+00 -0.18516086718E+04  0.18516086718E+04  0.00000000000E+00 0. -1.
         23    2    1    2    0    0  0.46730932659E+03 -0.37531613880E+03 -0.30938760710E+03  0.68061638551E+03  0.90982207261E+02 0.  0.
        254    2    1    2    0    0 -0.46730932659E+03  0.37531613880E+03 -0.11428829165E+04  0.15703304344E+04  0.89471565404E+03 0.  0.
        -24    2    4    4    0    0  0.21808590713E+03  0.25703733989E+03 -0.21779601596E+03  0.41045366374E+03  0.86066535421E+02 0.  0.
         24    2    4    4    0    0 -0.68539523372E+03  0.11827879891E+03 -0.92508690054E+03  0.11598767706E+04  0.75972684982E+02 0.  0.
         13    1    3    3    0    0  0.40259761415E+03 -0.35693276834E+03 -0.26282021904E+03  0.59879905442E+03  0.00000000000E+00 0. -1.
        -13    1    3    3    0    0  0.64711712442E+02 -0.18383370455E+02 -0.46567388062E+02  0.81817331095E+02  0.00000000000E+00 0.  1.
          4    1    6    6  502    0 -0.49214649157E+03  0.10018057200E+03 -0.71602013178E+03  0.87460227835E+03  0.00000000000E+00 0. -1.
          3    1    5    5  503    0  0.13299352831E+03  0.11840259221E+03 -0.72195038008E+02  0.19214207225E+03  0.00000000000E+00 0. -1.
         -4    1    5    5    0  503  0.85092378821E+02  0.13863474768E+03 -0.14560097795E+03  0.21831159149E+03  0.00000000000E+00 0.  1.
         -3    1    6    6    0  502 -0.19324874215E+03  0.18098226909E+02 -0.20906676876E+03  0.28527449230E+03  0.00000000000E+00 0.  1.
<mgrwt>
<rscale>  0 0.17197883E+04</rscale>
<asrwt>0</asrwt>
<pdfrwt beam="1">  1        2 0.28486287E+00 0.17197883E+04</pdfrwt>
<pdfrwt beam="2">  1       -2 0.61436639E-01 0.17197883E+04</pdfrwt>
<totfact> 0.18902213E+01</totfact>
</mgrwt>
</event>
<event>
12    1  0.1495204E-007  0.2117439E+04  0.7818608E-02  0.8553600E-01
         -1   -1    0    0    0  501 -0.00000000000E+00  0.00000000000E+00  0.77942453319E+03  0.77942453319E+03  0.00000000000E+00 0.  1.
          1   -1    0    0  501    0  0.00000000000E+00 -0.00000000000E+00 -0.14380960300E+04  0.14380960300E+04  0.00000000000E+00 0. -1.
         23    2    1    2    0    0  0.29452321488E+03 -0.70951543050E+03 -0.68818963846E+03  0.10354655043E+04  0.91802842476E+02 0.  0.
        254    2    1    2    0    0 -0.29452321488E+03  0.70951543050E+03  0.29518141626E+02  0.11820550589E+04  0.89790131496E+03 0.  0.
        -24    2    4    4    0    0 -0.35335583927E+03  0.71943164906E+03  0.32432067204E+03  0.86836953382E+03  0.80246508513E+02 0.  0.
         24    2    4    4    0    0  0.58832624387E+02 -0.99162185601E+01 -0.29480253042E+03  0.31368552510E+03  0.89053173077E+02 0.  0.
         11    1    3    3    0    0  0.26352308283E+02 -0.27287616142E+02 -0.55021167036E+02  0.66831032975E+02  0.00000000000E+00 0. -1.
        -11    1    3    3    0    0  0.26817090660E+03 -0.68222781436E+03 -0.63316847142E+03  0.96863447133E+03  0.00000000000E+00 0.  1.
          2    1    6    6  502    0 -0.31084495984E+01  0.13177170401E+01  0.57191038412E+01  0.66413090464E+01  0.00000000000E+00 0. -1.
          3    1    5    5  503    0 -0.68686998642E+02  0.21774653244E+03  0.79917624330E+02  0.24190552464E+03  0.00000000000E+00 0. -1.
         -4    1    5    5    0  503 -0.28466884063E+03  0.50168511663E+03  0.24440304771E+03  0.62646400918E+03  0.00000000000E+00 0.  1.
         -1    1    6    6    0  502  0.61941073985E+02 -0.11233935600E+02 -0.30052163426E+03  0.30704421606E+03  0.00000000000E+00 0.  1.
<mgrwt>
<rscale>  0 0.21174393E+04</rscale>
<asrwt>0</asrwt>
<pdfrwt beam="1">  1        1 0.22124554E+00 0.21174393E+04</pdfrwt>
<pdfrwt beam="2">  1       -1 0.11991147E+00 0.21174393E+04</pdfrwt>
<totfact> 0.41146253E+00</totfact>
</mgrwt>
</event>
<event>
12    1  0.1495204E-007  0.1461893E+04  0.7818608E-02  0.8910197E-01
          1   -1    0    0  501    0  0.00000000000E+00  0.00000000000E+00  0.32484731855E+03  0.32484731855E+03  0.00000000000E+00 0. -1.
         -1   -1    0    0    0  501 -0.00000000000E+00 -0.00000000000E+00 -0.16447188450E+04  0.16447188450E+04  0.00000000000E+00 0.  1.
         23    2    1    2    0    0 -0.36791870177E+03 -0.21135500618E+03 -0.20629281132E+03  0.48030100738E+03  0.89984576122E+02 0.  0.
        254    2    1    2    0    0  0.36791870177E+03  0.21135500618E+03 -0.11135787151E+04  0.14892651562E+04  0.89320660592E+03 0.  0.
        -24    2    4    4    0    0  0.16495647058E+03 -0.27609983929E+03 -0.10462473417E+03  0.34769008851E+03  0.80624464046E+02 0.  0.
         24    2    4    4    0    0  0.20296223119E+03  0.48745484547E+03 -0.10089539810E+04  0.11415750677E+04  0.79997535915E+02 0.  0.
         13    1    3    3    0    0 -0.86402688523E+02 -0.45450139442E+02 -0.91938140520E+02  0.13410354746E+03  0.00000000000E+00 0.  1.
        -13    1    3    3    0    0 -0.28151601324E+03 -0.16590486674E+03 -0.11435467080E+03  0.34619745992E+03  0.00000000000E+00 0. -1.
          2    1    6    6  502    0  0.20656805793E+03  0.48802684764E+03 -0.99722555928E+03  0.11292915402E+04  0.00000000000E+00 0. -1.
          3    1    5    5  503    0  0.16797970320E+03 -0.27603801617E+03 -0.93829053761E+02  0.33647891225E+03  0.00000000000E+00 0. -1.
         -4    1    5    5    0  503 -0.30232326239E+01 -0.61823123076E-01 -0.10795680408E+02  0.11211176258E+02  0.00000000000E+00 0.  1.
         -1    1    6    6    0  502 -0.36058267453E+01 -0.57200216949E+00 -0.11728421692E+02  0.12283527522E+02  0.00000000000E+00 0.  1.
<mgrwt>
<rscale>  0 0.14618926E+04</rscale>
<asrwt>0</asrwt>
<pdfrwt beam="1">  1        1 0.49976511E-01 0.14618926E+04</pdfrwt>
<pdfrwt beam="2">  1       -1 0.25303367E+00 0.14618926E+04</pdfrwt>
<totfact> 0.51103338E+00</totfact>
</mgrwt>
</event>
<event>
12    1  0.1495204E-007  0.2337640E+04  0.7818608E-02  0.8463226E-01
         -2   -1    0    0    0  501 -0.00000000000E+00  0.00000000000E+00  0.46071226910E+03  0.46071226910E+03  0.00000000000E+00 0.  1.
          2   -1    0    0  501    0  0.00000000000E+00 -0.00000000000E+00 -0.29652780851E+04  0.29652780851E+04  0.00000000000E+00 0. -1.
         23    2    1    2    0    0  0.34004003969E+03  0.19917941893E+03 -0.24096694089E+04  0.24434019321E+04  0.91687905907E+02 0.  0.
        254    2    1    2    0    0 -0.34004003969E+03 -0.19917941893E+03 -0.94896407092E+02  0.98258842210E+03  0.89508380035E+03 0.  0.
        -24    2    4    4    0    0 -0.31750000802E+03  0.31317373012E+03 -0.10140638896E+03  0.46418723995E+03  0.79388271636E+02 0.  0.
         24    2    4    4    0    0 -0.22540031667E+02 -0.51235314905E+03  0.65099818723E+01  0.51840118215E+03  0.75389677138E+02 0.  0.
         13    1    3    3    0    0  0.13780755286E+02 -0.95954765577E+01 -0.12646361811E+03  0.12757362224E+03  0.00000000000E+00 0.  1.
        -13    1    3    3    0    0  0.32625928441E+03  0.20877489549E+03 -0.22832057908E+04  0.23158283098E+04  0.00000000000E+00 0. -1.
          2    1    6    6  502    0 -0.14360198085E+02 -0.34573973363E+03 -0.30994169202E+02  0.34742310980E+03  0.00000000000E+00 0. -1.
          3    1    5    5  503    0 -0.21221947118E+03  0.23369808641E+03 -0.38406570713E+02  0.31800466068E+03  0.00000000000E+00 0. -1.
         -4    1    5    5    0  503 -0.10528053685E+03  0.79475643710E+02 -0.62999818252E+02  0.14618257927E+03  0.00000000000E+00 0.  1.
         -1    1    6    6    0  502 -0.81798335816E+01 -0.16661341542E+03  0.37504151074E+02  0.17097807235E+03  0.00000000000E+00 0.  1.
<mgrwt>
<rscale>  0 0.23376398E+04</rscale>
<asrwt>0</asrwt>
<pdfrwt beam="1">  1        2 0.45619665E+00 0.23376398E+04</pdfrwt>
<pdfrwt beam="2">  1       -2 0.70878807E-01 0.23376398E+04</pdfrwt>
<totfact> 0.29942648E+00</totfact>
</mgrwt>
</event>
<event>
12    1  0.1495204E-007  0.1827736E+04  0.7818608E-02  0.8691688E-01
         -1   -1    0    0    0  501 -0.00000000000E+00  0.00000000000E+00  0.46965337598E+03  0.46965337598E+03  0.00000000000E+00 0.  1.
          1   -1    0    0  501    0  0.00000000000E+00 -0.00000000000E+00 -0.17782354795E+04  0.17782354795E+04  0.00000000000E+00 0. -1.
         23    2    1    2    0    0  0.24402607624E+03  0.25890794801E+03  0.23344251980E+03  0.43265077413E+03  0.78161569015E+02 0.  0.
        254    2    1    2    0    0 -0.24402607624E+03 -0.25890794801E+03 -0.15420246233E+04  0.18152380813E+04  0.88919474897E+03 0.  0.
        -24    2    4    4    0    0 -0.12962681888E+03  0.34561656565E+02  0.69481178141E+02  0.17128546651E+03  0.80705988904E+02 0.  0.
         24    2    4    4    0    0 -0.11439925736E+03 -0.29346960458E+03 -0.16115058015E+04  0.16439526148E+04  0.80110253797E+02 0.  0.
         13    1    3    3    0    0  0.33746961907E+01  0.12284648943E+02 -0.49240321101E+01  0.13658230715E+02  0.00000000000E+00 0. -1.
        -13    1    3    3    0    0  0.24065138005E+03  0.24662329907E+03  0.23836655191E+03  0.41899254341E+03  0.00000000000E+00 0.  1.
          4    1    6    6  502    0 -0.91517405741E+02 -0.19211076535E+03 -0.12427308336E+04  0.12608179513E+04  0.00000000000E+00 0. -1.
          3    1    5    5  503    0 -0.11592763136E+03  0.37190171043E+02  0.86450719742E+02  0.14931862402E+03  0.00000000000E+00 0. -1.
         -4    1    5    5    0  503 -0.13699187524E+02 -0.26285144775E+01 -0.16969541600E+02  0.21966842497E+02  0.00000000000E+00 0.  1.
         -3    1    6    6    0  502 -0.22881851616E+02 -0.10135883923E+03 -0.36877496789E+03  0.38313466349E+03  0.00000000000E+00 0.  1.
<mgrwt>
<rscale>  0 0.18277355E+04</rscale>
<asrwt>0</asrwt>
<pdfrwt beam="1">  1        1 0.27357469E+00 0.18277355E+04</pdfrwt>
<pdfrwt beam="2">  1       -1 0.72254365E-01 0.18277355E+04</pdfrwt>
<totfact> 0.76678867E+00</totfact>
</mgrwt>
</event>
<event>
12    1  0.1495204E-007  0.1637988E+04  0.7818608E-02  0.8797544E-01
          2   -1    0    0  501    0  0.00000000000E+00  0.00000000000E+00  0.13712626886E+04  0.13712626886E+04  0.00000000000E+00 0. -1.
         -2   -1    0    0    0  501 -0.00000000000E+00 -0.00000000000E+00 -0.48914867012E+03  0.48914867012E+03  0.00000000000E+00 0.  1.
         23    2    1    2    0    0 -0.51875545317E+03 -0.20657127112E+03  0.40923197532E+03  0.69628916131E+03  0.74624903991E+02 0.  0.
        254    2    1    2    0    0  0.51875545317E+03  0.20657127112E+03  0.47288204321E+03  0.11641221974E+04  0.90541932471E+03 0.  0.
        -24    2    4    4    0    0 -0.22638558236E+03  0.44669566261E+02 -0.30753611343E+02  0.24646738720E+03  0.80960399519E+02 0.  0.
         24    2    4    4    0    0  0.74514103553E+03  0.16190170486E+03  0.50363565455E+03  0.91765481025E+03  0.83631055044E+02 0.  0.
         11    1    3    3    0    0 -0.23304876449E+03 -0.57541715615E+02  0.15380257660E+03  0.28509298174E+03  0.00000000000E+00 0.  1.
        -11    1    3    3    0    0 -0.28570668868E+03 -0.14902955551E+03  0.25542939872E+03  0.41119617957E+03  0.00000000000E+00 0. -1.
          4    1    6    6  502    0  0.66540838730E+01  0.86441993187E+01  0.16551790343E+02  0.19823238323E+02  0.00000000000E+00 0. -1.
          3    1    5    5  503    0 -0.17017819436E+02  0.27192020163E+01 -0.28049968391E+02  0.32921132494E+02  0.00000000000E+00 0. -1.
         -4    1    5    5    0  503 -0.20936776293E+03  0.41950364245E+02 -0.27036429528E+01  0.21354625471E+03  0.00000000000E+00 0.  1.
         -3    1    6    6    0  502  0.73848695166E+03  0.15325750554E+03  0.48708386421E+03  0.89783157192E+03  0.00000000000E+00 0.  1.
<mgrwt>
<rscale>  0 0.16379882E+04</rscale>
<asrwt>0</asrwt>
<pdfrwt beam="1">  1        2 0.21096349E+00 0.16379882E+04</pdfrwt>
<pdfrwt beam="2">  1       -2 0.75253642E-01 0.16379882E+04</pdfrwt>
<totfact> 0.22778343E+01</totfact>
</mgrwt>
</event>
<event>
12    1  0.1495204E-007  0.1705626E+04  0.7818608E-02  0.8758162E-01
         -1   -1    0    0    0  501 -0.00000000000E+00  0.00000000000E+00  0.13442018957E+04  0.13442018957E+04  0.00000000000E+00 0.  1.
          1   -1    0    0  501    0  0.00000000000E+00 -0.00000000000E+00 -0.54105690029E+03  0.54105690029E+03  0.00000000000E+00 0. -1.
         23    2    1    2    0    0  0.48592512816E+03  0.15285948409E+03  0.53246255874E+03  0.74244883673E+03  0.90689837584E+02 0.  0.
        254    2    1    2    0    0 -0.48592512816E+03 -0.15285948409E+03  0.27068243665E+03  0.11428099593E+04  0.98653756614E+03 0.  0.
        -24    2    4    4    0    0 -0.57265210799E+03 -0.10217569318E+03  0.56926443220E+03  0.81775935740E+03  0.79360341336E+02 0.  0.
         24    2    4    4    0    0  0.86726979826E+02 -0.50683790913E+02 -0.29858199555E+03  0.32505060186E+03  0.80101623019E+02 0.  0.
         13    1    3    3    0    0  0.87591908553E+02  0.65958211681E+02  0.11749953455E+03  0.16071393453E+03  0.00000000000E+00 0. -1.
        -13    1    3    3    0    0  0.39833321961E+03  0.86901272407E+02  0.41496302419E+03  0.58173490220E+03  0.00000000000E+00 0.  1.
          4    1    6    6  502    0  0.17574759143E+02  0.17019333492E+02 -0.25548291254E+02  0.35372942448E+02  0.00000000000E+00 0. -1.
          1    1    5    5  503    0 -0.10267071424E+03 -0.36997869438E+02  0.73795457308E+02  0.13174174519E+03  0.00000000000E+00 0. -1.
         -2    1    5    5    0  503 -0.46998139375E+03 -0.65177823737E+02  0.49546897489E+03  0.68601761221E+03  0.00000000000E+00 0.  1.
         -1    1    6    6    0  502  0.69152220683E+02 -0.67703124405E+02 -0.27303370429E+03  0.28967765941E+03  0.00000000000E+00 0.  1.
<mgrwt>
<rscale>  0 0.17056256E+04</rscale>
<asrwt>0</asrwt>
<pdfrwt beam="1">  1        1 0.83239524E-01 0.17056256E+04</pdfrwt>
<pdfrwt beam="2">  1       -1 0.20680029E+00 0.17056256E+04</pdfrwt>
<totfact> 0.51031966E+00</totfact>
</mgrwt>
</event>
<event>
12    1  0.1495204E-007  0.1945317E+04  0.7818608E-02  0.8632622E-01
          1   -1    0    0  501    0  0.00000000000E+00  0.00000000000E+00  0.20824279072E+04  0.20824279072E+04  0.00000000000E+00 0. -1.
         -1   -1    0    0    0  501 -0.00000000000E+00 -0.00000000000E+00 -0.45430862067E+03  0.45430862067E+03  0.00000000000E+00 0.  1.
         23    2    1    2    0    0 -0.27873875637E+03 -0.33946875345E+03 -0.16777733179E+03  0.47879376448E+03  0.90332203376E+02 0.  0.
        254    2    1    2    0    0  0.27873875637E+03  0.33946875345E+03  0.17958966183E+04  0.20579427634E+04  0.90385254598E+03 0.  0.
        -24    2    4    4    0    0  0.68974858396E+02 -0.53393303594E+01  0.15971563331E+04  0.16006807896E+04  0.80527001979E+02 0.  0.
         24    2    4    4    0    0  0.20976389798E+03  0.34480808380E+03  0.19874028521E+03  0.45726197387E+03  0.81837059000E+02 0.  0.
         13    1    3    3    0    0 -0.71727487551E+02 -0.71073043549E+02 -0.79544514057E+02  0.12854392131E+03  0.00000000000E+00 0.  1.
        -13    1    3    3    0    0 -0.20701126882E+03 -0.26839570990E+03 -0.88232817734E+02  0.35024984316E+03  0.00000000000E+00 0. -1.
          4    1    6    6  502    0  0.49928366301E+02  0.15159692712E+03  0.58747058673E+02  0.17007553315E+03  0.00000000000E+00 0. -1.
          3    1    5    5  503    0  0.63569521392E+02 -0.27527152716E+02  0.74379443138E+03  0.74701337628E+03  0.00000000000E+00 0. -1.
         -4    1    5    5    0  503  0.54053370033E+01  0.22187822356E+02  0.85336190176E+03  0.85366741328E+03  0.00000000000E+00 0.  1.
         -3    1    6    6    0  502  0.15983553168E+03  0.19321115668E+03  0.13999322654E+03  0.28718644071E+03  0.00000000000E+00 0.  1.
<mgrwt>
<rscale>  0 0.19453174E+04</rscale>
<asrwt>0</asrwt>
<pdfrwt beam="1">  1        1 0.32037352E+00 0.19453174E+04</pdfrwt>
<pdfrwt beam="2">  1       -1 0.69893635E-01 0.19453174E+04</pdfrwt>
<totfact> 0.50531445E+00</totfact>
</mgrwt>
</event>
<event>
12    1  0.1650794E-007  0.1692701E+04  0.7818608E-02  0.8765538E-01
         -2   -1    0    0    0  501 -0.00000000000E+00  0.00000000000E+00  0.35996806597E+03  0.35996806597E+03  0.00000000000E+00 0.  1.
          2   -1    0    0  501    0  0.00000000000E+00 -0.00000000000E+00 -0.19899251709E+04  0.19899251709E+04  0.00000000000E+00 0. -1.
         23    2    1    2    0    0  0.41593116175E+03  0.20108145604E+03 -0.57056699796E+02  0.47443012043E+03  0.91629628937E+02 0.  0.
        254    2    1    2    0    0 -0.41593116175E+03 -0.20108145604E+03 -0.15729004052E+04  0.18754631165E+04  0.91099601175E+03 0.  0.
        -24    2    4    4    0    0  0.16879257081E+03 -0.35734480993E+03 -0.51267028807E+03  0.65197825880E+03  0.77836884146E+02 0.  0.
         24    2    4    4    0    0 -0.58472373256E+03  0.15626335389E+03 -0.10602301171E+04  0.12234848577E+04  0.80667320412E+02 0.  0.
         11    1    3    3    0    0  0.36857941426E+03  0.20241855979E+03 -0.67591580412E+02  0.42590219500E+03  0.00000000000E+00 0.  1.
        -11    1    3    3    0    0  0.47351747490E+02 -0.13371037465E+01  0.10534880615E+02  0.48527925428E+02  0.00000000000E+00 0. -1.
          2    1    6    6  502    0 -0.84031285907E+01  0.43090926997E+01 -0.47130771376E+02  0.48067561416E+02  0.00000000000E+00 0. -1.
          1    1    5    5  503    0  0.23490889845E+02 -0.96914351633E+01 -0.41655285380E+02  0.48794555242E+02  0.00000000000E+00 0. -1.
         -2    1    5    5    0  503  0.14530168096E+03 -0.34765337477E+03 -0.47101500269E+03  0.60318370356E+03  0.00000000000E+00 0.  1.
         -1    1    6    6    0  502 -0.57632060396E+03  0.15195426119E+03 -0.10130993457E+04  0.11754172963E+04  0.00000000000E+00 0.  1.
<mgrwt>
<rscale>  0 0.16927014E+04</rscale>
<asrwt>0</asrwt>
<pdfrwt beam="1">  1        2 0.30614234E+00 0.16927014E+04</pdfrwt>
<pdfrwt beam="2">  1       -2 0.55379702E-01 0.16927014E+04</pdfrwt>
<totfact> 0.19750466E+01</totfact>
</mgrwt>
</event>
<event>
12    1  0.1495204E-007  0.1507798E+04  0.7818608E-02  0.8879284E-01
         -2   -1    0    0    0  501 -0.00000000000E+00  0.00000000000E+00  0.36360552636E+03  0.36360552636E+03  0.00000000000E+00 0.  1.
          2   -1    0    0  501    0  0.00000000000E+00 -0.00000000000E+00 -0.15631322578E+04  0.15631322578E+04  0.00000000000E+00 0. -1.
         23    2    1    2    0    0 -0.29302938412E+02  0.40188907640E+03 -0.71569859304E+03  0.82648029593E+03  0.92041901080E+02 0.  0.
        254    2    1    2    0    0  0.29302938412E+02 -0.40188907640E+03 -0.48382813840E+03  0.11002574882E+04  0.90227677624E+03 0.  0.
        -24    2    4    4    0    0  0.30518728033E+03  0.10778643607E+03  0.11798175532E+02  0.33367287768E+03  0.80257089901E+02 0.  0.
         24    2    4    4    0    0 -0.27588434192E+03 -0.50967551248E+03 -0.49562631393E+03  0.76658461053E+03  0.78263809740E+02 0.  0.
         13    1    3    3    0    0  0.71543471907E+01  0.29638445981E+03 -0.45719952548E+03  0.54490947762E+03  0.00000000000E+00 0.  1.
        -13    1    3    3    0    0 -0.36457285603E+02  0.10550461659E+03 -0.25849906756E+03  0.28157081831E+03  0.00000000000E+00 0. -1.
          2    1    6    6  502    0 -0.10696289100E+03 -0.13832478787E+03 -0.12038629683E+03  0.21229146817E+03  0.00000000000E+00 0. -1.
          3    1    5    5  503    0  0.16084354043E+03  0.44757683568E+02 -0.32432020221E+02  0.17007566161E+03  0.00000000000E+00 0. -1.
         -4    1    5    5    0  503  0.14434373990E+03  0.63028752505E+02  0.44230195753E+02  0.16359721607E+03  0.00000000000E+00 0.  1.
         -1    1    6    6    0  502 -0.16892145091E+03 -0.37135072460E+03 -0.37524001710E+03  0.55429314237E+03  0.00000000000E+00 0.  1.
<mgrwt>
<rscale>  0 0.15077978E+04</rscale>
<asrwt>0</asrwt>
<pdfrwt beam="1">  1        2 0.24048189E+00 0.15077978E+04</pdfrwt>
<pdfrwt beam="2">  1       -2 0.55939311E-01 0.15077978E+04</pdfrwt>
<totfact> 0.33888112E+01</totfact>
</mgrwt>
</event>
<event>
12    1  0.1495204E-007  0.3196586E+04  0.7818608E-02  0.8189719E-01
         -2   -1    0    0    0  501 -0.00000000000E+00  0.00000000000E+00  0.31785168136E+04  0.31785168136E+04  0.00000000000E+00 0.  1.
          2   -1    0    0  501    0  0.00000000000E+00 -0.00000000000E+00 -0.80368965883E+03  0.80368965883E+03  0.00000000000E+00 0. -1.
         23    2    1    2    0    0 -0.18958119218E+03  0.73314843430E+03 -0.46632022858E+03  0.89509876708E+03  0.10148690604E+03 0.  0.
        254    2    1    2    0    0  0.18958119218E+03 -0.73314843430E+03  0.28411473833E+04  0.30871077053E+04  0.94056784731E+03 0.  0.
        -24    2    4    4    0    0 -0.27796980587E+03  0.40274966786E+02  0.85559379345E+03  0.90411925570E+03  0.80632519575E+02 0.  0.
         24    2    4    4    0    0  0.46755099805E+03 -0.77342340109E+03  0.19855535899E+04  0.21829884496E+04  0.78916537151E+02 0.  0.
         11    1    3    3    0    0 -0.20185897557E+03  0.68097482968E+03 -0.42866090362E+03  0.82959263193E+03  0.00000000000E+00 0. -1.
        -11    1    3    3    0    0  0.12277783397E+02  0.52173604626E+02 -0.37659324962E+02  0.65506135144E+02  0.00000000000E+00 0.  1.
          4    1    6    6  502    0  0.38417477637E+03 -0.57360564540E+03  0.15356745371E+04  0.16837190915E+04  0.00000000000E+00 0. -1.
          1    1    5    5  503    0 -0.21961145391E+03  0.57619274195E+02  0.60398557547E+03  0.64525014283E+03  0.00000000000E+00 0. -1.
         -2    1    5    5    0  503 -0.58358351964E+02 -0.17344307410E+02  0.25160821799E+03  0.25886911288E+03  0.00000000000E+00 0.  1.
         -3    1    6    6    0  502  0.83376221674E+02 -0.19981775568E+03  0.44987905277E+03  0.49926935811E+03  0.00000000000E+00 0.  1.
<mgrwt>
<rscale>  0 0.31965864E+04</rscale>
<asrwt>0</asrwt>
<pdfrwt beam="1">  1        2 0.12364456E+00 0.31965864E+04</pdfrwt>
<pdfrwt beam="2">  1       -2 0.48900258E+00 0.31965864E+04</pdfrwt>
<totfact> 0.55642680E-02</totfact>
</mgrwt>
</event>
<event>
12    1  0.1495204E-007  0.2333192E+04  0.7818608E-02  0.8464948E-01
          1   -1    0    0  501    0  0.00000000000E+00  0.00000000000E+00  0.47063338260E+03  0.47063338260E+03  0.00000000000E+00 0. -1.
         -1   -1    0    0    0  501 -0.00000000000E+00 -0.00000000000E+00 -0.28917328811E+04  0.28917328811E+04  0.00000000000E+00 0.  1.
         23    2    1    2    0    0 -0.58768756800E+03 -0.62732213167E+03 -0.18467712899E+04  0.20390207031E+04  0.90174807909E+02 0.  0.
        254    2    1    2    0    0  0.58768756800E+03  0.62732213167E+03 -0.57432820866E+03  0.13233455607E+04  0.82612399021E+03 0.  0.
        -24    2    4    4    0    0  0.37724746018E+03  0.57925500276E+03 -0.75850986296E+03  0.10293059858E+04  0.79256518457E+02 0.  0.
         24    2    4    4    0    0  0.21044010782E+03  0.48067128913E+02  0.18418165431E+03  0.29403957488E+03  0.77077246658E+02 0.  0.
         11    1    3    3    0    0 -0.91016096876E+02 -0.14857309282E+03 -0.39186836691E+03  0.42885744809E+03  0.00000000000E+00 0. -1.
        -11    1    3    3    0    0 -0.49667147112E+03 -0.47874903885E+03 -0.14549029230E+04  0.16101632550E+04  0.00000000000E+00 0.  1.
          2    1    6    6  502    0  0.19550085466E+03  0.29746687703E+02  0.13489963063E+03  0.23938120215E+03  0.00000000000E+00 0. -1.
          3    1    5    5  503    0  0.32752796158E+03  0.44692161719E+03 -0.61712792771E+03  0.82937348444E+03  0.00000000000E+00 0. -1.
         -4    1    5    5    0  503  0.49719498595E+02  0.13233338557E+03 -0.14138193525E+03  0.19993250134E+03  0.00000000000E+00 0.  1.
         -1    1    6    6    0  502  0.14939253159E+02  0.18320441210E+02  0.49282023680E+02  0.54658372726E+02  0.00000000000E+00 0.  1.
<mgrwt>
<rscale>  0 0.23331918E+04</rscale>
<asrwt>0</asrwt>
<pdfrwt beam="1">  1        1 0.72405136E-01 0.23331918E+04</pdfrwt>
<pdfrwt beam="2">  1       -1 0.44488198E+00 0.23331918E+04</pdfrwt>
<totfact> 0.15233069E-01</totfact>
</mgrwt>
</event>
<event>
12    1  0.1495204E-007  0.2173447E+04  0.7818608E-02  0.8529562E-01
          1   -1    0    0  501    0  0.00000000000E+00  0.00000000000E+00  0.10125013145E+04  0.10125013145E+04  0.00000000000E+00 0.  1.
         -1   -1    0    0    0  501 -0.00000000000E+00 -0.00000000000E+00 -0.11663862544E+04  0.11663862544E+04  0.00000000000E+00 0. -1.
         23    2    1    2    0    0 -0.85453151791E+03 -0.13254219033E+03  0.17719939886E+03  0.88747164837E+03  0.91731959448E+02 0.  0.
        254    2    1    2    0    0  0.85453151791E+03  0.13254219033E+03 -0.33108433872E+03  0.12914159205E+04  0.90019258663E+03 0.  0.
        -24    2    4    4    0    0  0.11147086548E+03  0.36066402091E+03  0.10081716551E+03  0.39857391635E+03  0.78694193580E+02 0.  0.
         24    2    4    4    0    0  0.74306065242E+03 -0.22812183059E+03 -0.43190150422E+03  0.89284200414E+03  0.80307111950E+02 0.  0.
         11    1    3    3    0    0 -0.36068262177E+03 -0.82430177901E+02  0.37939448578E+02  0.37192215535E+03  0.00000000000E+00 0. -1.
        -11    1    3    3    0    0 -0.49384889613E+03 -0.50112012425E+02  0.13925995028E+03  0.51554949302E+03  0.00000000000E+00 0.  1.
          2    1    6    6  502    0  0.56029988624E+03 -0.19241749251E+03 -0.36001500257E+03  0.69323246896E+03  0.00000000000E+00 0. -1.
          3    1    5    5  503    0  0.95176719017E+02  0.22677362714E+03  0.94756362436E+02  0.26355958345E+03  0.00000000000E+00 0. -1.
         -4    1    5    5    0  503  0.16294146468E+02  0.13389039377E+03  0.60608030694E+01  0.13501433290E+03  0.00000000000E+00 0.  1.
         -1    1    6    6    0  502  0.18276076618E+03 -0.35704338074E+02 -0.71886501653E+02  0.19960953517E+03  0.00000000000E+00 0.  1.
<mgrwt>
<rscale>  0 0.21734467E+04</rscale>
<asrwt>0</asrwt>
<pdfrwt beam="1">  1        1 0.15576943E+00 0.21734467E+04</pdfrwt>
<pdfrwt beam="2">  1       -1 0.17944404E+00 0.21734467E+04</pdfrwt>
<totfact> 0.28397059E+00</totfact>
</mgrwt>
</event>
<event>
12    1  0.1495204E-007  0.1164738E+04  0.7818608E-02  0.9144294E-01
          1   -1    0    0  501    0  0.00000000000E+00  0.00000000000E+00  0.34838764057E+03  0.34838764057E+03  0.00000000000E+00 0. -1.
         -1   -1    0    0    0  501 -0.00000000000E+00 -0.00000000000E+00 -0.97349549646E+03  0.97349549646E+03  0.00000000000E+00 0.  1.
         23    2    1    2    0    0 -0.11728549859E+03 -0.18089370775E+03 -0.56526941444E+02  0.24081242077E+03  0.91197067970E+02 0.  0.
        254    2    1    2    0    0  0.11728549859E+03  0.18089370775E+03 -0.56858091444E+03  0.10810707163E+04  0.89384071042E+03 0.  0.
        -24    2    4    4    0    0 -0.17987436164E+03  0.46182639847E+03 -0.30611080941E+03  0.58771669197E+03  0.77901694969E+02 0.  0.
         24    2    4    4    0    0  0.29715986022E+03 -0.28093269072E+03 -0.26247010503E+03  0.49335402429E+03  0.85325717166E+02 0.  0.
         11    1    3    3    0    0 -0.85277898651E+02 -0.53091110688E+02 -0.39609399243E+02  0.10798097305E+03  0.00000000000E+00 0.  1.
        -11    1    3    3    0    0 -0.32007599934E+02 -0.12780259706E+03 -0.16917542200E+02  0.13283144772E+03  0.00000000000E+00 0. -1.
          4    1    6    6  502    0  0.27223972262E+03 -0.22928615466E+03 -0.24919339203E+03  0.43449275474E+03  0.00000000000E+00 0. -1.
          3    1    5    5  503    0 -0.17936654880E+03  0.43403234620E+03 -0.26857300699E+03  0.54100637377E+03  0.00000000000E+00 0. -1.
         -4    1    5    5    0  503 -0.50781283916E+00  0.27794052274E+02 -0.37537802422E+02  0.46710318200E+02  0.00000000000E+00 0.  1.
         -3    1    6    6    0  502  0.24920137603E+02 -0.51646536060E+02 -0.13276712995E+02  0.58861269550E+02  0.00000000000E+00 0.  1.
<mgrwt>
<rscale>  0 0.11647383E+04</rscale>
<asrwt>0</asrwt>
<pdfrwt beam="1">  1        1 0.53598099E-01 0.11647383E+04</pdfrwt>
<pdfrwt beam="2">  1       -1 0.14976854E+00 0.11647383E+04</pdfrwt>
<totfact> 0.25049856E+01</totfact>
</mgrwt>
</event>
<event>
12    1  0.1495204E-007  0.1566392E+04  0.7818608E-02  0.8841465E-01
         -2   -1    0    0    0  501 -0.00000000000E+00  0.00000000000E+00  0.43876354834E+03  0.43876354834E+03  0.00000000000E+00 0.  1.
          2   -1    0    0  501    0  0.00000000000E+00 -0.00000000000E+00 -0.13980099960E+04  0.13980099960E+04  0.00000000000E+00 0. -1.
         23    2    1    2    0    0  0.11258208355E+03 -0.15547853338E+03  0.23789038375E+03  0.31948900877E+03  0.92914434656E+02 0.  0.
        254    2    1    2    0    0 -0.11258208355E+03  0.15547853338E+03 -0.11971368314E+04  0.15172845356E+04  0.91223213542E+03 0.  0.
        -24    2    4    4    0    0  0.26559965112E+03  0.23798968565E+03 -0.14577965295E+03  0.39412437683E+03  0.83066551927E+02 0.  0.
         24    2    4    4    0    0 -0.37818173467E+03 -0.82511152272E+02 -0.10513571784E+04  0.11231601587E+04  0.79418579765E+02 0.  0.
         11    1    3    3    0    0  0.50292042063E+02 -0.76482689515E+02  0.45131193435E+02  0.10205741478E+03  0.00000000000E+00 0. -1.
        -11    1    3    3    0    0  0.62290041485E+02 -0.78995843864E+02  0.19275919031E+03  0.21743159399E+03  0.00000000000E+00 0.  1.
          2    1    6    6  502    0 -0.35377099355E+03 -0.81099998648E+02 -0.10242464749E+04  0.10866517229E+04  0.00000000000E+00 0. -1.
          1    1    5    5  503    0  0.20295640195E+03  0.13654447576E+03 -0.11854887590E+03  0.27182628815E+03  0.00000000000E+00 0. -1.
         -2    1    5    5    0  503  0.62643249169E+02  0.10144520989E+03 -0.27230777049E+02  0.12229808868E+03  0.00000000000E+00 0.  1.
         -1    1    6    6    0  502 -0.24410741117E+02 -0.14111536239E+01 -0.27110703562E+02  0.36508435793E+02  0.00000000000E+00 0.  1.
<mgrwt>
<rscale>  0 0.15663918E+04</rscale>
<asrwt>0</asrwt>
<pdfrwt beam="1">  1        2 0.21507846E+00 0.15663918E+04</pdfrwt>
<pdfrwt beam="2">  1       -2 0.67502084E-01 0.15663918E+04</pdfrwt>
<totfact> 0.28063335E+01</totfact>
</mgrwt>
</event>
<event>
12    1  0.1495204E-007  0.1523516E+04  0.7818608E-02  0.8868964E-01
         -2   -1    0    0    0  501 -0.00000000000E+00  0.00000000000E+00  0.54568242247E+03  0.54568242247E+03  0.00000000000E+00 0.  1.
          2   -1    0    0  501    0  0.00000000000E+00 -0.00000000000E+00 -0.10633941119E+04  0.10633941119E+04  0.00000000000E+00 0. -1.
         23    2    1    2    0    0  0.32219889915E+03  0.30252089936E+03  0.47671214215E+02  0.45302205562E+03  0.87323611090E+02 0.  0.
        254    2    1    2    0    0 -0.32219889915E+03 -0.30252089936E+03 -0.56538290368E+03  0.11560544788E+04  0.90635153498E+03 0.  0.
        -24    2    4    4    0    0 -0.45378964038E+03 -0.24989075732E+03 -0.74707539393E+03  0.91259200830E+03  0.79574500190E+02 0.  0.
         24    2    4    4    0    0  0.13159074123E+03 -0.52630142031E+02  0.18169249025E+03  0.24346247047E+03  0.78585994211E+02 0.  0.
         11    1    3    3    0    0  0.13977704178E+03  0.11042898041E+03  0.59607889607E+02  0.18784376920E+03  0.00000000000E+00 0.  1.
        -11    1    3    3    0    0  0.18242185737E+03  0.19209191895E+03 -0.11936675392E+02  0.26517828642E+03  0.00000000000E+00 0. -1.
          2    1    6    6  502    0  0.79281202552E+02 -0.27770912581E+01  0.13754671382E+03  0.15878387763E+03  0.00000000000E+00 0. -1.
          1    1    5    5  503    0 -0.42440799988E+03 -0.22702381912E+03 -0.72192372806E+03  0.86766112852E+03  0.00000000000E+00 0. -1.
         -4    1    5    5    0  503 -0.29381640504E+02 -0.22866938206E+02 -0.25151665867E+02  0.44930879777E+02  0.00000000000E+00 0.  1.
         -1    1    6    6    0  502  0.52309538681E+02 -0.49853050773E+02  0.44145776434E+02  0.84678592839E+02  0.00000000000E+00 0.  1.
<mgrwt>
<rscale>  0 0.15235163E+04</rscale>
<asrwt>0</asrwt>
<pdfrwt beam="1">  1        2 0.16359909E+00 0.15235163E+04</pdfrwt>
<pdfrwt beam="2">  1       -2 0.83951144E-01 0.15235163E+04</pdfrwt>
<totfact> 0.27452187E+01</totfact>
</mgrwt>
</event>
<event>
12    1  0.1495204E-007  0.1127490E+04  0.7818608E-02  0.9178805E-01
          2   -1    0    0  501    0  0.00000000000E+00  0.00000000000E+00  0.14950257235E+04  0.14950257235E+04  0.00000000000E+00 0. -1.
         -2   -1    0    0    0  501 -0.00000000000E+00 -0.00000000000E+00 -0.21257704212E+03  0.21257704212E+03  0.00000000000E+00 0.  1.
         23    2    1    2    0    0 -0.64691416705E+02  0.80499264267E+02  0.42418485950E+01  0.13768608462E+03  0.90963474403E+02 0.  0.
        254    2    1    2    0    0  0.64691416705E+02 -0.80499264267E+02  0.12782068328E+04  0.15699166810E+04  0.90562716774E+03 0.  0.
        -24    2    4    4    0    0  0.33912686404E+03  0.18567560473E+03  0.10395700997E+04  0.11120071433E+04  0.79821265525E+02 0.  0.
         24    2    4    4    0    0 -0.27443544734E+03 -0.26617486900E+03  0.23863673301E+03  0.45790953765E+03  0.81054171275E+02 0.  0.
         11    1    3    3    0    0 -0.35115498343E+02  0.73386525611E+02 -0.34551710947E+02  0.88388353839E+02  0.00000000000E+00 0.  1.
        -11    1    3    3    0    0 -0.29575918362E+02  0.71127386560E+01  0.38793559542E+02  0.49297730780E+02  0.00000000000E+00 0. -1.
          2    1    6    6  502    0 -0.15087406589E+03 -0.98193992196E+02  0.13522171079E+03  0.22514429802E+03  0.00000000000E+00 0. -1.
          3    1    5    5  503    0  0.18011196499E+03  0.56138090620E+02  0.45816576519E+03  0.49548730916E+03  0.00000000000E+00 0. -1.
         -4    1    5    5    0  503  0.15901489906E+03  0.12953751411E+03  0.58140433456E+03  0.61651983417E+03  0.00000000000E+00 0.  1.
         -1    1    6    6    0  502 -0.12356138145E+03 -0.16798087680E+03  0.10341502222E+03  0.23276523962E+03  0.00000000000E+00 0.  1.
<mgrwt>
<rscale>  0 0.11274895E+04</rscale>
<asrwt>0</asrwt>
<pdfrwt beam="1">  1        2 0.23000395E+00 0.11274895E+04</pdfrwt>
<pdfrwt beam="2">  1       -2 0.32704161E-01 0.11274895E+04</pdfrwt>
<totfact> 0.11032441E+02</totfact>
</mgrwt>
</event>
<event>
12    1  0.1495204E-007  0.3117215E+04  0.7818608E-02  0.8211029E-01
         -2   -1    0    0    0  501 -0.00000000000E+00  0.00000000000E+00  0.80681175091E+03  0.80681175091E+03  0.00000000000E+00 0.  1.
          2   -1    0    0  501    0  0.00000000000E+00 -0.00000000000E+00 -0.30109336927E+04  0.30109336927E+04  0.00000000000E+00 0. -1.
         23    2    1    2    0    0 -0.39522559237E+03 -0.21206976938E+03 -0.26704613420E+04  0.27095588746E+04  0.95753121580E+02 0.  0.
        254    2    1    2    0    0  0.39522559237E+03  0.21206976938E+03  0.46633940020E+03  0.11081865689E+04  0.89968226581E+03 0.  0.
        -24    2    4    4    0    0 -0.16016979191E+03  0.36570316499E+03  0.97133773719E+02  0.41907964655E+03  0.82459766158E+02 0.  0.
         24    2    4    4    0    0  0.55539538428E+03 -0.15363339560E+03  0.36920562649E+03  0.68910692238E+03  0.80550001363E+02 0.  0.
         13    1    3    3    0    0 -0.29155469875E+03 -0.13251503701E+03 -0.21029934848E+04  0.21272390497E+04  0.00000000000E+00 0.  1.
        -13    1    3    3    0    0 -0.10367089361E+03 -0.79554732370E+02 -0.56746785718E+03  0.58231982497E+03  0.00000000000E+00 0. -1.
          4    1    6    6  502    0  0.22158470622E+03 -0.38400239254E+02  0.10569625469E+03  0.24848754226E+03  0.00000000000E+00 0. -1.
          3    1    5    5  503    0 -0.17762814624E+02  0.28253338625E+02  0.33571803177E+02  0.47337455523E+02  0.00000000000E+00 0. -1.
         -4    1    5    5    0  503 -0.14240697728E+03  0.33744982636E+03  0.63561970541E+02  0.37174219103E+03  0.00000000000E+00 0.  1.
         -3    1    6    6    0  502  0.33381067806E+03 -0.11523315635E+03  0.26350937180E+03  0.44061938012E+03  0.00000000000E+00 0.  1.
<mgrwt>
<rscale>  0 0.31172146E+04</rscale>
<asrwt>0</asrwt>
<pdfrwt beam="1">  1        2 0.46322056E+00 0.31172146E+04</pdfrwt>
<pdfrwt beam="2">  1       -2 0.12412489E+00 0.31172146E+04</pdfrwt>
<totfact> 0.70860660E-01</totfact>
</mgrwt>
</event>
<event>
12    1  0.1495204E-007  0.2075627E+04  0.7818608E-02  0.8572057E-01
         -2   -1    0    0    0  501 -0.00000000000E+00  0.00000000000E+00  0.32551745890E+03  0.32551745890E+03  0.00000000000E+00 0.  1.
          2   -1    0    0  501    0  0.00000000000E+00 -0.00000000000E+00 -0.33087515340E+04  0.33087515340E+04  0.00000000000E+00 0. -1.
         23    2    1    2    0    0  0.30522851375E+03  0.65369076604E+03 -0.44158887729E+03  0.85086630128E+03  0.92177344846E+02 0.  0.
        254    2    1    2    0    0 -0.30522851375E+03 -0.65369076604E+03 -0.25416451978E+04  0.27834026916E+04  0.87572493906E+03 0.  0.
        -24    2    4    4    0    0  0.22582703458E+03 -0.25486691140E+03 -0.15386920136E+04  0.15778415679E+04  0.77819719182E+02 0.  0.
         24    2    4    4    0    0 -0.53105554832E+03 -0.39882385464E+03 -0.10029531842E+04  0.12055611236E+04  0.79887863696E+02 0.  0.
         13    1    3    3    0    0  0.87540593226E+02  0.26160320865E+03 -0.13124468883E+03  0.30549101883E+03  0.00000000000E+00 0. -1.
        -13    1    3    3    0    0  0.21768792052E+03  0.39208755738E+03 -0.31034418847E+03  0.54537528245E+03  0.00000000000E+00 0.  1.
          4    1    6    6  502    0 -0.42170513995E+03 -0.31526336520E+03 -0.84947618761E+03  0.99941783445E+03  0.00000000000E+00 0. -1.
          1    1    5    5  503    0  0.17473633929E+03 -0.14148569484E+03 -0.97209712099E+03  0.99775939121E+03  0.00000000000E+00 0. -1.
         -2    1    5    5    0  503  0.51090695290E+02 -0.11338121656E+03 -0.56659489259E+03  0.58008217670E+03  0.00000000000E+00 0.  1.
         -3    1    6    6    0  502 -0.10935040837E+03 -0.83560489439E+02 -0.15347699657E+03  0.20614328920E+03  0.00000000000E+00 0.  1.
<mgrwt>
<rscale>  0 0.20756265E+04</rscale>
<asrwt>0</asrwt>
<pdfrwt beam="1">  1        2 0.50903872E+00 0.20756265E+04</pdfrwt>
<pdfrwt beam="2">  1       -2 0.50079607E-01 0.20756265E+04</pdfrwt>
<totfact> 0.38411592E+00</totfact>
</mgrwt>
</event>
<event>
12    1  0.1495204E-007  0.1445683E+04  0.7818608E-02  0.8921399E-01
         -1   -1    0    0    0  501 -0.00000000000E+00  0.00000000000E+00  0.34559773513E+03  0.34559773513E+03  0.00000000000E+00 0.  1.
          1   -1    0    0  501    0  0.00000000000E+00 -0.00000000000E+00 -0.15118738597E+04  0.15118738597E+04  0.00000000000E+00 0. -1.
         23    2    1    2    0    0  0.22716113099E+03  0.29454808987E+03 -0.69892753460E+02  0.38865773827E+03  0.88369020883E+02 0.  0.
        254    2    1    2    0    0 -0.22716113099E+03 -0.29454808987E+03 -0.10963833711E+04  0.14688138565E+04  0.90387880387E+03 0.  0.
        -24    2    4    4    0    0 -0.29200648324E+03 -0.18976115122E+03  0.53296760529E+01  0.35731583310E+03  0.79806756427E+02 0.  0.
         24    2    4    4    0    0  0.64845352249E+02 -0.10478693865E+03 -0.11017130471E+04  0.11114980234E+04  0.80442499048E+02 0.  0.
         11    1    3    3    0    0  0.14603098775E+03  0.24355761339E+03 -0.71410999004E+02  0.29282228604E+03  0.00000000000E+00 0.  1.
        -11    1    3    3    0    0  0.81130143248E+02  0.50990476478E+02  0.15182455437E+01  0.95835452232E+02  0.00000000000E+00 0. -1.
          2    1    6    6  502    0  0.81787015974E+02 -0.90968530796E+02 -0.83817945724E+03  0.84705914322E+03  0.00000000000E+00 0. -1.
          1    1    5    5  503    0 -0.21195281221E+03 -0.13840637968E+03 -0.31973361858E+02  0.25515214365E+03  0.00000000000E+00 0. -1.
         -2    1    5    5    0  503 -0.80053671030E+02 -0.51354771543E+02  0.37303037910E+02  0.10216368945E+03  0.00000000000E+00 0.  1.
         -1    1    6    6    0  502 -0.16941663725E+02 -0.13818407851E+02 -0.26353358988E+03  0.26443888020E+03  0.00000000000E+00 0.  1.
<mgrwt>
<rscale>  0 0.14456835E+04</rscale>
<asrwt>0</asrwt>
<pdfrwt beam="1">  1        1 0.23259598E+00 0.14456835E+04</pdfrwt>
<pdfrwt beam="2">  1       -1 0.53168883E-01 0.14456835E+04</pdfrwt>
<totfact> 0.22246770E+01</totfact>
</mgrwt>
</event>
<event>
12    1  0.1495204E-007  0.2076441E+04  0.7818608E-02  0.8571693E-01
          2   -1    0    0  501    0  0.00000000000E+00  0.00000000000E+00  0.73116574698E+03  0.73116574698E+03  0.00000000000E+00 0. -1.
         -2   -1    0    0    0  501 -0.00000000000E+00 -0.00000000000E+00 -0.14742236281E+04  0.14742236281E+04  0.00000000000E+00 0.  1.
         23    2    1    2    0    0  0.36801157866E+03 -0.67084335744E+03  0.60205148948E+02  0.77322733759E+03  0.93768456203E+02 0.  0.
        254    2    1    2    0    0 -0.36801157866E+03  0.67084335744E+03 -0.80326303002E+03  0.14321620375E+04  0.90575563695E+03 0.  0.
        -24    2    4    4    0    0 -0.64039456284E+03  0.48029716991E+03 -0.72185278384E+03  0.10808742518E+04  0.80169439579E+02 0.  0.
         24    2    4    4    0    0  0.27238298418E+03  0.19054618753E+03 -0.81410246178E+02  0.35128778569E+03  0.79215784668E+02 0.  0.
         11    1    3    3    0    0  0.34139428790E+03 -0.62778916020E+03  0.32103127394E+02  0.71533202100E+03  0.00000000000E+00 0.  1.
        -11    1    3    3    0    0  0.26617290760E+02 -0.43054197244E+02  0.28102021554E+02  0.57895316591E+02  0.00000000000E+00 0. -1.
          2    1    6    6  502    0  0.14911614097E+03  0.13526584586E+03 -0.18234325311E+02  0.20215084263E+03  0.00000000000E+00 0. -1.
          3    1    5    5  503    0 -0.29044963456E+03  0.23188978156E+03 -0.38680583106E+03  0.53642577488E+03  0.00000000000E+00 0. -1.
         -2    1    5    5    0  503 -0.34994492828E+03  0.24840738835E+03 -0.33504695278E+03  0.54444847688E+03  0.00000000000E+00 0.  1.
         -1    1    6    6    0  502  0.12326684320E+03  0.55280341668E+02 -0.63175920868E+02  0.14913694306E+03  0.00000000000E+00 0.  1.
<mgrwt>
<rscale>  0 0.20764410E+04</rscale>
<asrwt>0</asrwt>
<pdfrwt beam="1">  1        2 0.11248704E+00 0.20764410E+04</pdfrwt>
<pdfrwt beam="2">  1       -2 0.22680363E+00 0.20764410E+04</pdfrwt>
<totfact> 0.32024350E+00</totfact>
</mgrwt>
</event>
<event>
12    1  0.1495204E-007  0.2130365E+04  0.7818608E-02  0.8547984E-01
         -2   -1    0    0    0  501 -0.00000000000E+00  0.00000000000E+00  0.84260545243E+03  0.84260545243E+03  0.00000000000E+00 0.  1.
          2   -1    0    0  501    0  0.00000000000E+00 -0.00000000000E+00 -0.13465540014E+04  0.13465540014E+04  0.00000000000E+00 0. -1.
         23    2    1    2    0    0  0.88686614238E+02  0.49215978195E+03 -0.82515120474E+03  0.96847770638E+03  0.83594201702E+02 0.  0.
        254    2    1    2    0    0 -0.88686614238E+02 -0.49215978195E+03  0.32120265573E+03  0.12206817475E+04  0.10662111499E+04 0.  0.
        -24    2    4    4    0    0 -0.49694905141E+03 -0.13223197886E+03 -0.97802674396E+02  0.52900795732E+03  0.76422508802E+02 0.  0.
         24    2    4    4    0    0  0.40826243718E+03 -0.35992780309E+03  0.41900533013E+03  0.69167379018E+03  0.81369062266E+02 0.  0.
         11    1    3    3    0    0  0.59919203590E+02  0.17496611149E+03 -0.36014468364E+03  0.40485509047E+03  0.00000000000E+00 0. -1.
        -11    1    3    3    0    0  0.28767410648E+02  0.31719367046E+03 -0.46500652110E+03  0.56362261591E+03  0.00000000000E+00 0.  1.
          2    1    6    6  502    0  0.27180634470E+03 -0.27011711106E+03  0.25564174693E+03  0.46064590032E+03  0.00000000000E+00 0. -1.
          1    1    5    5  503    0 -0.31462954786E+03 -0.47188869197E+02 -0.71866959737E+02  0.32616468488E+03  0.00000000000E+00 0. -1.
         -4    1    5    5    0  503 -0.18231950355E+03 -0.85043109660E+02 -0.25935714659E+02  0.20284327243E+03  0.00000000000E+00 0.  1.
         -1    1    6    6    0  502  0.13645609247E+03 -0.89810692032E+02  0.16336358320E+03  0.23102788986E+03  0.00000000000E+00 0.  1.
<mgrwt>
<rscale>  0 0.21303650E+04</rscale>
<asrwt>0</asrwt>
<pdfrwt beam="1">  1        2 0.20716215E+00 0.21303650E+04</pdfrwt>
<pdfrwt beam="2">  1       -2 0.12963161E+00 0.21303650E+04</pdfrwt>
<totfact> 0.62472593E+00</totfact>
</mgrwt>
</event>
<event>
12    1  0.1495204E-007  0.2111716E+04  0.7818608E-02  0.8556100E-01
         -2   -1    0    0    0  501 -0.00000000000E+00  0.00000000000E+00  0.49141062191E+03  0.49141062191E+03  0.00000000000E+00 0.  1.
          2   -1    0    0  501    0  0.00000000000E+00 -0.00000000000E+00 -0.22686450930E+04  0.22686450930E+04  0.00000000000E+00 0. -1.
         23    2    1    2    0    0  0.39063348500E+03 -0.70696996966E+03 -0.11579612645E+04  0.14150446166E+04  0.95267619129E+02 0.  0.
        254    2    1    2    0    0 -0.39063348500E+03  0.70696996966E+03 -0.61927320661E+03  0.13450110983E+04  0.87929204057E+03 0.  0.
        -24    2    4    4    0    0 -0.22827895289E+03  0.27408918217E+03  0.18817150697E+03  0.41123957707E+03  0.80456905197E+02 0.  0.
         24    2    4    4    0    0 -0.16235453210E+03  0.43288078749E+03 -0.80744471358E+03  0.93377152127E+03  0.78851240754E+02 0.  0.
         13    1    3    3    0    0  0.34552227844E+03 -0.63051402402E+03 -0.97234503680E+03  0.12092925411E+04  0.00000000000E+00 0. -1.
        -13    1    3    3    0    0  0.45111206556E+02 -0.76455945638E+02 -0.18561622768E+03  0.20575207547E+03  0.00000000000E+00 0.  1.
          2    1    6    6  502    0 -0.89381407331E+01  0.12121730247E+03 -0.21682310288E+03  0.24856746111E+03  0.00000000000E+00 0. -1.
          1    1    5    5  503    0 -0.12402645467E+03  0.87749091415E+02  0.85163096315E+02  0.17417008204E+03  0.00000000000E+00 0. -1.
         -2    1    5    5    0  503 -0.10425249822E+03  0.18634009075E+03  0.10300841066E+03  0.23706949503E+03  0.00000000000E+00 0.  1.
         -1    1    6    6    0  502 -0.15341639137E+03  0.31166348502E+03 -0.59062161069E+03  0.68520406016E+03  0.00000000000E+00 0.  1.
<mgrwt>
<rscale>  0 0.21117162E+04</rscale>
<asrwt>0</asrwt>
<pdfrwt beam="1">  1        2 0.34902232E+00 0.21117162E+04</pdfrwt>
<pdfrwt beam="2">  1       -2 0.75601635E-01 0.21117162E+04</pdfrwt>
<totfact> 0.68211814E+00</totfact>
</mgrwt>
</event>
<event>
12    1  0.1495204E-007  0.2802490E+04  0.7818608E-02  0.8302496E-01
          1   -1    0    0  501    0  0.00000000000E+00  0.00000000000E+00  0.85852730982E+03  0.85852730982E+03  0.00000000000E+00 0. -1.
         -1   -1    0    0    0  501 -0.00000000000E+00 -0.00000000000E+00 -0.22870416454E+04  0.22870416454E+04  0.00000000000E+00 0.  1.
         23    2    1    2    0    0 -0.61499074087E+03 -0.93078893819E+03 -0.13030498870E+04  0.17178636093E+04  0.92383512628E+02 0.  0.
        254    2    1    2    0    0  0.61499074087E+03  0.93078893819E+03 -0.12546444863E+03  0.14277053460E+04  0.88205417531E+03 0.  0.
        -24    2    4    4    0    0  0.45015350126E+03  0.93057924203E+03 -0.38858730648E+03  0.11074885570E+04  0.83155929975E+02 0.  0.
         24    2    4    4    0    0  0.16483723961E+03  0.20969616370E+00  0.26312285785E+03  0.32021678898E+03  0.78318542415E+02 0.  0.
         13    1    3    3    0    0 -0.24292485106E+03 -0.29159915266E+03 -0.42302848989E+03  0.56832706460E+03  0.00000000000E+00 0. -1.
        -13    1    3    3    0    0 -0.37206588981E+03 -0.63918978553E+03 -0.88002139710E+03  0.11495365447E+04  0.00000000000E+00 0.  1.
          2    1    6    6  502    0  0.23838782197E+02 -0.22719259857E+02  0.20884842460E+02  0.38995242655E+02  0.00000000000E+00 0. -1.
          1    1    5    5  503    0  0.18987114549E+03  0.45665554609E+03 -0.15283576324E+03  0.51763318111E+03  0.00000000000E+00 0. -1.
         -2    1    5    5    0  503  0.26028235577E+03  0.47392369593E+03 -0.23575154323E+03  0.58985537586E+03  0.00000000000E+00 0.  1.
         -1    1    6    6    0  502  0.14099845741E+03  0.22928956021E+02  0.24223801539E+03  0.28122154632E+03  0.00000000000E+00 0.  1.
<mgrwt>
<rscale>  0 0.28024901E+04</rscale>
<asrwt>0</asrwt>
<pdfrwt beam="1">  1        1 0.13208113E+00 0.28024901E+04</pdfrwt>
<pdfrwt beam="2">  1       -1 0.35185256E+00 0.28024901E+04</pdfrwt>
<totfact> 0.25749512E-01</totfact>
</mgrwt>
</event>
<event>
12    1  0.1495204E-007  0.1231635E+04  0.7818608E-02  0.9085608E-01
         -2   -1    0    0    0  501 -0.00000000000E+00  0.00000000000E+00  0.10473427145E+04  0.10473427145E+04  0.00000000000E+00 0.  1.
          2   -1    0    0  501    0  0.00000000000E+00 -0.00000000000E+00 -0.36208912051E+03  0.36208912051E+03  0.00000000000E+00 0. -1.
         23    2    1    2    0    0  0.13359067983E+03  0.19932913179E+03  0.28988659229E+03  0.38697895135E+03  0.90221393728E+02 0.  0.
        254    2    1    2    0    0 -0.13359067983E+03 -0.19932913179E+03  0.39536700174E+03  0.10224528837E+04  0.91187513443E+03 0.  0.
        -24    2    4    4    0    0  0.54588141282E+02 -0.20858745389E+03  0.65316365305E+03  0.69245165483E+03  0.79862040523E+02 0.  0.
         24    2    4    4    0    0 -0.18817882111E+03  0.92583220990E+01 -0.25779665131E+03  0.33000122886E+03  0.83334940926E+02 0.  0.
         13    1    3    3    0    0  0.10407363312E+03  0.75363246962E+02  0.15674173757E+03  0.20267933392E+03  0.00000000000E+00 0. -1.
        -13    1    3    3    0    0  0.29517046710E+02  0.12396588483E+03  0.13314485472E+03  0.18429961743E+03  0.00000000000E+00 0.  1.
          2    1    6    6  502    0 -0.56656754936E+02  0.24272258629E+02 -0.13933500928E+03  0.15235936214E+03  0.00000000000E+00 0. -1.
          1    1    5    5  503    0  0.70117997080E+01 -0.14787066648E+03  0.35857691264E+03  0.38793337265E+03  0.00000000000E+00 0. -1.
         -4    1    5    5    0  503  0.47576341574E+02 -0.60716787406E+02  0.29458674042E+03  0.30451828218E+03  0.00000000000E+00 0.  1.
         -1    1    6    6    0  502 -0.13152206618E+03 -0.15013936530E+02 -0.11846164203E+03  0.17764186673E+03  0.00000000000E+00 0.  1.
<mgrwt>
<rscale>  0 0.12316353E+04</rscale>
<asrwt>0</asrwt>
<pdfrwt beam="1">  1        2 0.55706019E-01 0.12316353E+04</pdfrwt>
<pdfrwt beam="2">  1       -2 0.16112965E+00 0.12316353E+04</pdfrwt>
<totfact> 0.21618980E+01</totfact>
</mgrwt>
</event>
<event>
12    1  0.1495204E-007  0.1303757E+04  0.7818608E-02  0.9026591E-01
         -1   -1    0    0    0  501 -0.00000000000E+00  0.00000000000E+00  0.42106454776E+03  0.42106454776E+03  0.00000000000E+00 0.  1.
          1   -1    0    0  501    0  0.00000000000E+00 -0.00000000000E+00 -0.10092177356E+04  0.10092177356E+04  0.00000000000E+00 0. -1.
         23    2    1    2    0    0 -0.29009841924E+03 -0.12081043270E+03 -0.39067960588E+02  0.32967077839E+03  0.91674768009E+02 0.  0.
        254    2    1    2    0    0  0.29009841924E+03  0.12081043270E+03 -0.54908522729E+03  0.11006115050E+04  0.90061026234E+03 0.  0.
        -24    2    4    4    0    0  0.54214725133E+03  0.11425984178E+02 -0.85842893322E+02  0.55614424546E+03  0.88731190622E+02 0.  0.
         24    2    4    4    0    0 -0.25204883209E+03  0.10938444852E+03 -0.46324233396E+03  0.54446725955E+03  0.79734342730E+02 0.  0.
         11    1    3    3    0    0 -0.23157687873E+03 -0.12053593904E+03 -0.59357224266E+02  0.26773128961E+03  0.00000000000E+00 0. -1.
        -11    1    3    3    0    0 -0.58521540503E+02 -0.27449365174E+00  0.20289263679E+02  0.61939488779E+02  0.00000000000E+00 0.  1.
          2    1    6    6  502    0 -0.61250693727E+02  0.10814812283E+02 -0.54303330151E+02  0.82567907278E+02  0.00000000000E+00 0. -1.
          3    1    5    5  503    0  0.17073630557E+03 -0.35492517551E+02 -0.13973768055E+02  0.17494533728E+03  0.00000000000E+00 0. -1.
         -4    1    5    5    0  503  0.37141094576E+03  0.46918501729E+02 -0.71869125268E+02  0.38119890818E+03  0.00000000000E+00 0.  1.
         -1    1    6    6    0  502 -0.19079813836E+03  0.98569636234E+02 -0.40893900381E+03  0.46189935227E+03  0.00000000000E+00 0.  1.
<mgrwt>
<rscale>  0 0.13037574E+04</rscale>
<asrwt>0</asrwt>
<pdfrwt beam="1">  1        1 0.15526426E+00 0.13037574E+04</pdfrwt>
<pdfrwt beam="2">  1       -1 0.64779162E-01 0.13037574E+04</pdfrwt>
<totfact> 0.35323822E+01</totfact>
</mgrwt>
</event>
<event>
12    1  0.1683727E-007  0.1383398E+04  0.7818608E-02  0.8965925E-01
         -1   -1    0    0    0  501 -0.00000000000E+00  0.00000000000E+00  0.39955625296E+03  0.39955625296E+03  0.00000000000E+00 0.  1.
          1   -1    0    0  501    0  0.00000000000E+00 -0.00000000000E+00 -0.11974465633E+04  0.11974465633E+04  0.00000000000E+00 0. -1.
         23    2    1    2    0    0  0.35796353102E+03  0.92747022947E+02 -0.88648114874E+02  0.39102602857E+03  0.91120617531E+02 0.  0.
        254    2    1    2    0    0 -0.35796353102E+03 -0.92747022947E+02 -0.70924219552E+03  0.12059767877E+04  0.90256059124E+03 0.  0.
        -24    2    4    4    0    0 -0.51873060752E+03 -0.65574179965E+02 -0.83224310198E+03  0.98605977265E+03  0.79396965920E+02 0.  0.
         24    2    4    4    0    0  0.16076707650E+03 -0.27172842982E+02  0.12300090646E+03  0.21991701509E+03  0.81546638506E+02 0.  0.
         11    1    3    3    0    0  0.14328158409E+03  0.47743425869E+02 -0.81381210537E+02  0.17155742036E+03  0.00000000000E+00 0. -1.
        -11    1    3    3    0    0  0.21468194693E+03  0.45003597078E+02 -0.72669043369E+01  0.21946860821E+03  0.00000000000E+00 0.  1.
          4    1    6    6  502    0  0.15455732652E+03 -0.24922203851E+02  0.13467091977E+03  0.20650748184E+03  0.00000000000E+00 0. -1.
          1    1    5    5  503    0 -0.48294272685E+03 -0.47207217966E+02 -0.79411912012E+03  0.93063815514E+03  0.00000000000E+00 0. -1.
         -2    1    5    5    0  503 -0.35787880667E+02 -0.18366962000E+02 -0.38123981853E+02  0.55421617516E+02  0.00000000000E+00 0.  1.
         -3    1    6    6    0  502  0.62097499762E+01 -0.22506391313E+01 -0.11670013303E+02  0.13409533242E+02  0.00000000000E+00 0.  1.
<mgrwt>
<rscale>  0 0.13833976E+04</rscale>
<asrwt>0</asrwt>
<pdfrwt beam="1">  1        1 0.18422254E+00 0.13833976E+04</pdfrwt>
<pdfrwt beam="2">  1       -1 0.61470195E-01 0.13833976E+04</pdfrwt>
<totfact> 0.28123325E+01</totfact>
</mgrwt>
</event>
<event>
12    1  0.1495204E-007  0.1653596E+04  0.7818608E-02  0.8788282E-01
          1   -1    0    0  501    0  0.00000000000E+00  0.00000000000E+00  0.16019371934E+04  0.16019371934E+04  0.00000000000E+00 0. -1.
         -1   -1    0    0    0  501 -0.00000000000E+00 -0.00000000000E+00 -0.42673009012E+03  0.42673009012E+03  0.00000000000E+00 0.  1.
         23    2    1    2    0    0 -0.15098239691E+03  0.53655816606E+03  0.22765510871E+03  0.60865530630E+03  0.89129588935E+02 0.  0.
        254    2    1    2    0    0  0.15098239691E+03 -0.53655816606E+03  0.94755199458E+03  0.14200119772E+04  0.89882639218E+03 0.  0.
        -24    2    4    4    0    0  0.31562276384E+03 -0.67858434352E+03  0.46527374753E+03  0.88483669043E+03  0.79761320615E+02 0.  0.
         24    2    4    4    0    0 -0.16464036693E+03  0.14202617746E+03  0.48227824705E+03  0.53517528679E+03  0.80885069736E+02 0.  0.
         13    1    3    3    0    0 -0.31821122474E+02  0.11659286877E+03  0.11144935806E+02  0.12137005594E+03  0.00000000000E+00 0.  1.
        -13    1    3    3    0    0 -0.11916127444E+03  0.41996529729E+03  0.21651017290E+03  0.48728525037E+03  0.00000000000E+00 0. -1.
          4    1    6    6  502    0 -0.15685215462E+02 -0.78950360701E+01  0.66351286475E+02  0.68635637940E+02  0.00000000000E+00 0. -1.
          3    1    5    5  503    0  0.10253979970E+03 -0.23027978725E+03  0.11346851282E+03  0.27643859054E+03  0.00000000000E+00 0. -1.
         -4    1    5    5    0  503  0.21308296414E+03 -0.44830455627E+03  0.35180523471E+03  0.60839809989E+03  0.00000000000E+00 0.  1.
         -3    1    6    6    0  502 -0.14895515147E+03  0.14992121353E+03  0.41592696058E+03  0.46653964885E+03  0.00000000000E+00 0.  1.
<mgrwt>
<rscale>  0 0.16535958E+04</rscale>
<asrwt>0</asrwt>
<pdfrwt beam="1">  1        1 0.24645187E+00 0.16535958E+04</pdfrwt>
<pdfrwt beam="2">  1       -1 0.65650784E-01 0.16535958E+04</pdfrwt>
<totfact> 0.12497954E+01</totfact>
</mgrwt>
</event>
<event>
12    1  0.1495204E-007  0.3030332E+04  0.7818608E-02  0.8235122E-01
          2   -1    0    0  501    0  0.00000000000E+00  0.00000000000E+00  0.13709719347E+04  0.13709719347E+04  0.00000000000E+00 0. -1.
         -2   -1    0    0    0  501 -0.00000000000E+00 -0.00000000000E+00 -0.16745254947E+04  0.16745254947E+04  0.00000000000E+00 0.  1.
         23    2    1    2    0    0  0.39275271913E+03  0.11787069786E+04  0.43453302088E+03  0.13192504087E+04  0.89430726691E+02 0.  0.
        254    2    1    2    0    0 -0.39275271913E+03 -0.11787069786E+04 -0.73808658094E+03  0.17262470207E+04  0.94422038518E+03 0.  0.
        -24    2    4    4    0    0  0.11291039845E+03 -0.98699123975E+03 -0.35367025510E+03  0.10574258714E+04  0.78526166537E+02 0.  0.
         24    2    4    4    0    0 -0.50566311758E+03 -0.19171573883E+03 -0.38441632584E+03  0.66882114926E+03  0.84236008489E+02 0.  0.
         13    1    3    3    0    0  0.17039798810E+03  0.45383193879E+03  0.21166445825E+03  0.52896195128E+03  0.00000000000E+00 0. -1.
        -13    1    3    3    0    0  0.22235473103E+03  0.72487503978E+03  0.22286856264E+03  0.79028845742E+03  0.00000000000E+00 0.  1.
          4    1    6    6  502    0 -0.22197117473E+03 -0.12428373352E+03 -0.20229147227E+03  0.32502228936E+03  0.00000000000E+00 0. -1.
          1    1    5    5  503    0  0.42656705111E+02 -0.24058368903E+03 -0.55220500659E+02  0.25049832258E+03  0.00000000000E+00 0. -1.
         -2    1    5    5    0  503  0.70253693336E+02 -0.74640755072E+03 -0.29844975444E+03  0.80692754887E+03  0.00000000000E+00 0.  1.
         -3    1    6    6    0  502 -0.28369194285E+03 -0.67432005307E+02 -0.18212485357E+03  0.34379885989E+03  0.00000000000E+00 0.  1.
<mgrwt>
<rscale>  0 0.30303316E+04</rscale>
<asrwt>0</asrwt>
<pdfrwt beam="1">  1        2 0.21091876E+00 0.30303316E+04</pdfrwt>
<pdfrwt beam="2">  1       -2 0.25761931E+00 0.30303316E+04</pdfrwt>
<totfact> 0.74083980E-01</totfact>
</mgrwt>
</event>
<event>
12    1  0.1495204E-007  0.1562742E+04  0.7818608E-02  0.8843769E-01
         -1   -1    0    0    0  501 -0.00000000000E+00  0.00000000000E+00  0.84257236417E+03  0.84257236417E+03  0.00000000000E+00 0.  1.
          1   -1    0    0  501    0  0.00000000000E+00 -0.00000000000E+00 -0.72461543369E+03  0.72461543369E+03  0.00000000000E+00 0. -1.
         23    2    1    2    0    0 -0.19537452588E+03 -0.34359209200E+03 -0.29194371467E+03  0.49948696812E+03  0.89606739344E+02 0.  0.
        254    2    1    2    0    0  0.19537452588E+03  0.34359209200E+03  0.40990064515E+03  0.10677008297E+04  0.90318314414E+03 0.  0.
        -24    2    4    4    0    0 -0.21863676821E+03 -0.15919163529E+03  0.28268172427E+03  0.39943582391E+03  0.80597810297E+02 0.  0.
         24    2    4    4    0    0  0.41401129409E+03  0.50278372730E+03  0.12721892088E+03  0.66826500582E+03  0.78718715103E+02 0.  0.
         11    1    3    3    0    0 -0.20091100181E+03 -0.29936285902E+03 -0.25507529857E+03  0.44164098536E+03  0.00000000000E+00 0. -1.
        -11    1    3    3    0    0  0.55364759246E+01 -0.44229232986E+02 -0.36868416100E+02  0.57845982764E+02  0.00000000000E+00 0.  1.
          4    1    6    6  502    0  0.82689379688E+02  0.10417544314E+03  0.58873731624E+02  0.14545161650E+03  0.00000000000E+00 0. -1.
          3    1    5    5  503    0 -0.11659258861E+03 -0.90750775974E+02  0.96868944406E+02  0.17667237319E+03  0.00000000000E+00 0. -1.
         -4    1    5    5    0  503 -0.10204417960E+03 -0.68440859320E+02  0.18581277987E+03  0.22276345072E+03  0.00000000000E+00 0.  1.
         -3    1    6    6    0  502  0.33132191440E+03  0.39860828416E+03  0.68345189257E+02  0.52281338933E+03  0.00000000000E+00 0.  1.
<mgrwt>
<rscale>  0 0.15627424E+04</rscale>
<asrwt>0</asrwt>
<pdfrwt beam="1">  1        1 0.11147930E+00 0.15627424E+04</pdfrwt>
<pdfrwt beam="2">  1       -1 0.12962652E+00 0.15627424E+04</pdfrwt>
<totfact> 0.12706686E+01</totfact>
</mgrwt>
</event>
<event>
12    1  0.1495204E-007  0.2421392E+04  0.7818608E-02  0.8431538E-01
          2   -1    0    0  501    0  0.00000000000E+00  0.00000000000E+00  0.23681004415E+04  0.23681004415E+04  0.00000000000E+00 0. -1.
         -2   -1    0    0    0  501 -0.00000000000E+00 -0.00000000000E+00 -0.61897062232E+03  0.61897062232E+03  0.00000000000E+00 0.  1.
         23    2    1    2    0    0 -0.99536232840E+03 -0.27702959690E+03  0.92831024864E+03  0.13922294600E+04  0.95138789503E+02 0.  0.
        254    2    1    2    0    0  0.99536232840E+03  0.27702959690E+03  0.82081957057E+03  0.15948416038E+04  0.89570274732E+03 0.  0.
        -24    2    4    4    0    0  0.73564639253E+03  0.40191547703E+03  0.14347631777E+03  0.85443287944E+03  0.82209647843E+02 0.  0.
         24    2    4    4    0    0  0.25971593587E+03 -0.12488588013E+03  0.67734325280E+03  0.74040872440E+03  0.79764319384E+02 0.  0.
         13    1    3    3    0    0 -0.41111919075E+03 -0.13791168193E+03  0.44491014357E+03  0.62127582994E+03  0.00000000000E+00 0.  1.
        -13    1    3    3    0    0 -0.58424313765E+03 -0.13911791497E+03  0.48340010507E+03  0.77095363009E+03  0.00000000000E+00 0. -1.
          2    1    6    6  502    0  0.95923316747E+02 -0.65847199957E+02  0.18883698412E+03  0.22180293734E+03  0.00000000000E+00 0. -1.
          1    1    5    5  503    0  0.39763878318E+03  0.20922896358E+03  0.11781903276E+03  0.46451553857E+03  0.00000000000E+00 0. -1.
         -2    1    5    5    0  503  0.33800760935E+03  0.19268651344E+03  0.25657285011E+02  0.38991734088E+03  0.00000000000E+00 0.  1.
         -1    1    6    6    0  502  0.16379261912E+03 -0.59038680174E+02  0.48850626868E+03  0.51860578706E+03  0.00000000000E+00 0.  1.
<mgrwt>
<rscale>  0 0.24213918E+04</rscale>
<asrwt>0</asrwt>
<pdfrwt beam="1">  1        2 0.36432314E+00 0.24213918E+04</pdfrwt>
<pdfrwt beam="2">  1       -2 0.95226251E-01 0.24213918E+04</pdfrwt>
<totfact> 0.34490559E+00</totfact>
</mgrwt>
</event>
<event>
12    1  0.1495204E-007  0.2785548E+04  0.7818608E-02  0.8307769E-01
          2   -1    0    0  501    0  0.00000000000E+00  0.00000000000E+00  0.27432835511E+04  0.27432835511E+04  0.00000000000E+00 0. -1.
         -2   -1    0    0    0  501 -0.00000000000E+00 -0.00000000000E+00 -0.70711570803E+03  0.70711570803E+03  0.00000000000E+00 0.  1.
         23    2    1    2    0    0  0.11723766879E+03  0.76564511706E+03  0.21282117372E+04  0.22669868010E+04  0.99934185319E+02 0.  0.
        254    2    1    2    0    0 -0.11723766879E+03 -0.76564511706E+03 -0.92043894194E+02  0.11834124580E+04  0.88996396058E+03 0.  0.
        -24    2    4    4    0    0  0.13209367448E+03 -0.74429056468E+03  0.20458445442E+03  0.78712462557E+03  0.79329651936E+02 0.  0.
         24    2    4    4    0    0 -0.24933134326E+03 -0.21354552375E+02 -0.29662834861E+03  0.39628783247E+03  0.80209309438E+02 0.  0.
         13    1    3    3    0    0  0.27045968175E+02  0.32691630486E+02  0.12309686249E+03  0.13020393486E+03  0.00000000000E+00 0.  1.
        -13    1    3    3    0    0  0.90191700612E+02  0.73295348657E+03  0.20051148747E+04  0.21367828662E+04  0.00000000000E+00 0. -1.
          4    1    6    6  502    0 -0.17338362674E+03 -0.51802922865E+02 -0.20331201377E+03  0.27217861743E+03  0.00000000000E+00 0. -1.
          1    1    5    5  503    0  0.14223559066E+03 -0.65927752172E+03  0.18023233601E+03  0.69811281956E+03  0.00000000000E+00 0. -1.
         -2    1    5    5    0  503 -0.10141916180E+02 -0.85013042962E+02  0.24352118414E+02  0.89011806008E+02  0.00000000000E+00 0.  1.
         -3    1    6    6    0  502 -0.75947716521E+02  0.30448370490E+02 -0.93316334843E+02  0.12410921504E+03  0.00000000000E+00 0.  1.
<mgrwt>
<rscale>  0 0.27855476E+04</rscale>
<asrwt>0</asrwt>
<pdfrwt beam="1">  1        2 0.42204362E+00 0.27855476E+04</pdfrwt>
<pdfrwt beam="2">  1       -2 0.10878703E+00 0.27855476E+04</pdfrwt>
<totfact> 0.14704584E+00</totfact>
</mgrwt>
</event>
<event>
12    1  0.1495204E-007  0.1340645E+04  0.7818608E-02  0.8997940E-01
          2   -1    0    0  501    0  0.00000000000E+00  0.00000000000E+00  0.79633827907E+03  0.79633827907E+03  0.00000000000E+00 0. -1.
         -2   -1    0    0    0  501 -0.00000000000E+00 -0.00000000000E+00 -0.56424817555E+03  0.56424817555E+03  0.00000000000E+00 0.  1.
         23    2    1    2    0    0  0.12013435930E+03  0.32013733912E+03  0.19358094343E+03  0.40310645206E+03  0.90005832329E+02 0.  0.
        254    2    1    2    0    0 -0.12013435930E+03 -0.32013733912E+03  0.38509160093E+02  0.95748000256E+03  0.89351262986E+03 0.  0.
        -24    2    4    4    0    0  0.28309614594E+03 -0.10871792941E+03  0.29327978665E+03  0.42944361538E+03  0.80285549851E+02 0.  0.
         24    2    4    4    0    0 -0.40323050523E+03 -0.21141940970E+03 -0.25477062655E+03  0.52803638718E+03  0.81371658969E+02 0.  0.
         13    1    3    3    0    0  0.74515808122E+01  0.12710774317E+03  0.94785123712E+02  0.15873287028E+03  0.00000000000E+00 0. -1.
        -13    1    3    3    0    0  0.11268277848E+03  0.19302959595E+03  0.98795819720E+02  0.24437358178E+03  0.00000000000E+00 0.  1.
          2    1    6    6  502    0 -0.39614250247E+03 -0.20493868211E+03 -0.23075574858E+03  0.50217224255E+03  0.00000000000E+00 0. -1.
          3    1    5    5  503    0  0.26322054501E+03 -0.11700042611E+03  0.28787762288E+03  0.40724400644E+03  0.00000000000E+00 0. -1.
         -4    1    5    5    0  503  0.19875600928E+02  0.82824967001E+01  0.54021637705E+01  0.22199608944E+02  0.00000000000E+00 0.  1.
         -1    1    6    6    0  502 -0.70880027666E+01 -0.64807275883E+01 -0.24014877974E+02  0.25864144629E+02  0.00000000000E+00 0.  1.
<mgrwt>
<rscale>  0 0.13406452E+04</rscale>
<asrwt>0</asrwt>
<pdfrwt beam="1">  1        2 0.12251358E+00 0.13406452E+04</pdfrwt>
<pdfrwt beam="2">  1       -2 0.86807411E-01 0.13406452E+04</pdfrwt>
<totfact> 0.38914379E+01</totfact>
</mgrwt>
</event>
<event>
12    1  0.1495204E-007  0.1397854E+04  0.7818608E-02  0.8955373E-01
          1   -1    0    0  501    0  0.00000000000E+00  0.00000000000E+00  0.10514450530E+04  0.10514450530E+04  0.00000000000E+00 0. -1.
         -1   -1    0    0    0  501 -0.00000000000E+00 -0.00000000000E+00 -0.46459760626E+03  0.46459760626E+03  0.00000000000E+00 0.  1.
         23    2    1    2    0    0 -0.86551251319E+02 -0.35433054721E+03  0.59927534962E+01  0.37603444296E+03  0.91239977016E+02 0.  0.
        254    2    1    2    0    0  0.86551251319E+02  0.35433054721E+03  0.58085469320E+03  0.11400082163E+04  0.91059612493E+03 0.  0.
        -24    2    4    4    0    0  0.30844389104E+03  0.53537034763E+03  0.56705924806E+03  0.84228802703E+03  0.78319133189E+02 0.  0.
         24    2    4    4    0    0 -0.22189263972E+03 -0.18103980042E+03  0.13795445142E+02  0.29772018924E+03  0.80219971783E+02 0.  0.
         13    1    3    3    0    0 -0.60296091185E+02 -0.16173234530E+03 -0.37997562331E+02  0.17673931332E+03  0.00000000000E+00 0.  1.
        -13    1    3    3    0    0 -0.26255160134E+02 -0.19259820191E+03  0.43990315828E+02  0.19929512964E+03  0.00000000000E+00 0. -1.
          4    1    6    6  502    0 -0.16317108478E+02 -0.29533260760E+02  0.25167922849E+02  0.42093774608E+02  0.00000000000E+00 0. -1.
          1    1    5    5  503    0  0.75508834704E+02  0.73487135676E+02  0.10295670238E+03  0.14731607446E+03  0.00000000000E+00 0. -1.
         -2    1    5    5    0  503  0.23293505634E+03  0.46188321195E+03  0.46410254568E+03  0.69497195257E+03  0.00000000000E+00 0.  1.
         -1    1    6    6    0  502 -0.20557553125E+03 -0.15150653966E+03 -0.11372477707E+02  0.25562641463E+03  0.00000000000E+00 0.  1.
<mgrwt>
<rscale>  0 0.13978539E+04</rscale>
<asrwt>0</asrwt>
<pdfrwt beam="1">  1        1 0.16176078E+00 0.13978539E+04</pdfrwt>
<pdfrwt beam="2">  1       -1 0.71476555E-01 0.13978539E+04</pdfrwt>
<totfact> 0.26608322E+01</totfact>
</mgrwt>
</event>
<event>
12    1  0.1495204E-007  0.1904538E+04  0.7818608E-02  0.8652601E-01
         -2   -1    0    0    0  501 -0.00000000000E+00  0.00000000000E+00  0.38258784070E+03  0.38258784070E+03  0.00000000000E+00 0.  1.
          2   -1    0    0  501    0  0.00000000000E+00 -0.00000000000E+00 -0.23702172724E+04  0.23702172724E+04  0.00000000000E+00 0. -1.
         23    2    1    2    0    0 -0.51310108010E+03  0.24662358633E+02 -0.15086882629E+04  0.15962657417E+04  0.89683294357E+02 0.  0.
        254    2    1    2    0    0  0.51310108010E+03 -0.24662358633E+02 -0.47894116889E+03  0.11565393715E+04  0.91886763145E+03 0.  0.
        -24    2    4    4    0    0  0.54101615701E+03  0.22181493237E+03  0.23620723392E+02  0.59059864040E+03  0.79677280965E+02 0.  0.
         24    2    4    4    0    0 -0.27915076904E+02 -0.24647729100E+03 -0.50256189228E+03  0.56594073105E+03  0.78677499937E+02 0.  0.
         11    1    3    3    0    0 -0.44086181644E+03  0.49059615113E+02 -0.12392759503E+04  0.13162715783E+04  0.00000000000E+00 0. -1.
        -11    1    3    3    0    0 -0.72239263664E+02 -0.24397256480E+02 -0.26941231260E+03  0.27999416336E+03  0.00000000000E+00 0.  1.
          2    1    6    6  502    0 -0.14656368445E+02 -0.17578935984E+03 -0.42505974002E+03  0.46020918152E+03  0.00000000000E+00 0. -1.
          1    1    5    5  503    0  0.38462531491E+02 -0.40389952076E+01 -0.43452217904E+01  0.38917358124E+02  0.00000000000E+00 0. -1.
         -2    1    5    5    0  503  0.50255362551E+03  0.22585392758E+03  0.27965945182E+02  0.55168128227E+03  0.00000000000E+00 0.  1.
         -1    1    6    6    0  502 -0.13258708459E+02 -0.70687931162E+02 -0.77502152254E+02  0.10573154953E+03  0.00000000000E+00 0.  1.
<mgrwt>
<rscale>  0 0.19045381E+04</rscale>
<asrwt>0</asrwt>
<pdfrwt beam="1">  1        2 0.36464881E+00 0.19045381E+04</pdfrwt>
<pdfrwt beam="2">  1       -2 0.58859668E-01 0.19045381E+04</pdfrwt>
<totfact> 0.10445346E+01</totfact>
</mgrwt>
</event>
<event>
12    1  0.1495204E-007  0.1983712E+04  0.7818608E-02  0.8614274E-01
         -2   -1    0    0    0  501 -0.00000000000E+00  0.00000000000E+00  0.13895253668E+04  0.13895253668E+04  0.00000000000E+00 0.  1.
          2   -1    0    0  501    0  0.00000000000E+00 -0.00000000000E+00 -0.70799623145E+03  0.70799623145E+03  0.00000000000E+00 0. -1.
         23    2    1    2    0    0 -0.38622534608E+03  0.50489419073E+03 -0.22022114772E+03  0.67897374402E+03  0.91759628223E+02 0.  0.
        254    2    1    2    0    0  0.38622534608E+03 -0.50489419073E+03  0.90175028304E+03  0.14185478542E+04  0.89164806954E+03 0.  0.
        -24    2    4    4    0    0  0.27724959614E+03 -0.24678198100E+02  0.87255275987E+03  0.91927109529E+03  0.78959963672E+02 0.  0.
         24    2    4    4    0    0  0.10897574994E+03 -0.48021599263E+03  0.29197523178E+02  0.49927675892E+03  0.77082248171E+02 0.  0.
         11    1    3    3    0    0 -0.25393190570E+03  0.26396486245E+03 -0.10583147180E+03  0.38125996611E+03  0.00000000000E+00 0. -1.
        -11    1    3    3    0    0 -0.13229344038E+03  0.24092932828E+03 -0.11438967593E+03  0.29771377791E+03  0.00000000000E+00 0.  1.
          2    1    6    6  502    0  0.17561756961E+02 -0.20873727486E+03 -0.12273992125E+02  0.20983402037E+03  0.00000000000E+00 0. -1.
          3    1    5    5  503    0  0.42128899245E+02  0.62133753242E+01  0.65723848505E+02  0.78313947972E+02  0.00000000000E+00 0. -1.
         -4    1    5    5    0  503  0.23512069689E+03 -0.30891573424E+02  0.80682891136E+03  0.84095714732E+03  0.00000000000E+00 0.  1.
         -1    1    6    6    0  502  0.91413992981E+02 -0.27147871778E+03  0.41471515303E+02  0.28944273855E+03  0.00000000000E+00 0.  1.
<mgrwt>
<rscale>  0 0.19837124E+04</rscale>
<asrwt>0</asrwt>
<pdfrwt beam="1">  1        2 0.10892250E+00 0.19837124E+04</pdfrwt>
<pdfrwt beam="2">  1       -2 0.21377313E+00 0.19837124E+04</pdfrwt>
<totfact> 0.40661567E+00</totfact>
</mgrwt>
</event>
<event>
12    1  0.1495204E-007  0.2017546E+04  0.7818608E-02  0.8598461E-01
         -2   -1    0    0    0  501 -0.00000000000E+00  0.00000000000E+00  0.24817839068E+04  0.24817839068E+04  0.00000000000E+00 0.  1.
          2   -1    0    0  501    0  0.00000000000E+00 -0.00000000000E+00 -0.41003669803E+03  0.41003669803E+03  0.00000000000E+00 0. -1.
         23    2    1    2    0    0  0.49864999591E+03  0.42327123455E+03  0.16737059196E+03  0.68132610835E+03  0.91553232869E+02 0.  0.
        254    2    1    2    0    0 -0.49864999591E+03 -0.42327123455E+03  0.19043766168E+04  0.22104944965E+04  0.91204455149E+03 0.  0.
        -24    2    4    4    0    0 -0.31436918804E+03 -0.13662420379E+02  0.87359427950E+02  0.33704777491E+03  0.83395951948E+02 0.  0.
         24    2    4    4    0    0 -0.18428080787E+03 -0.40960881418E+03  0.18170171888E+04  0.18734467216E+04  0.80699176941E+02 0.  0.
         13    1    3    3    0    0  0.44023923020E+03  0.33062463300E+03  0.14790677953E+03  0.57008739960E+03  0.00000000000E+00 0. -1.
        -13    1    3    3    0    0  0.58410765709E+02  0.92646601557E+02  0.19463812436E+02  0.11123870875E+03  0.00000000000E+00 0.  1.
          4    1    6    6  502    0 -0.17500756343E+03 -0.37255626976E+03  0.17320819735E+04  0.17803184503E+04  0.00000000000E+00 0. -1.
          1    1    5    5  503    0 -0.26747332700E+03 -0.34036685324E+01  0.41568285780E+02  0.27070553743E+03  0.00000000000E+00 0. -1.
         -2    1    5    5    0  503 -0.46895861044E+02 -0.10258751846E+02  0.45791142170E+02  0.66342237479E+02  0.00000000000E+00 0.  1.
         -3    1    6    6    0  502 -0.92732444333E+01 -0.37052544418E+02  0.84935215348E+02  0.93128271306E+02  0.00000000000E+00 0.  1.
<mgrwt>
<rscale>  0 0.20175455E+04</rscale>
<asrwt>0</asrwt>
<pdfrwt beam="1">  1        2 0.63082570E-01 0.20175455E+04</pdfrwt>
<pdfrwt beam="2">  1       -2 0.38181290E+00 0.20175455E+04</pdfrwt>
<totfact> 0.70104311E-01</totfact>
</mgrwt>
</event>
<event>
12    1  0.1495204E-007  0.2511358E+04  0.7818608E-02  0.8398950E-01
          2   -1    0    0  501    0  0.00000000000E+00  0.00000000000E+00  0.26069601077E+04  0.26069601077E+04  0.00000000000E+00 0.  1.
         -2   -1    0    0    0  501 -0.00000000000E+00 -0.00000000000E+00 -0.60481535243E+03  0.60481535243E+03  0.00000000000E+00 0. -1.
         23    2    1    2    0    0 -0.54932613151E+03  0.69817642678E+03  0.64173630907E+02  0.89542516852E+03  0.91969863815E+02 0.  0.
        254    2    1    2    0    0  0.54932613151E+03 -0.69817642678E+03  0.19379711243E+04  0.23163502916E+04  0.90583501419E+03 0.  0.
        -24    2    4    4    0    0  0.62460713911E+02 -0.59619238634E+03  0.47290119161E+03  0.76714097634E+03  0.74317146364E+02 0.  0.
         24    2    4    4    0    0  0.48686541760E+03 -0.10198404044E+03  0.14650699327E+04  0.15492093153E+04  0.78618797577E+02 0.  0.
         13    1    3    3    0    0 -0.12238962137E+03  0.99533856040E+02  0.67273290797E+01  0.15789700717E+03  0.00000000000E+00 0.  1.
        -13    1    3    3    0    0 -0.42693651014E+03  0.59864257074E+03  0.57446301827E+02  0.73752816135E+03  0.00000000000E+00 0. -1.
          2    1    6    6  502    0  0.19591516622E+02 -0.21528746946E+02  0.72156215797E+02  0.77806387571E+02  0.00000000000E+00 0. -1.
          1    1    5    5  503    0 -0.15029226379E+02 -0.78336320809E+02  0.75033010515E+02  0.10950986015E+03  0.00000000000E+00 0. -1.
         -2    1    5    5    0  503  0.77489940290E+02 -0.51785606553E+03  0.39786818109E+03  0.65763111619E+03  0.00000000000E+00 0.  1.
         -1    1    6    6    0  502  0.46727390098E+03 -0.80455293496E+02  0.13929137169E+04  0.14714029277E+04  0.00000000000E+00 0.  1.
<mgrwt>
<rscale>  0 0.25113578E+04</rscale>
<asrwt>0</asrwt>
<pdfrwt beam="1">  1        2 0.40107078E+00 0.25113578E+04</pdfrwt>
<pdfrwt beam="2">  1       -2 0.93048517E-01 0.25113578E+04</pdfrwt>
<totfact> 0.26273987E+00</totfact>
</mgrwt>
</event>
<event>
12    1  0.1495204E-007  0.1411310E+04  0.7818608E-02  0.8945672E-01
         -2   -1    0    0    0  501 -0.00000000000E+00  0.00000000000E+00  0.55015788836E+03  0.55015788836E+03  0.00000000000E+00 0.  1.
          2   -1    0    0  501    0  0.00000000000E+00 -0.00000000000E+00 -0.90510172799E+03  0.90510172799E+03  0.00000000000E+00 0. -1.
         23    2    1    2    0    0 -0.31664252821E+03  0.19170416022E+01  0.15865597316E+03  0.36671457351E+03  0.95087827243E+02 0.  0.
        254    2    1    2    0    0  0.31664252821E+03 -0.19170416022E+01 -0.51359981279E+03  0.10885450428E+04  0.90602393836E+03 0.  0.
        -24    2    4    4    0    0 -0.27901982964E+03 -0.16294330820E+03 -0.22876062191E+03  0.40401739956E+03  0.80598076837E+02 0.  0.
         24    2    4    4    0    0  0.59566235785E+03  0.16102626660E+03 -0.28483919088E+03  0.68452764328E+03  0.81863463545E+02 0.  0.
         11    1    3    3    0    0 -0.96571776759E+02 -0.36774059934E+02  0.24900056758E+02  0.10629417847E+03  0.00000000000E+00 0. -1.
        -11    1    3    3    0    0 -0.22007075145E+03  0.38691101536E+02  0.13375591640E+03  0.26042039504E+03  0.00000000000E+00 0.  1.
          4    1    6    6  502    0  0.72038155828E+02  0.15620522074E+01 -0.12423528208E+02  0.73118260068E+02  0.00000000000E+00 0. -1.
          3    1    5    5  503    0 -0.86452131448E+02 -0.60254021777E+02 -0.12154666417E+03  0.16086674530E+03  0.00000000000E+00 0. -1.
         -4    1    5    5    0  503 -0.19256769819E+03 -0.10268928642E+03 -0.10721395775E+03  0.24315065426E+03  0.00000000000E+00 0.  1.
         -3    1    6    6    0  502  0.52362420202E+03  0.15946421439E+03 -0.27241566267E+03  0.61140938321E+03  0.00000000000E+00 0.  1.
<mgrwt>
<rscale>  0 0.14113098E+04</rscale>
<asrwt>0</asrwt>
<pdfrwt beam="1">  1        2 0.13924642E+00 0.14113098E+04</pdfrwt>
<pdfrwt beam="2">  1       -2 0.84639676E-01 0.14113098E+04</pdfrwt>
<totfact> 0.34428883E+01</totfact>
</mgrwt>
</event>
<event>
12    1  0.1495204E-007  0.1552269E+04  0.7818608E-02  0.8850420E-01
          2   -1    0    0  501    0  0.00000000000E+00  0.00000000000E+00  0.14189707282E+04  0.14189707282E+04  0.00000000000E+00 0. -1.
         -2   -1    0    0    0  501 -0.00000000000E+00 -0.00000000000E+00 -0.42452225280E+03  0.42452225280E+03  0.00000000000E+00 0.  1.
         23    2    1    2    0    0 -0.25748983318E+03 -0.24874929025E+03 -0.99160332239E+02  0.38183160337E+03  0.88234790497E+02 0.  0.
        254    2    1    2    0    0  0.25748983318E+03  0.24874929025E+03  0.10936088076E+04  0.14616613776E+04  0.90127494978E+03 0.  0.
        -24    2    4    4    0    0  0.38681399160E+03 -0.23806690979E+02  0.83062540625E+02  0.40414664258E+03  0.79014558306E+02 0.  0.
         24    2    4    4    0    0 -0.12932415842E+03  0.27255598122E+03  0.10105462670E+04  0.10575147350E+04  0.78244208821E+02 0.  0.
         11    1    3    3    0    0 -0.19458784706E+03 -0.21388756748E+03 -0.46911106881E+02  0.29293851521E+03  0.00000000000E+00 0. -1.
        -11    1    3    3    0    0 -0.62901986116E+02 -0.34861722768E+02 -0.52249225358E+02  0.88893088158E+02  0.00000000000E+00 0.  1.
          2    1    6    6  502    0 -0.59664181357E+02  0.13978700782E+03  0.37733587043E+03  0.40679550293E+03  0.00000000000E+00 0. -1.
          1    1    5    5  503    0  0.23502901588E+03 -0.33919607490E+02  0.84406766633E+02  0.25201920627E+03  0.00000000000E+00 0. -1.
         -2    1    5    5    0  503  0.15178497572E+03  0.10112916511E+02 -0.13442260081E+01  0.15212743631E+03  0.00000000000E+00 0.  1.
         -1    1    6    6    0  502 -0.69659977061E+02  0.13276897340E+03  0.63321039657E+03  0.65071923211E+03  0.00000000000E+00 0.  1.
<mgrwt>
<rscale>  0 0.15522689E+04</rscale>
<asrwt>0</asrwt>
<pdfrwt beam="1">  1        2 0.21830319E+00 0.15522689E+04</pdfrwt>
<pdfrwt beam="2">  1       -2 0.65311116E-01 0.15522689E+04</pdfrwt>
<totfact> 0.29348069E+01</totfact>
</mgrwt>
</event>
<event>
12    1  0.1495204E-007  0.4377044E+04  0.7818608E-02  0.7932524E-01
         -1   -1    0    0    0  501 -0.00000000000E+00  0.00000000000E+00  0.21536017795E+04  0.21536017795E+04  0.00000000000E+00 0.  1.
          1   -1    0    0  501    0  0.00000000000E+00 -0.00000000000E+00 -0.22240083730E+04  0.22240083730E+04  0.00000000000E+00 0. -1.
         23    2    1    2    0    0  0.54541037599E+03 -0.79159383085E+03  0.17881836647E+04  0.20322031198E+04  0.90307419244E+02 0.  0.
        254    2    1    2    0    0 -0.54541037599E+03  0.79159383085E+03 -0.18585902582E+04  0.23454070327E+04  0.10594730435E+04 0.  0.
        -24    2    4    4    0    0 -0.31663808912E+03  0.10352272266E+04 -0.14581735698E+04  0.18179262021E+04  0.81427430315E+02 0.  0.
         24    2    4    4    0    0 -0.22877228687E+03 -0.24363339578E+03 -0.40041668838E+03  0.52748083059E+03  0.78794108495E+02 0.  0.
         11    1    3    3    0    0  0.24809178148E+02 -0.35713330663E+02  0.12832168650E+03  0.13548945543E+03  0.00000000000E+00 0. -1.
        -11    1    3    3    0    0  0.52060119784E+03 -0.75588050019E+03  0.16598619782E+04  0.18967136644E+04  0.00000000000E+00 0.  1.
          4    1    6    6  502    0 -0.79755657660E+02 -0.12070188850E+03 -0.12575708553E+03  0.19168921560E+03  0.00000000000E+00 0. -1.
          3    1    5    5  503    0 -0.72932426602E+02  0.14532871778E+03 -0.20212887650E+03  0.25941406627E+03  0.00000000000E+00 0. -1.
         -2    1    5    5    0  503 -0.24370566252E+03  0.88989850885E+03 -0.12560446933E+04  0.15585121359E+04  0.00000000000E+00 0.  1.
         -3    1    6    6    0  502 -0.14901662921E+03 -0.12293150728E+03 -0.27465960285E+03  0.33579161499E+03  0.00000000000E+00 0.  1.
<mgrwt>
<rscale>  0 0.43770439E+04</rscale>
<asrwt>0</asrwt>
<pdfrwt beam="1">  1        1 0.34215514E+00 0.43770439E+04</pdfrwt>
<pdfrwt beam="2">  1       -1 0.33132335E+00 0.43770439E+04</pdfrwt>
<totfact> 0.32853608E-02</totfact>
</mgrwt>
</event>
<event>
12    1  0.1728616E-007  0.2353119E+04  0.7818608E-02  0.8457267E-01
          2   -1    0    0  501    0  0.00000000000E+00  0.00000000000E+00  0.14049748105E+04  0.14049748105E+04  0.00000000000E+00 0.  1.
         -2   -1    0    0    0  501 -0.00000000000E+00 -0.00000000000E+00 -0.98527874285E+03  0.98527874285E+03  0.00000000000E+00 0. -1.
         23    2    1    2    0    0 -0.30599306332E+02  0.57779669361E+03 -0.64814627328E+03  0.87348601342E+03  0.89993818524E+02 0.  0.
        254    2    1    2    0    0  0.30599306332E+02 -0.57779669361E+03  0.10678423409E+04  0.15167675399E+04  0.90857645162E+03 0.  0.
        -24    2    4    4    0    0 -0.59005079612E+02 -0.20546280083E+03 -0.12579505601E+03  0.26070182132E+03  0.80277528487E+02 0.  0.
         24    2    4    4    0    0  0.89604385944E+02 -0.37233389278E+03  0.11936373970E+04  0.12560657186E+04  0.79179419111E+02 0.  0.
         13    1    3    3    0    0 -0.50154703774E+02  0.47211954442E+03 -0.49005669611E+03  0.68232537981E+03  0.00000000000E+00 0. -1.
        -13    1    3    3    0    0  0.19555397442E+02  0.10567714919E+03 -0.15808957717E+03  0.19116063361E+03  0.00000000000E+00 0.  1.
          4    1    6    6  502    0  0.50249001001E+02 -0.72187600269E+02  0.24584804446E+03  0.26110777985E+03  0.00000000000E+00 0. -1.
          3    1    5    5  503    0 -0.45883087656E+02 -0.50622841028E+02 -0.15264248384E+02  0.70006621439E+02  0.00000000000E+00 0. -1.
         -4    1    5    5    0  503 -0.13121991956E+02 -0.15483995980E+03 -0.11053080763E+03  0.19069519988E+03  0.00000000000E+00 0.  1.
         -3    1    6    6    0  502  0.39355384943E+02 -0.30014629252E+03  0.94778935249E+03  0.99495793877E+03  0.00000000000E+00 0.  1.
<mgrwt>
<rscale>  0 0.23531186E+04</rscale>
<asrwt>0</asrwt>
<pdfrwt beam="1">  1        2 0.21614997E+00 0.23531186E+04</pdfrwt>
<pdfrwt beam="2">  1       -2 0.15158135E+00 0.23531186E+04</pdfrwt>
<totfact> 0.37818606E+00</totfact>
</mgrwt>
</event>
<event>
12    1  0.1495204E-007  0.1215480E+04  0.7818608E-02  0.9099414E-01
         -3   -1    0    0    0  501 -0.00000000000E+00  0.00000000000E+00  0.21883131738E+04  0.21883131738E+04  0.00000000000E+00 0. -1.
          3   -1    0    0  501    0  0.00000000000E+00 -0.00000000000E+00 -0.16878205055E+03  0.16878205055E+03  0.00000000000E+00 0.  1.
         23    2    1    2    0    0 -0.17990808264E+03  0.12865368365E+03  0.26769853795E+03  0.35929107208E+03  0.92243583729E+02 0.  0.
        254    2    1    2    0    0  0.17990808264E+03 -0.12865368365E+03  0.17518325853E+04  0.19978041523E+04  0.93455087362E+03 0.  0.
        -24    2    4    4    0    0  0.19156851997E+03 -0.33523053812E+03  0.17324066216E+04  0.17767516686E+04  0.80844157572E+02 0.  0.
         24    2    4    4    0    0 -0.11660437330E+02  0.20657685447E+03  0.19425963693E+02  0.22105248365E+03  0.75345005549E+02 0.  0.
         11    1    3    3    0    0 -0.11870610911E+03  0.62489684532E+02  0.21906695930E+03  0.25687824678E+03  0.00000000000E+00 0.  1.
        -11    1    3    3    0    0 -0.61201973526E+02  0.66163999121E+02  0.48631578651E+02  0.10241282530E+03  0.00000000000E+00 0. -1.
          2    1    6    6  502    0  0.19402725114E+02  0.69266494236E+02 -0.20359582862E+02  0.74758448218E+02  0.00000000000E+00 0. -1.
          3    1    5    5  503    0  0.74649068596E+02 -0.19607598057E+03  0.10349781488E+04  0.10560293756E+04  0.00000000000E+00 0. -1.
         -4    1    5    5    0  503  0.11691945137E+03 -0.13915455756E+03  0.69742847285E+03  0.72072229308E+03  0.00000000000E+00 0.  1.
         -1    1    6    6    0  502 -0.31063162444E+02  0.13731036023E+03  0.39785546555E+02  0.14629403543E+03  0.00000000000E+00 0.  1.
<mgrwt>
<rscale>  0 0.12154801E+04</rscale>
<asrwt>0</asrwt>
<pdfrwt beam="1">  1        3 0.25966471E-01 0.12154801E+04</pdfrwt>
<pdfrwt beam="2">  1       -3 0.33666355E+00 0.12154801E+04</pdfrwt>
<totfact> 0.88410408E-01</totfact>
</mgrwt>
</event>
<event>
12    1  0.1495204E-007  0.1341959E+04  0.7818608E-02  0.8996938E-01
          2   -1    0    0  501    0  0.00000000000E+00  0.00000000000E+00  0.19064943376E+04  0.19064943376E+04  0.00000000000E+00 0. -1.
         -2   -1    0    0    0  501 -0.00000000000E+00 -0.00000000000E+00 -0.23614712776E+03  0.23614712776E+03  0.00000000000E+00 0.  1.
         23    2    1    2    0    0 -0.28153457077E+03 -0.46337405566E+02  0.78269351768E+03  0.83800733024E+03  0.90764933952E+02 0.  0.
        254    2    1    2    0    0  0.28153457077E+03  0.46337405566E+02  0.88765369213E+03  0.13046341351E+04  0.91254165910E+03 0.  0.
        -24    2    4    4    0    0  0.58646829552E+03 -0.10647950888E+03  0.50963355802E+03  0.78832953068E+03  0.80337650090E+02 0.  0.
         24    2    4    4    0    0 -0.30493372475E+03  0.15281691445E+03  0.37802013411E+03  0.51630460441E+03  0.85636656328E+02 0.  0.
         11    1    3    3    0    0 -0.58184445224E+01 -0.19477221413E+02  0.32873713533E+02  0.38650970131E+02  0.00000000000E+00 0.  1.
        -11    1    3    3    0    0 -0.27571612625E+03 -0.26860184153E+02  0.74981980414E+03  0.79935636011E+03  0.00000000000E+00 0. -1.
          2    1    6    6  502    0 -0.27681589661E+03  0.13928672295E+03  0.29594867702E+03  0.42850140167E+03  0.00000000000E+00 0. -1.
          1    1    5    5  503    0  0.51036513464E+03 -0.81778864054E+02  0.47179518435E+03  0.69982215543E+03  0.00000000000E+00 0. -1.
         -2    1    5    5    0  503  0.76103160883E+02 -0.24700644829E+02  0.37838373669E+02  0.88507375248E+02  0.00000000000E+00 0.  1.
         -1    1    6    6    0  502 -0.28117828144E+02  0.13530191497E+02  0.82071457094E+02  0.87803202737E+02  0.00000000000E+00 0.  1.
<mgrwt>
<rscale>  0 0.13419585E+04</rscale>
<asrwt>0</asrwt>
<pdfrwt beam="1">  1        2 0.29330681E+00 0.13419585E+04</pdfrwt>
<pdfrwt beam="2">  1       -2 0.36330329E-01 0.13419585E+04</pdfrwt>
<totfact> 0.52502878E+01</totfact>
</mgrwt>
</event>
<event>
12    1  0.1496890E-007  0.1520560E+04  0.7818608E-02  0.8870895E-01
          2   -1    0    0  501    0  0.00000000000E+00  0.00000000000E+00  0.72298262231E+03  0.72298262231E+03  0.00000000000E+00 0. -1.
         -2   -1    0    0    0  501 -0.00000000000E+00 -0.00000000000E+00 -0.79950106785E+03  0.79950106785E+03  0.00000000000E+00 0.  1.
         23    2    1    2    0    0  0.44875181628E+03  0.11703460298E+03 -0.18093968993E+03  0.50661166720E+03  0.94026161475E+02 0.  0.
        254    2    1    2    0    0 -0.44875181628E+03 -0.11703460298E+03  0.10442124439E+03  0.10158720230E+04  0.89778442838E+03 0.  0.
        -24    2    4    4    0    0  0.25780528802E+03 -0.50849209905E+02 -0.63711934397E+02  0.28265814002E+03  0.82384494018E+02 0.  0.
         24    2    4    4    0    0 -0.70655710430E+03 -0.66185393070E+02  0.16813317878E+03  0.73321388294E+03  0.75699302786E+02 0.  0.
         11    1    3    3    0    0  0.13180049670E+03  0.38124042271E+02 -0.90124461331E+01  0.13749922805E+03  0.00000000000E+00 0. -1.
        -11    1    3    3    0    0  0.31695131958E+03  0.78910560704E+02 -0.17192724379E+03  0.36911243915E+03  0.00000000000E+00 0.  1.
          4    1    6    6  502    0 -0.10375812418E+03  0.11330113444E+02  0.78418217022E+01  0.10466906884E+03  0.00000000000E+00 0. -1.
          3    1    5    5  503    0  0.48034834329E+02 -0.18276312591E+02  0.19050116566E+02  0.54811274863E+02  0.00000000000E+00 0. -1.
         -4    1    5    5    0  503  0.20977045369E+03 -0.32572897314E+02 -0.82762050963E+02  0.22784686515E+03  0.00000000000E+00 0.  1.
         -3    1    6    6    0  502 -0.60279898011E+03 -0.77515506515E+02  0.16029135708E+03  0.62854481410E+03  0.00000000000E+00 0.  1.
<mgrwt>
<rscale>  0 0.15205596E+04</rscale>
<asrwt>0</asrwt>
<pdfrwt beam="1">  1        2 0.11122810E+00 0.15205596E+04</pdfrwt>
<pdfrwt beam="2">  1       -2 0.12300016E+00 0.15205596E+04</pdfrwt>
<totfact> 0.18934866E+01</totfact>
</mgrwt>
</event>
<event>
12    1  0.1495204E-007  0.2296330E+04  0.7818608E-02  0.8479370E-01
          2   -1    0    0  501    0  0.00000000000E+00  0.00000000000E+00  0.16967245937E+04  0.16967245937E+04  0.00000000000E+00 0. -1.
         -2   -1    0    0    0  501 -0.00000000000E+00 -0.00000000000E+00 -0.77695749741E+03  0.77695749741E+03  0.00000000000E+00 0.  1.
         23    2    1    2    0    0 -0.95442136194E+03  0.15308472713E+03  0.30912515947E+03  0.10189032076E+04  0.90831230460E+02 0.  0.
        254    2    1    2    0    0  0.95442136194E+03 -0.15308472713E+03  0.61064193685E+03  0.14547788835E+04  0.89952373795E+03 0.  0.
        -24    2    4    4    0    0  0.79611346250E+03 -0.22758752962E+03  0.17593301365E+02  0.83203039985E+03  0.79826895218E+02 0.  0.
         24    2    4    4    0    0  0.15830789943E+03  0.74502802490E+02  0.59304863548E+03  0.62274848369E+03  0.74141292722E+02 0.  0.
         13    1    3    3    0    0 -0.93685793871E+03  0.15265405140E+03  0.28909751188E+03  0.99226177398E+03  0.00000000000E+00 0.  1.
        -13    1    3    3    0    0 -0.17563423232E+02  0.43067573228E+00  0.20027647588E+02  0.26641433616E+02  0.00000000000E+00 0. -1.
          2    1    6    6  502    0  0.14517481869E+03  0.87437906780E+02  0.55771529262E+03  0.58289575667E+03  0.00000000000E+00 0. -1.
          1    1    5    5  503    0  0.72340334035E+03 -0.22783856701E+03  0.63869535284E+01  0.75846133627E+03  0.00000000000E+00 0. -1.
         -2    1    5    5    0  503  0.72710122154E+02  0.25103738966E+00  0.11206347837E+02  0.73569063575E+02  0.00000000000E+00 0.  1.
         -1    1    6    6    0  502  0.13133080746E+02 -0.12935104290E+02  0.35333342864E+02  0.39852727019E+02  0.00000000000E+00 0.  1.
<mgrwt>
<rscale>  0 0.22963300E+04</rscale>
<asrwt>0</asrwt>
<pdfrwt beam="1">  1        2 0.26103455E+00 0.22963300E+04</pdfrwt>
<pdfrwt beam="2">  1       -2 0.11953192E+00 0.22963300E+04</pdfrwt>
<totfact> 0.47893300E+00</totfact>
</mgrwt>
</event>
<event>
12    1  0.1495204E-007  0.3394827E+04  0.7818608E-02  0.8139177E-01
         -1   -1    0    0    0  501 -0.00000000000E+00  0.00000000000E+00  0.17539746669E+04  0.17539746669E+04  0.00000000000E+00 0.  1.
          1   -1    0    0  501    0  0.00000000000E+00 -0.00000000000E+00 -0.16426765038E+04  0.16426765038E+04  0.00000000000E+00 0. -1.
         23    2    1    2    0    0 -0.73190031534E+03 -0.13575210812E+04  0.37171828915E+03  0.15891527338E+04  0.93222139670E+02 0.  0.
        254    2    1    2    0    0  0.73190031534E+03  0.13575210812E+04 -0.26042012602E+03  0.18074984370E+04  0.90591964336E+03 0.  0.
        -24    2    4    4    0    0  0.93710684686E+03  0.11494158474E+04 -0.23740161712E+03  0.15040193049E+04  0.79928149034E+02 0.  0.
         24    2    4    4    0    0 -0.20520653152E+03  0.20810523377E+03 -0.23018508900E+02  0.30347913208E+03  0.78436107460E+02 0.  0.
         13    1    3    3    0    0 -0.24487250639E+03 -0.54736079570E+03  0.13357975440E+03  0.61433698883E+03  0.00000000000E+00 0. -1.
        -13    1    3    3    0    0 -0.48702780895E+03 -0.81016028546E+03  0.23813853475E+03  0.97481574493E+03  0.00000000000E+00 0.  1.
          2    1    6    6  502    0 -0.31925585295E+02  0.15363261060E+02  0.20099679474E+02  0.40734136811E+02  0.00000000000E+00 0. -1.
          1    1    5    5  503    0  0.96566047431E+02  0.15406504158E+03 -0.15606154673E+02  0.18249545369E+03  0.00000000000E+00 0. -1.
         -2    1    5    5    0  503  0.84054079943E+03  0.99535080581E+03 -0.22179546245E+03  0.13215238512E+04  0.00000000000E+00 0.  1.
         -1    1    6    6    0  502 -0.17328094623E+03  0.19274197271E+03 -0.43118188374E+02  0.26274499527E+03  0.00000000000E+00 0.  1.
<mgrwt>
<rscale>  0 0.33948272E+04</rscale>
<asrwt>0</asrwt>
<pdfrwt beam="1">  1        1 0.25271946E+00 0.33948272E+04</pdfrwt>
<pdfrwt beam="2">  1       -1 0.26984226E+00 0.33948272E+04</pdfrwt>
<totfact> 0.22234669E-01</totfact>
</mgrwt>
</event>
<event>
12    1  0.1495204E-007  0.1284674E+04  0.7818608E-02  0.9041808E-01
          1   -1    0    0  501    0  0.00000000000E+00  0.00000000000E+00  0.24271405195E+04  0.24271405195E+04  0.00000000000E+00 0. -1.
         -1   -1    0    0    0  501 -0.00000000000E+00 -0.00000000000E+00 -0.16999286701E+03  0.16999286701E+03  0.00000000000E+00 0.  1.
         23    2    1    2    0    0  0.22206723971E+03  0.54905949229E+01  0.11965596966E+03  0.26837553254E+03  0.91454195132E+02 0.  0.
        254    2    1    2    0    0 -0.22206723971E+03 -0.54905949229E+01  0.21374916828E+04  0.23287578540E+04  0.89716132475E+03 0.  0.
        -24    2    4    4    0    0  0.32493958400E+02 -0.19356580646E+03  0.19327417499E+04  0.19442681749E+04  0.78514235941E+02 0.  0.
         24    2    4    4    0    0 -0.25456119811E+03  0.18807521154E+03  0.20474993291E+03  0.38448967907E+03  0.75736975826E+02 0.  0.
         13    1    3    3    0    0  0.81702597737E+02  0.26354011130E+02  0.50973484787E+01  0.85999019419E+02  0.00000000000E+00 0.  1.
        -13    1    3    3    0    0  0.14036464197E+03 -0.20863416207E+02  0.11455862118E+03  0.18237651312E+03  0.00000000000E+00 0. -1.
          2    1    6    6  502    0 -0.16502611570E+02  0.12118583942E+01 -0.37692279730E+01  0.16970912436E+02  0.00000000000E+00 0. -1.
          1    1    5    5  503    0 -0.11910839277E+02 -0.47752539236E+02  0.77108529989E+03  0.77265432944E+03  0.00000000000E+00 0. -1.
         -2    1    5    5    0  503  0.44404797677E+02 -0.14581326723E+03  0.11616564500E+04  0.11716138454E+04  0.00000000000E+00 0.  1.
         -1    1    6    6    0  502 -0.23805858654E+03  0.18686335315E+03  0.20851916088E+03  0.36751876663E+03  0.00000000000E+00 0.  1.
<mgrwt>
<rscale>  0 0.12846736E+04</rscale>
<asrwt>0</asrwt>
<pdfrwt beam="1">  1        1 0.37340621E+00 0.12846736E+04</pdfrwt>
<pdfrwt beam="2">  1       -1 0.26152750E-01 0.12846736E+04</pdfrwt>
<totfact> 0.19480963E+01</totfact>
</mgrwt>
</event>
<event>
12    1  0.1495204E-007  0.2200740E+04  0.7818608E-02  0.8518120E-01
         -2   -1    0    0    0  501 -0.00000000000E+00  0.00000000000E+00  0.46646280743E+03  0.46646280743E+03  0.00000000000E+00 0.  1.
          2   -1    0    0  501    0  0.00000000000E+00 -0.00000000000E+00 -0.25957362257E+04  0.25957362257E+04  0.00000000000E+00 0. -1.
         23    2    1    2    0    0 -0.56684304069E+03  0.30018811661E+03  0.27982987894E+02  0.64892887569E+03  0.94348820657E+02 0.  0.
        254    2    1    2    0    0  0.56684304069E+03 -0.30018811661E+03 -0.21572564061E+04  0.24132701574E+04  0.87103025934E+03 0.  0.
        -24    2    4    4    0    0  0.43993112091E+03 -0.50559516060E+03 -0.87048330635E+03  0.11016757729E+04  0.82355718128E+02 0.  0.
         24    2    4    4    0    0  0.12691191978E+03  0.20540704399E+03 -0.12867730998E+04  0.13115943845E+04  0.78715501243E+02 0.  0.
         13    1    3    3    0    0 -0.19224784605E+03  0.13909087449E+03  0.41734982775E+02  0.24093010286E+03  0.00000000000E+00 0.  1.
        -13    1    3    3    0    0 -0.37459519464E+03  0.16109724212E+03 -0.13751994881E+02  0.40799877283E+03  0.00000000000E+00 0. -1.
          4    1    6    6  502    0  0.46379752371E+02  0.11085689021E+03 -0.45504911357E+03  0.47064851779E+03  0.00000000000E+00 0. -1.
          3    1    5    5  503    0  0.43202949681E+03 -0.49261633536E+03 -0.86578023298E+03  0.10857696587E+04  0.00000000000E+00 0. -1.
         -4    1    5    5    0  503  0.79016240973E+01 -0.12978825241E+02 -0.47030733739E+01  0.15906114144E+02  0.00000000000E+00 0.  1.
         -3    1    6    6    0  502  0.80532167410E+02  0.94550153788E+02 -0.83172398622E+03  0.84094586676E+03  0.00000000000E+00 0.  1.
<mgrwt>
<rscale>  0 0.22007402E+04</rscale>
<asrwt>0</asrwt>
<pdfrwt beam="1">  1        2 0.39934404E+00 0.22007402E+04</pdfrwt>
<pdfrwt beam="2">  1       -2 0.71763509E-01 0.22007402E+04</pdfrwt>
<totfact> 0.49255198E+00</totfact>
</mgrwt>
</event>
<event>
12    1  0.1495204E-007  0.1494838E+04  0.7818608E-02  0.8887893E-01
          2   -1    0    0  501    0  0.00000000000E+00  0.00000000000E+00  0.12334213629E+04  0.12334213629E+04  0.00000000000E+00 0. -1.
         -2   -1    0    0    0  501 -0.00000000000E+00 -0.00000000000E+00 -0.45291502261E+03  0.45291502261E+03  0.00000000000E+00 0.  1.
         23    2    1    2    0    0 -0.24552431101E+02 -0.31410436041E+03  0.63416960030E+03  0.71391898736E+03  0.90801252524E+02 0.  0.
        254    2    1    2    0    0  0.24552431101E+02  0.31410436041E+03  0.14633673995E+03  0.97241739812E+03  0.90824929596E+03 0.  0.
        -24    2    4    4    0    0 -0.27372120899E+03  0.10020789303E+03  0.41314016973E+03  0.51177266295E+03  0.79129871890E+02 0.  0.
         24    2    4    4    0    0  0.29827364009E+03  0.21389646739E+03 -0.26680342978E+03  0.46064473517E+03  0.79313547137E+02 0.  0.
         13    1    3    3    0    0 -0.45568680704E+02 -0.82448220606E+02  0.20986674873E+03  0.23003970520E+03  0.00000000000E+00 0.  1.
        -13    1    3    3    0    0  0.21016249602E+02 -0.23165613981E+03  0.42430285156E+03  0.48387928216E+03  0.00000000000E+00 0. -1.
          2    1    6    6  502    0  0.52675665837E+02  0.70312150972E+02 -0.38706331012E+02  0.96003668711E+02  0.00000000000E+00 0. -1.
          3    1    5    5  503    0  0.22564476164E-01  0.26551676562E+01 -0.31261855817E+01  0.41016412238E+01  0.00000000000E+00 0. -1.
         -4    1    5    5    0  503 -0.27374377347E+03  0.97552725372E+02  0.41626635531E+03  0.50767102173E+03  0.00000000000E+00 0.  1.
         -1    1    6    6    0  502  0.24559797425E+03  0.14358431641E+03 -0.22809709877E+03  0.36464106646E+03  0.00000000000E+00 0.  1.
<mgrwt>
<rscale>  0 0.14948379E+04</rscale>
<asrwt>0</asrwt>
<pdfrwt beam="1">  1        2 0.18975713E+00 0.14948379E+04</pdfrwt>
<pdfrwt beam="2">  1       -2 0.69679235E-01 0.14948379E+04</pdfrwt>
<totfact> 0.32837007E+01</totfact>
</mgrwt>
</event>
<event>
12    1  0.1495204E-007  0.1466419E+04  0.7818608E-02  0.8907096E-01
         -1   -1    0    0    0  501 -0.00000000000E+00  0.00000000000E+00  0.94342847655E+03  0.94342847655E+03  0.00000000000E+00 0.  1.
          1   -1    0    0  501    0  0.00000000000E+00 -0.00000000000E+00 -0.56983234387E+03  0.56983234387E+03  0.00000000000E+00 0. -1.
         23    2    1    2    0    0 -0.27615498574E+03  0.15637151512E+03 -0.22209229528E+03  0.39813466449E+03  0.92046708545E+02 0.  0.
        254    2    1    2    0    0  0.27615498574E+03 -0.15637151512E+03  0.59568842796E+03  0.11151261559E+04  0.88766435861E+03 0.  0.
        -24    2    4    4    0    0 -0.91357660917E+02 -0.25933794885E+02 -0.19365614858E+03  0.23031397791E+03  0.80765342892E+02 0.  0.
         24    2    4    4    0    0  0.36751264665E+03 -0.13043772023E+03  0.78934457654E+03  0.88481217802E+03  0.88023778273E+02 0.  0.
         13    1    3    3    0    0 -0.16721088148E+03  0.14421675489E+03 -0.14894068934E+03  0.26634804338E+03  0.00000000000E+00 0. -1.
        -13    1    3    3    0    0 -0.10894410426E+03  0.12154760234E+02 -0.73151605940E+02  0.13178662110E+03  0.00000000000E+00 0.  1.
          4    1    6    6  502    0  0.18226902894E+03 -0.10644131677E+03  0.46175841606E+03  0.50771309578E+03  0.00000000000E+00 0. -1.
          3    1    5    5  503    0 -0.36289279234E+02  0.23694842199E+02 -0.36931518245E+02  0.56941148338E+02  0.00000000000E+00 0. -1.
         -4    1    5    5    0  503 -0.55068381682E+02 -0.49628637084E+02 -0.15672463034E+03  0.17337282957E+03  0.00000000000E+00 0.  1.
         -3    1    6    6    0  502  0.18524361772E+03 -0.23996403465E+02  0.32758616048E+03  0.37709908224E+03  0.00000000000E+00 0.  1.
<mgrwt>
<rscale>  0 0.14664188E+04</rscale>
<asrwt>0</asrwt>
<pdfrwt beam="1">  1        1 0.87666514E-01 0.14664188E+04</pdfrwt>
<pdfrwt beam="2">  1       -1 0.14514284E+00 0.14664188E+04</pdfrwt>
<totfact> 0.13635908E+01</totfact>
</mgrwt>
</event>
<event>
12    1  0.1495204E-007  0.1453753E+04  0.7818608E-02  0.8915803E-01
         -1   -1    0    0    0  501 -0.00000000000E+00  0.00000000000E+00  0.64785495533E+03  0.64785495533E+03  0.00000000000E+00 0.  1.
          1   -1    0    0  501    0  0.00000000000E+00 -0.00000000000E+00 -0.81553621150E+03  0.81553621150E+03  0.00000000000E+00 0. -1.
         23    2    1    2    0    0 -0.34972702063E+02  0.39338326737E+03  0.14167460809E+03  0.43027881887E+03  0.95366044568E+02 0.  0.
        254    2    1    2    0    0  0.34972702063E+02 -0.39338326737E+03 -0.30935586426E+03  0.10331123480E+04  0.90313154512E+03 0.  0.
        -24    2    4    4    0    0 -0.35706132913E+03 -0.34196539934E+02  0.71549581830E+02  0.37410619910E+03  0.78574228858E+02 0.  0.
         24    2    4    4    0    0  0.39203403120E+03 -0.35918672744E+03 -0.38090544609E+03  0.65900614885E+03  0.80587583259E+02 0.  0.
         13    1    3    3    0    0 -0.37166699492E+02  0.17932796969E+03  0.20466472044E+02  0.18427902958E+03  0.00000000000E+00 0. -1.
        -13    1    3    3    0    0  0.21939974290E+01  0.21405529769E+03  0.12120813604E+03  0.24599978930E+03  0.00000000000E+00 0.  1.
          4    1    6    6  502    0  0.54208724031E+02 -0.22779622130E+02 -0.61853971159E+02  0.85342900663E+02  0.00000000000E+00 0. -1.
          1    1    5    5  503    0 -0.88660818898E+02 -0.42913060343E+02  0.24082122122E+02  0.10140128284E+03  0.00000000000E+00 0. -1.
         -2    1    5    5    0  503 -0.26840051024E+03  0.87165204084E+01  0.47467459708E+02  0.27270491626E+03  0.00000000000E+00 0.  1.
         -3    1    6    6    0  502  0.33782530717E+03 -0.33640710531E+03 -0.31905147493E+03  0.57366324819E+03  0.00000000000E+00 0.  1.
<mgrwt>
<rscale>  0 0.14537526E+04</rscale>
<asrwt>0</asrwt>
<pdfrwt beam="1">  1        1 0.12546711E+00 0.14537526E+04</pdfrwt>
<pdfrwt beam="2">  1       -1 0.99669994E-01 0.14537526E+04</pdfrwt>
<totfact> 0.19992888E+01</totfact>
</mgrwt>
</event>
<event>
12    1  0.1495204E-007  0.1641312E+04  0.7818608E-02  0.8795563E-01
         -2   -1    0    0    0  501 -0.00000000000E+00  0.00000000000E+00  0.30050563895E+03  0.30050563895E+03  0.00000000000E+00 0.  1.
          2   -1    0    0  501    0  0.00000000000E+00 -0.00000000000E+00 -0.22411436629E+04  0.22411436629E+04  0.00000000000E+00 0. -1.
         23    2    1    2    0    0  0.52221737082E+02  0.51772424345E+03 -0.81286357009E+03  0.96983595312E+03  0.95231771430E+02 0.  0.
        254    2    1    2    0    0 -0.52221737082E+02 -0.51772424345E+03 -0.11277744538E+04  0.15718133487E+04  0.96330497890E+03 0.  0.
        -24    2    4    4    0    0  0.35750597124E+03  0.62054111988E+02 -0.48731441742E+03  0.61242932599E+03  0.77026655262E+02 0.  0.
         24    2    4    4    0    0 -0.40972770832E+03 -0.57977835544E+03 -0.64046003642E+03  0.95938402272E+03  0.78796626857E+02 0.  0.
         11    1    3    3    0    0  0.34045450704E+02  0.37604135669E+03 -0.66176700157E+03  0.76190666031E+03  0.00000000000E+00 0. -1.
        -11    1    3    3    0    0  0.18176286378E+02  0.14168288677E+03 -0.15109656852E+03  0.20792929281E+03  0.00000000000E+00 0.  1.
          4    1    6    6  502    0 -0.40864174439E+03 -0.55943514393E+03 -0.63034943852E+03  0.93664089712E+03  0.00000000000E+00 0. -1.
          1    1    5    5  503    0  0.33960041677E+03  0.43320783428E+02 -0.43088117714E+03  0.55033055718E+03  0.00000000000E+00 0. -1.
         -2    1    5    5    0  503  0.17905554469E+02  0.18733328560E+02 -0.56433240281E+02  0.62098768815E+02  0.00000000000E+00 0.  1.
         -3    1    6    6    0  502 -0.10859639310E+01 -0.20343211510E+02 -0.10110597902E+02  0.22743125601E+02  0.00000000000E+00 0.  1.
<mgrwt>
<rscale>  0 0.16413120E+04</rscale>
<asrwt>0</asrwt>
<pdfrwt beam="1">  1        2 0.34479134E+00 0.16413120E+04</pdfrwt>
<pdfrwt beam="2">  1       -2 0.46231636E-01 0.16413120E+04</pdfrwt>
<totfact> 0.20774105E+01</totfact>
</mgrwt>
</event>
<event>
12    1  0.1495204E-007  0.2796976E+04  0.7818608E-02  0.8304208E-01
          2   -1    0    0  501    0  0.00000000000E+00  0.00000000000E+00  0.25524546580E+04  0.25524546580E+04  0.00000000000E+00 0. -1.
         -2   -1    0    0    0  501 -0.00000000000E+00 -0.00000000000E+00 -0.76623075174E+03  0.76623075174E+03  0.00000000000E+00 0.  1.
         23    2    1    2    0    0 -0.16274701318E+03 -0.10719137958E+04  0.15344461462E+04  0.18809057381E+04  0.88292945417E+02 0.  0.
        254    2    1    2    0    0  0.16274701318E+03  0.10719137958E+04  0.25177776011E+03  0.14377796716E+04  0.91012777548E+03 0.  0.
        -24    2    4    4    0    0  0.16515283694E+03  0.71913328490E+02  0.37666518161E+03  0.42650151296E+03  0.87062593319E+02 0.  0.
         24    2    4    4    0    0 -0.24058237609E+01  0.10000004673E+04 -0.12488742151E+03  0.10112781587E+04  0.84142281270E+02 0.  0.
         13    1    3    3    0    0 -0.12221757198E+03 -0.74012423889E+03  0.11281361544E+04  0.13547738581E+04  0.00000000000E+00 0.  1.
        -13    1    3    3    0    0 -0.40529441195E+02 -0.33178955694E+03  0.40630999178E+03  0.52613187997E+03  0.00000000000E+00 0. -1.
          4    1    6    6  502    0 -0.31410326903E+02  0.16132540698E+03 -0.21729753315E+02  0.16578503477E+03  0.00000000000E+00 0. -1.
          3    1    5    5  503    0  0.14693172507E+03  0.41363627555E+02  0.23337031009E+03  0.27885763957E+03  0.00000000000E+00 0. -1.
         -4    1    5    5    0  503  0.18221111875E+02  0.30549700934E+02  0.14329487153E+03  0.14764387339E+03  0.00000000000E+00 0.  1.
         -3    1    6    6    0  502  0.29004503142E+02  0.83867506036E+03 -0.10315766819E+03  0.84549312391E+03  0.00000000000E+00 0.  1.
<mgrwt>
<rscale>  0 0.27969764E+04</rscale>
<asrwt>0</asrwt>
<pdfrwt beam="1">  1        2 0.39268533E+00 0.27969764E+04</pdfrwt>
<pdfrwt beam="2">  1       -2 0.11788166E+00 0.27969764E+04</pdfrwt>
<totfact> 0.15669048E+00</totfact>
</mgrwt>
</event>
<event>
12    1  0.1495204E-007  0.2408325E+04  0.7818608E-02  0.8436393E-01
         -2   -1    0    0    0  501 -0.00000000000E+00  0.00000000000E+00  0.12383241710E+04  0.12383241710E+04  0.00000000000E+00 0.  1.
          2   -1    0    0  501    0  0.00000000000E+00 -0.00000000000E+00 -0.11709430119E+04  0.11709430119E+04  0.00000000000E+00 0. -1.
         23    2    1    2    0    0 -0.94182465425E+03  0.38828205183E+03  0.21345942835E+03  0.10449916928E+04  0.92984295821E+02 0.  0.
        254    2    1    2    0    0  0.94182465425E+03 -0.38828205183E+03 -0.14607826928E+03  0.13642754901E+04  0.89560712428E+03 0.  0.
        -24    2    4    4    0    0  0.80080098211E+03 -0.64951309823E+03 -0.19864900477E+03  0.10530732569E+04  0.79701817167E+02 0.  0.
         24    2    4    4    0    0  0.14102367214E+03  0.26123104640E+03  0.52570735488E+02  0.31120223319E+03  0.77160948672E+02 0.  0.
         13    1    3    3    0    0 -0.24113825295E+03  0.56723376946E+02  0.46647056029E+02  0.25207369232E+03  0.00000000000E+00 0. -1.
        -13    1    3    3    0    0 -0.70068640131E+03  0.33155867488E+03  0.16681237232E+03  0.79291800044E+03  0.00000000000E+00 0.  1.
          4    1    6    6  502    0  0.99720397869E+02  0.23748254472E+03  0.55452149526E+02  0.26347117050E+03  0.00000000000E+00 0. -1.
          1    1    5    5  503    0  0.66269439992E+03 -0.56194058640E+03 -0.18942575339E+03  0.88928241092E+03  0.00000000000E+00 0. -1.
         -2    1    5    5    0  503  0.13810658219E+03 -0.87572511834E+02 -0.92232513846E+01  0.16379084602E+03  0.00000000000E+00 0.  1.
         -3    1    6    6    0  502  0.41303274276E+02  0.23748501680E+02 -0.28814140382E+01  0.47731062683E+02  0.00000000000E+00 0.  1.
<mgrwt>
<rscale>  0 0.24083248E+04</rscale>
<asrwt>0</asrwt>
<pdfrwt beam="1">  1        2 0.18014508E+00 0.24083248E+04</pdfrwt>
<pdfrwt beam="2">  1       -2 0.19051141E+00 0.24083248E+04</pdfrwt>
<totfact> 0.27247222E+00</totfact>
</mgrwt>
</event>
<event>
12    1  0.1495204E-007  0.2878410E+04  0.7818608E-02  0.8279330E-01
         -1   -1    0    0    0  501 -0.00000000000E+00  0.00000000000E+00  0.17116945082E+04  0.17116945082E+04  0.00000000000E+00 0.  1.
          1   -1    0    0  501    0  0.00000000000E+00 -0.00000000000E+00 -0.12100939795E+04  0.12100939795E+04  0.00000000000E+00 0. -1.
         23    2    1    2    0    0  0.56079042538E+03  0.10251186937E+04 -0.33787756110E+03  0.12202188469E+04  0.97049217827E+02 0.  0.
        254    2    1    2    0    0 -0.56079042538E+03 -0.10251186937E+04  0.83947808977E+03  0.17015696408E+04  0.90843906891E+03 0.  0.
        -24    2    4    4    0    0 -0.44571491471E+02  0.15750057864E+03  0.14914007986E+03  0.23596704672E+03  0.81514621961E+02 0.  0.
         24    2    4    4    0    0 -0.51621893391E+03 -0.11826192724E+04  0.69033800992E+03  0.14656025941E+04  0.79712387864E+02 0.  0.
         11    1    3    3    0    0  0.69349896089E+02  0.70934859185E+02 -0.28992524673E+02  0.10335244952E+03  0.00000000000E+00 0.  1.
        -11    1    3    3    0    0  0.49144052930E+03  0.95418383454E+03 -0.30888503642E+03  0.11168663974E+04  0.00000000000E+00 0. -1.
          2    1    6    6  502    0 -0.41070468658E+03 -0.90604300926E+03  0.49686842199E+03  0.11119669523E+04  0.00000000000E+00 0. -1.
          3    1    5    5  503    0 -0.37303888216E+02  0.15383502214E+03  0.15819522569E+03  0.22379124993E+03  0.00000000000E+00 0. -1.
         -4    1    5    5    0  503 -0.72676032550E+01  0.36655564997E+01 -0.90551458307E+01  0.12175796793E+02  0.00000000000E+00 0.  1.
         -1    1    6    6    0  502 -0.10551424734E+03 -0.27657626311E+03  0.19346958793E+03  0.35363564181E+03  0.00000000000E+00 0.  1.
<mgrwt>
<rscale>  0 0.28784101E+04</rscale>
<asrwt>0</asrwt>
<pdfrwt beam="1">  1        1 0.18616830E+00 0.28784101E+04</pdfrwt>
<pdfrwt beam="2">  1       -1 0.26333762E+00 0.28784101E+04</pdfrwt>
<totfact> 0.51563715E-01</totfact>
</mgrwt>
</event>
<event>
12    1  0.1495204E-007  0.1953557E+04  0.7818608E-02  0.8628648E-01
         -2   -1    0    0    0  501 -0.00000000000E+00  0.00000000000E+00  0.38644998791E+03  0.38644998791E+03  0.00000000000E+00 0.  1.
          2   -1    0    0  501    0  0.00000000000E+00 -0.00000000000E+00 -0.24688732631E+04  0.24688732631E+04  0.00000000000E+00 0. -1.
         23    2    1    2    0    0  0.72976490858E+03 -0.12517689906E+03 -0.51438158669E+03  0.90534083618E+03  0.82628899810E+02 0.  0.
        254    2    1    2    0    0 -0.72976490858E+03  0.12517689906E+03 -0.15680416885E+04  0.19499824148E+04  0.89188037505E+03 0.  0.
        -24    2    4    4    0    0 -0.79292599716E+03  0.37749136300E+03 -0.11138968724E+04  0.14206604474E+04  0.79236975496E+02 0.  0.
         24    2    4    4    0    0  0.63161088581E+02 -0.25231446394E+03 -0.45414481606E+03  0.52932196742E+03  0.79261083860E+02 0.  0.
         11    1    3    3    0    0  0.98115651892E+02 -0.18020643932E+02 -0.10610223228E+03  0.14563347297E+03  0.00000000000E+00 0. -1.
        -11    1    3    3    0    0  0.63164925669E+03 -0.10715625513E+03 -0.40827935441E+03  0.75970736322E+03  0.00000000000E+00 0.  1.
          4    1    6    6  502    0  0.14538745743E+02 -0.21528256785E+02 -0.10368907980E+03  0.10689371468E+03  0.00000000000E+00 0. -1.
          1    1    5    5  503    0 -0.14409773825E+03  0.59734865499E+02 -0.15331942869E+03  0.21872187714E+03  0.00000000000E+00 0. -1.
         -2    1    5    5    0  503 -0.64882825891E+03  0.31775649750E+03 -0.96057744371E+03  0.12019385702E+04  0.00000000000E+00 0.  1.
         -3    1    6    6    0  502  0.48622342838E+02 -0.23078620715E+03 -0.35045573626E+03  0.42242825274E+03  0.00000000000E+00 0.  1.
<mgrwt>
<rscale>  0 0.19535568E+04</rscale>
<asrwt>0</asrwt>
<pdfrwt beam="1">  1        2 0.37982664E+00 0.19535568E+04</pdfrwt>
<pdfrwt beam="2">  1       -2 0.59453846E-01 0.19535568E+04</pdfrwt>
<totfact> 0.89404865E+00</totfact>
</mgrwt>
</event>
<event>
12    1  0.1495204E-007  0.1258643E+04  0.7818608E-02  0.9063020E-01
         -2   -1    0    0    0  501 -0.00000000000E+00  0.00000000000E+00  0.21443246223E+03  0.21443246223E+03  0.00000000000E+00 0.  1.
          2   -1    0    0  501    0  0.00000000000E+00 -0.00000000000E+00 -0.18469471822E+04  0.18469471822E+04  0.00000000000E+00 0. -1.
         23    2    1    2    0    0  0.18272797394E+03 -0.15117908508E+02 -0.79035982560E+03  0.81556628819E+03  0.82835094540E+02 0.  0.
        254    2    1    2    0    0 -0.18272797394E+03  0.15117908508E+02 -0.84215489440E+03  0.12458133563E+04  0.89955988622E+03 0.  0.
        -24    2    4    4    0    0 -0.49260697295E+03  0.17955233503E+03 -0.64605604152E+03  0.83593095303E+03  0.80569712887E+02 0.  0.
         24    2    4    4    0    0  0.30987899901E+03 -0.16443442652E+03 -0.19609885287E+03  0.40988240324E+03  0.80530427389E+02 0.  0.
         11    1    3    3    0    0  0.18813165266E+03 -0.23986753347E+02 -0.76508344410E+03  0.78823953181E+03  0.00000000000E+00 0. -1.
        -11    1    3    3    0    0 -0.54036787201E+01  0.88688448386E+01 -0.25276381495E+02  0.27326756375E+02  0.00000000000E+00 0.  1.
          4    1    6    6  502    0  0.10589042916E+03 -0.16808597602E+02 -0.72097295960E+02  0.12920267809E+03  0.00000000000E+00 0. -1.
          1    1    5    5  503    0 -0.38949639696E+03  0.10764818834E+03 -0.47460827307E+03  0.62333665748E+03  0.00000000000E+00 0. -1.
         -2    1    5    5    0  503 -0.10311057599E+03  0.71904146685E+02 -0.17144776845E+03  0.21259429555E+03  0.00000000000E+00 0.  1.
         -3    1    6    6    0  502  0.20398856985E+03 -0.14762582892E+03 -0.12400155691E+03  0.28067972515E+03  0.00000000000E+00 0.  1.
<mgrwt>
<rscale>  0 0.12586428E+04</rscale>
<asrwt>0</asrwt>
<pdfrwt beam="1">  1        2 0.28414573E+00 0.12586428E+04</pdfrwt>
<pdfrwt beam="2">  1       -2 0.32989609E-01 0.12586428E+04</pdfrwt>
<totfact> 0.68515884E+01</totfact>
</mgrwt>
</event>
<event>
12    1  0.1495204E-007  0.1535709E+04  0.7818608E-02  0.8861048E-01
         -1   -1    0    0    0  501 -0.00000000000E+00  0.00000000000E+00  0.39075270488E+03  0.39075270488E+03  0.00000000000E+00 0.  1.
          1   -1    0    0  501    0  0.00000000000E+00 -0.00000000000E+00 -0.15088847869E+04  0.15088847869E+04  0.00000000000E+00 0. -1.
         23    2    1    2    0    0  0.19320966141E+03 -0.17887937366E+03 -0.89801558224E+03  0.94021086920E+03  0.90756206558E+02 0.  0.
        254    2    1    2    0    0 -0.19320966141E+03  0.17887937366E+03 -0.22011649978E+03  0.95942662258E+03  0.89594663182E+03 0.  0.
        -24    2    4    4    0    0 -0.55322067422E+02 -0.35373536445E+03 -0.15981512625E+03  0.40037202020E+03  0.81040982049E+02 0.  0.
         24    2    4    4    0    0 -0.13788759399E+03  0.53261473811E+03 -0.60301373533E+02  0.55905460239E+03  0.78831116753E+02 0.  0.
         11    1    3    3    0    0  0.90208189212E+02 -0.13804155134E+03 -0.47013502597E+03  0.49821674996E+03  0.00000000000E+00 0. -1.
        -11    1    3    3    0    0  0.10300147220E+03 -0.40837822321E+02 -0.42788055627E+03  0.44199411924E+03  0.00000000000E+00 0.  1.
          2    1    6    6  502    0 -0.41172061581E+00  0.85246231641E+02 -0.28799058432E+02  0.89980416144E+02  0.00000000000E+00 0. -1.
          3    1    5    5  503    0 -0.57629225679E+02 -0.20940573454E+03 -0.61524413411E+02  0.22573688834E+03  0.00000000000E+00 0. -1.
         -4    1    5    5    0  503  0.23071582566E+01 -0.14432962991E+03 -0.98290712839E+02  0.17463513186E+03  0.00000000000E+00 0.  1.
         -1    1    6    6    0  502 -0.13747587337E+03  0.44736850647E+03 -0.31502315100E+02  0.46907418624E+03  0.00000000000E+00 0.  1.
<mgrwt>
<rscale>  0 0.15357094E+04</rscale>
<asrwt>0</asrwt>
<pdfrwt beam="1">  1        1 0.23213612E+00 0.15357094E+04</pdfrwt>
<pdfrwt beam="2">  1       -1 0.60115802E-01 0.15357094E+04</pdfrwt>
<totfact> 0.17453543E+01</totfact>
</mgrwt>
</event>
<event>
12    1  0.1495204E-007  0.1143121E+04  0.7818608E-02  0.9164154E-01
          2   -1    0    0  501    0  0.00000000000E+00  0.00000000000E+00  0.23099392523E+04  0.23099392523E+04  0.00000000000E+00 0. -1.
         -2   -1    0    0    0  501 -0.00000000000E+00 -0.00000000000E+00 -0.14142413552E+03  0.14142413552E+03  0.00000000000E+00 0.  1.
         23    2    1    2    0    0  0.10433164781E+03  0.17662668885E+03  0.53342994417E+03  0.57941323526E+03  0.95342078370E+02 0.  0.
        254    2    1    2    0    0 -0.10433164781E+03 -0.17662668885E+03  0.16350851726E+04  0.18719501526E+04  0.88803815909E+03 0.  0.
        -24    2    4    4    0    0 -0.28930506447E+03  0.15056711102E+03  0.21032907943E+03  0.39617103767E+03  0.79657354878E+02 0.  0.
         24    2    4    4    0    0  0.18497341666E+03 -0.32719379987E+03  0.14247560932E+04  0.14757791149E+04  0.81994654330E+02 0.  0.
         13    1    3    3    0    0  0.24273310881E+02 -0.14453750625E-02  0.12433301694E+03  0.12668027756E+03  0.00000000000E+00 0. -1.
        -13    1    3    3    0    0  0.80058336928E+02  0.17662813423E+03  0.40909692724E+03  0.45273295770E+03  0.00000000000E+00 0.  1.
          4    1    6    6  502    0  0.16573440796E+03 -0.29078428579E+03  0.11418880060E+04  0.11899292471E+04  0.00000000000E+00 0. -1.
          3    1    5    5  503    0 -0.20317351298E+03  0.89630091613E+02  0.10009507499E+03  0.24358171881E+03  0.00000000000E+00 0. -1.
         -4    1    5    5    0  503 -0.86131551483E+02  0.60937019406E+02  0.11023400444E+03  0.15258931886E+03  0.00000000000E+00 0.  1.
         -3    1    6    6    0  502  0.19239008694E+02 -0.36409514083E+02  0.28286808723E+03  0.28584986784E+03  0.00000000000E+00 0.  1.
<mgrwt>
<rscale>  0 0.11431206E+04</rscale>
<asrwt>0</asrwt>
<pdfrwt beam="1">  1        2 0.35537524E+00 0.11431206E+04</pdfrwt>
<pdfrwt beam="2">  1       -2 0.21757561E-01 0.11431206E+04</pdfrwt>
<totfact> 0.82020198E+01</totfact>
</mgrwt>
</event>
<event>
12    1  0.1495204E-007  0.1373357E+04  0.7818608E-02  0.8973333E-01
         -2   -1    0    0    0  501 -0.00000000000E+00  0.00000000000E+00  0.25224593467E+03  0.25224593467E+03  0.00000000000E+00 0.  1.
          2   -1    0    0  501    0  0.00000000000E+00 -0.00000000000E+00 -0.18693161378E+04  0.18693161378E+04  0.00000000000E+00 0. -1.
         23    2    1    2    0    0  0.13422818500E+03  0.34964748972E+03 -0.54035274003E+03  0.66348740403E+03  0.89240567770E+02 0.  0.
        254    2    1    2    0    0 -0.13422818500E+03 -0.34964748972E+03 -0.10767174631E+04  0.14580746684E+04  0.90906032289E+03 0.  0.
        -24    2    4    4    0    0 -0.26211639597E+03 -0.59207380205E+03 -0.93327563512E+03  0.11386896767E+04  0.79714343945E+02 0.  0.
         24    2    4    4    0    0  0.12788821097E+03  0.24242631233E+03 -0.14344182797E+03  0.31938499171E+03  0.79405941237E+02 0.  0.
         11    1    3    3    0    0  0.12958867953E+03  0.33520641658E+03 -0.47075354306E+03  0.59225456172E+03  0.00000000000E+00 0. -1.
        -11    1    3    3    0    0  0.46395054639E+01  0.14441073142E+02 -0.69599196973E+02  0.71232842311E+02  0.00000000000E+00 0.  1.
          4    1    6    6  502    0  0.45079085601E+02  0.10567345797E+03 -0.18246284972E+02  0.11632682663E+03  0.00000000000E+00 0. -1.
          1    1    5    5  503    0 -0.24082813769E+03 -0.50052203577E+03 -0.83342945054E+03  0.10015613557E+04  0.00000000000E+00 0. -1.
         -2    1    5    5    0  503 -0.21288258283E+02 -0.91551766282E+02 -0.99846184581E+02  0.13712832102E+03  0.00000000000E+00 0.  1.
         -3    1    6    6    0  502  0.82809125374E+02  0.13675285435E+03 -0.12519554300E+03  0.20305816508E+03  0.00000000000E+00 0.  1.
<mgrwt>
<rscale>  0 0.13733570E+04</rscale>
<asrwt>0</asrwt>
<pdfrwt beam="1">  1        2 0.28758709E+00 0.13733570E+04</pdfrwt>
<pdfrwt beam="2">  1       -2 0.38807068E-01 0.13733570E+04</pdfrwt>
<totfact> 0.48334760E+01</totfact>
</mgrwt>
</event>
<event>
12    1  0.1495204E-007  0.1670158E+04  0.7818608E-02  0.8778570E-01
         -4   -1    0    0    0  501 -0.00000000000E+00  0.00000000000E+00  0.55590170644E+03  0.55590170644E+03  0.00000000000E+00 0.  1.
          4   -1    0    0  501    0  0.00000000000E+00 -0.00000000000E+00 -0.12544614711E+04  0.12544614711E+04  0.00000000000E+00 0. -1.
         23    2    1    2    0    0  0.22339531398E+03 -0.30922046580E+03 -0.73971025994E+03  0.83715958751E+03  0.90233826963E+02 0.  0.
        254    2    1    2    0    0 -0.22339531398E+03  0.30922046580E+03  0.41150495310E+02  0.97320358999E+03  0.89437637577E+03 0.  0.
        -24    2    4    4    0    0  0.20869297486E+03 -0.15197196959E+03  0.17506303502E+03  0.32203205326E+03  0.80058352431E+02 0.  0.
         24    2    4    4    0    0 -0.43208828884E+03  0.46119243539E+03 -0.13391253971E+03  0.65117153674E+03  0.81811063702E+02 0.  0.
         11    1    3    3    0    0  0.15381480079E+03 -0.14259372436E+03 -0.35857075299E+03  0.41540937407E+03  0.00000000000E+00 0.  1.
        -11    1    3    3    0    0  0.69580513191E+02 -0.16662674144E+03 -0.38113950695E+03  0.42175021344E+03  0.00000000000E+00 0. -1.
          4    1    6    6  502    0 -0.27723300741E+03  0.27508782358E+03 -0.44486080803E+02  0.39307818874E+03  0.00000000000E+00 0. -1.
          1    1    5    5  503    0  0.18009804507E+03 -0.88934705084E+02  0.12455873821E+03  0.23634628593E+03  0.00000000000E+00 0. -1.
         -2    1    5    5    0  503  0.28594929794E+02 -0.63037264509E+02  0.50504296809E+02  0.85685767329E+02  0.00000000000E+00 0.  1.
         -3    1    6    6    0  502 -0.15485528144E+03  0.18610461182E+03 -0.89426458910E+02  0.25809334800E+03  0.00000000000E+00 0.  1.
<mgrwt>
<rscale>  0 0.16701584E+04</rscale>
<asrwt>0</asrwt>
<pdfrwt beam="1">  1        4 0.19299407E+00 0.16701584E+04</pdfrwt>
<pdfrwt beam="2">  1       -4 0.85523340E-01 0.16701584E+04</pdfrwt>
<totfact> 0.33300155E-01</totfact>
</mgrwt>
</event>
<event>
12    1  0.1495204E-007  0.1778451E+04  0.7818608E-02  0.8717844E-01
         -1   -1    0    0    0  501 -0.00000000000E+00  0.00000000000E+00  0.10020347278E+04  0.10020347278E+04  0.00000000000E+00 0.  1.
          1   -1    0    0  501    0  0.00000000000E+00 -0.00000000000E+00 -0.78911610897E+03  0.78911610897E+03  0.00000000000E+00 0. -1.
         23    2    1    2    0    0 -0.19164832442E+02 -0.56838542657E+03 -0.23027093575E+03  0.62043255245E+03  0.92100837894E+02 0.  0.
        254    2    1    2    0    0  0.19164832442E+02  0.56838542657E+03  0.44318955457E+03  0.11707182843E+04  0.92235298883E+03 0.  0.
        -24    2    4    4    0    0 -0.19960560356E+02  0.19273722285E+03  0.68434711460E+03  0.71552501248E+03  0.78096153460E+02 0.  0.
         24    2    4    4    0    0  0.39125392798E+02  0.37564820373E+03 -0.24115756003E+03  0.45519327183E+03  0.80009853353E+02 0.  0.
         11    1    3    3    0    0 -0.48478720123E+02 -0.47842391428E+03 -0.20297989468E+03  0.52195829882E+03  0.00000000000E+00 0.  1.
        -11    1    3    3    0    0  0.29313887681E+02 -0.89961512293E+02 -0.27291041064E+02  0.98474253627E+02  0.00000000000E+00 0. -1.
          4    1    6    6  502    0  0.43920384882E+02  0.36588831147E+03 -0.24621690835E+03  0.44319975478E+03  0.00000000000E+00 0. -1.
          3    1    5    5  503    0 -0.37504783336E+02  0.18511672035E+03  0.63842001949E+03  0.66577393326E+03  0.00000000000E+00 0. -1.
         -4    1    5    5    0  503  0.17544222981E+02  0.76205025019E+01  0.45927095109E+02  0.49751079220E+02  0.00000000000E+00 0.  1.
         -3    1    6    6    0  502 -0.47949920845E+01  0.97598922511E+01  0.50593483132E+01  0.11993517049E+02  0.00000000000E+00 0.  1.
<mgrwt>
<rscale>  0 0.17784507E+04</rscale>
<asrwt>0</asrwt>
<pdfrwt beam="1">  1        1 0.12140248E+00 0.17784507E+04</pdfrwt>
<pdfrwt beam="2">  1       -1 0.15415919E+00 0.17784507E+04</pdfrwt>
<totfact> 0.69209018E+00</totfact>
</mgrwt>
</event>
<event>
12    1  0.1495204E-007  0.1514106E+04  0.7818608E-02  0.8875126E-01
          1   -1    0    0  501    0  0.00000000000E+00  0.00000000000E+00  0.25524654723E+04  0.25524654723E+04  0.00000000000E+00 0. -1.
         -1   -1    0    0    0  501 -0.00000000000E+00 -0.00000000000E+00 -0.22453960901E+03  0.22453960901E+03  0.00000000000E+00 0.  1.
         23    2    1    2    0    0  0.11228663924E+03 -0.16378734678E+03 -0.49279551014E+02  0.22469532223E+03  0.92870497821E+02 0.  0.
        254    2    1    2    0    0 -0.11228663924E+03  0.16378734678E+03  0.23772054143E+04  0.25523097591E+04  0.90760395560E+03 0.  0.
        -24    2    4    4    0    0  0.34600862736E+03  0.24822629361E+03  0.85752233735E+03  0.96066567386E+03  0.78712863190E+02 0.  0.
         24    2    4    4    0    0 -0.45829526661E+03 -0.84438946831E+02  0.15196830769E+04  0.15916440852E+04  0.82035068897E+02 0.  0.
         11    1    3    3    0    0  0.25024791470E+02 -0.37018506678E+02  0.27745726013E+02  0.52596913757E+02  0.00000000000E+00 0. -1.
        -11    1    3    3    0    0  0.87261847773E+02 -0.12676884010E+03 -0.77025277026E+02  0.17209840847E+03  0.00000000000E+00 0.  1.
          2    1    6    6  502    0 -0.34492441806E+03 -0.34379941309E+02  0.10418412356E+04  0.10979927116E+04  0.00000000000E+00 0. -1.
          3    1    5    5  503    0  0.34531229269E+03  0.25071172449E+03  0.83236332968E+03  0.93537460992E+03  0.00000000000E+00 0. -1.
         -4    1    5    5    0  503  0.69633467615E+00 -0.24854308782E+01  0.25159007666E+02  0.25291063943E+02  0.00000000000E+00 0.  1.
         -1    1    6    6    0  502 -0.11337084855E+03 -0.50059005521E+02  0.47784184135E+03  0.49365137362E+03  0.00000000000E+00 0.  1.
<mgrwt>
<rscale>  0 0.15141065E+04</rscale>
<asrwt>0</asrwt>
<pdfrwt beam="1">  1        1 0.39268697E+00 0.15141065E+04</pdfrwt>
<pdfrwt beam="2">  1       -1 0.34544557E-01 0.15141065E+04</pdfrwt>
<totfact> 0.95878737E+00</totfact>
</mgrwt>
</event>
<event>
12    1  0.1495204E-007  0.2168689E+04  0.7818608E-02  0.8531575E-01
          1   -1    0    0  501    0  0.00000000000E+00  0.00000000000E+00  0.13087263543E+04  0.13087263543E+04  0.00000000000E+00 0. -1.
         -1   -1    0    0    0  501 -0.00000000000E+00 -0.00000000000E+00 -0.89843291136E+03  0.89843291136E+03  0.00000000000E+00 0.  1.
         23    2    1    2    0    0 -0.18127949048E+03  0.82470031878E+02  0.10580705959E+04  0.10810894487E+04  0.97864448781E+02 0.  0.
        254    2    1    2    0    0  0.18127949048E+03 -0.82470031878E+02 -0.64777715297E+03  0.11260698170E+04  0.89930775206E+03 0.  0.
        -24    2    4    4    0    0 -0.15582547261E+03 -0.35865253977E+03 -0.83744724640E+02  0.40875526451E+03  0.84584071598E+02 0.  0.
         24    2    4    4    0    0  0.33710496309E+03  0.27618250789E+03 -0.56403242833E+03  0.71731455244E+03  0.80567072218E+02 0.  0.
         11    1    3    3    0    0 -0.55725728752E+02  0.17474473635E+02  0.56913771207E+03  0.57212625300E+03  0.00000000000E+00 0.  1.
        -11    1    3    3    0    0 -0.12555376173E+03  0.64995558243E+02  0.48893288386E+03  0.50896319572E+03  0.00000000000E+00 0. -1.
          2    1    6    6  502    0  0.28378083987E+03  0.26453860442E+03 -0.48116671855E+03  0.61808870670E+03  0.00000000000E+00 0. -1.
          3    1    5    5  503    0 -0.11023630545E+03 -0.15423240502E+03 -0.24915242194E+02  0.19120786357E+03  0.00000000000E+00 0. -1.
         -4    1    5    5    0  503 -0.45589167158E+02 -0.20442013475E+03 -0.58829482446E+02  0.21754740095E+03  0.00000000000E+00 0.  1.
         -1    1    6    6    0  502  0.53324123222E+02  0.11643903465E+02 -0.82865709784E+02  0.99225845743E+02  0.00000000000E+00 0.  1.
<mgrwt>
<rscale>  0 0.21686888E+04</rscale>
<asrwt>0</asrwt>
<pdfrwt beam="1">  1        1 0.20134252E+00 0.21686888E+04</pdfrwt>
<pdfrwt beam="2">  1       -1 0.13822045E+00 0.21686888E+04</pdfrwt>
<totfact> 0.35331975E+00</totfact>
</mgrwt>
</event>
<event>
12    1  0.1495204E-007  0.1070647E+04  0.7818608E-02  0.9234283E-01
         -1   -1    0    0    0  501 -0.00000000000E+00  0.00000000000E+00  0.27941643031E+03  0.27941643031E+03  0.00000000000E+00 0.  1.
          1   -1    0    0  501    0  0.00000000000E+00 -0.00000000000E+00 -0.10256068726E+04  0.10256068726E+04  0.00000000000E+00 0. -1.
         23    2    1    2    0    0 -0.42595456906E+02  0.95614805180E+02 -0.19989039381E+03  0.24402013402E+03  0.92914435650E+02 0.  0.
        254    2    1    2    0    0  0.42595456906E+02 -0.95614805180E+02 -0.54630004848E+03  0.10610031689E+04  0.90350839372E+03 0.  0.
        -24    2    4    4    0    0  0.33153781183E+03  0.25864646597E+03 -0.16074720201E+03  0.45727674823E+03  0.80293502177E+02 0.  0.
         24    2    4    4    0    0 -0.28894235492E+03 -0.35426127115E+03 -0.38555284647E+03  0.60372642066E+03  0.82739717672E+02 0.  0.
         11    1    3    3    0    0 -0.23623662189E+02  0.94741536875E+02 -0.20253674321E+03  0.22484476551E+03  0.00000000000E+00 0. -1.
        -11    1    3    3    0    0 -0.18971794717E+02  0.87326830512E+00  0.26463494087E+01  0.19175368510E+02  0.00000000000E+00 0.  1.
          4    1    6    6  502    0  0.45306436671E+01 -0.16192921205E+02 -0.11850128223E+02  0.20570925310E+02  0.00000000000E+00 0. -1.
          1    1    5    5  503    0 -0.21419570525E+01  0.10813038429E+02  0.14181573541E+01  0.11113997947E+02  0.00000000000E+00 0. -1.
         -2    1    5    5    0  503  0.33367976888E+03  0.24783342754E+03 -0.16216535936E+03  0.44616275029E+03  0.00000000000E+00 0.  1.
         -3    1    6    6    0  502 -0.29347299859E+03 -0.33806834994E+03 -0.37370271825E+03  0.58315549535E+03  0.00000000000E+00 0.  1.
<mgrwt>
<rscale>  0 0.10706473E+04</rscale>
<asrwt>0</asrwt>
<pdfrwt beam="1">  1        1 0.15778567E+00 0.10706473E+04</pdfrwt>
<pdfrwt beam="2">  1       -1 0.42987143E-01 0.10706473E+04</pdfrwt>
<totfact> 0.76895326E+01</totfact>
</mgrwt>
</event>
<event>
12    1  0.1495204E-007  0.1523064E+04  0.7818608E-02  0.8869259E-01
         -2   -1    0    0    0  501 -0.00000000000E+00  0.00000000000E+00  0.70323659332E+03  0.70323659332E+03  0.00000000000E+00 0.  1.
          2   -1    0    0  501    0  0.00000000000E+00 -0.00000000000E+00 -0.82465971263E+03  0.82465971263E+03  0.00000000000E+00 0. -1.
         23    2    1    2    0    0 -0.13726137983E+03 -0.23774708958E+03  0.37579781838E+03  0.47420707348E+03  0.91016389991E+02 0.  0.
        254    2    1    2    0    0  0.13726137983E+03  0.23774708958E+03 -0.49722093769E+03  0.10536892325E+04  0.88750660434E+03 0.  0.
        -24    2    4    4    0    0 -0.16728074981E+03 -0.15579471490E+03 -0.49297143054E+03  0.54972855701E+03  0.83221467239E+02 0.  0.
         24    2    4    4    0    0  0.30454212964E+03  0.39354180448E+03 -0.42495071489E+01  0.50396067546E+03  0.79606805649E+02 0.  0.
         11    1    3    3    0    0 -0.12706366893E+03 -0.13294810024E+03  0.24184917641E+03  0.30382790762E+03  0.00000000000E+00 0. -1.
        -11    1    3    3    0    0 -0.10197710898E+02 -0.10479898934E+03  0.13394864196E+03  0.17037916586E+03  0.00000000000E+00 0.  1.
          4    1    6    6  502    0  0.20035696218E+03  0.30922926150E+03 -0.20031442066E+02  0.36900800416E+03  0.00000000000E+00 0. -1.
          1    1    5    5  503    0 -0.96690748094E+02 -0.34897301985E+02 -0.22589188153E+03  0.24818151541E+03  0.00000000000E+00 0. -1.
         -4    1    5    5    0  503 -0.70590001718E+02 -0.12089741291E+03 -0.26707954902E+03  0.30154704159E+03  0.00000000000E+00 0.  1.
         -3    1    6    6    0  502  0.10418516747E+03  0.84312542971E+02  0.15781934917E+02  0.13495267130E+03  0.00000000000E+00 0.  1.
<mgrwt>
<rscale>  0 0.15230639E+04</rscale>
<asrwt>0</asrwt>
<pdfrwt beam="1">  1        2 0.12687072E+00 0.15230639E+04</pdfrwt>
<pdfrwt beam="2">  1       -2 0.10819025E+00 0.15230639E+04</pdfrwt>
<totfact> 0.21818877E+01</totfact>
</mgrwt>
</event>
<event>
12    1  0.1495204E-007  0.3202172E+04  0.7818608E-02  0.8188244E-01
          1   -1    0    0  501    0  0.00000000000E+00  0.00000000000E+00  0.17709622970E+04  0.17709622970E+04  0.00000000000E+00 0. -1.
         -1   -1    0    0    0  501 -0.00000000000E+00 -0.00000000000E+00 -0.14475048468E+04  0.14475048468E+04  0.00000000000E+00 0.  1.
         23    2    1    2    0    0 -0.36604228274E+03  0.37316798353E+03 -0.12339955082E+04  0.13428844809E+04  0.85746826429E+02 0.  0.
        254    2    1    2    0    0  0.36604228274E+03 -0.37316798353E+03  0.15574529584E+04  0.18755826629E+04  0.90493608117E+03 0.  0.
        -24    2    4    4    0    0 -0.13360765416E+03 -0.38419773168E+03  0.11603104483E+04  0.12321491606E+04  0.80076933169E+02 0.  0.
         24    2    4    4    0    0  0.49964993690E+03  0.11029748148E+02  0.39714251003E+03  0.64343350223E+03  0.80701819882E+02 0.  0.
         11    1    3    3    0    0 -0.22411937020E+02  0.19465337985E+02 -0.13644831609E+03  0.13964002745E+03  0.00000000000E+00 0. -1.
        -11    1    3    3    0    0 -0.34363034572E+03  0.35370264555E+03 -0.10975471921E+04  0.12032444535E+04  0.00000000000E+00 0.  1.
          4    1    6    6  502    0  0.10751740536E+03 -0.68955495295E+00  0.13050129610E+03  0.16908890036E+03  0.00000000000E+00 0. -1.
          3    1    5    5  503    0 -0.26560762797E+01 -0.69370482187E-01 -0.25731636247E+00  0.26694128901E+01  0.00000000000E+00 0. -1.
         -4    1    5    5    0  503 -0.13095157788E+03 -0.38412836120E+03  0.11605677647E+04  0.12294797477E+04  0.00000000000E+00 0.  1.
         -3    1    6    6    0  502  0.39213253155E+03  0.11719303101E+02  0.26664121393E+03  0.47434460188E+03  0.00000000000E+00 0.  1.
<mgrwt>
<rscale>  0 0.32021721E+04</rscale>
<asrwt>0</asrwt>
<pdfrwt beam="1">  1        1 0.27245574E+00 0.32021721E+04</pdfrwt>
<pdfrwt beam="2">  1       -1 0.22269305E+00 0.32021721E+04</pdfrwt>
<totfact> 0.37656400E-01</totfact>
</mgrwt>
</event>
<event>
12    1  0.1495204E-007  0.2181520E+04  0.7818608E-02  0.8526160E-01
         -1   -1    0    0    0  501 -0.00000000000E+00  0.00000000000E+00  0.95385775859E+03  0.95385775859E+03  0.00000000000E+00 0.  1.
          1   -1    0    0  501    0  0.00000000000E+00 -0.00000000000E+00 -0.12473108063E+04  0.12473108063E+04  0.00000000000E+00 0. -1.
         23    2    1    2    0    0 -0.56320177113E+03  0.24928073336E+03 -0.79152012763E+03  0.10069324467E+04  0.89842755766E+02 0.  0.
        254    2    1    2    0    0  0.56320177113E+03 -0.24928073336E+03  0.49806707994E+03  0.11942361182E+04  0.89375162699E+03 0.  0.
        -24    2    4    4    0    0  0.74522016484E+03 -0.35789998932E+03  0.27193283722E+03  0.87403292072E+03  0.80873865428E+02 0.  0.
         24    2    4    4    0    0 -0.18201839370E+03  0.10861925596E+03  0.22613424272E+03  0.32020319743E+03  0.80402447110E+02 0.  0.
         13    1    3    3    0    0  0.33560193317E+01  0.32684211323E+01 -0.47164743580E+01  0.66475990269E+01  0.00000000000E+00 0.  1.
        -13    1    3    3    0    0 -0.56655779047E+03  0.24601231223E+03 -0.78680365327E+03  0.10002848477E+04  0.00000000000E+00 0. -1.
          4    1    6    6  502    0 -0.67366207140E+02  0.84067532153E+02  0.88683768797E+02  0.13953625577E+03  0.00000000000E+00 0. -1.
          3    1    5    5  503    0  0.48272859691E+02 -0.18474223225E+02  0.38476108873E+02  0.64435835220E+02  0.00000000000E+00 0. -1.
         -4    1    5    5    0  503  0.69694730515E+03 -0.33942576610E+03  0.23345672834E+03  0.80959708550E+03  0.00000000000E+00 0.  1.
         -3    1    6    6    0  502 -0.11465218656E+03  0.24551723803E+02  0.13745047393E+03  0.18066694166E+03  0.00000000000E+00 0.  1.
<mgrwt>
<rscale>  0 0.21815197E+04</rscale>
<asrwt>0</asrwt>
<pdfrwt beam="1">  1        1 0.19189397E+00 0.21815197E+04</pdfrwt>
<pdfrwt beam="2">  1       -1 0.14674735E+00 0.21815197E+04</pdfrwt>
<totfact> 0.33360941E+00</totfact>
</mgrwt>
</event>
<event>
12    1  0.1495204E-007  0.1378792E+04  0.7818608E-02  0.8969314E-01
          2   -1    0    0  501    0  0.00000000000E+00  0.00000000000E+00  0.16867807611E+04  0.16867807611E+04  0.00000000000E+00 0. -1.
         -2   -1    0    0    0  501 -0.00000000000E+00 -0.00000000000E+00 -0.28175978566E+03  0.28175978566E+03  0.00000000000E+00 0.  1.
         23    2    1    2    0    0 -0.28348418522E+03  0.14931674164E+03  0.73484657080E+03  0.80676490856E+03  0.90616568399E+02 0.  0.
        254    2    1    2    0    0  0.28348418522E+03 -0.14931674164E+03  0.67017440462E+03  0.11617756382E+04  0.89326934810E+03 0.  0.
        -24    2    4    4    0    0  0.39111610900E+03  0.15963675223E+03  0.20868730971E+02  0.43045606423E+03  0.80007599166E+02 0.  0.
         24    2    4    4    0    0 -0.10763192377E+03 -0.30895349387E+03  0.64930567365E+03  0.73131957395E+03  0.78699231379E+02 0.  0.
         13    1    3    3    0    0 -0.16902200865E+03  0.12628993928E+03  0.53804473978E+03  0.57793574918E+03  0.00000000000E+00 0. -1.
        -13    1    3    3    0    0 -0.11446217658E+03  0.23026802359E+02  0.19680183102E+03  0.22882915938E+03  0.00000000000E+00 0.  1.
          2    1    6    6  502    0 -0.26014422273E+02 -0.12994764991E+03  0.33807734803E+03  0.36312454494E+03  0.00000000000E+00 0. -1.
          1    1    5    5  503    0  0.23784967714E+03  0.99007518876E+02 -0.26418211579E+02  0.25898432310E+03  0.00000000000E+00 0. -1.
         -2    1    5    5    0  503  0.15326643186E+03  0.60629233357E+02  0.47286942550E+02  0.17147174113E+03  0.00000000000E+00 0.  1.
         -1    1    6    6    0  502 -0.81617501502E+02 -0.17900584396E+03  0.31122832561E+03  0.36819502901E+03  0.00000000000E+00 0.  1.
<mgrwt>
<rscale>  0 0.13787922E+04</rscale>
<asrwt>0</asrwt>
<pdfrwt beam="1">  1        2 0.25950473E+00 0.13787922E+04</pdfrwt>
<pdfrwt beam="2">  1       -2 0.43347660E-01 0.13787922E+04</pdfrwt>
<totfact> 0.49057889E+01</totfact>
</mgrwt>
</event>
<event>
12    1  0.1495204E-007  0.1877685E+04  0.7818608E-02  0.8666045E-01
         -1   -1    0    0    0  501 -0.00000000000E+00  0.00000000000E+00  0.30014507519E+03  0.30014507519E+03  0.00000000000E+00 0.  1.
          1   -1    0    0  501    0  0.00000000000E+00 -0.00000000000E+00 -0.29366631073E+04  0.29366631073E+04  0.00000000000E+00 0. -1.
         23    2    1    2    0    0 -0.17597009994E+03  0.60030569559E+03 -0.40334699260E+03  0.74985254592E+03  0.90871557403E+02 0.  0.
        254    2    1    2    0    0  0.17597009994E+03 -0.60030569559E+03 -0.22331710395E+04  0.24869556366E+04  0.89808854929E+03 0.  0.
        -24    2    4    4    0    0 -0.34737549417E+03 -0.36671771914E+03 -0.94715170407E+03  0.10765719958E+04  0.82214913658E+02 0.  0.
         24    2    4    4    0    0  0.52334559412E+03 -0.23358797645E+03 -0.12860193355E+04  0.14103836408E+04  0.82959806905E+02 0.  0.
         13    1    3    3    0    0 -0.22936285226E+02  0.16730111480E+03 -0.72150241581E+02  0.18363385732E+03  0.00000000000E+00 0.  1.
        -13    1    3    3    0    0 -0.15303381472E+03  0.43300458079E+03 -0.33119675102E+03  0.56621868860E+03  0.00000000000E+00 0. -1.
          4    1    6    6  502    0  0.47168811273E+03 -0.18109030399E+03 -0.11336838160E+04  0.12411778151E+04  0.00000000000E+00 0. -1.
          3    1    5    5  503    0 -0.11207286515E+03 -0.86195405317E+02 -0.20516679929E+03  0.24916538791E+03  0.00000000000E+00 0. -1.
         -4    1    5    5    0  503 -0.23530262902E+03 -0.28052231383E+03 -0.74198490478E+03  0.82740660784E+03  0.00000000000E+00 0.  1.
         -1    1    6    6    0  502  0.51657481386E+02 -0.52497672452E+02 -0.15233551944E+03  0.16920582578E+03  0.00000000000E+00 0.  1.
<mgrwt>
<rscale>  0 0.18776847E+04</rscale>
<asrwt>0</asrwt>
<pdfrwt beam="1">  1        1 0.45179433E+00 0.18776847E+04</pdfrwt>
<pdfrwt beam="2">  1       -1 0.46176165E-01 0.18776847E+04</pdfrwt>
<totfact> 0.29139303E+00</totfact>
</mgrwt>
</event>
<event>
12    1  0.1495204E-007  0.1216797E+04  0.7818608E-02  0.9098280E-01
          2   -1    0    0  501    0  0.00000000000E+00  0.00000000000E+00  0.68362421473E+03  0.68362421473E+03  0.00000000000E+00 0. -1.
         -2   -1    0    0    0  501 -0.00000000000E+00 -0.00000000000E+00 -0.54145056617E+03  0.54145056617E+03  0.00000000000E+00 0.  1.
         23    2    1    2    0    0  0.17913654509E+03  0.54309505815E+02 -0.16393508086E+03  0.26491103660E+03  0.90905018391E+02 0.  0.
        254    2    1    2    0    0 -0.17913654509E+03 -0.54309505815E+02  0.30610872942E+03  0.96016374429E+03  0.89060228913E+03 0.  0.
        -24    2    4    4    0    0 -0.14337591936E+03 -0.41916053191E+03 -0.36629706498E+02  0.45169648455E+03  0.80223269615E+02 0.  0.
         24    2    4    4    0    0 -0.35760625729E+02  0.36485102610E+03  0.34273843592E+03  0.50846725974E+03  0.81695931200E+02 0.  0.
         11    1    3    3    0    0  0.15813690017E+03  0.16785803966E+02 -0.15269754909E+03  0.22046674104E+03  0.00000000000E+00 0.  1.
        -11    1    3    3    0    0  0.20999644925E+02  0.37523701849E+02 -0.11237531770E+02  0.44444295559E+02  0.00000000000E+00 0. -1.
          4    1    6    6  502    0 -0.32047650423E+02  0.36780873392E+03  0.33118897497E+03  0.49598029577E+03  0.00000000000E+00 0. -1.
          3    1    5    5  503    0 -0.14796678618E+03 -0.40904382188E+03 -0.45668015290E+02  0.43737465136E+03  0.00000000000E+00 0. -1.
         -4    1    5    5    0  503  0.45908668209E+01 -0.10116710037E+02  0.90383087919E+01  0.14321833191E+02  0.00000000000E+00 0.  1.
         -3    1    6    6    0  502 -0.37129753061E+01 -0.29577078204E+01  0.11549460945E+02  0.12486963974E+02  0.00000000000E+00 0.  1.
<mgrwt>
<rscale>  0 0.12167970E+04</rscale>
<asrwt>0</asrwt>
<pdfrwt beam="1">  1        2 0.10517296E+00 0.12167970E+04</pdfrwt>
<pdfrwt beam="2">  1       -2 0.83300087E-01 0.12167970E+04</pdfrwt>
<totfact> 0.52521788E+01</totfact>
</mgrwt>
</event>
<event>
12    1  0.1495204E-007  0.2013226E+04  0.7818608E-02  0.8600462E-01
         -1   -1    0    0    0  501 -0.00000000000E+00  0.00000000000E+00  0.81863326020E+03  0.81863326020E+03  0.00000000000E+00 0.  1.
          1   -1    0    0  501    0  0.00000000000E+00 -0.00000000000E+00 -0.12377573758E+04  0.12377573758E+04  0.00000000000E+00 0. -1.
         23    2    1    2    0    0  0.33562100853E+03 -0.61606679446E+03 -0.55992625319E+03  0.90232562489E+03  0.92164894206E+02 0.  0.
        254    2    1    2    0    0 -0.33562100853E+03  0.61606679446E+03  0.14080213759E+03  0.11540650111E+04  0.90546178899E+03 0.  0.
        -24    2    4    4    0    0  0.37197306730E+02  0.45707921091E+02  0.40679462171E+03  0.41828317141E+03  0.77498990696E+02 0.  0.
         24    2    4    4    0    0 -0.37281831526E+03  0.57035887337E+03 -0.26599248412E+03  0.73578183970E+03  0.79499518288E+02 0.  0.
         13    1    3    3    0    0 -0.19406307729E+01 -0.24082206001E+02 -0.33033105907E+02  0.40925600540E+02  0.00000000000E+00 0. -1.
        -13    1    3    3    0    0  0.33756163930E+03 -0.59198458846E+03 -0.52689314728E+03  0.86140002435E+03  0.00000000000E+00 0.  1.
          4    1    6    6  502    0 -0.23562303647E+03  0.29628723804E+03 -0.12748574611E+03  0.39944581385E+03  0.00000000000E+00 0. -1.
          3    1    5    5  503    0  0.43135266102E+02  0.52227214167E+02  0.40305077361E+03  0.40870314311E+03  0.00000000000E+00 0. -1.
         -4    1    5    5    0  503 -0.59379593720E+01 -0.65192930760E+01  0.37438480994E+01  0.95800283040E+01  0.00000000000E+00 0.  1.
         -3    1    6    6    0  502 -0.13719527878E+03  0.27407163532E+03 -0.13850673801E+03  0.33633602585E+03  0.00000000000E+00 0.  1.
<mgrwt>
<rscale>  0 0.20132256E+04</rscale>
<asrwt>0</asrwt>
<pdfrwt beam="1">  1        1 0.19042421E+00 0.20132256E+04</pdfrwt>
<pdfrwt beam="2">  1       -1 0.12594358E+00 0.20132256E+04</pdfrwt>
<totfact> 0.51045445E+00</totfact>
</mgrwt>
</event>
<event>
12    1  0.1495204E-007  0.1664688E+04  0.7818608E-02  0.8781764E-01
          1   -1    0    0  501    0  0.00000000000E+00  0.00000000000E+00  0.17511906597E+04  0.17511906597E+04  0.00000000000E+00 0. -1.
         -1   -1    0    0    0  501 -0.00000000000E+00 -0.00000000000E+00 -0.39561470611E+03  0.39561470611E+03  0.00000000000E+00 0.  1.
         23    2    1    2    0    0  0.10682370709E+03 -0.57408945774E+03  0.63588535855E+03  0.86814650222E+03  0.91313472228E+02 0.  0.
        254    2    1    2    0    0 -0.10682370709E+03  0.57408945774E+03  0.71969059507E+03  0.12786588636E+04  0.88092220258E+03 0.  0.
        -24    2    4    4    0    0 -0.40827462721E+03  0.27255229692E+03  0.77624739032E+02  0.50363286423E+03  0.81532423229E+02 0.  0.
         24    2    4    4    0    0  0.30145092012E+03  0.30153716083E+03  0.64206585604E+03  0.77502599940E+03  0.81359815937E+02 0.  0.
         11    1    3    3    0    0  0.50617508000E+02 -0.11233698283E+03  0.10124215950E+03  0.15947320994E+03  0.00000000000E+00 0.  1.
        -11    1    3    3    0    0  0.56206199092E+02 -0.46175247492E+03  0.53464319905E+03  0.70867329228E+03  0.00000000000E+00 0. -1.
          2    1    6    6  502    0  0.19258307250E+03  0.13695186174E+03  0.36686749049E+03  0.43638951388E+03  0.00000000000E+00 0. -1.
          1    1    5    5  503    0 -0.39341375493E+03  0.27395859191E+03  0.85164776465E+02  0.48690936713E+03  0.00000000000E+00 0. -1.
         -2    1    5    5    0  503 -0.14860872281E+02 -0.14062949916E+01 -0.75400374332E+01  0.16723497094E+02  0.00000000000E+00 0.  1.
         -1    1    6    6    0  502  0.10886784762E+03  0.16458529909E+03  0.27519836556E+03  0.33863648552E+03  0.00000000000E+00 0.  1.
<mgrwt>
<rscale>  0 0.16646883E+04</rscale>
<asrwt>0</asrwt>
<pdfrwt beam="1">  1        1 0.26941394E+00 0.16646883E+04</pdfrwt>
<pdfrwt beam="2">  1       -1 0.60863802E-01 0.16646883E+04</pdfrwt>
<totfact> 0.11491576E+01</totfact>
</mgrwt>
</event>
<event>
12    1  0.1495204E-007  0.1633782E+04  0.7818608E-02  0.8800059E-01
         -2   -1    0    0    0  501 -0.00000000000E+00  0.00000000000E+00  0.10808094307E+04  0.10808094307E+04  0.00000000000E+00 0.  1.
          2   -1    0    0  501    0  0.00000000000E+00 -0.00000000000E+00 -0.61741740719E+03  0.61741740719E+03  0.00000000000E+00 0. -1.
         23    2    1    2    0    0  0.28310769772E+03 -0.24858264264E+03 -0.27653706561E+03  0.47419027436E+03  0.80251909045E+02 0.  0.
        254    2    1    2    0    0 -0.28310769772E+03  0.24858264264E+03  0.73992908907E+03  0.12240365635E+04  0.89934818238E+03 0.  0.
        -24    2    4    4    0    0  0.30814067833E+03  0.20134924879E+03  0.28063257251E+03  0.46965593208E+03  0.79560393148E+02 0.  0.
         24    2    4    4    0    0 -0.59124837605E+03  0.47233393853E+02  0.45929651656E+03  0.75438063140E+03  0.79568908656E+02 0.  0.
         11    1    3    3    0    0  0.21439237461E+03 -0.22236907819E+03 -0.24461365586E+03  0.39401514927E+03  0.00000000000E+00 0. -1.
        -11    1    3    3    0    0  0.68715323113E+02 -0.26213564458E+02 -0.31923409750E+02  0.80175125083E+02  0.00000000000E+00 0.  1.
          4    1    6    6  502    0 -0.54606697244E+03  0.24176075071E+02  0.43248671991E+03  0.69700673160E+03  0.00000000000E+00 0. -1.
          1    1    5    5  503    0  0.27482618158E+03  0.19804800938E+03  0.23186892298E+03  0.41050656699E+03  0.00000000000E+00 0. -1.
         -2    1    5    5    0  503  0.33314496748E+02  0.33012394144E+01  0.48763649526E+02  0.59149365088E+02  0.00000000000E+00 0.  1.
         -3    1    6    6    0  502 -0.45181403606E+02  0.23057318782E+02  0.26809796654E+02  0.57373899796E+02  0.00000000000E+00 0.  1.
<mgrwt>
<rscale>  0 0.16337816E+04</rscale>
<asrwt>0</asrwt>
<pdfrwt beam="1">  1        2 0.94987293E-01 0.16337816E+04</pdfrwt>
<pdfrwt beam="2">  1       -2 0.16627837E+00 0.16337816E+04</pdfrwt>
<totfact> 0.10374300E+01</totfact>
</mgrwt>
</event>
<event>
12    1  0.1589175E-007  0.2016671E+04  0.7818608E-02  0.8598866E-01
         -2   -1    0    0    0  501 -0.00000000000E+00  0.00000000000E+00  0.71013213722E+03  0.71013213722E+03  0.00000000000E+00 0. -1.
          2   -1    0    0  501    0  0.00000000000E+00 -0.00000000000E+00 -0.14317630457E+04  0.14317630457E+04  0.00000000000E+00 0.  1.
         23    2    1    2    0    0 -0.44637260371E+03  0.36935319805E+03 -0.87547629502E+03  0.10539017580E+04  0.92627674917E+02 0.  0.
        254    2    1    2    0    0  0.44637260371E+03 -0.36935319805E+03  0.15384538656E+03  0.10879934249E+04  0.90795980273E+03 0.  0.
        -24    2    4    4    0    0 -0.88579686355E+02  0.22033389532E+03  0.14299083529E+03  0.28760406247E+03  0.76657233892E+02 0.  0.
         24    2    4    4    0    0  0.53495229007E+03 -0.58968709338E+03  0.10854551269E+02  0.80038936242E+03  0.81243396309E+02 0.  0.
         13    1    3    3    0    0 -0.14484060037E+03  0.11795994715E+03 -0.20827107247E+03  0.27976809731E+03  0.00000000000E+00 0. -1.
        -13    1    3    3    0    0 -0.30153200334E+03  0.25139325090E+03 -0.66720522256E+03  0.77413366071E+03  0.00000000000E+00 0.  1.
          2    1    6    6  502    0  0.49814683714E+03 -0.56006953992E+03  0.28150517669E+02  0.75008040406E+03  0.00000000000E+00 0. -1.
          3    1    5    5  503    0 -0.94698343977E+02  0.21491420821E+03  0.14839302533E+03  0.27780637720E+03  0.00000000000E+00 0. -1.
         -4    1    5    5    0  503  0.61186576218E+01  0.54196871089E+01 -0.54021900399E+01  0.97976852715E+01  0.00000000000E+00 0.  1.
         -1    1    6    6    0  502  0.36805452926E+02 -0.29617553454E+02 -0.17295966401E+02  0.50308958361E+02  0.00000000000E+00 0.  1.
<mgrwt>
<rscale>  0 0.20166715E+04</rscale>
<asrwt>0</asrwt>
<pdfrwt beam="1">  1        2 0.22027123E+00 0.20166715E+04</pdfrwt>
<pdfrwt beam="2">  1       -2 0.10925110E+00 0.20166715E+04</pdfrwt>
<totfact> 0.86024265E+00</totfact>
</mgrwt>
</event>
<event>
12    1  0.1495204E-007  0.2582371E+04  0.7818608E-02  0.8374214E-01
         -1   -1    0    0    0  501 -0.00000000000E+00  0.00000000000E+00  0.83876821853E+03  0.83876821853E+03  0.00000000000E+00 0.  1.
          1   -1    0    0  501    0  0.00000000000E+00 -0.00000000000E+00 -0.19876292434E+04  0.19876292434E+04  0.00000000000E+00 0. -1.
         23    2    1    2    0    0 -0.45914511482E+03 -0.98615897948E+03 -0.15261422281E+03  0.11026013889E+04  0.95472260199E+02 0.  0.
        254    2    1    2    0    0  0.45914511482E+03  0.98615897948E+03 -0.99624680209E+03  0.17237960731E+04  0.89198735510E+03 0.  0.
        -24    2    4    4    0    0  0.47873899393E+03  0.10436596778E+04 -0.56901841640E+03  0.12846113992E+04  0.89598780046E+02 0.  0.
         24    2    4    4    0    0 -0.19593879110E+02 -0.57500698329E+02 -0.42722838570E+03  0.43918467389E+03  0.81662928081E+02 0.  0.
         13    1    3    3    0    0 -0.20177611305E+03 -0.49938845553E+03 -0.11460451951E+03  0.55066925210E+03  0.00000000000E+00 0. -1.
        -13    1    3    3    0    0 -0.25736900177E+03 -0.48677052395E+03 -0.38009703297E+02  0.55193213677E+03  0.00000000000E+00 0.  1.
          4    1    6    6  502    0  0.57862912468E+01 -0.14102574108E+02 -0.85083580319E+01  0.17457259787E+02  0.00000000000E+00 0. -1.
          1    1    5    5  503    0  0.31294850460E+03  0.71841919733E+03 -0.43103601633E+03  0.89434610582E+03  0.00000000000E+00 0. -1.
         -2    1    5    5    0  503  0.16579048933E+03  0.32524048048E+03 -0.13798240006E+03  0.39026529339E+03  0.00000000000E+00 0.  1.
         -3    1    6    6    0  502 -0.25380170357E+02 -0.43398124221E+02 -0.41872002767E+03  0.42172741410E+03  0.00000000000E+00 0.  1.
<mgrwt>
<rscale>  0 0.25823712E+04</rscale>
<asrwt>0</asrwt>
<pdfrwt beam="1">  1        1 0.30578912E+00 0.25823712E+04</pdfrwt>
<pdfrwt beam="2">  1       -1 0.12904126E+00 0.25823712E+04</pdfrwt>
<totfact> 0.13845538E+00</totfact>
</mgrwt>
</event>
<event>
12    1  0.1495204E-007  0.1215184E+04  0.7818608E-02  0.9099669E-01
         -1   -1    0    0    0  501 -0.00000000000E+00  0.00000000000E+00  0.17893621914E+03  0.17893621914E+03  0.00000000000E+00 0. -1.
          1   -1    0    0  501    0  0.00000000000E+00 -0.00000000000E+00 -0.20631253788E+04  0.20631253788E+04  0.00000000000E+00 0.  1.
         23    2    1    2    0    0  0.11807707979E+03 -0.23962798103E+03 -0.19907962442E+03  0.34482588520E+03  0.88929343758E+02 0.  0.
        254    2    1    2    0    0 -0.11807707979E+03  0.23962798103E+03 -0.16851095353E+04  0.18972357128E+04  0.82978638089E+03 0.  0.
        -24    2    4    4    0    0  0.14996483319E+03  0.42403275128E+03 -0.13380140327E+04  0.14138735566E+04  0.80396871755E+02 0.  0.
         24    2    4    4    0    0 -0.26804191298E+03 -0.18440477026E+03 -0.34709550251E+03  0.48336215613E+03  0.85510816290E+02 0.  0.
         11    1    3    3    0    0  0.10857151495E+03 -0.12483740734E+03 -0.13098646122E+03  0.21102039037E+03  0.00000000000E+00 0.  1.
        -11    1    3    3    0    0  0.95055648319E+01 -0.11479057369E+03 -0.68093163202E+02  0.13380549483E+03  0.00000000000E+00 0. -1.
          4    1    6    6  502    0 -0.66938812161E+01 -0.32795269916E+02 -0.25322203802E+02  0.41970844404E+02  0.00000000000E+00 0. -1.
          3    1    5    5  503    0 -0.50823061881E+01  0.48389598864E+02 -0.18698603640E+03  0.19321273489E+03  0.00000000000E+00 0. -1.
         -4    1    5    5    0  503  0.15504713938E+03  0.37564315242E+03 -0.11510279963E+04  0.12206608217E+04  0.00000000000E+00 0.  1.
         -3    1    6    6    0  502 -0.26134803177E+03 -0.15160950034E+03 -0.32177329871E+03  0.44139131172E+03  0.00000000000E+00 0.  1.
<mgrwt>
<rscale>  0 0.12151837E+04</rscale>
<asrwt>0</asrwt>
<pdfrwt beam="1">  1        1 0.31740392E+00 0.12151837E+04</pdfrwt>
<pdfrwt beam="2">  1       -1 0.27528648E-01 0.12151837E+04</pdfrwt>
<totfact> 0.31723566E+01</totfact>
</mgrwt>
</event>
<event>
12    1  0.1495204E-007  0.1941512E+04  0.7818608E-02  0.8634465E-01
         -1   -1    0    0    0  501 -0.00000000000E+00  0.00000000000E+00  0.15997093126E+04  0.15997093126E+04  0.00000000000E+00 0.  1.
          1   -1    0    0  501    0  0.00000000000E+00 -0.00000000000E+00 -0.58908643836E+03  0.58908643836E+03  0.00000000000E+00 0. -1.
         23    2    1    2    0    0  0.11640259179E+03  0.56920378037E+03  0.94800069771E+03  0.11156338393E+04  0.91602584971E+02 0.  0.
        254    2    1    2    0    0 -0.11640259179E+03 -0.56920378037E+03  0.62622176532E+02  0.10731619117E+04  0.90011801708E+03 0.  0.
        -24    2    4    4    0    0  0.57324849175E+02 -0.77887483715E+03  0.24528259214E+02  0.78539956980E+03  0.79490241292E+02 0.  0.
         24    2    4    4    0    0 -0.17372744097E+03  0.20967105678E+03  0.38093917318E+02  0.28776234186E+03  0.84928458490E+02 0.  0.
         13    1    3    3    0    0  0.50112273494E+02  0.95733788943E+02  0.21268762910E+03  0.23856283422E+03  0.00000000000E+00 0. -1.
        -13    1    3    3    0    0  0.66290318300E+02  0.47346999143E+03  0.73531306861E+03  0.87707100508E+03  0.00000000000E+00 0.  1.
          4    1    6    6  502    0 -0.53142678100E+02  0.11778500494E+03  0.42692998176E+02  0.13608873472E+03  0.00000000000E+00 0. -1.
          1    1    5    5  503    0  0.84906119078E+01 -0.26412541821E+03 -0.27690961465E+02  0.26570870589E+03  0.00000000000E+00 0. -1.
         -2    1    5    5    0  503  0.48834237268E+02 -0.51474941894E+03  0.52219220679E+02  0.51969086391E+03  0.00000000000E+00 0.  1.
         -3    1    6    6    0  502 -0.12058476287E+03  0.91886051832E+02 -0.45990808584E+01  0.15167360714E+03  0.00000000000E+00 0.  1.
<mgrwt>
<rscale>  0 0.19415118E+04</rscale>
<asrwt>0</asrwt>
<pdfrwt beam="1">  1        1 0.90628684E-01 0.19415118E+04</pdfrwt>
<pdfrwt beam="2">  1       -1 0.24610912E+00 0.19415118E+04</pdfrwt>
<totfact> 0.24239422E+00</totfact>
</mgrwt>
</event>
<event>
12    1  0.1495204E-007  0.1863787E+04  0.7818608E-02  0.8673095E-01
          2   -1    0    0  501    0  0.00000000000E+00  0.00000000000E+00  0.27836264673E+04  0.27836264673E+04  0.00000000000E+00 0. -1.
         -2   -1    0    0    0  501 -0.00000000000E+00 -0.00000000000E+00 -0.31197618666E+03  0.31197618666E+03  0.00000000000E+00 0.  1.
         23    2    1    2    0    0 -0.33124967080E+03  0.28672908137E+03  0.29106903856E+02  0.44841919056E+03  0.91063978026E+02 0.  0.
        254    2    1    2    0    0  0.33124967080E+03 -0.28672908137E+03  0.24425433768E+04  0.26471834634E+04  0.92174954891E+03 0.  0.
        -24    2    4    4    0    0  0.27008001084E+03 -0.23382642633E+03  0.24949353105E+04  0.25216737309E+04  0.80735316680E+02 0.  0.
         24    2    4    4    0    0  0.61169659962E+02 -0.52902655046E+02 -0.52391933761E+02  0.12550973251E+03  0.80419898167E+02 0.  0.
         13    1    3    3    0    0 -0.16022444230E+03  0.84368701381E+02  0.29500820057E+02  0.18346729427E+03  0.00000000000E+00 0. -1.
        -13    1    3    3    0    0 -0.17102522851E+03  0.20236037999E+03 -0.39391620041E+00  0.26495189629E+03  0.00000000000E+00 0.  1.
          2    1    6    6  502    0  0.23506264345E+02 -0.25008500608E+00  0.18199206697E+02  0.29729078869E+02  0.00000000000E+00 0. -1.
          1    1    5    5  503    0  0.33373837824E+02 -0.14380016036E+00  0.20204539326E+03  0.20478323824E+03  0.00000000000E+00 0. -1.
         -2    1    5    5    0  503  0.23670617302E+03 -0.23368262617E+03  0.22928899173E+04  0.23168904926E+04  0.00000000000E+00 0.  1.
         -3    1    6    6    0  502  0.37663395616E+02 -0.52652570040E+02 -0.70591140458E+02  0.95780653643E+02  0.00000000000E+00 0.  1.
<mgrwt>
<rscale>  0 0.18637867E+04</rscale>
<asrwt>0</asrwt>
<pdfrwt beam="1">  1        2 0.42825021E+00 0.18637867E+04</pdfrwt>
<pdfrwt beam="2">  1       -2 0.47996338E-01 0.18637867E+04</pdfrwt>
<totfact> 0.91581329E+00</totfact>
</mgrwt>
</event>
<event>
12    1  0.1495204E-007  0.2121952E+04  0.7818608E-02  0.8551635E-01
          2   -1    0    0  501    0  0.00000000000E+00  0.00000000000E+00  0.26562843192E+04  0.26562843192E+04  0.00000000000E+00 0. -1.
         -2   -1    0    0    0  501 -0.00000000000E+00 -0.00000000000E+00 -0.42377613101E+03  0.42377613101E+03  0.00000000000E+00 0.  1.
         23    2    1    2    0    0 -0.18746107065E+03  0.23730532255E+02 -0.27494343354E+03  0.34768902190E+03  0.97923302327E+02 0.  0.
        254    2    1    2    0    0  0.18746107065E+03 -0.23730532255E+02  0.25074516217E+04  0.27323714283E+04  0.10690347028E+04 0.  0.
        -24    2    4    4    0    0  0.24630802351E+03  0.36040460994E+03  0.43104990205E+03  0.61841214602E+03  0.77913021864E+02 0.  0.
         24    2    4    4    0    0 -0.58846952868E+02 -0.38413514220E+03  0.20764017197E+04  0.21139592823E+04  0.79730636009E+02 0.  0.
         13    1    3    3    0    0 -0.19179236879E+03  0.39633647713E+02 -0.25944579281E+03  0.32506500606E+03  0.00000000000E+00 0.  1.
        -13    1    3    3    0    0  0.43312981430E+01 -0.15903115458E+02 -0.15497640725E+02  0.22624015844E+02  0.00000000000E+00 0. -1.
          4    1    6    6  502    0 -0.65614046257E+02 -0.33908482217E+03  0.16936702289E+04  0.17285261248E+04  0.00000000000E+00 0. -1.
          3    1    5    5  503    0  0.19331027688E+03  0.22298153580E+03  0.30707690900E+03  0.42589418462E+03  0.00000000000E+00 0. -1.
         -4    1    5    5    0  503  0.52997746632E+02  0.13742307415E+03  0.12397299305E+03  0.19251796140E+03  0.00000000000E+00 0.  1.
         -3    1    6    6    0  502  0.67670933886E+01 -0.45050320032E+02  0.38273149075E+03  0.38543315750E+03  0.00000000000E+00 0.  1.
<mgrwt>
<rscale>  0 0.21219518E+04</rscale>
<asrwt>0</asrwt>
<pdfrwt beam="1">  1        2 0.40865912E+00 0.21219518E+04</pdfrwt>
<pdfrwt beam="2">  1       -2 0.65196329E-01 0.21219518E+04</pdfrwt>
<totfact> 0.56283489E+00</totfact>
</mgrwt>
</event>
<event>
12    1  0.1495204E-007  0.1625837E+04  0.7818608E-02  0.8804831E-01
          2   -1    0    0  501    0  0.00000000000E+00  0.00000000000E+00  0.24318870905E+04  0.24318870905E+04  0.00000000000E+00 0. -1.
         -2   -1    0    0    0  501 -0.00000000000E+00 -0.00000000000E+00 -0.27173805234E+03  0.27173805234E+03  0.00000000000E+00 0.  1.
         23    2    1    2    0    0 -0.31311969787E+03  0.24967090482E+03  0.14042548120E+04  0.14629878623E+04  0.89567863773E+02 0.  0.
        254    2    1    2    0    0  0.31311969787E+03 -0.24967090482E+03  0.75589422621E+03  0.12406372806E+04  0.89856845868E+03 0.  0.
        -24    2    4    4    0    0  0.83576812307E+02 -0.38381768523E+03 -0.35270230381E+02  0.40208305578E+03  0.78266822755E+02 0.  0.
         24    2    4    4    0    0  0.22954288557E+03  0.13414678041E+03  0.79116445659E+03  0.83855422484E+03  0.80911653184E+02 0.  0.
         13    1    3    3    0    0 -0.59839396793E+02  0.92712555437E+01  0.18061969734E+03  0.19049982849E+03  0.00000000000E+00 0.  1.
        -13    1    3    3    0    0 -0.25328030108E+03  0.24039964927E+03  0.12236351147E+04  0.12724880338E+04  0.00000000000E+00 0. -1.
          4    1    6    6  502    0  0.18100634734E+03  0.13857646373E+03  0.67940977722E+03  0.71663406245E+03  0.00000000000E+00 0. -1.
          1    1    5    5  503    0  0.90866786267E+02 -0.36189938258E+03 -0.47164692049E+02  0.37610164070E+03  0.00000000000E+00 0. -1.
         -2    1    5    5    0  503 -0.72899739598E+01 -0.21918302643E+02  0.11894461668E+02  0.25981415078E+02  0.00000000000E+00 0.  1.
         -1    1    6    6    0  502  0.48536538227E+02 -0.44296833201E+01  0.11175467937E+03  0.12192016239E+03  0.00000000000E+00 0.  1.
<mgrwt>
<rscale>  0 0.16258367E+04</rscale>
<asrwt>0</asrwt>
<pdfrwt beam="1">  1        2 0.37413646E+00 0.16258367E+04</pdfrwt>
<pdfrwt beam="2">  1       -2 0.41805856E-01 0.16258367E+04</pdfrwt>
<totfact> 0.19809516E+01</totfact>
</mgrwt>
</event>
<event>
12    1  0.1495204E-007  0.1561280E+04  0.7818608E-02  0.8844694E-01
          1   -1    0    0  501    0  0.00000000000E+00  0.00000000000E+00  0.16115113822E+04  0.16115113822E+04  0.00000000000E+00 0. -1.
         -1   -1    0    0    0  501 -0.00000000000E+00 -0.00000000000E+00 -0.37815377454E+03  0.37815377454E+03  0.00000000000E+00 0.  1.
         23    2    1    2    0    0  0.64478699006E+02  0.14821235284E+03 -0.21195401895E+03  0.28164555040E+03  0.90968707527E+02 0.  0.
        254    2    1    2    0    0 -0.64478699006E+02 -0.14821235284E+03  0.14453116266E+04  0.17080196064E+04  0.89570133053E+03 0.  0.
        -24    2    4    4    0    0 -0.25638982693E+03 -0.37625711694E+03  0.12730434033E+04  0.13543037183E+04  0.78701292131E+02 0.  0.
         24    2    4    4    0    0  0.19191112792E+03  0.22804476410E+03  0.17226822333E+03  0.35371588805E+03  0.81266802783E+02 0.  0.
         11    1    3    3    0    0 -0.17350617647E+02  0.50163478037E+02 -0.35623422159E+02  0.63925321023E+02  0.00000000000E+00 0. -1.
        -11    1    3    3    0    0  0.81829316654E+02  0.98048874806E+02 -0.17633059679E+03  0.21772022937E+03  0.00000000000E+00 0.  1.
          4    1    6    6  502    0  0.12054239369E+03  0.16571615862E+03  0.75784609139E+02  0.21848482988E+03  0.00000000000E+00 0. -1.
          1    1    5    5  503    0 -0.15214177576E+03 -0.28645207847E+03  0.90756201134E+03  0.96377939261E+03  0.00000000000E+00 0. -1.
         -2    1    5    5    0  503 -0.10424805116E+03 -0.89805038476E+02  0.36548139194E+03  0.39052432569E+03  0.00000000000E+00 0.  1.
         -3    1    6    6    0  502  0.71368734227E+02  0.62328605485E+02  0.96483614189E+02  0.13523105817E+03  0.00000000000E+00 0.  1.
<mgrwt>
<rscale>  0 0.15612804E+04</rscale>
<asrwt>0</asrwt>
<pdfrwt beam="1">  1        1 0.24792483E+00 0.15612804E+04</pdfrwt>
<pdfrwt beam="2">  1       -1 0.58177504E-01 0.15612804E+04</pdfrwt>
<totfact> 0.15788343E+01</totfact>
</mgrwt>
</event>
<event>
12    1  0.1495204E-007  0.1844039E+04  0.7818608E-02  0.8683224E-01
         -2   -1    0    0    0  501 -0.00000000000E+00  0.00000000000E+00  0.24160564397E+03  0.24160564397E+03  0.00000000000E+00 0.  1.
          2   -1    0    0  501    0  0.00000000000E+00 -0.00000000000E+00 -0.35186278018E+04  0.35186278018E+04  0.00000000000E+00 0. -1.
         23    2    1    2    0    0 -0.53228563493E+03  0.42804795402E+03 -0.93114874922E+03  0.11583860048E+04  0.90923565784E+02 0.  0.
        254    2    1    2    0    0  0.53228563493E+03 -0.42804795402E+03 -0.23458734087E+04  0.26018474410E+04  0.89439085910E+03 0.  0.
        -24    2    4    4    0    0  0.49988145338E+02 -0.52495612960E+03 -0.17251024364E+04  0.18057310881E+04  0.81293256896E+02 0.  0.
         24    2    4    4    0    0  0.48229748959E+03  0.96908175583E+02 -0.62077097226E+03  0.79611635297E+03  0.80265711936E+02 0.  0.
         11    1    3    3    0    0 -0.25582004150E+03  0.18594897174E+03 -0.50290779146E+03  0.59408514578E+03  0.00000000000E+00 0. -1.
        -11    1    3    3    0    0 -0.27646559343E+03  0.24209898228E+03 -0.42824095776E+03  0.56430085900E+03  0.00000000000E+00 0.  1.
          2    1    6    6  502    0 -0.19363053189E+01  0.86255810223E-02  0.93084240692E+00  0.21484460140E+01  0.00000000000E+00 0. -1.
          3    1    5    5  503    0  0.69818750409E+02 -0.31455371510E+03 -0.10349229840E+04  0.10839207906E+04  0.00000000000E+00 0. -1.
         -4    1    5    5    0  503 -0.19830605071E+02 -0.21040241450E+03 -0.69017945243E+03  0.72181029744E+03  0.00000000000E+00 0.  1.
         -1    1    6    6    0  502  0.48423379491E+03  0.96899550002E+02 -0.62170181467E+03  0.79396790696E+03  0.00000000000E+00 0.  1.
<mgrwt>
<rscale>  0 0.18440394E+04</rscale>
<asrwt>0</asrwt>
<pdfrwt beam="1">  1        2 0.54132731E+00 0.18440394E+04</pdfrwt>
<pdfrwt beam="2">  1       -2 0.37170102E-01 0.18440394E+04</pdfrwt>
<totfact> 0.51027985E+00</totfact>
</mgrwt>
</event>
<event>
12    1  0.1495204E-007  0.2783032E+04  0.7818608E-02  0.8308556E-01
          2   -1    0    0  501    0  0.00000000000E+00  0.00000000000E+00  0.15208707232E+04  0.15208707232E+04  0.00000000000E+00 0. -1.
         -2   -1    0    0    0  501 -0.00000000000E+00 -0.00000000000E+00 -0.12731628874E+04  0.12731628874E+04  0.00000000000E+00 0.  1.
         23    2    1    2    0    0 -0.45694812889E+03  0.68300150952E+03 -0.82706941395E+03  0.11694781319E+04  0.91338004670E+02 0.  0.
        254    2    1    2    0    0  0.45694812889E+03 -0.68300150952E+03  0.10747772497E+04  0.16245554787E+04  0.89930067965E+03 0.  0.
        -24    2    4    4    0    0  0.70148029228E+03 -0.64388946394E+03  0.88782338886E+03  0.13042732141E+04  0.78930380194E+02 0.  0.
         24    2    4    4    0    0 -0.24453216339E+03 -0.39112045573E+02  0.18695386084E+03  0.32028226463E+03  0.79393021792E+02 0.  0.
         13    1    3    3    0    0 -0.16649240227E+03  0.22589337300E+03 -0.34231176118E+03  0.44263402244E+03  0.00000000000E+00 0.  1.
        -13    1    3    3    0    0 -0.29045572662E+03  0.45710813652E+03 -0.48475765277E+03  0.72684410950E+03  0.00000000000E+00 0. -1.
          2    1    6    6  502    0 -0.34014889521E+02  0.22281374414E+02  0.32620837645E+02  0.52130522764E+02  0.00000000000E+00 0. -1.
          1    1    5    5  503    0  0.29595812698E+02 -0.16911599329E+02  0.51185481005E+02  0.61496892497E+02  0.00000000000E+00 0. -1.
         -2    1    5    5    0  503  0.67188447959E+03 -0.62697786462E+03  0.83663790785E+03  0.12427763216E+04  0.00000000000E+00 0.  1.
         -1    1    6    6    0  502 -0.21051727387E+03 -0.61393419988E+02  0.15433302320E+03  0.26815174186E+03  0.00000000000E+00 0.  1.
<mgrwt>
<rscale>  0 0.27830316E+04</rscale>
<asrwt>0</asrwt>
<pdfrwt beam="1">  1        2 0.23398011E+00 0.27830316E+04</pdfrwt>
<pdfrwt beam="2">  1       -2 0.19587121E+00 0.27830316E+04</pdfrwt>
<totfact> 0.15246777E+00</totfact>
</mgrwt>
</event>
<event>
12    1  0.1495204E-007  0.1776036E+04  0.7818608E-02  0.8719148E-01
         -1   -1    0    0    0  501 -0.00000000000E+00  0.00000000000E+00  0.52958430426E+03  0.52958430426E+03  0.00000000000E+00 0.  1.
          1   -1    0    0  501    0  0.00000000000E+00 -0.00000000000E+00 -0.14890470024E+04  0.14890470024E+04  0.00000000000E+00 0. -1.
         23    2    1    2    0    0  0.12613729327E+03  0.71016911535E+02 -0.10769833361E+04  0.10904282260E+04  0.90479784450E+02 0.  0.
        254    2    1    2    0    0 -0.12613729327E+03 -0.71016911535E+02  0.11752063795E+03  0.92820308064E+03  0.90928314627E+03 0.  0.
        -24    2    4    4    0    0 -0.50779544542E+03  0.37357058565E+01  0.12654733933E+03  0.53096189627E+03  0.89644499595E+02 0.  0.
         24    2    4    4    0    0  0.38165815216E+03 -0.74752617391E+02 -0.90267013797E+01  0.39724118437E+03  0.80424985573E+02 0.  0.
         11    1    3    3    0    0 -0.92351077012E+01  0.58018859253E+01 -0.22723922223E+03  0.22750079827E+03  0.00000000000E+00 0.  1.
        -11    1    3    3    0    0  0.13537240097E+03  0.65215025609E+02 -0.84974411387E+03  0.86292742775E+03  0.00000000000E+00 0. -1.
          4    1    6    6  502    0  0.23178142972E+03 -0.84475066142E+02 -0.12463439612E+02  0.24701013195E+03  0.00000000000E+00 0. -1.
          3    1    5    5  503    0 -0.47136564452E+03 -0.11564625731E+02  0.96398168772E+02  0.48126075920E+03  0.00000000000E+00 0. -1.
         -4    1    5    5    0  503 -0.36429800901E+02  0.15300331588E+02  0.30149170562E+02  0.49701137069E+02  0.00000000000E+00 0.  1.
         -3    1    6    6    0  502  0.14987672244E+03  0.97224487505E+01  0.34367382324E+01  0.15023105241E+03  0.00000000000E+00 0.  1.
<mgrwt>
<rscale>  0 0.17760359E+04</rscale>
<asrwt>0</asrwt>
<pdfrwt beam="1">  1        1 0.22908415E+00 0.17760359E+04</pdfrwt>
<pdfrwt beam="2">  1       -1 0.81474509E-01 0.17760359E+04</pdfrwt>
<totfact> 0.94424834E+00</totfact>
</mgrwt>
</event>
<event>
12    1  0.1495204E-007  0.2476190E+04  0.7818608E-02  0.8411517E-01
          2   -1    0    0  501    0  0.00000000000E+00  0.00000000000E+00  0.31526836431E+04  0.31526836431E+04  0.00000000000E+00 0. -1.
         -2   -1    0    0    0  501 -0.00000000000E+00 -0.00000000000E+00 -0.48621409790E+03  0.48621409790E+03  0.00000000000E+00 0.  1.
         23    2    1    2    0    0 -0.69816907785E+03  0.65521907984E+03  0.44705900428E+03  0.10607301468E+04  0.92382829949E+02 0.  0.
        254    2    1    2    0    0  0.69816907785E+03 -0.65521907984E+03  0.22194105409E+04  0.25781675942E+04  0.89689067925E+03 0.  0.
        -24    2    4    4    0    0  0.23354193120E+02  0.19915226221E+03  0.44527122169E+03  0.49492912974E+03  0.80506774341E+02 0.  0.
         24    2    4    4    0    0  0.67481488473E+03 -0.85437134205E+03  0.17741393192E+04  0.20832384644E+04  0.83586223785E+02 0.  0.
         13    1    3    3    0    0 -0.24326765391E+02  0.39599393294E+02  0.54523075683E+01  0.46793494435E+02  0.00000000000E+00 0. -1.
        -13    1    3    3    0    0 -0.67384231246E+03  0.61561968655E+03  0.44160669671E+03  0.10139366524E+04  0.00000000000E+00 0.  1.
          2    1    6    6  502    0  0.53609406988E+02 -0.91488393578E+02  0.13711326451E+03  0.17333246084E+03  0.00000000000E+00 0. -1.
          3    1    5    5  503    0  0.50684361562E+02  0.11032056528E+03  0.28268908619E+03  0.30765670980E+03  0.00000000000E+00 0. -1.
         -4    1    5    5    0  503 -0.27330168442E+02  0.88831696928E+02  0.16258213550E+03  0.18727241994E+03  0.00000000000E+00 0.  1.
         -1    1    6    6    0  502  0.62120547774E+03 -0.76288294848E+03  0.16370260547E+04  0.19099060036E+04  0.00000000000E+00 0.  1.
<mgrwt>
<rscale>  0 0.24761900E+04</rscale>
<asrwt>0</asrwt>
<pdfrwt beam="1">  1        2 0.48502824E+00 0.24761900E+04</pdfrwt>
<pdfrwt beam="2">  1       -2 0.74802171E-01 0.24761900E+04</pdfrwt>
<totfact> 0.19988706E+00</totfact>
</mgrwt>
</event>
<event>
12    1  0.1495204E-007  0.2627588E+04  0.7818608E-02  0.8358890E-01
          3   -1    0    0  501    0  0.00000000000E+00  0.00000000000E+00  0.70003646567E+03  0.70003646567E+03  0.00000000000E+00 0. -1.
         -3   -1    0    0    0  501 -0.00000000000E+00 -0.00000000000E+00 -0.24656644231E+04  0.24656644231E+04  0.00000000000E+00 0.  1.
         23    2    1    2    0    0  0.97490219481E+03 -0.48009314033E+03 -0.29372924532E+03  0.11293389032E+04  0.90585737415E+02 0.  0.
        254    2    1    2    0    0 -0.97490219481E+03  0.48009314033E+03 -0.14718987121E+04  0.20363619856E+04  0.89406968679E+03 0.  0.
        -24    2    4    4    0    0  0.12098591211E+03  0.24505224321E+02 -0.47423638882E+01  0.14752544279E+03  0.80642230293E+02 0.  0.
         24    2    4    4    0    0 -0.10958881069E+04  0.45558791601E+03 -0.14671563482E+04  0.18888365428E+04  0.81391911175E+02 0.  0.
         11    1    3    3    0    0  0.70190808110E+02 -0.18322982232E+02 -0.38023594018E+02  0.81904059259E+02  0.00000000000E+00 0.  1.
        -11    1    3    3    0    0  0.90471138670E+03 -0.46177015810E+03 -0.25570565130E+03  0.10474348439E+04  0.00000000000E+00 0. -1.
          2    1    6    6  502    0 -0.41717935636E+03  0.19909175490E+03 -0.62199959875E+03  0.77495783310E+03  0.00000000000E+00 0. -1.
          3    1    5    5  503    0  0.45857545084E+02 -0.19670112989E+02  0.24511175356E+02  0.55593394423E+02  0.00000000000E+00 0. -1.
         -4    1    5    5    0  503  0.75128367027E+02  0.44175337310E+02 -0.29253539244E+02  0.91932048366E+02  0.00000000000E+00 0.  1.
         -1    1    6    6    0  502 -0.67870875056E+03  0.25649616111E+03 -0.84515674950E+03  0.11138787097E+04  0.00000000000E+00 0.  1.
<mgrwt>
<rscale>  0 0.26275883E+04</rscale>
<asrwt>0</asrwt>
<pdfrwt beam="1">  1        3 0.10769791E+00 0.26275883E+04</pdfrwt>
<pdfrwt beam="2">  1       -3 0.37933300E+00 0.26275883E+04</pdfrwt>
<totfact> 0.23214608E-02</totfact>
</mgrwt>
</event>
<event>
12    1  0.1495204E-007  0.1460926E+04  0.7818608E-02  0.8910861E-01
          1   -1    0    0  501    0  0.00000000000E+00  0.00000000000E+00  0.30256081804E+04  0.30256081804E+04  0.00000000000E+00 0. -1.
         -1   -1    0    0    0  501 -0.00000000000E+00 -0.00000000000E+00 -0.17635341911E+03  0.17635341911E+03  0.00000000000E+00 0.  1.
         23    2    1    2    0    0  0.24369456257E+03  0.18249929346E+03  0.15967954441E+04  0.16283656161E+04  0.95529354116E+02 0.  0.
        254    2    1    2    0    0 -0.24369456257E+03 -0.18249929346E+03  0.12524593172E+04  0.15735959834E+04  0.90269427041E+03 0.  0.
        -24    2    4    4    0    0  0.33386931608E+03 -0.43377551974E+02  0.36875612599E+03  0.50565818515E+03  0.79742005995E+02 0.  0.
         24    2    4    4    0    0 -0.57756387865E+03 -0.13912174149E+03  0.88370319122E+03  0.10679377983E+04  0.81393598824E+02 0.  0.
         11    1    3    3    0    0  0.21285474671E+03  0.12255092608E+03  0.13668153424E+04  0.13887080518E+04  0.00000000000E+00 0. -1.
        -11    1    3    3    0    0  0.30839815851E+02  0.59948367376E+02  0.22998010162E+03  0.23965756432E+03  0.00000000000E+00 0.  1.
          2    1    6    6  502    0 -0.36968791573E+02 -0.61868884842E+01  0.98665757314E+02  0.10554572851E+03  0.00000000000E+00 0. -1.
          3    1    5    5  503    0  0.26022045447E+03 -0.12126559819E+02  0.24079540465E+03  0.35474521178E+03  0.00000000000E+00 0. -1.
         -2    1    5    5    0  503  0.73648861609E+02 -0.31250992155E+02  0.12796072133E+03  0.15091297337E+03  0.00000000000E+00 0.  1.
         -1    1    6    6    0  502 -0.54059508707E+03 -0.13293485300E+03  0.78503743390E+03  0.96239206976E+03  0.00000000000E+00 0.  1.
<mgrwt>
<rscale>  0 0.14609262E+04</rscale>
<asrwt>0</asrwt>
<pdfrwt beam="1">  1        1 0.46547814E+00 0.14609262E+04</pdfrwt>
<pdfrwt beam="2">  1       -1 0.27131298E-01 0.14609262E+04</pdfrwt>
<totfact> 0.68049134E+00</totfact>
</mgrwt>
</event>
<event>
12    1  0.1495204E-007  0.1592903E+04  0.7818608E-02  0.8824920E-01
          1   -1    0    0  501    0  0.00000000000E+00  0.00000000000E+00  0.35340959468E+04  0.35340959468E+04  0.00000000000E+00 0. -1.
         -1   -1    0    0    0  501 -0.00000000000E+00 -0.00000000000E+00 -0.17948994076E+03  0.17948994076E+03  0.00000000000E+00 0.  1.
         23    2    1    2    0    0 -0.18352800757E+03  0.39895174738E+03  0.18582613357E+04  0.19117542550E+04  0.93936751784E+02 0.  0.
        254    2    1    2    0    0  0.18352800757E+03 -0.39895174738E+03  0.14963446703E+04  0.18018316326E+04  0.90261001182E+03 0.  0.
        -24    2    4    4    0    0  0.20003634033E+03 -0.50983210952E+03  0.36766804701E+03  0.66481156971E+03  0.82772659021E+02 0.  0.
         24    2    4    4    0    0 -0.16508332764E+02  0.11088036214E+03  0.11286766233E+04  0.11370200629E+04  0.79603539987E+02 0.  0.
         11    1    3    3    0    0 -0.61376177800E+02  0.52539327223E+02  0.38582102882E+03  0.39418939913E+03  0.00000000000E+00 0.  1.
        -11    1    3    3    0    0 -0.12215182977E+03  0.34641242016E+03  0.14724403069E+04  0.15175648559E+04  0.00000000000E+00 0. -1.
          4    1    6    6  502    0 -0.14963179968E+02  0.10808194107E+02  0.43718133039E+02  0.47455125867E+02  0.00000000000E+00 0. -1.
          3    1    5    5  503    0  0.73159353912E+02 -0.16191282216E+03  0.16587912249E+03  0.24307187481E+03  0.00000000000E+00 0. -1.
         -4    1    5    5    0  503  0.12687698642E+03 -0.34791928736E+03  0.20178892452E+03  0.42173969491E+03  0.00000000000E+00 0.  1.
         -3    1    6    6    0  502 -0.15451527956E+01  0.10007216803E+03  0.10849584903E+04  0.10895649370E+04  0.00000000000E+00 0.  1.
<mgrwt>
<rscale>  0 0.15929026E+04</rscale>
<asrwt>0</asrwt>
<pdfrwt beam="1">  1        1 0.54370702E+00 0.15929026E+04</pdfrwt>
<pdfrwt beam="2">  1       -1 0.27613840E-01 0.15929026E+04</pdfrwt>
<totfact> 0.26866952E+00</totfact>
</mgrwt>
</event>
<event>
12    1  0.1495204E-007  0.1308230E+04  0.7818608E-02  0.9023064E-01
         -1   -1    0    0    0  501 -0.00000000000E+00  0.00000000000E+00  0.38983794705E+03  0.38983794705E+03  0.00000000000E+00 0.  1.
          1   -1    0    0  501    0  0.00000000000E+00 -0.00000000000E+00 -0.10975496884E+04  0.10975496884E+04  0.00000000000E+00 0. -1.
         23    2    1    2    0    0  0.15538656980E+03  0.28599406781E+03 -0.14033567882E+03  0.36596694510E+03  0.91104935422E+02 0.  0.
        254    2    1    2    0    0 -0.15538656980E+03 -0.28599406781E+03 -0.56737606248E+03  0.11214206903E+04  0.91089580935E+03 0.  0.
        -24    2    4    4    0    0  0.36567848275E+03 -0.17758369551E+02 -0.19001900155E+03  0.41982857295E+03  0.78183740482E+02 0.  0.
         24    2    4    4    0    0 -0.52106505255E+03 -0.26823569826E+03 -0.37735706093E+03  0.70159211737E+03  0.79837139931E+02 0.  0.
         13    1    3    3    0    0  0.95181758861E+02  0.14422593010E+03 -0.12051112843E+03  0.21067419920E+03  0.00000000000E+00 0.  1.
        -13    1    3    3    0    0  0.60204810937E+02  0.14176813771E+03 -0.19824550383E+02  0.15529274589E+03  0.00000000000E+00 0. -1.
          4    1    6    6  502    0 -0.41326631804E+03 -0.23999146068E+03 -0.32852208586E+03  0.57992388442E+03  0.00000000000E+00 0. -1.
          3    1    5    5  503    0  0.14799512598E+03 -0.37095113101E+02 -0.51242009500E+02  0.16094827824E+03  0.00000000000E+00 0. -1.
         -4    1    5    5    0  503  0.21768335677E+03  0.19336743550E+02 -0.13877699205E+03  0.25888029471E+03  0.00000000000E+00 0.  1.
         -3    1    6    6    0  502 -0.10779873451E+03 -0.28244237579E+02 -0.48834975066E+02  0.12166823294E+03  0.00000000000E+00 0.  1.
<mgrwt>
<rscale>  0 0.13082301E+04</rscale>
<asrwt>0</asrwt>
<pdfrwt beam="1">  1        1 0.16885379E+00 0.13082301E+04</pdfrwt>
<pdfrwt beam="2">  1       -1 0.59975071E-01 0.13082301E+04</pdfrwt>
<totfact> 0.35242271E+01</totfact>
</mgrwt>
</event>
<event>
12    1  0.1495204E-007  0.2350359E+04  0.7818608E-02  0.8458326E-01
         -1   -1    0    0    0  501 -0.00000000000E+00  0.00000000000E+00  0.58999199073E+03  0.58999199073E+03  0.00000000000E+00 0.  1.
          1   -1    0    0  501    0  0.00000000000E+00 -0.00000000000E+00 -0.23407900613E+04  0.23407900613E+04  0.00000000000E+00 0. -1.
         23    2    1    2    0    0  0.50172590368E+03 -0.13823487367E+03 -0.18104164286E+04  0.18860192516E+04  0.92861240227E+02 0.  0.
        254    2    1    2    0    0 -0.50172590368E+03  0.13823487367E+03  0.59618357984E+02  0.10447628004E+04  0.90395641368E+03 0.  0.
        -24    2    4    4    0    0 -0.40544323099E+03  0.46997976253E+03 -0.13557131761E+03  0.64045819363E+03  0.80882166695E+02 0.  0.
         24    2    4    4    0    0 -0.96282672691E+02 -0.33174488886E+03  0.19518967560E+03  0.40430460680E+03  0.77705735161E+02 0.  0.
         11    1    3    3    0    0  0.39269800242E+03 -0.14670833472E+03 -0.14486845467E+04  0.15081186865E+04  0.00000000000E+00 0. -1.
        -11    1    3    3    0    0  0.10902790126E+03  0.84734610474E+01 -0.36173188189E+03  0.37790056519E+03  0.00000000000E+00 0.  1.
          4    1    6    6  502    0  0.65002465010E+01 -0.99072886351E+02  0.63724245030E+02  0.11797656301E+03  0.00000000000E+00 0. -1.
          1    1    5    5  503    0 -0.36150190096E+02  0.34597813380E+02  0.10571386353E+02  0.51142928583E+02  0.00000000000E+00 0. -1.
         -2    1    5    5    0  503 -0.36929304089E+03  0.43538194915E+03 -0.14614270397E+03  0.58931526505E+03  0.00000000000E+00 0.  1.
         -3    1    6    6    0  502 -0.10278291919E+03 -0.23267200250E+03  0.13146543057E+03  0.28632804379E+03  0.00000000000E+00 0.  1.
<mgrwt>
<rscale>  0 0.23503595E+04</rscale>
<asrwt>0</asrwt>
<pdfrwt beam="1">  1        1 0.36012155E+00 0.23503595E+04</pdfrwt>
<pdfrwt beam="2">  1       -1 0.90767997E-01 0.23503595E+04</pdfrwt>
<totfact> 0.18612331E+00</totfact>
</mgrwt>
</event>
<event>
12    1  0.1495204E-007  0.1808646E+04  0.7818608E-02  0.8701715E-01
          2   -1    0    0  501    0  0.00000000000E+00  0.00000000000E+00  0.12599361477E+04  0.12599361477E+04  0.00000000000E+00 0. -1.
         -2   -1    0    0    0  501 -0.00000000000E+00 -0.00000000000E+00 -0.64908042775E+03  0.64908042775E+03  0.00000000000E+00 0.  1.
         23    2    1    2    0    0  0.51643562745E+03  0.45926201843E+02 -0.22700321488E+03  0.57348706019E+03  0.92422807430E+02 0.  0.
        254    2    1    2    0    0 -0.51643562745E+03 -0.45926201843E+02  0.83785893484E+03  0.13355295153E+04  0.90156337444E+03 0.  0.
        -24    2    4    4    0    0  0.20936161920E+02  0.40635269704E+01 -0.17014648026E+03  0.18934088283E+03  0.80282688286E+02 0.  0.
         24    2    4    4    0    0 -0.53737178937E+03 -0.49989728813E+02  0.10080054151E+04  0.11461886324E+04  0.80037811468E+02 0.  0.
         11    1    3    3    0    0  0.49235651158E+03  0.22234810119E+02 -0.21324296431E+03  0.53701199531E+03  0.00000000000E+00 0.  1.
        -11    1    3    3    0    0  0.24079115864E+02  0.23691391724E+02 -0.13760250563E+02  0.36475064883E+02  0.00000000000E+00 0. -1.
          2    1    6    6  502    0 -0.13843436112E+03 -0.33623322841E+02  0.20838643366E+03  0.25242722894E+03  0.00000000000E+00 0. -1.
          1    1    5    5  503    0 -0.26697267045E+02 -0.10354596691E+02 -0.34397202557E+02  0.44756332335E+02  0.00000000000E+00 0. -1.
         -2    1    5    5    0  503  0.47633428966E+02  0.14418123661E+02 -0.13574927770E+03  0.14458455049E+03  0.00000000000E+00 0.  1.
         -1    1    6    6    0  502 -0.39893742825E+03 -0.16366405972E+02  0.79961898143E+03  0.89376140349E+03  0.00000000000E+00 0.  1.
<mgrwt>
<rscale>  0 0.18086458E+04</rscale>
<asrwt>0</asrwt>
<pdfrwt beam="1">  1        2 0.19383633E+00 0.18086458E+04</pdfrwt>
<pdfrwt beam="2">  1       -2 0.99858527E-01 0.18086458E+04</pdfrwt>
<totfact> 0.13646799E+01</totfact>
</mgrwt>
</event>
<event>
12    1  0.1495204E-007  0.1362063E+04  0.7818608E-02  0.8981747E-01
         -1   -1    0    0    0  501 -0.00000000000E+00  0.00000000000E+00  0.32171959789E+03  0.32171959789E+03  0.00000000000E+00 0.  1.
          1   -1    0    0  501    0  0.00000000000E+00 -0.00000000000E+00 -0.14416392435E+04  0.14416392435E+04  0.00000000000E+00 0. -1.
         23    2    1    2    0    0  0.32737832674E+03  0.80384137505E+02 -0.42704693033E+03  0.55395039215E+03  0.10418146607E+03 0.  0.
        254    2    1    2    0    0 -0.32737832674E+03 -0.80384137505E+02 -0.69287271529E+03  0.12094084493E+04  0.93217917760E+03 0.  0.
        -24    2    4    4    0    0 -0.33725846478E+03 -0.45186663820E+03 -0.23833672339E+03  0.61734509066E+03  0.79898913984E+02 0.  0.
         24    2    4    4    0    0  0.98801380338E+01  0.37148250070E+03 -0.45453599190E+03  0.59206335859E+03  0.76414574563E+02 0.  0.
         11    1    3    3    0    0  0.32972355393E+03  0.70818694902E+02 -0.38987238096E+03  0.51549333943E+03  0.00000000000E+00 0. -1.
        -11    1    3    3    0    0 -0.23452271857E+01  0.95654426033E+01 -0.37174549368E+02  0.38457052714E+02  0.00000000000E+00 0.  1.
          2    1    6    6  502    0  0.10944887358E+02  0.14448667329E+03 -0.12191327532E+03  0.18936482254E+03  0.00000000000E+00 0. -1.
          3    1    5    5  503    0 -0.18177800666E+02 -0.44073545967E+02 -0.83305340682E+00  0.47682322397E+02  0.00000000000E+00 0. -1.
         -4    1    5    5    0  503 -0.31908066411E+03 -0.40779309224E+03 -0.23750366999E+03  0.56966276826E+03  0.00000000000E+00 0.  1.
         -1    1    6    6    0  502 -0.10647493246E+01  0.22699582741E+03 -0.33262271658E+03  0.40269853605E+03  0.00000000000E+00 0.  1.
<mgrwt>
<rscale>  0 0.13620626E+04</rscale>
<asrwt>0</asrwt>
<pdfrwt beam="1">  1        1 0.22179066E+00 0.13620626E+04</pdfrwt>
<pdfrwt beam="2">  1       -1 0.49495322E-01 0.13620626E+04</pdfrwt>
<totfact> 0.28743455E+01</totfact>
</mgrwt>
</event>
<event>
12    1  0.1495204E-007  0.1727874E+04  0.7818608E-02  0.8745625E-01
         -1   -1    0    0    0  501 -0.00000000000E+00  0.00000000000E+00  0.11740067989E+04  0.11740067989E+04  0.00000000000E+00 0.  1.
          1   -1    0    0  501    0  0.00000000000E+00 -0.00000000000E+00 -0.63576028257E+03  0.63576028257E+03  0.00000000000E+00 0. -1.
         23    2    1    2    0    0  0.44747739318E+03  0.44511182766E+03  0.25628116061E+03  0.68783695551E+03  0.95284246116E+02 0.  0.
        254    2    1    2    0    0 -0.44747739318E+03 -0.44511182766E+03  0.28196535572E+03  0.11219301260E+04  0.88366407033E+03 0.  0.
        -24    2    4    4    0    0  0.19535269204E+03 -0.36494170166E+03  0.18903540243E+03  0.46214377377E+03  0.80606230309E+02 0.  0.
         24    2    4    4    0    0 -0.64283008522E+03 -0.80170126003E+02  0.92929953291E+02  0.65978635220E+03  0.83811018156E+02 0.  0.
         11    1    3    3    0    0  0.37722199757E+02  0.73641726386E+02  0.13547353068E+02  0.83842703885E+02  0.00000000000E+00 0.  1.
        -11    1    3    3    0    0  0.40975519342E+03  0.37147010127E+03  0.24273380754E+03  0.60399425163E+03  0.00000000000E+00 0. -1.
          2    1    6    6  502    0 -0.54848437686E+03 -0.42574477996E+02  0.61980574280E+02  0.55361474820E+03  0.00000000000E+00 0. -1.
          3    1    5    5  503    0  0.19260541714E+03 -0.35855385651E+03  0.16858505153E+03  0.44054356690E+03  0.00000000000E+00 0. -1.
         -4    1    5    5    0  503  0.27472748924E+01 -0.63878451461E+01  0.20450350902E+02  0.21600206873E+02  0.00000000000E+00 0.  1.
         -1    1    6    6    0  502 -0.94345708360E+02 -0.37595648007E+02  0.30949379011E+02  0.10617160400E+03  0.00000000000E+00 0.  1.
<mgrwt>
<rscale>  0 0.17278737E+04</rscale>
<asrwt>0</asrwt>
<pdfrwt beam="1">  1        1 0.97809274E-01 0.17278737E+04</pdfrwt>
<pdfrwt beam="2">  1       -1 0.18061643E+00 0.17278737E+04</pdfrwt>
<totfact> 0.61541338E+00</totfact>
</mgrwt>
</event>
<event>
12    1  0.1495204E-007  0.1528515E+04  0.7818608E-02  0.8865709E-01
         -1   -1    0    0    0  501 -0.00000000000E+00  0.00000000000E+00  0.36642403235E+04  0.36642403235E+04  0.00000000000E+00 0.  1.
          1   -1    0    0  501    0  0.00000000000E+00 -0.00000000000E+00 -0.15940256266E+03  0.15940256266E+03  0.00000000000E+00 0. -1.
         23    2    1    2    0    0  0.22722429613E+03 -0.93936799268E+02  0.20915337531E+04  0.21080123537E+04  0.93528818152E+02 0.  0.
        254    2    1    2    0    0 -0.22722429613E+03  0.93936799268E+02  0.14133040077E+04  0.17156305324E+04  0.94101270060E+03 0.  0.
        -24    2    4    4    0    0  0.13804846805E+03 -0.19560838070E+02 -0.74239169775E+02  0.17783912026E+03  0.81702462927E+02 0.  0.
         24    2    4    4    0    0 -0.36527276418E+03  0.11349763734E+03  0.14875431775E+04  0.15377914122E+04  0.75576561327E+02 0.  0.
         13    1    3    3    0    0  0.30593769255E+02 -0.21519320745E+02  0.12869145913E+03  0.13401698226E+03  0.00000000000E+00 0. -1.
        -13    1    3    3    0    0  0.19663052687E+03 -0.72417478523E+02  0.19628422940E+04  0.19739953714E+04  0.00000000000E+00 0.  1.
          2    1    6    6  502    0 -0.28542603198E+03  0.72271252741E+02  0.10178811024E+04  0.10596098774E+04  0.00000000000E+00 0. -1.
          3    1    5    5  503    0  0.11408174857E+03 -0.27057521730E+02 -0.21189257898E+02  0.11914587483E+03  0.00000000000E+00 0. -1.
         -4    1    5    5    0  503  0.23966719481E+02  0.74966836606E+01 -0.53049911877E+02  0.58693245427E+02  0.00000000000E+00 0.  1.
         -1    1    6    6    0  502 -0.79846732196E+02  0.41226384597E+02  0.46966207511E+03  0.47818153480E+03  0.00000000000E+00 0.  1.
<mgrwt>
<rscale>  0 0.15285147E+04</rscale>
<asrwt>0</asrwt>
<pdfrwt beam="1">  1        1 0.24523474E-01 0.15285147E+04</pdfrwt>
<pdfrwt beam="2">  1       -1 0.56372922E+00 0.15285147E+04</pdfrwt>
<totfact> 0.12144157E-01</totfact>
</mgrwt>
</event>
<event>
12    1  0.1495204E-007  0.2015693E+04  0.7818608E-02  0.8599319E-01
          2   -1    0    0  501    0  0.00000000000E+00  0.00000000000E+00  0.12554191021E+04  0.12554191021E+04  0.00000000000E+00 0. -1.
         -2   -1    0    0    0  501 -0.00000000000E+00 -0.00000000000E+00 -0.80909620491E+03  0.80909620491E+03  0.00000000000E+00 0.  1.
         23    2    1    2    0    0 -0.16914549071E+03 -0.50295465809E+03  0.79518898805E+03  0.96022198574E+03  0.90150707541E+02 0.  0.
        254    2    1    2    0    0  0.16914549071E+03  0.50295465809E+03 -0.34886609086E+03  0.11042933213E+04  0.90342825111E+03 0.  0.
        -24    2    4    4    0    0 -0.36774719399E+03  0.21149614939E+03 -0.14939411548E+03  0.45749813407E+03  0.83769451752E+02 0.  0.
         24    2    4    4    0    0  0.53689268471E+03  0.29145850871E+03 -0.19947197539E+03  0.64679518718E+03  0.73165073712E+02 0.  0.
         11    1    3    3    0    0 -0.14545929525E+03 -0.48377743607E+03  0.76873718601E+03  0.91986731401E+03  0.00000000000E+00 0. -1.
        -11    1    3    3    0    0 -0.23686195462E+02 -0.19177222020E+02  0.26451802037E+02  0.40354671735E+02  0.00000000000E+00 0.  1.
          4    1    6    6  502    0  0.23871317857E+03  0.12429923673E+03 -0.50159488556E+02  0.27377044429E+03  0.00000000000E+00 0. -1.
          3    1    5    5  503    0 -0.10685116852E+03  0.69465028018E+02 -0.58455053748E+01  0.12758029732E+03  0.00000000000E+00 0. -1.
         -4    1    5    5    0  503 -0.26089602547E+03  0.14203112137E+03 -0.14354861010E+03  0.32991783675E+03  0.00000000000E+00 0.  1.
         -3    1    6    6    0  502  0.29817950614E+03  0.16715927197E+03 -0.14931248683E+03  0.37302474289E+03  0.00000000000E+00 0.  1.
<mgrwt>
<rscale>  0 0.20156933E+04</rscale>
<asrwt>0</asrwt>
<pdfrwt beam="1">  1        2 0.19314140E+00 0.20156933E+04</pdfrwt>
<pdfrwt beam="2">  1       -2 0.12447634E+00 0.20156933E+04</pdfrwt>
<totfact> 0.78956391E+00</totfact>
</mgrwt>
</event>
<event>
12    1  0.1495204E-007  0.1731454E+04  0.7818608E-02  0.8743626E-01
          2   -1    0    0  501    0  0.00000000000E+00  0.00000000000E+00  0.20188468583E+04  0.20188468583E+04  0.00000000000E+00 0.  1.
         -2   -1    0    0    0  501 -0.00000000000E+00 -0.00000000000E+00 -0.37124324541E+03  0.37124324541E+03  0.00000000000E+00 0. -1.
         23    2    1    2    0    0  0.32257059347E+03 -0.21555419898E+03  0.12910230940E+04  0.13511710481E+04  0.91690630507E+02 0.  0.
        254    2    1    2    0    0 -0.32257059347E+03  0.21555419898E+03  0.35658051895E+03  0.10389190556E+04  0.89537016764E+03 0.  0.
        -24    2    4    4    0    0  0.24328854745E+03 -0.91092117435E+02 -0.46556154968E+02  0.27515808903E+03  0.77829346721E+02 0.  0.
         24    2    4    4    0    0 -0.56585914092E+03  0.30664631641E+03  0.40313667392E+03  0.76376096656E+03  0.81136338670E+02 0.  0.
         11    1    3    3    0    0  0.21723506344E+03 -0.99517720563E+02  0.85846333756E+03  0.89109716161E+03  0.00000000000E+00 0.  1.
        -11    1    3    3    0    0  0.10533553004E+03 -0.11603647842E+03  0.43255975640E+03  0.46007388653E+03  0.00000000000E+00 0. -1.
          2    1    6    6  502    0 -0.48381924469E+03  0.29010885259E+03  0.36400140919E+03  0.67137264896E+03  0.00000000000E+00 0. -1.
          3    1    5    5  503    0  0.18599092345E+03 -0.64762724159E+02 -0.68309365350E+02  0.20845384007E+03  0.00000000000E+00 0. -1.
         -4    1    5    5    0  503  0.57297624001E+02 -0.26329393277E+02  0.21753210382E+02  0.66704248953E+02  0.00000000000E+00 0.  1.
         -1    1    6    6    0  502 -0.82039896235E+02  0.16537463824E+02  0.39135264725E+02  0.92388317600E+02  0.00000000000E+00 0.  1.
<mgrwt>
<rscale>  0 0.17314540E+04</rscale>
<asrwt>0</asrwt>
<pdfrwt beam="1">  1        2 0.31059182E+00 0.17314540E+04</pdfrwt>
<pdfrwt beam="2">  1       -2 0.57114347E-01 0.17314540E+04</pdfrwt>
<totfact> 0.17788886E+01</totfact>
</mgrwt>
</event>
<event>
12    1  0.1495204E-007  0.1964327E+04  0.7818608E-02  0.8623483E-01
          2   -1    0    0  501    0  0.00000000000E+00  0.00000000000E+00  0.19496002876E+04  0.19496002876E+04  0.00000000000E+00 0. -1.
         -2   -1    0    0    0  501 -0.00000000000E+00 -0.00000000000E+00 -0.49479104216E+03  0.49479104216E+03  0.00000000000E+00 0.  1.
         23    2    1    2    0    0 -0.43431662069E+03  0.29829962637E+03  0.12804438051E+04  0.13870613561E+04  0.82397048197E+02 0.  0.
        254    2    1    2    0    0  0.43431662069E+03 -0.29829962637E+03  0.17436544038E+03  0.10573299737E+04  0.89996098377E+03 0.  0.
        -24    2    4    4    0    0 -0.24897284733E+03  0.56315260832E+02  0.27817204035E+02  0.26966610659E+03  0.82384008727E+02 0.  0.
         24    2    4    4    0    0  0.68328946802E+03 -0.35461488720E+03  0.14654823634E+03  0.78766386707E+03  0.79383666943E+02 0.  0.
         11    1    3    3    0    0 -0.35273080601E+03  0.19977985955E+03  0.97456048491E+03  0.10555089543E+04  0.00000000000E+00 0. -1.
        -11    1    3    3    0    0 -0.81585814682E+02  0.98519766815E+02  0.30588332021E+03  0.33155240188E+03  0.00000000000E+00 0.  1.
          4    1    6    6  502    0  0.60282175468E+02 -0.18384412123E+02  0.31404208299E+02  0.70414143374E+02  0.00000000000E+00 0. -1.
          1    1    5    5  503    0 -0.24757562670E+01  0.17638676197E+02  0.75037900576E+01  0.19327677882E+02  0.00000000000E+00 0. -1.
         -2    1    5    5    0  503 -0.24649709106E+03  0.38676584635E+02  0.20313413977E+02  0.25033842871E+03  0.00000000000E+00 0.  1.
         -3    1    6    6    0  502  0.62300729255E+03 -0.33623047508E+03  0.11514402804E+03  0.71724972370E+03  0.00000000000E+00 0.  1.
<mgrwt>
<rscale>  0 0.19643266E+04</rscale>
<asrwt>0</asrwt>
<pdfrwt beam="1">  1        2 0.29993850E+00 0.19643266E+04</pdfrwt>
<pdfrwt beam="2">  1       -2 0.76121700E-01 0.19643266E+04</pdfrwt>
<totfact> 0.10258007E+01</totfact>
</mgrwt>
</event>
<event>
12    1  0.1495204E-007  0.2772854E+04  0.7818608E-02  0.8311746E-01
         -2   -1    0    0    0  501 -0.00000000000E+00  0.00000000000E+00  0.59098226610E+03  0.59098226610E+03  0.00000000000E+00 0.  1.
          2   -1    0    0  501    0  0.00000000000E+00 -0.00000000000E+00 -0.32525170786E+04  0.32525170786E+04  0.00000000000E+00 0. -1.
         23    2    1    2    0    0 -0.93762061695E+03 -0.97076474591E+02 -0.81700542463E+02  0.95072146189E+03  0.92951902715E+02 0.  0.
        254    2    1    2    0    0  0.93762061695E+03  0.97076474591E+02 -0.25798342701E+04  0.28927778828E+04  0.90777902332E+03 0.  0.
        -24    2    4    4    0    0  0.56332948216E+03  0.12612393986E+03 -0.47193085986E+03  0.75020260274E+03  0.82691323564E+02 0.  0.
         24    2    4    4    0    0  0.37429113479E+03 -0.29047465272E+02 -0.21079034102E+04  0.21425752801E+04  0.80214931842E+02 0.  0.
         11    1    3    3    0    0 -0.54402662881E+03 -0.64575959513E+02 -0.92707733937E+02  0.55563454836E+03  0.00000000000E+00 0.  1.
        -11    1    3    3    0    0 -0.39359398814E+03 -0.32500515078E+02  0.11007191474E+02  0.39508691353E+03  0.00000000000E+00 0. -1.
          4    1    6    6  502    0  0.28556657907E+03  0.11489796442E+02 -0.16198520110E+04  0.16448710661E+04  0.00000000000E+00 0. -1.
          3    1    5    5  503    0  0.20985177740E+03  0.15729268562E+02 -0.13876559591E+03  0.25207353883E+03  0.00000000000E+00 0. -1.
         -4    1    5    5    0  503  0.35347770476E+03  0.11039467130E+03 -0.33316526395E+03  0.49812906391E+03  0.00000000000E+00 0.  1.
         -3    1    6    6    0  502  0.88724555711E+02 -0.40537261714E+02 -0.48805139921E+03  0.49770421402E+03  0.00000000000E+00 0.  1.
<mgrwt>
<rscale>  0 0.27728541E+04</rscale>
<asrwt>0</asrwt>
<pdfrwt beam="1">  1        2 0.50038726E+00 0.27728541E+04</pdfrwt>
<pdfrwt beam="2">  1       -2 0.90920346E-01 0.27728541E+04</pdfrwt>
<totfact> 0.10778968E+00</totfact>
</mgrwt>
</event>
<event>
12    1  0.1495204E-007  0.2364340E+04  0.7818608E-02  0.8452976E-01
          1   -1    0    0  501    0  0.00000000000E+00  0.00000000000E+00  0.19648468087E+04  0.19648468087E+04  0.00000000000E+00 0. -1.
         -1   -1    0    0    0  501 -0.00000000000E+00 -0.00000000000E+00 -0.71126433039E+03  0.71126433039E+03  0.00000000000E+00 0.  1.
         23    2    1    2    0    0  0.62336233343E+03 -0.78857086387E+03  0.46038272469E+03  0.11086534378E+04  0.82070614614E+02 0.  0.
        254    2    1    2    0    0 -0.62336233343E+03  0.78857086387E+03  0.79319975365E+03  0.15674577013E+04  0.90406481527E+03 0.  0.
        -24    2    4    4    0    0  0.32422423603E+02  0.24392192043E+03 -0.14578402727E+03  0.29678113834E+03  0.79227171148E+02 0.  0.
         24    2    4    4    0    0 -0.65578475704E+03  0.54464894344E+03  0.93898378092E+03  0.12706765630E+04  0.78944713411E+02 0.  0.
         13    1    3    3    0    0  0.33872878602E+02 -0.73073654539E+02  0.24126731259E+02  0.84078713440E+02  0.00000000000E+00 0. -1.
        -13    1    3    3    0    0  0.58948945483E+03 -0.71549720934E+03  0.43625599343E+03  0.10245747243E+04  0.00000000000E+00 0.  1.
          2    1    6    6  502    0 -0.40051384325E+02  0.25553008000E+02  0.81215825477E+02  0.94090806735E+02  0.00000000000E+00 0. -1.
          3    1    5    5  503    0  0.32859613106E+02  0.19716492979E+03 -0.78284216871E+02  0.21466760893E+03  0.00000000000E+00 0. -1.
         -4    1    5    5    0  503 -0.43718950271E+00  0.46756990646E+02 -0.67499810399E+02  0.82113529414E+02  0.00000000000E+00 0.  1.
         -1    1    6    6    0  502 -0.61573337271E+03  0.51909593544E+03  0.85776795545E+03  0.11765857563E+04  0.00000000000E+00 0.  1.
<mgrwt>
<rscale>  0 0.23643396E+04</rscale>
<asrwt>0</asrwt>
<pdfrwt beam="1">  1        1 0.30228412E+00 0.23643396E+04</pdfrwt>
<pdfrwt beam="2">  1       -1 0.10942528E+00 0.23643396E+04</pdfrwt>
<totfact> 0.21863158E+00</totfact>
</mgrwt>
</event>
<event>
12    1  0.1495204E-007  0.2571004E+04  0.7818608E-02  0.8378118E-01
          2   -1    0    0  501    0  0.00000000000E+00  0.00000000000E+00  0.52500390962E+03  0.52500390962E+03  0.00000000000E+00 0. -1.
         -2   -1    0    0    0  501 -0.00000000000E+00 -0.00000000000E+00 -0.31476249850E+04  0.31476249850E+04  0.00000000000E+00 0.  1.
         23    2    1    2    0    0  0.47199604732E+03  0.35353400241E+03  0.21801241609E+03  0.63491147819E+03  0.88411605688E+02 0.  0.
        254    2    1    2    0    0 -0.47199604732E+03 -0.35353400241E+03 -0.28406334915E+04  0.30377174165E+04  0.90042318365E+03 0.  0.
        -24    2    4    4    0    0 -0.10477693801E+03  0.17277011960E+03 -0.13564985082E+03  0.25649952787E+03  0.81014843119E+02 0.  0.
         24    2    4    4    0    0 -0.36721910931E+03 -0.52630412201E+03 -0.27049836407E+04  0.27812178886E+04  0.79940880079E+02 0.  0.
         11    1    3    3    0    0  0.24987321659E+02  0.23729273787E+02 -0.76844543911E+01  0.35305743405E+02  0.00000000000E+00 0.  1.
        -11    1    3    3    0    0  0.44700872566E+03  0.32980472862E+03  0.22569687048E+03  0.59960573479E+03  0.00000000000E+00 0. -1.
          4    1    6    6  502    0 -0.26930837246E+03 -0.39993993576E+03 -0.21666340570E+04  0.22196355756E+04  0.00000000000E+00 0. -1.
          1    1    5    5  503    0 -0.74097604118E+02  0.15660789912E+03 -0.79769816732E+02  0.19073466561E+03  0.00000000000E+00 0. -1.
         -2    1    5    5    0  503 -0.30679333897E+02  0.16162220477E+02 -0.55880034084E+02  0.65764862262E+02  0.00000000000E+00 0.  1.
         -3    1    6    6    0  502 -0.97910736841E+02 -0.12636418625E+03 -0.53834958372E+03  0.56158231297E+03  0.00000000000E+00 0.  1.
<mgrwt>
<rscale>  0 0.25710040E+04</rscale>
<asrwt>0</asrwt>
<pdfrwt beam="1">  1        2 0.80769832E-01 0.25710040E+04</pdfrwt>
<pdfrwt beam="2">  1       -2 0.48425000E+00 0.25710040E+04</pdfrwt>
<totfact> 0.10664179E-01</totfact>
</mgrwt>
</event>
<event>
12    1  0.1495204E-007  0.2342951E+04  0.7818608E-02  0.8461176E-01
          2   -1    0    0  501    0  0.00000000000E+00  0.00000000000E+00  0.14685571653E+04  0.14685571653E+04  0.00000000000E+00 0. -1.
         -2   -1    0    0    0  501 -0.00000000000E+00 -0.00000000000E+00 -0.93449209079E+03  0.93449209079E+03  0.00000000000E+00 0.  1.
         23    2    1    2    0    0  0.89526461504E+03 -0.12754286985E+03  0.62277153433E+03  0.11017759754E+04  0.91104344076E+02 0.  0.
        254    2    1    2    0    0 -0.89526461504E+03  0.12754286985E+03 -0.88706459860E+02  0.13012732806E+04  0.93149202907E+03 0.  0.
        -24    2    4    4    0    0 -0.64113273328E+02 -0.32618979272E+03  0.31694558736E+02  0.34342984344E+03  0.80182414651E+02 0.  0.
         24    2    4    4    0    0 -0.83115134171E+03  0.45373266257E+03 -0.12040101860E+03  0.95784343717E+03  0.79257573410E+02 0.  0.
         11    1    3    3    0    0  0.41952471170E+03 -0.57264777898E+02  0.34681653575E+03  0.54732252647E+03  0.00000000000E+00 0.  1.
        -11    1    3    3    0    0  0.47573990334E+03 -0.70278091950E+02  0.27595499857E+03  0.55445344897E+03  0.00000000000E+00 0. -1.
          4    1    6    6  502    0 -0.82163048697E+03  0.43796141904E+03 -0.12329360082E+03  0.93919549280E+03  0.00000000000E+00 0. -1.
          1    1    5    5  503    0 -0.26568225613E+02 -0.25714506074E+03 -0.45878181964E+00  0.25851433878E+03  0.00000000000E+00 0. -1.
         -2    1    5    5    0  503 -0.37545047715E+02 -0.69044731979E+02  0.32153340556E+02  0.84915504656E+02  0.00000000000E+00 0.  1.
         -3    1    6    6    0  502 -0.95208547356E+01  0.15771243524E+02  0.28925822263E+01  0.18647944367E+02  0.00000000000E+00 0.  1.
<mgrwt>
<rscale>  0 0.23429512E+04</rscale>
<asrwt>0</asrwt>
<pdfrwt beam="1">  1        2 0.22593187E+00 0.23429512E+04</pdfrwt>
<pdfrwt beam="2">  1       -2 0.14376801E+00 0.23429512E+04</pdfrwt>
<totfact> 0.40044704E+00</totfact>
</mgrwt>
</event>
<event>
12    1  0.1495204E-007  0.1722929E+04  0.7818608E-02  0.8748394E-01
         -2   -1    0    0    0  501 -0.00000000000E+00  0.00000000000E+00  0.40068136344E+03  0.40068136344E+03  0.00000000000E+00 0.  1.
          2   -1    0    0  501    0  0.00000000000E+00 -0.00000000000E+00 -0.18521472995E+04  0.18521472995E+04  0.00000000000E+00 0. -1.
         23    2    1    2    0    0 -0.37143575635E+03  0.45061112385E+03 -0.60196333790E+03  0.84320805208E+03  0.87321548826E+02 0.  0.
        254    2    1    2    0    0  0.37143575635E+03 -0.45061112385E+03 -0.84950259820E+03  0.14096206109E+04  0.96143678745E+03 0.  0.
        -24    2    4    4    0    0  0.56885193728E+03 -0.61990777106E+03 -0.56888113245E+03  0.10188127923E+04  0.80471061348E+02 0.  0.
         24    2    4    4    0    0 -0.19741618092E+03  0.16929664722E+03 -0.28062146575E+03  0.39080781860E+03  0.79673337999E+02 0.  0.
         13    1    3    3    0    0 -0.11170172160E+03  0.17447531622E+03 -0.26195356649E+03  0.33397392350E+03  0.00000000000E+00 0. -1.
        -13    1    3    3    0    0 -0.25973403475E+03  0.27613580762E+03 -0.34000977141E+03  0.50923412858E+03  0.00000000000E+00 0.  1.
          2    1    6    6  502    0 -0.10081613270E+03  0.88184892165E+02 -0.20134335979E+03  0.24182559077E+03  0.00000000000E+00 0. -1.
          1    1    5    5  503    0  0.28922512762E+03 -0.37167579109E+03 -0.30289774953E+03  0.55994742146E+03  0.00000000000E+00 0. -1.
         -2    1    5    5    0  503  0.27962680966E+03 -0.24823197997E+03 -0.26598338292E+03  0.45886537084E+03  0.00000000000E+00 0.  1.
         -1    1    6    6    0  502 -0.96600048225E+02  0.81111755050E+02 -0.79278105959E+02  0.14898222783E+03  0.00000000000E+00 0.  1.
<mgrwt>
<rscale>  0 0.17229288E+04</rscale>
<asrwt>0</asrwt>
<pdfrwt beam="1">  1        2 0.28494574E+00 0.17229288E+04</pdfrwt>
<pdfrwt beam="2">  1       -2 0.61643287E-01 0.17229288E+04</pdfrwt>
<totfact> 0.18750055E+01</totfact>
</mgrwt>
</event>
<event>
12    1  0.1495204E-007  0.2548832E+04  0.7818608E-02  0.8385793E-01
         -2   -1    0    0    0  501 -0.00000000000E+00  0.00000000000E+00  0.14805252769E+04  0.14805252769E+04  0.00000000000E+00 0.  1.
          2   -1    0    0  501    0  0.00000000000E+00 -0.00000000000E+00 -0.10969996783E+04  0.10969996783E+04  0.00000000000E+00 0. -1.
         23    2    1    2    0    0 -0.18960687418E+03  0.57792335246E+03 -0.77596107567E+03  0.99056298996E+03  0.95672765518E+02 0.  0.
        254    2    1    2    0    0  0.18960687418E+03 -0.57792335246E+03  0.11594866742E+04  0.15869619653E+04  0.89671219652E+03 0.  0.
        -24    2    4    4    0    0  0.20169611652E+03  0.15734160901E+03  0.60849833012E+03  0.66450751763E+03  0.76565774810E+02 0.  0.
         24    2    4    4    0    0 -0.12089242341E+02 -0.73526496147E+03  0.55098834411E+03  0.92245444763E+03  0.81076132457E+02 0.  0.
         11    1    3    3    0    0 -0.20070100302E+03  0.54713749236E+03 -0.74015316121E+03  0.94205468536E+03  0.00000000000E+00 0. -1.
        -11    1    3    3    0    0  0.11094128842E+02  0.30785860100E+02 -0.35807914462E+02  0.48508304598E+02  0.00000000000E+00 0.  1.
          2    1    6    6  502    0  0.21242070430E+02 -0.41045255071E+03  0.34296183587E+03  0.53529930208E+03  0.00000000000E+00 0. -1.
          3    1    5    5  503    0  0.18252429534E+02  0.17089104905E+01  0.13652158967E+02  0.22857230878E+02  0.00000000000E+00 0. -1.
         -2    1    5    5    0  503  0.18344368699E+03  0.15563269852E+03  0.59484617116E+03  0.64165028675E+03  0.00000000000E+00 0.  1.
         -1    1    6    6    0  502 -0.33331312771E+02 -0.32481241076E+03  0.20802650824E+03  0.38715514555E+03  0.00000000000E+00 0.  1.
<mgrwt>
<rscale>  0 0.25488317E+04</rscale>
<asrwt>0</asrwt>
<pdfrwt beam="1">  1        2 0.16876918E+00 0.25488317E+04</pdfrwt>
<pdfrwt beam="2">  1       -2 0.22777312E+00 0.25488317E+04</pdfrwt>
<totfact> 0.17158149E+00</totfact>
</mgrwt>
</event>
<event>
12    1  0.1495204E-007  0.1004191E+04  0.7818608E-02  0.9303960E-01
         -2   -1    0    0    0  501 -0.00000000000E+00  0.00000000000E+00  0.13162760334E+03  0.13162760334E+03  0.00000000000E+00 0.  1.
          2   -1    0    0  501    0  0.00000000000E+00 -0.00000000000E+00 -0.19152523136E+04  0.19152523136E+04  0.00000000000E+00 0. -1.
         23    2    1    2    0    0 -0.25548484192E+02 -0.49963934808E+02 -0.17740212640E+03  0.20566379765E+03  0.87618282257E+02 0.  0.
        254    2    1    2    0    0  0.25548484192E+02  0.49963934808E+02 -0.16062225838E+04  0.18412161193E+04  0.89831881266E+03 0.  0.
        -24    2    4    4    0    0  0.24801670228E+03  0.19982106593E+03 -0.15544582369E+03  0.36368942549E+03  0.81644663676E+02 0.  0.
         24    2    4    4    0    0 -0.22246821809E+03 -0.14985713113E+03 -0.14507767601E+04  0.14775266938E+04  0.79891521584E+02 0.  0.
         11    1    3    3    0    0 -0.32446920388E+02 -0.11481390307E+02 -0.15858149427E+03  0.16227358162E+03  0.00000000000E+00 0. -1.
        -11    1    3    3    0    0  0.68984361965E+01 -0.38482544502E+02 -0.18820632128E+02  0.43390216028E+02  0.00000000000E+00 0.  1.
          4    1    6    6  502    0 -0.20966391544E+03 -0.10768976288E+03 -0.12367344601E+04  0.12589949036E+04  0.00000000000E+00 0. -1.
          3    1    5    5  503    0  0.25428286873E+03  0.19431497267E+03 -0.15425166055E+03  0.35526280514E+03  0.00000000000E+00 0. -1.
         -4    1    5    5    0  503 -0.62661664444E+01  0.55060932644E+01 -0.11941631444E+01  0.84266203523E+01  0.00000000000E+00 0.  1.
         -3    1    6    6    0  502 -0.12804302647E+02 -0.42167368247E+02 -0.21404230004E+03  0.21853179017E+03  0.00000000000E+00 0.  1.
<mgrwt>
<rscale>  0 0.10041914E+04</rscale>
<asrwt>0</asrwt>
<pdfrwt beam="1">  1        2 0.29465419E+00 0.10041914E+04</pdfrwt>
<pdfrwt beam="2">  1       -2 0.20250401E-01 0.10041914E+04</pdfrwt>
<totfact> 0.15583856E+02</totfact>
</mgrwt>
</event>
<event>
12    1  0.1495204E-007  0.2474116E+04  0.7818608E-02  0.8412265E-01
         -2   -1    0    0    0  501 -0.00000000000E+00  0.00000000000E+00  0.15867043614E+04  0.15867043614E+04  0.00000000000E+00 0.  1.
          2   -1    0    0  501    0  0.00000000000E+00 -0.00000000000E+00 -0.96445988010E+03  0.96445988010E+03  0.00000000000E+00 0. -1.
         23    2    1    2    0    0 -0.55596632473E+03 -0.45834966833E+03  0.10736263338E+04  0.12963687248E+04  0.93356270351E+02 0.  0.
        254    2    1    2    0    0  0.55596632473E+03  0.45834966833E+03 -0.45138185249E+03  0.12547955167E+04  0.92281267839E+03 0.  0.
        -24    2    4    4    0    0  0.31323120965E+03  0.24085761072E+00  0.22818847414E+03  0.39593503654E+03  0.81121666182E+02 0.  0.
         24    2    4    4    0    0  0.24273511509E+03  0.45810881072E+03 -0.67957032663E+03  0.85886048020E+03  0.83913509420E+02 0.  0.
         13    1    3    3    0    0 -0.20612347560E+03 -0.21121432741E+03  0.37990018049E+03  0.48106395254E+03  0.00000000000E+00 0. -1.
        -13    1    3    3    0    0 -0.34984284913E+03 -0.24713534092E+03  0.69372615331E+03  0.81530477222E+03  0.00000000000E+00 0.  1.
          4    1    6    6  502    0  0.10748386126E+03  0.21380158756E+03 -0.38216531197E+03  0.45090378680E+03  0.00000000000E+00 0. -1.
          1    1    5    5  503    0  0.27107480534E+03  0.10337010563E+02  0.15943011079E+03  0.31465276751E+03  0.00000000000E+00 0. -1.
         -2    1    5    5    0  503  0.42156404311E+02 -0.10096152952E+02  0.68758363349E+02  0.81282269034E+02  0.00000000000E+00 0.  1.
         -1    1    6    6    0  502  0.13525125383E+03  0.24430722316E+03 -0.29740501466E+03  0.40795669341E+03  0.00000000000E+00 0.  1.
<mgrwt>
<rscale>  0 0.24741162E+04</rscale>
<asrwt>0</asrwt>
<pdfrwt beam="1">  1        2 0.14837844E+00 0.24741162E+04</pdfrwt>
<pdfrwt beam="2">  1       -2 0.24410836E+00 0.24741162E+04</pdfrwt>
<totfact> 0.16584514E+00</totfact>
</mgrwt>
</event>
<event>
12    1  0.1495204E-007  0.2176997E+04  0.7818608E-02  0.8528064E-01
         -2   -1    0    0    0  501 -0.00000000000E+00  0.00000000000E+00  0.10952767435E+04  0.10952767435E+04  0.00000000000E+00 0.  1.
          2   -1    0    0  501    0  0.00000000000E+00 -0.00000000000E+00 -0.10817619448E+04  0.10817619448E+04  0.00000000000E+00 0. -1.
         23    2    1    2    0    0 -0.22104056706E+03  0.61237184822E+03  0.62585818773E+03  0.90754384927E+03  0.89884116645E+02 0.  0.
        254    2    1    2    0    0  0.22104056706E+03 -0.61237184822E+03 -0.61234338900E+03  0.12694948391E+04  0.90155116750E+03 0.  0.
        -24    2    4    4    0    0  0.26600934140E+02 -0.76738065005E+03 -0.22839479513E+03  0.80503564797E+03  0.79608669685E+02 0.  0.
         24    2    4    4    0    0  0.19443963292E+03  0.15500880183E+03 -0.38394859387E+03  0.46445919111E+03  0.80444502477E+02 0.  0.
         11    1    3    3    0    0 -0.12338917655E+03  0.39088516429E+03  0.33678989370E+03  0.53051251922E+03  0.00000000000E+00 0. -1.
        -11    1    3    3    0    0 -0.97651390516E+02  0.22148668393E+03  0.28906829403E+03  0.37703133005E+03  0.00000000000E+00 0.  1.
          2    1    6    6  502    0  0.16628578247E+03  0.89880446850E+02 -0.29949319473E+03  0.35415481060E+03  0.00000000000E+00 0. -1.
          1    1    5    5  503    0 -0.10027438326E+02 -0.45737499795E+03 -0.10506837860E+03  0.46939514532E+03  0.00000000000E+00 0. -1.
         -2    1    5    5    0  503  0.36628372466E+02 -0.31000565210E+03 -0.12332641653E+03  0.33564050265E+03  0.00000000000E+00 0.  1.
         -1    1    6    6    0  502  0.28153850452E+02  0.65128354978E+02 -0.84455399136E+02  0.11030438051E+03  0.00000000000E+00 0.  1.
<mgrwt>
<rscale>  0 0.21769967E+04</rscale>
<asrwt>0</asrwt>
<pdfrwt beam="1">  1        2 0.16642491E+00 0.21769967E+04</pdfrwt>
<pdfrwt beam="2">  1       -2 0.16850411E+00 0.21769967E+04</pdfrwt>
<totfact> 0.44727247E+00</totfact>
</mgrwt>
</event>
<event>
12    1  0.1495204E-007  0.1791210E+04  0.7818608E-02  0.8710988E-01
         -3   -1    0    0    0  501 -0.00000000000E+00  0.00000000000E+00  0.19878683735E+04  0.19878683735E+04  0.00000000000E+00 0. -1.
          3   -1    0    0  501    0  0.00000000000E+00 -0.00000000000E+00 -0.40350193832E+03  0.40350193832E+03  0.00000000000E+00 0.  1.
         23    2    1    2    0    0  0.43834462562E+02 -0.52399992873E+03  0.80076043672E+02  0.53962286927E+03  0.91012542297E+02 0.  0.
        254    2    1    2    0    0 -0.43834462562E+02  0.52399992873E+03  0.15042903915E+04  0.18517474425E+04  0.94317634807E+03 0.  0.
        -24    2    4    4    0    0  0.43564455546E+03  0.21316580883E+03  0.82820515592E+03  0.96279324937E+03  0.76296919793E+02 0.  0.
         24    2    4    4    0    0 -0.47947901803E+03  0.31083411990E+03  0.67608523558E+03  0.88895419317E+03  0.81426856521E+02 0.  0.
         11    1    3    3    0    0  0.26643607326E+02 -0.37155536639E+03  0.14520234552E+02  0.37279231392E+03  0.00000000000E+00 0.  1.
        -11    1    3    3    0    0  0.17190855235E+02 -0.15244456233E+03  0.65555809120E+02  0.16683055535E+03  0.00000000000E+00 0. -1.
          2    1    6    6  502    0 -0.24403598385E+03  0.12888302295E+03  0.27557949219E+03  0.39001083515E+03  0.00000000000E+00 0. -1.
          3    1    5    5  503    0  0.21279956746E+03  0.14513740867E+03  0.41575962612E+03  0.48908546290E+03  0.00000000000E+00 0. -1.
         -4    1    5    5    0  503  0.22284498801E+03  0.68028400158E+02  0.41244552980E+03  0.47370778647E+03  0.00000000000E+00 0.  1.
         -3    1    6    6    0  502 -0.23544303417E+03  0.18195109694E+03  0.40050574339E+03  0.49894335802E+03  0.00000000000E+00 0.  1.
<mgrwt>
<rscale>  0 0.17912105E+04</rscale>
<asrwt>0</asrwt>
<pdfrwt beam="1">  1        3 0.62077222E-01 0.17912105E+04</pdfrwt>
<pdfrwt beam="2">  1       -3 0.30582590E+00 0.17912105E+04</pdfrwt>
<totfact> 0.22065081E-01</totfact>
</mgrwt>
</event>
<event>
12    1  0.1495204E-007  0.1236236E+04  0.7818608E-02  0.9081717E-01
         -2   -1    0    0    0  501 -0.00000000000E+00  0.00000000000E+00  0.52477123657E+03  0.52477123657E+03  0.00000000000E+00 0.  1.
          2   -1    0    0  501    0  0.00000000000E+00 -0.00000000000E+00 -0.72806948434E+03  0.72806948434E+03  0.00000000000E+00 0. -1.
         23    2    1    2    0    0  0.14374922190E+03  0.23050311448E+03  0.18974039570E+02  0.28720854002E+03  0.91286399323E+02 0.  0.
        254    2    1    2    0    0 -0.14374922190E+03 -0.23050311448E+03 -0.22227228734E+03  0.96563218088E+03  0.89958046580E+03 0.  0.
        -24    2    4    4    0    0 -0.42466627115E+03  0.89239308153E+02 -0.28875879660E+03  0.52748537143E+03  0.80957263315E+02 0.  0.
         24    2    4    4    0    0  0.28091704925E+03 -0.31974242264E+03  0.66486509261E+02  0.43814680946E+03  0.80016031707E+02 0.  0.
         13    1    3    3    0    0  0.15999821802E+02 -0.11784728295E+01  0.15950724761E+02  0.22623189791E+02  0.00000000000E+00 0.  1.
        -13    1    3    3    0    0  0.12774940009E+03  0.23168158731E+03  0.30233148091E+01  0.26458535023E+03  0.00000000000E+00 0. -1.
          4    1    6    6  502    0  0.12642435814E+03 -0.97282062033E+02  0.11135223271E+01  0.15952478759E+03  0.00000000000E+00 0. -1.
          3    1    5    5  503    0 -0.36060148524E+03  0.57230278624E+02 -0.21068908792E+03  0.42154315048E+03  0.00000000000E+00 0. -1.
         -4    1    5    5    0  503 -0.64064785904E+02  0.32009029529E+02 -0.78069708686E+02  0.10594222094E+03  0.00000000000E+00 0.  1.
         -3    1    6    6    0  502  0.15449269111E+03 -0.22246036060E+03  0.65372986934E+02  0.27862202186E+03  0.00000000000E+00 0.  1.
<mgrwt>
<rscale>  0 0.12362361E+04</rscale>
<asrwt>0</asrwt>
<pdfrwt beam="1">  1        2 0.11201069E+00 0.12362361E+04</pdfrwt>
<pdfrwt beam="2">  1       -2 0.80734037E-01 0.12362361E+04</pdfrwt>
<totfact> 0.51967945E+01</totfact>
</mgrwt>
</event>
<event>
12    1  0.1495204E-007  0.1678457E+04  0.7818608E-02  0.8773747E-01
          2   -1    0    0  501    0  0.00000000000E+00  0.00000000000E+00  0.19097547703E+04  0.19097547703E+04  0.00000000000E+00 0. -1.
         -2   -1    0    0    0  501 -0.00000000000E+00 -0.00000000000E+00 -0.36879327303E+03  0.36879327303E+03  0.00000000000E+00 0.  1.
         23    2    1    2    0    0  0.62112828656E+02 -0.57842953918E+03  0.69293014992E+03  0.90903036794E+03  0.88007283115E+02 0.  0.
        254    2    1    2    0    0 -0.62112828656E+02  0.57842953918E+03  0.84803134730E+03  0.13695176753E+04  0.90442399447E+03 0.  0.
        -24    2    4    4    0    0 -0.43351353971E+03  0.25505370635E+03  0.18921741527E+03  0.54311500333E+03  0.78640284624E+02 0.  0.
         24    2    4    4    0    0  0.37140071105E+03  0.32337583284E+03  0.65881393204E+03  0.82640267201E+03  0.79969755725E+02 0.  0.
         11    1    3    3    0    0  0.23928045939E+02 -0.16151787888E+03  0.13732954656E+03  0.21335412098E+03  0.00000000000E+00 0. -1.
        -11    1    3    3    0    0  0.38184782717E+02 -0.41691166030E+03  0.55560060336E+03  0.69567624696E+03  0.00000000000E+00 0.  1.
          2    1    6    6  502    0  0.32565961342E+03  0.24919521838E+03  0.56780373486E+03  0.70039526126E+03  0.00000000000E+00 0. -1.
          1    1    5    5  503    0 -0.24212250466E+03  0.13418163388E+03  0.14491949601E+03  0.31245748264E+03  0.00000000000E+00 0. -1.
         -2    1    5    5    0  503 -0.19139103505E+03  0.12087207247E+03  0.44297919261E+02  0.23065752069E+03  0.00000000000E+00 0.  1.
         -1    1    6    6    0  502  0.45741097633E+02  0.74180614462E+02  0.91010197175E+02  0.12600741075E+03  0.00000000000E+00 0.  1.
<mgrwt>
<rscale>  0 0.16784573E+04</rscale>
<asrwt>0</asrwt>
<pdfrwt beam="1">  1        2 0.29380842E+00 0.16784573E+04</pdfrwt>
<pdfrwt beam="2">  1       -2 0.56737428E-01 0.16784573E+04</pdfrwt>
<totfact> 0.20825746E+01</totfact>
</mgrwt>
</event>
<event>
12    1  0.1495204E-007  0.1478554E+04  0.7818608E-02  0.8898841E-01
          2   -1    0    0  501    0  0.00000000000E+00  0.00000000000E+00  0.43402628911E+03  0.43402628911E+03  0.00000000000E+00 0. -1.
         -2   -1    0    0    0  501 -0.00000000000E+00 -0.00000000000E+00 -0.12592109264E+04  0.12592109264E+04  0.00000000000E+00 0.  1.
         23    2    1    2    0    0  0.32485578800E+03  0.13446528788E+03 -0.59015113012E+03  0.69292384476E+03  0.90845482122E+02 0.  0.
        254    2    1    2    0    0 -0.32485578800E+03 -0.13446528788E+03 -0.23503350718E+03  0.10003133707E+04  0.90651745353E+03 0.  0.
        -24    2    4    4    0    0 -0.49728773568E+02  0.18926763965E+03 -0.46411527319E+03  0.51088619903E+03  0.85478249925E+02 0.  0.
         24    2    4    4    0    0 -0.27512701443E+03 -0.32373292753E+03  0.22908176601E+03  0.48942717172E+03  0.81009989892E+02 0.  0.
         13    1    3    3    0    0  0.11508480970E+01  0.11371175465E+02 -0.49965720589E+02  0.51256231979E+02  0.00000000000E+00 0. -1.
        -13    1    3    3    0    0  0.32370493990E+03  0.12309411241E+03 -0.54018540953E+03  0.64166761278E+03  0.00000000000E+00 0.  1.
          2    1    6    6  502    0 -0.83571371103E+01  0.45038252213E+01  0.60147401376E+01  0.11238473261E+02  0.00000000000E+00 0. -1.
          3    1    5    5  503    0  0.23657132040E+02  0.32314152940E+02 -0.96814820429E+02  0.10477105436E+03  0.00000000000E+00 0. -1.
         -4    1    5    5    0  503 -0.73385905607E+02  0.15695348671E+03 -0.36730045276E+03  0.40611514467E+03  0.00000000000E+00 0.  1.
         -1    1    6    6    0  502 -0.26676987732E+03 -0.32823675275E+03  0.22306702587E+03  0.47818869846E+03  0.00000000000E+00 0.  1.
<mgrwt>
<rscale>  0 0.14785542E+04</rscale>
<asrwt>0</asrwt>
<pdfrwt beam="1">  1        2 0.66773276E-01 0.14785542E+04</pdfrwt>
<pdfrwt beam="2">  1       -2 0.19372475E+00 0.14785542E+04</pdfrwt>
<totfact> 0.10254524E+01</totfact>
</mgrwt>
</event>
<event>
12    1  0.1495204E-007  0.1791958E+04  0.7818608E-02  0.8710588E-01
         -2   -1    0    0    0  501 -0.00000000000E+00  0.00000000000E+00  0.41293492993E+03  0.41293492993E+03  0.00000000000E+00 0.  1.
          2   -1    0    0  501    0  0.00000000000E+00 -0.00000000000E+00 -0.19440797800E+04  0.19440797800E+04  0.00000000000E+00 0. -1.
         23    2    1    2    0    0  0.18770409826E+03  0.43317098105E+03 -0.11923808209E+04  0.12858018886E+04  0.92976057101E+02 0.  0.
        254    2    1    2    0    0 -0.18770409826E+03 -0.43317098105E+03 -0.33876402910E+03  0.10712128213E+04  0.89992550459E+03 0.  0.
        -24    2    4    4    0    0  0.56740125140E+02 -0.59906630589E+03  0.10739283588E+02  0.60721532464E+03  0.80593036975E+02 0.  0.
         24    2    4    4    0    0 -0.24444422340E+03  0.16589532484E+03 -0.34950331269E+03  0.46399749668E+03  0.76595523294E+02 0.  0.
         13    1    3    3    0    0  0.15522281710E+03  0.37948616135E+03 -0.93611699266E+03  0.10219681470E+04  0.00000000000E+00 0. -1.
        -13    1    3    3    0    0  0.32481281156E+02  0.53684819703E+02 -0.25626382828E+03  0.26383374154E+03  0.00000000000E+00 0.  1.
          4    1    6    6  502    0 -0.29353322567E+02  0.56686061792E+02 -0.67762512269E+02  0.93095033252E+02  0.00000000000E+00 0. -1.
          3    1    5    5  503    0  0.18877432281E+02 -0.25348946723E+03  0.44043475929E+02  0.25797886584E+03  0.00000000000E+00 0. -1.
         -4    1    5    5    0  503  0.37862692859E+02 -0.34557683866E+03 -0.33304192340E+02  0.34923645880E+03  0.00000000000E+00 0.  1.
         -3    1    6    6    0  502 -0.21509090083E+03  0.10920926305E+03 -0.28174080042E+03  0.37090246343E+03  0.00000000000E+00 0.  1.
<mgrwt>
<rscale>  0 0.17919581E+04</rscale>
<asrwt>0</asrwt>
<pdfrwt beam="1">  1        2 0.29908920E+00 0.17919581E+04</pdfrwt>
<pdfrwt beam="2">  1       -2 0.63528450E-01 0.17919581E+04</pdfrwt>
<totfact> 0.15547341E+01</totfact>
</mgrwt>
</event>
<event>
12    1  0.1495204E-007  0.1606671E+04  0.7818608E-02  0.8816460E-01
          1   -1    0    0  501    0  0.00000000000E+00  0.00000000000E+00  0.70741207355E+03  0.70741207355E+03  0.00000000000E+00 0. -1.
         -1   -1    0    0    0  501 -0.00000000000E+00 -0.00000000000E+00 -0.91226623283E+03  0.91226623283E+03  0.00000000000E+00 0.  1.
         23    2    1    2    0    0 -0.36729844397E+02 -0.22430083330E+03  0.41703685958E+03  0.48361843469E+03  0.91143309364E+02 0.  0.
        254    2    1    2    0    0  0.36729844397E+02  0.22430083330E+03 -0.62189101886E+03  0.11360598717E+04  0.92315960019E+03 0.  0.
        -24    2    4    4    0    0  0.45132902705E+03  0.14751550475E+03 -0.48997618769E+03  0.68698164438E+03  0.80052485334E+02 0.  0.
         24    2    4    4    0    0 -0.41459918266E+03  0.76785328551E+02 -0.13191483117E+03  0.44907822730E+03  0.80506289276E+02 0.  0.
         13    1    3    3    0    0 -0.31704136695E+02 -0.23837507619E+02  0.10967760087E+03  0.11662999265E+03  0.00000000000E+00 0.  1.
        -13    1    3    3    0    0 -0.50257077017E+01 -0.20046332568E+03  0.30735925871E+03  0.36698844205E+03  0.00000000000E+00 0. -1.
          4    1    6    6  502    0 -0.39409094728E+03  0.76009874377E+02 -0.10432308995E+03  0.41469082800E+03  0.00000000000E+00 0. -1.
          1    1    5    5  503    0  0.25396526129E+03  0.74802730633E+02 -0.32794188577E+03  0.42147322915E+03  0.00000000000E+00 0. -1.
         -2    1    5    5    0  503  0.19736376576E+03  0.72712774117E+02 -0.16203430192E+03  0.26550841523E+03  0.00000000000E+00 0.  1.
         -3    1    6    6    0  502 -0.20508235382E+02  0.77545417393E+00 -0.27591741215E+02  0.34387399304E+02  0.00000000000E+00 0.  1.
<mgrwt>
<rscale>  0 0.16066713E+04</rscale>
<asrwt>0</asrwt>
<pdfrwt beam="1">  1        1 0.10883263E+00 0.16066713E+04</pdfrwt>
<pdfrwt beam="2">  1       -1 0.14034865E+00 0.16066713E+04</pdfrwt>
<totfact> 0.10708412E+01</totfact>
</mgrwt>
</event>
<event>
12    1  0.1495204E-007  0.1226869E+04  0.7818608E-02  0.9089658E-01
          1   -1    0    0  501    0  0.00000000000E+00  0.00000000000E+00  0.31132875599E+03  0.31132875599E+03  0.00000000000E+00 0. -1.
         -1   -1    0    0    0  501 -0.00000000000E+00 -0.00000000000E+00 -0.12086956565E+04  0.12086956565E+04  0.00000000000E+00 0.  1.
         23    2    1    2    0    0  0.10047678595E+03 -0.17522230150E+03 -0.41912999717E+03  0.47421238302E+03  0.91700546494E+02 0.  0.
        254    2    1    2    0    0 -0.10047678595E+03  0.17522230150E+03 -0.47823690334E+03  0.10458120295E+04  0.90786222843E+03 0.  0.
        -24    2    4    4    0    0 -0.34906830394E+03  0.19389377174E+03  0.92524438328E+02  0.41722604637E+03  0.77931550404E+02 0.  0.
         24    2    4    4    0    0  0.24859151799E+03 -0.18671470240E+02 -0.57076134167E+03  0.62858598310E+03  0.84884995079E+02 0.  0.
         11    1    3    3    0    0  0.64139375138E+02 -0.36253393088E+02 -0.99669624145E+02  0.12394435014E+03  0.00000000000E+00 0. -1.
        -11    1    3    3    0    0  0.36337410813E+02 -0.13896890841E+03 -0.31946037302E+03  0.35026803288E+03  0.00000000000E+00 0.  1.
          2    1    6    6  502    0  0.99793067049E+02  0.32069178809E+02 -0.25964344199E+03  0.28000322396E+03  0.00000000000E+00 0. -1.
          1    1    5    5  503    0 -0.18283702855E+03  0.57068511607E+02  0.43014968863E+02  0.19630711035E+03  0.00000000000E+00 0. -1.
         -4    1    5    5    0  503 -0.16623127539E+03  0.13682526013E+03  0.49509469464E+02  0.22091893602E+03  0.00000000000E+00 0.  1.
         -1    1    6    6    0  502  0.14879845094E+03 -0.50740649049E+02 -0.31111789968E+03  0.34858275914E+03  0.00000000000E+00 0.  1.
<mgrwt>
<rscale>  0 0.12268687E+04</rscale>
<asrwt>0</asrwt>
<pdfrwt beam="1">  1        1 0.47896730E-01 0.12268687E+04</pdfrwt>
<pdfrwt beam="2">  1       -1 0.18595318E+00 0.12268687E+04</pdfrwt>
<totfact> 0.15570566E+01</totfact>
</mgrwt>
</event>
<event>
12    1  0.1495204E-007  0.1560992E+04  0.7818608E-02  0.8844877E-01
         -2   -1    0    0    0  501 -0.00000000000E+00  0.00000000000E+00  0.45908277394E+03  0.45908277394E+03  0.00000000000E+00 0.  1.
          2   -1    0    0  501    0  0.00000000000E+00 -0.00000000000E+00 -0.13269366358E+04  0.13269366358E+04  0.00000000000E+00 0. -1.
         23    2    1    2    0    0 -0.32808996132E+03  0.16724296118E+03 -0.69715784548E+03  0.79372055303E+03  0.91378465775E+02 0.  0.
        254    2    1    2    0    0  0.32808996132E+03 -0.16724296118E+03 -0.17069601634E+03  0.99229885667E+03  0.90548697404E+03 0.  0.
        -24    2    4    4    0    0  0.49660438703E+03  0.21815127686E+03 -0.76529321928E+02  0.55417665779E+03  0.83959121634E+02 0.  0.
         24    2    4    4    0    0 -0.16851442571E+03 -0.38539423805E+03 -0.94166694411E+02  0.43812219888E+03  0.78472061424E+02 0.  0.
         13    1    3    3    0    0 -0.31083886160E+03  0.17026700050E+03 -0.61588003564E+03  0.71057713701E+03  0.00000000000E+00 0. -1.
        -13    1    3    3    0    0 -0.17251099719E+02 -0.30240393213E+01 -0.81277809843E+02  0.83143416025E+02  0.00000000000E+00 0.  1.
          4    1    6    6  502    0 -0.83653763832E+02 -0.15730548916E+03 -0.77187294511E+02  0.19416706095E+03  0.00000000000E+00 0. -1.
          1    1    5    5  503    0  0.30713251044E+03  0.12888278021E+03 -0.87701293836E+02  0.34443093204E+03  0.00000000000E+00 0. -1.
         -2    1    5    5    0  503  0.18947187659E+03  0.89268496654E+02  0.11171971909E+02  0.20974572575E+03  0.00000000000E+00 0.  1.
         -1    1    6    6    0  502 -0.84860661876E+02 -0.22808874889E+03 -0.16979399900E+02  0.24395513793E+03  0.00000000000E+00 0.  1.
<mgrwt>
<rscale>  0 0.15609917E+04</rscale>
<asrwt>0</asrwt>
<pdfrwt beam="1">  1        2 0.20414410E+00 0.15609917E+04</pdfrwt>
<pdfrwt beam="2">  1       -2 0.70628119E-01 0.15609917E+04</pdfrwt>
<totfact> 0.27955952E+01</totfact>
</mgrwt>
</event>
<event>
12    1  0.1495204E-007  0.1264443E+04  0.7818608E-02  0.9058247E-01
          1   -1    0    0  501    0  0.00000000000E+00  0.00000000000E+00  0.35077945652E+03  0.35077945652E+03  0.00000000000E+00 0.  1.
         -1   -1    0    0    0  501 -0.00000000000E+00 -0.00000000000E+00 -0.11394737484E+04  0.11394737484E+04  0.00000000000E+00 0. -1.
         23    2    1    2    0    0  0.35177786229E+02 -0.52879210474E+02 -0.54108153346E+03  0.55284563592E+03  0.93996722103E+02 0.  0.
        254    2    1    2    0    0 -0.35177786229E+02  0.52879210474E+02 -0.24761275843E+03  0.93740756901E+03  0.90187980615E+03 0.  0.
        -24    2    4    4    0    0 -0.16111237478E+03  0.34365363186E+02 -0.56113148426E+03  0.59032709252E+03  0.80494459653E+02 0.  0.
         24    2    4    4    0    0  0.12593458856E+03  0.18513847288E+02  0.31351872583E+03  0.34708047649E+03  0.77256602178E+02 0.  0.
         11    1    3    3    0    0  0.26869503789E+02  0.15427577567E+02 -0.67254460483E+02  0.74048246693E+02  0.00000000000E+00 0.  1.
        -11    1    3    3    0    0  0.83082824397E+01 -0.68306788041E+02 -0.47382707297E+03  0.47879738923E+03  0.00000000000E+00 0. -1.
          2    1    6    6  502    0  0.71231601042E+02 -0.15783406318E+02  0.98504341801E+02  0.12258124757E+03  0.00000000000E+00 0. -1.
          1    1    5    5  503    0 -0.10994158002E+03  0.33554650279E+02 -0.48608629342E+03  0.49949269287E+03  0.00000000000E+00 0. -1.
         -2    1    5    5    0  503 -0.51170794761E+02  0.81071290671E+00 -0.75045190837E+02  0.90834399649E+02  0.00000000000E+00 0.  1.
         -1    1    6    6    0  502  0.54702987514E+02  0.34297253605E+02  0.21501438403E+03  0.22449922892E+03  0.00000000000E+00 0.  1.
<mgrwt>
<rscale>  0 0.12644429E+04</rscale>
<asrwt>0</asrwt>
<pdfrwt beam="1">  1        1 0.53966070E-01 0.12644429E+04</pdfrwt>
<pdfrwt beam="2">  1       -1 0.17530365E+00 0.12644429E+04</pdfrwt>
<totfact> 0.15829743E+01</totfact>
</mgrwt>
</event>
<event>
12    1  0.1495204E-007  0.2064465E+04  0.7818608E-02  0.8577061E-01
         -2   -1    0    0    0  501 -0.00000000000E+00  0.00000000000E+00  0.40604506279E+03  0.40604506279E+03  0.00000000000E+00 0.  1.
          2   -1    0    0  501    0  0.00000000000E+00 -0.00000000000E+00 -0.26241019673E+04  0.26241019673E+04  0.00000000000E+00 0. -1.
         23    2    1    2    0    0 -0.14767830041E+03 -0.11613038554E+03 -0.20883661353E+04  0.20987562546E+04  0.90606590861E+02 0.  0.
        254    2    1    2    0    0  0.14767830041E+03  0.11613038554E+03 -0.12969076919E+03  0.93139077547E+03  0.90298058349E+03 0.  0.
        -24    2    4    4    0    0  0.52200282029E+03  0.11046302024E+03 -0.77620412132E+02  0.54505105240E+03  0.79791591746E+02 0.  0.
         24    2    4    4    0    0 -0.37432451987E+03  0.56673653014E+01 -0.52070357059E+02  0.38633972307E+03  0.79975585843E+02 0.  0.
         11    1    3    3    0    0 -0.15027187304E+03 -0.12353505517E+03 -0.18377242184E+04  0.18479915716E+04  0.00000000000E+00 0. -1.
        -11    1    3    3    0    0  0.25935726282E+01  0.74046696323E+01 -0.25064191691E+03  0.25076468304E+03  0.00000000000E+00 0.  1.
          2    1    6    6  502    0 -0.15321728913E+03  0.23811034104E+02  0.11724586022E+02  0.15549909630E+03  0.00000000000E+00 0. -1.
          3    1    5    5  503    0  0.20854679092E+03  0.19610849329E+02  0.53025070894E+00  0.20946749290E+03  0.00000000000E+00 0. -1.
         -4    1    5    5    0  503  0.31345602937E+03  0.90852170909E+02 -0.78150662841E+02  0.33558355950E+03  0.00000000000E+00 0.  1.
         -1    1    6    6    0  502 -0.22110723074E+03 -0.18143668802E+02 -0.63794943080E+02  0.23084062677E+03  0.00000000000E+00 0.  1.
<mgrwt>
<rscale>  0 0.20644647E+04</rscale>
<asrwt>0</asrwt>
<pdfrwt beam="1">  1        2 0.40370801E+00 0.20644647E+04</pdfrwt>
<pdfrwt beam="2">  1       -2 0.62468469E-01 0.20644647E+04</pdfrwt>
<totfact> 0.64756315E+00</totfact>
</mgrwt>
</event>
<event>
12    1  0.1495204E-007  0.3866395E+04  0.7818608E-02  0.8032055E-01
         -2   -1    0    0    0  501 -0.00000000000E+00  0.00000000000E+00  0.26672075928E+04  0.26672075928E+04  0.00000000000E+00 0.  1.
          2   -1    0    0  501    0  0.00000000000E+00 -0.00000000000E+00 -0.14011855453E+04  0.14011855453E+04  0.00000000000E+00 0. -1.
         23    2    1    2    0    0 -0.40730651008E+03 -0.62424746264E+01  0.24722542744E+04  0.25072614585E+04  0.91549234593E+02 0.  0.
        254    2    1    2    0    0  0.40730651008E+03  0.62424746264E+01 -0.12062322269E+04  0.15611316796E+04  0.90343697862E+03 0.  0.
        -24    2    4    4    0    0  0.28543214957E+03  0.89281271320E+02 -0.13220473196E+04  0.13577806574E+04  0.79476668731E+02 0.  0.
         24    2    4    4    0    0  0.12187436051E+03 -0.83038796693E+02  0.11581509272E+03  0.20335102226E+03  0.78674653129E+02 0.  0.
         13    1    3    3    0    0 -0.44206164198E+00 -0.24102642822E+00  0.12482135771E+03  0.12482237320E+03  0.00000000000E+00 0. -1.
        -13    1    3    3    0    0 -0.40686444844E+03 -0.60014481982E+01  0.23474329167E+04  0.23824390853E+04  0.00000000000E+00 0.  1.
          2    1    6    6  502    0 -0.79172330675E+01 -0.21841333937E+02  0.21353507910E+02  0.31554694543E+02  0.00000000000E+00 0. -1.
          1    1    5    5  503    0  0.66294819064E+02  0.57643103844E+02 -0.35445626417E+03  0.36518074109E+03  0.00000000000E+00 0. -1.
         -2    1    5    5    0  503  0.21913733051E+03  0.31638167476E+02 -0.96759105543E+03  0.99259991628E+03  0.00000000000E+00 0.  1.
         -1    1    6    6    0  502  0.12979159358E+03 -0.61197462756E+02  0.94461584808E+02  0.17179632771E+03  0.00000000000E+00 0.  1.
<mgrwt>
<rscale>  0 0.38663951E+04</rscale>
<asrwt>0</asrwt>
<pdfrwt beam="1">  1        2 0.21556701E+00 0.38663951E+04</pdfrwt>
<pdfrwt beam="2">  1       -2 0.41033963E+00 0.38663951E+04</pdfrwt>
<totfact> 0.73107275E-02</totfact>
</mgrwt>
</event>
<event>
12    1  0.1495204E-007  0.1531420E+04  0.7818608E-02  0.8863824E-01
         -2   -1    0    0    0  501 -0.00000000000E+00  0.00000000000E+00  0.26481237859E+03  0.26481237859E+03  0.00000000000E+00 0.  1.
          2   -1    0    0  501    0  0.00000000000E+00 -0.00000000000E+00 -0.22140643217E+04  0.22140643217E+04  0.00000000000E+00 0. -1.
         23    2    1    2    0    0 -0.77837740306E+02  0.20486412205E+03 -0.13587110919E+04  0.13799805103E+04  0.10110566409E+03 0.  0.
        254    2    1    2    0    0  0.77837740306E+02 -0.20486412205E+03 -0.59054085124E+03  0.10988961900E+04  0.90044784250E+03 0.  0.
        -24    2    4    4    0    0  0.21593718061E+03  0.90425346933E+02 -0.70265170437E+03  0.74503653665E+03  0.80959335180E+02 0.  0.
         24    2    4    4    0    0 -0.13809944030E+03 -0.29528946898E+03  0.11211085313E+03  0.35385965334E+03  0.79877937928E+02 0.  0.
         13    1    3    3    0    0  0.10623266873E+02  0.57730275559E+02 -0.55755154134E+03  0.56063299918E+03  0.00000000000E+00 0.  1.
        -13    1    3    3    0    0 -0.88461007179E+02  0.14713384649E+03 -0.80115955054E+03  0.81934751113E+03  0.00000000000E+00 0. -1.
          4    1    6    6  502    0 -0.58241922360E+01 -0.82175097448E+02  0.97750987997E+01  0.82959149057E+02  0.00000000000E+00 0. -1.
          1    1    5    5  503    0  0.24730840491E+02  0.13607017123E+02 -0.19697500426E+03  0.19898722997E+03  0.00000000000E+00 0. -1.
         -2    1    5    5    0  503  0.19120634012E+03  0.76818329810E+02 -0.50567670011E+03  0.54604930668E+03  0.00000000000E+00 0.  1.
         -3    1    6    6    0  502 -0.13227524806E+03 -0.21311437153E+03  0.10233575433E+03  0.27090050428E+03  0.00000000000E+00 0.  1.
<mgrwt>
<rscale>  0 0.15314198E+04</rscale>
<asrwt>0</asrwt>
<pdfrwt beam="1">  1        2 0.34062529E+00 0.15314198E+04</pdfrwt>
<pdfrwt beam="2">  1       -2 0.40740365E-01 0.15314198E+04</pdfrwt>
<totfact> 0.27912115E+01</totfact>
</mgrwt>
</event>
<event>
12    1  0.1495204E-007  0.1558868E+04  0.7818608E-02  0.8846223E-01
         -2   -1    0    0    0  501 -0.00000000000E+00  0.00000000000E+00  0.18337944424E+03  0.18337944424E+03  0.00000000000E+00 0.  1.
          2   -1    0    0  501    0  0.00000000000E+00 -0.00000000000E+00 -0.33128979098E+04  0.33128979098E+04  0.00000000000E+00 0. -1.
         23    2    1    2    0    0  0.40003107013E+02 -0.10954746739E+03 -0.16755528008E+04  0.16821706497E+04  0.92844011173E+02 0.  0.
        254    2    1    2    0    0 -0.40003107013E+02  0.10954746739E+03 -0.14539656647E+04  0.18141067043E+04  0.10785944947E+04 0.  0.
        -24    2    4    4    0    0 -0.31739547758E+03  0.35191459385E+03 -0.22909627547E+03  0.53263698640E+03  0.81444983242E+02 0.  0.
         24    2    4    4    0    0  0.27739237056E+03 -0.24236712646E+03 -0.12248693893E+04  0.12814697179E+04  0.78557404831E+02 0.  0.
         11    1    3    3    0    0  0.12462022179E+02 -0.26000591192E+02 -0.97654569789E+02  0.10182213777E+03  0.00000000000E+00 0.  1.
        -11    1    3    3    0    0  0.27541084834E+02 -0.83546876198E+02 -0.15778982310E+04  0.15803485120E+04  0.00000000000E+00 0. -1.
          4    1    6    6  502    0  0.28088786808E+03 -0.23906469626E+03 -0.11790393092E+04  0.12353880427E+04  0.00000000000E+00 0. -1.
          1    1    5    5  503    0 -0.16289944683E+03  0.19340704167E+03 -0.16595339295E+03  0.30246163753E+03  0.00000000000E+00 0. -1.
         -2    1    5    5    0  503 -0.15449603075E+03  0.15850755218E+03 -0.63142882522E+02  0.23017534887E+03  0.00000000000E+00 0.  1.
         -3    1    6    6    0  502 -0.34954975115E+01 -0.33024302002E+01 -0.45830080030E+02  0.46081675139E+02  0.00000000000E+00 0.  1.
<mgrwt>
<rscale>  0 0.15588680E+04</rscale>
<asrwt>0</asrwt>
<pdfrwt beam="1">  1        2 0.50967656E+00 0.15588680E+04</pdfrwt>
<pdfrwt beam="2">  1       -2 0.28212224E-01 0.15588680E+04</pdfrwt>
<totfact> 0.12197687E+01</totfact>
</mgrwt>
</event>
<event>
12    1  0.1495204E-007  0.1953083E+04  0.7818608E-02  0.8628876E-01
          1   -1    0    0  501    0  0.00000000000E+00  0.00000000000E+00  0.10871642154E+04  0.10871642154E+04  0.00000000000E+00 0. -1.
         -1   -1    0    0    0  501 -0.00000000000E+00 -0.00000000000E+00 -0.87717493145E+03  0.87717493145E+03  0.00000000000E+00 0.  1.
         23    2    1    2    0    0  0.23816676347E+03  0.19065944693E+03 -0.62367926084E+03  0.70026986053E+03  0.91255823004E+02 0.  0.
        254    2    1    2    0    0 -0.23816676347E+03 -0.19065944693E+03  0.83366854481E+03  0.12640692863E+04  0.89988526275E+03 0.  0.
        -24    2    4    4    0    0 -0.12474537617E+03  0.38189966932E+02 -0.16874995157E+03  0.22659778233E+03  0.76486118689E+02 0.  0.
         24    2    4    4    0    0 -0.11342138730E+03 -0.22884941386E+03  0.10024184964E+04  0.10374715040E+04  0.79169529513E+02 0.  0.
         13    1    3    3    0    0  0.19445502022E+03  0.12916022392E+03 -0.53578919047E+03  0.58443577488E+03  0.00000000000E+00 0.  1.
        -13    1    3    3    0    0  0.43711743250E+02  0.61499223003E+02 -0.87890070375E+02  0.11583408565E+03  0.00000000000E+00 0. -1.
          2    1    6    6  502    0 -0.66220095187E+02 -0.13399247178E+03  0.73064084559E+03  0.74577149902E+03  0.00000000000E+00 0. -1.
          3    1    5    5  503    0 -0.11550437986E+03  0.39605543901E+02 -0.17638577139E+03  0.21452692424E+03  0.00000000000E+00 0. -1.
         -4    1    5    5    0  503 -0.92409963018E+01 -0.14155769690E+01  0.76358198151E+01  0.12070858091E+02  0.00000000000E+00 0.  1.
         -1    1    6    6    0  502 -0.47201292118E+02 -0.94856942077E+02  0.27177765079E+03  0.29170000498E+03  0.00000000000E+00 0.  1.
<mgrwt>
<rscale>  0 0.19530829E+04</rscale>
<asrwt>0</asrwt>
<pdfrwt beam="1">  1        1 0.16725603E+00 0.19530829E+04</pdfrwt>
<pdfrwt beam="2">  1       -1 0.13494999E+00 0.19530829E+04</pdfrwt>
<totfact> 0.55684215E+00</totfact>
</mgrwt>
</event>
<event>
12    1  0.1495204E-007  0.1288137E+04  0.7818608E-02  0.9039026E-01
          1   -1    0    0  501    0  0.00000000000E+00  0.00000000000E+00  0.23226039066E+04  0.23226039066E+04  0.00000000000E+00 0. -1.
         -1   -1    0    0    0  501 -0.00000000000E+00 -0.00000000000E+00 -0.17860320365E+03  0.17860320365E+03  0.00000000000E+00 0.  1.
         23    2    1    2    0    0  0.50026710122E+02  0.13089116530E+03  0.10972906489E+04  0.11097111226E+04  0.88186385713E+02 0.  0.
        254    2    1    2    0    0 -0.50026710122E+02 -0.13089116530E+03  0.10467100540E+04  0.13914959876E+04  0.90610373435E+03 0.  0.
        -24    2    4    4    0    0  0.42094960103E+03 -0.48764171405E+02  0.52306529916E+03  0.67791873326E+03  0.79999941919E+02 0.  0.
         24    2    4    4    0    0 -0.47097631115E+03 -0.82126993891E+02  0.52364475483E+03  0.71357725430E+03  0.80156969816E+02 0.  0.
         11    1    3    3    0    0  0.19514119371E+02  0.10471376731E+03  0.97895361979E+03  0.98473141700E+03  0.00000000000E+00 0. -1.
        -11    1    3    3    0    0  0.30512590751E+02  0.26177397982E+02  0.11833702913E+03  0.12497970565E+03  0.00000000000E+00 0.  1.
          2    1    6    6  502    0 -0.16393669897E+03 -0.26385933001E+01  0.13831190187E+03  0.21450497813E+03  0.00000000000E+00 0. -1.
          1    1    5    5  503    0  0.52889550330E+02 -0.25204034061E+02  0.43688611279E+02  0.73083805474E+02  0.00000000000E+00 0. -1.
         -2    1    5    5    0  503  0.36806005069E+03 -0.23560137344E+02  0.47937668788E+03  0.60483492779E+03  0.00000000000E+00 0.  1.
         -1    1    6    6    0  502 -0.30703961218E+03 -0.79488400591E+02  0.38533285296E+03  0.49907227617E+03  0.00000000000E+00 0.  1.
<mgrwt>
<rscale>  0 0.12881374E+04</rscale>
<asrwt>0</asrwt>
<pdfrwt beam="1">  1        1 0.35732366E+00 0.12881374E+04</pdfrwt>
<pdfrwt beam="2">  1       -1 0.27477418E-01 0.12881374E+04</pdfrwt>
<totfact> 0.21081880E+01</totfact>
</mgrwt>
</event>
<event>
12    1  0.1495204E-007  0.1433605E+04  0.7818608E-02  0.8929847E-01
          2   -1    0    0  501    0  0.00000000000E+00  0.00000000000E+00  0.61993638171E+03  0.61993638171E+03  0.00000000000E+00 0.  1.
         -2   -1    0    0    0  501 -0.00000000000E+00 -0.00000000000E+00 -0.82880361135E+03  0.82880361135E+03  0.00000000000E+00 0. -1.
         23    2    1    2    0    0  0.17277045449E+03 -0.15594748332E+03  0.27681758338E+03  0.37296764956E+03  0.91146287086E+02 0.  0.
        254    2    1    2    0    0 -0.17277045449E+03  0.15594748332E+03 -0.48568481302E+03  0.10757723435E+04  0.93125031540E+03 0.  0.
        -24    2    4    4    0    0  0.26032711378E+03  0.36009002847E+03 -0.34979873278E+03  0.57136857068E+03  0.81656936894E+02 0.  0.
         24    2    4    4    0    0 -0.43309756827E+03 -0.20414254515E+03 -0.13588608024E+03  0.50440377281E+03  0.81917378167E+02 0.  0.
         13    1    3    3    0    0  0.17637592541E+03 -0.15601034209E+03  0.24089703924E+03  0.33686655728E+03  0.00000000000E+00 0.  1.
        -13    1    3    3    0    0 -0.36054709211E+01  0.62858767778E-01  0.35920544146E+02  0.36101092276E+02  0.00000000000E+00 0. -1.
          2    1    6    6  502    0 -0.34807168577E+03 -0.13691283601E+03 -0.80159397565E+02  0.38252392359E+03  0.00000000000E+00 0. -1.
          3    1    5    5  503    0  0.23009741456E+03  0.27576918360E+03 -0.25198860859E+03  0.43873878524E+03  0.00000000000E+00 0. -1.
         -4    1    5    5    0  503  0.30229699214E+02  0.84320844860E+02 -0.97810124195E+02  0.13262978545E+03  0.00000000000E+00 0.  1.
         -1    1    6    6    0  502 -0.85025882500E+02 -0.67229709136E+02 -0.55726682675E+02  0.12187984923E+03  0.00000000000E+00 0.  1.
<mgrwt>
<rscale>  0 0.14336046E+04</rscale>
<asrwt>0</asrwt>
<pdfrwt beam="1">  1        2 0.95374828E-01 0.14336046E+04</pdfrwt>
<pdfrwt beam="2">  1       -2 0.12750825E+00 0.14336046E+04</pdfrwt>
<totfact> 0.21098931E+01</totfact>
</mgrwt>
</event>
<event>
12    1  0.1495204E-007  0.1681276E+04  0.7818608E-02  0.8772116E-01
         -1   -1    0    0    0  501 -0.00000000000E+00  0.00000000000E+00  0.92006196973E+03  0.92006196973E+03  0.00000000000E+00 0.  1.
          1   -1    0    0  501    0  0.00000000000E+00 -0.00000000000E+00 -0.76807000428E+03  0.76807000428E+03  0.00000000000E+00 0. -1.
         23    2    1    2    0    0 -0.27729010147E+03  0.52361088706E+03  0.10134328894E+03  0.60812691700E+03  0.92139695838E+02 0.  0.
        254    2    1    2    0    0  0.27729010147E+03 -0.52361088706E+03  0.50648676512E+02  0.10800050570E+04  0.90154726627E+03 0.  0.
        -24    2    4    4    0    0  0.11773372949E+03 -0.76437089186E+03  0.32597988059E+01  0.77664344741E+03  0.70995258594E+02 0.  0.
         24    2    4    4    0    0  0.15955637198E+03  0.24076000479E+03  0.47388877706E+02  0.30336160960E+03  0.79742991555E+02 0.  0.
         13    1    3    3    0    0 -0.25695950777E+03  0.44513762617E+03  0.11292616468E+03  0.52623950206E+03  0.00000000000E+00 0. -1.
        -13    1    3    3    0    0 -0.20330593700E+02  0.78473260896E+02 -0.11582875733E+02  0.81887414943E+02  0.00000000000E+00 0.  1.
          4    1    6    6  502    0  0.17386146128E+02  0.52083252845E+01  0.19786323099E+02  0.26849642665E+02  0.00000000000E+00 0. -1.
          3    1    5    5  503    0  0.78061146497E+02 -0.58721018100E+03 -0.25027608871E+02  0.59290447837E+03  0.00000000000E+00 0. -1.
         -4    1    5    5    0  503  0.39672582993E+02 -0.17716071086E+03  0.28287407677E+02  0.18373896905E+03  0.00000000000E+00 0.  1.
         -3    1    6    6    0  502  0.14217022585E+03  0.23555167951E+03  0.27602554607E+02  0.27651196694E+03  0.00000000000E+00 0.  1.
<mgrwt>
<rscale>  0 0.16812757E+04</rscale>
<asrwt>0</asrwt>
<pdfrwt beam="1">  1        1 0.11816462E+00 0.16812757E+04</pdfrwt>
<pdfrwt beam="2">  1       -1 0.14154800E+00 0.16812757E+04</pdfrwt>
<totfact> 0.91585222E+00</totfact>
</mgrwt>
</event>
<event>
12    1  0.1495204E-007  0.2154871E+04  0.7818608E-02  0.8537450E-01
         -1   -1    0    0    0  501 -0.00000000000E+00  0.00000000000E+00  0.90780060344E+03  0.90780060344E+03  0.00000000000E+00 0.  1.
          1   -1    0    0  501    0  0.00000000000E+00 -0.00000000000E+00 -0.12787692435E+04  0.12787692435E+04  0.00000000000E+00 0. -1.
         23    2    1    2    0    0 -0.41014988225E+03 -0.49696341780E+03  0.46833314380E+03  0.80141379388E+03  0.87935038050E+02 0.  0.
        254    2    1    2    0    0  0.41014988225E+03  0.49696341780E+03 -0.83930178387E+03  0.13851560531E+04  0.89388715305E+03 0.  0.
        -24    2    4    4    0    0  0.26220195978E+03  0.18061403304E+03 -0.95414417505E+03  0.10091098173E+04  0.80871626339E+02 0.  0.
         24    2    4    4    0    0  0.14794792247E+03  0.31634938475E+03  0.11484239118E+03  0.37604623577E+03  0.79097886360E+02 0.  0.
         11    1    3    3    0    0 -0.64834641365E+02 -0.12827339140E+03  0.12657759719E+03  0.19151888098E+03  0.00000000000E+00 0. -1.
        -11    1    3    3    0    0 -0.34531524088E+03 -0.36869002640E+03  0.34175554660E+03  0.60989491290E+03  0.00000000000E+00 0.  1.
          4    1    6    6  502    0  0.57079927424E+01  0.62061230297E+02 -0.14216483184E+01  0.62339382183E+02  0.00000000000E+00 0. -1.
          1    1    5    5  503    0  0.95318217674E+02  0.83981015229E+02 -0.27151458196E+03  0.29976414354E+03  0.00000000000E+00 0. -1.
         -2    1    5    5    0  503  0.16688374210E+03  0.96633017815E+02 -0.68262959309E+03  0.70934567375E+03  0.00000000000E+00 0.  1.
         -3    1    6    6    0  502  0.14223992973E+03  0.25428815446E+03  0.11626403949E+03  0.31370685358E+03  0.00000000000E+00 0.  1.
<mgrwt>
<rscale>  0 0.21548712E+04</rscale>
<asrwt>0</asrwt>
<pdfrwt beam="1">  1        1 0.19673373E+00 0.21548712E+04</pdfrwt>
<pdfrwt beam="2">  1       -1 0.13966163E+00 0.21548712E+04</pdfrwt>
<totfact> 0.36174284E+00</totfact>
</mgrwt>
</event>
<event>
12    1  0.1495204E-007  0.1902737E+04  0.7818608E-02  0.8653495E-01
          2   -1    0    0  501    0  0.00000000000E+00  0.00000000000E+00  0.30688016013E+04  0.30688016013E+04  0.00000000000E+00 0. -1.
         -2   -1    0    0    0  501 -0.00000000000E+00 -0.00000000000E+00 -0.29493648474E+03  0.29493648474E+03  0.00000000000E+00 0.  1.
         23    2    1    2    0    0 -0.38044536004E+03 -0.11485310191E+03  0.21506629159E+04  0.21888001587E+04  0.86978443926E+02 0.  0.
        254    2    1    2    0    0  0.38044536004E+03  0.11485310191E+03  0.62320220061E+03  0.11749379273E+04  0.91332811369E+03 0.  0.
        -24    2    4    4    0    0  0.61838792619E+03 -0.13615724251E+03  0.37933721221E+03  0.74241385974E+03  0.79619072020E+02 0.  0.
         24    2    4    4    0    0 -0.23794256615E+03  0.25101034442E+03  0.24386498840E+03  0.43252406760E+03  0.89353671936E+02 0.  0.
         13    1    3    3    0    0 -0.33965301104E+03 -0.12856471583E+03  0.18834803651E+04  0.19181739597E+04  0.00000000000E+00 0. -1.
        -13    1    3    3    0    0 -0.40792348992E+02  0.13711613920E+02  0.26718255080E+03  0.27062619892E+03  0.00000000000E+00 0.  1.
          4    1    6    6  502    0 -0.10863040304E+03  0.53582473752E+02  0.87257586325E+02  0.14928339603E+03  0.00000000000E+00 0. -1.
          3    1    5    5  503    0  0.39193602281E+02 -0.11911047788E+02  0.40357556763E+01  0.41161861511E+02  0.00000000000E+00 0. -1.
         -4    1    5    5    0  503  0.57919432390E+03 -0.12424619472E+03  0.37530145654E+03  0.70125199823E+03  0.00000000000E+00 0.  1.
         -3    1    6    6    0  502 -0.12931216311E+03  0.19742787067E+03  0.15660740208E+03  0.28324067157E+03  0.00000000000E+00 0.  1.
<mgrwt>
<rscale>  0 0.19027365E+04</rscale>
<asrwt>0</asrwt>
<pdfrwt beam="1">  1        2 0.47212330E+00 0.19027365E+04</pdfrwt>
<pdfrwt beam="2">  1       -2 0.45374846E-01 0.19027365E+04</pdfrwt>
<totfact> 0.68179905E+00</totfact>
</mgrwt>
</event>
<event>
12    1  0.1495204E-007  0.1678626E+04  0.7818608E-02  0.8773649E-01
          2   -1    0    0  501    0  0.00000000000E+00  0.00000000000E+00  0.23880157463E+04  0.23880157463E+04  0.00000000000E+00 0. -1.
         -2   -1    0    0    0  501 -0.00000000000E+00 -0.00000000000E+00 -0.29499239199E+03  0.29499239199E+03  0.00000000000E+00 0.  1.
         23    2    1    2    0    0  0.53176759315E+03 -0.26188086705E+03  0.64886893848E+03  0.88390837452E+03  0.94365001868E+02 0.  0.
        254    2    1    2    0    0 -0.53176759315E+03  0.26188086705E+03  0.14441544159E+04  0.17990997638E+04  0.89432635070E+03 0.  0.
        -24    2    4    4    0    0 -0.33798272244E+03 -0.30634820356E+03  0.54884649805E+03  0.71804732364E+03  0.79233440373E+02 0.  0.
         24    2    4    4    0    0 -0.19378487071E+03  0.56822907061E+03  0.89530791780E+03  0.10810524401E+04  0.81616529255E+02 0.  0.
         13    1    3    3    0    0  0.34973796931E+02 -0.46900379211E+02  0.73228523105E+02  0.93729550506E+02  0.00000000000E+00 0. -1.
        -13    1    3    3    0    0  0.49679379622E+03 -0.21498048784E+03  0.57564041537E+03  0.79017882402E+03  0.00000000000E+00 0.  1.
          4    1    6    6  502    0 -0.18852794663E+03  0.55546858548E+03  0.89069380210E+03  0.10665006260E+04  0.00000000000E+00 0. -1.
          3    1    5    5  503    0 -0.10402875005E+03 -0.14416665766E+03  0.19429955757E+03  0.26335968577E+03  0.00000000000E+00 0. -1.
         -4    1    5    5    0  503 -0.23395397239E+03 -0.16218154590E+03  0.35454694048E+03  0.45468763787E+03  0.00000000000E+00 0.  1.
         -3    1    6    6    0  502 -0.52569240762E+01  0.12760485131E+02  0.46141156970E+01  0.14551814154E+02  0.00000000000E+00 0.  1.
<mgrwt>
<rscale>  0 0.16786262E+04</rscale>
<asrwt>0</asrwt>
<pdfrwt beam="1">  1        2 0.36738703E+00 0.16786262E+04</pdfrwt>
<pdfrwt beam="2">  1       -2 0.45383446E-01 0.16786262E+04</pdfrwt>
<totfact> 0.17746120E+01</totfact>
</mgrwt>
</event>
<event>
12    1  0.1495204E-007  0.1424127E+04  0.7818608E-02  0.8936537E-01
          2   -1    0    0  501    0  0.00000000000E+00  0.00000000000E+00  0.17046112038E+04  0.17046112038E+04  0.00000000000E+00 0.  1.
         -2   -1    0    0    0  501 -0.00000000000E+00 -0.00000000000E+00 -0.29744879433E+03  0.29744879433E+03  0.00000000000E+00 0. -1.
         23    2    1    2    0    0  0.10556594205E+03  0.29540957411E+03  0.11876994171E+02  0.32664204907E+03  0.90238465348E+02 0.  0.
        254    2    1    2    0    0 -0.10556594205E+03 -0.29540957411E+03  0.13952854153E+04  0.16754179491E+04  0.87280749841E+03 0.  0.
        -24    2    4    4    0    0  0.20480320658E+02  0.50136814743E+02  0.12777541733E+04  0.12812656355E+04  0.77799471100E+02 0.  0.
         24    2    4    4    0    0 -0.12604626271E+03 -0.34554638885E+03  0.11753124205E+03  0.39415231357E+03  0.79072664290E+02 0.  0.
         11    1    3    3    0    0  0.40688514698E+02  0.28582277939E+02  0.15281971936E+02  0.52019616558E+02  0.00000000000E+00 0.  1.
        -11    1    3    3    0    0  0.64877427356E+02  0.26682729617E+03 -0.34049777645E+01  0.27462243251E+03  0.00000000000E+00 0. -1.
          2    1    6    6  502    0 -0.88767642351E+02 -0.30897822955E+03  0.84622186516E+02  0.33242766900E+03  0.00000000000E+00 0. -1.
          3    1    5    5  503    0  0.32413842820E+02  0.63357559050E+02  0.11590459108E+04  0.11612287720E+04  0.00000000000E+00 0. -1.
         -4    1    5    5    0  503 -0.11933522162E+02 -0.13220744307E+02  0.11870826242E+03  0.12003686350E+03  0.00000000000E+00 0.  1.
         -1    1    6    6    0  502 -0.37278620361E+02 -0.36568159303E+02  0.32909055533E+02  0.61724644567E+02  0.00000000000E+00 0.  1.
<mgrwt>
<rscale>  0 0.14241272E+04</rscale>
<asrwt>0</asrwt>
<pdfrwt beam="1">  1        2 0.26224787E+00 0.14241272E+04</pdfrwt>
<pdfrwt beam="2">  1       -2 0.45761354E-01 0.14241272E+04</pdfrwt>
<totfact> 0.42887487E+01</totfact>
</mgrwt>
</event>
<event>
12    1  0.1495204E-007  0.2162234E+04  0.7818608E-02  0.8534314E-01
         -2   -1    0    0    0  501 -0.00000000000E+00  0.00000000000E+00  0.78798819105E+03  0.78798819105E+03  0.00000000000E+00 0.  1.
          2   -1    0    0  501    0  0.00000000000E+00 -0.00000000000E+00 -0.14832883998E+04  0.14832883998E+04  0.00000000000E+00 0. -1.
         23    2    1    2    0    0  0.81165270682E+03  0.15851497445E+03 -0.61726991053E+03  0.10358494621E+04  0.89748827950E+02 0.  0.
        254    2    1    2    0    0 -0.81165270682E+03 -0.15851497445E+03 -0.78030298183E+02  0.12354271287E+04  0.91448583873E+03 0.  0.
        -24    2    4    4    0    0 -0.87484537293E+03 -0.29478921776E+03  0.16269922104E+03  0.94081268635E+03  0.80014778842E+02 0.  0.
         24    2    4    4    0    0  0.63192666107E+02  0.13627424331E+03 -0.24072951922E+03  0.29461444233E+03  0.79265287258E+02 0.  0.
         11    1    3    3    0    0  0.46756311653E+03  0.11712577591E+03 -0.40390402150E+03  0.62886578370E+03  0.00000000000E+00 0.  1.
        -11    1    3    3    0    0  0.34408959029E+03  0.41389198536E+02 -0.21336588903E+03  0.40698367842E+03  0.00000000000E+00 0. -1.
          2    1    6    6  502    0 -0.23308150131E+01 -0.36638029762E+00  0.52199550164E+01  0.57284259200E+01  0.00000000000E+00 0. -1.
          3    1    5    5  503    0 -0.49144277440E+03 -0.20524462340E+03  0.80986352468E+02  0.53870227884E+03  0.00000000000E+00 0. -1.
         -4    1    5    5    0  503 -0.38340259853E+03 -0.89544594362E+02  0.81712868572E+02  0.40211040751E+03  0.00000000000E+00 0.  1.
         -1    1    6    6    0  502  0.65523481120E+02  0.13664062361E+03 -0.24594947424E+03  0.28888601641E+03  0.00000000000E+00 0.  1.
<mgrwt>
<rscale>  0 0.21622338E+04</rscale>
<asrwt>0</asrwt>
<pdfrwt beam="1">  1        2 0.22819821E+00 0.21622338E+04</pdfrwt>
<pdfrwt beam="2">  1       -2 0.12122895E+00 0.21622338E+04</pdfrwt>
<totfact> 0.61589328E+00</totfact>
</mgrwt>
</event>
<event>
12    1  0.1495204E-007  0.1556399E+04  0.7818608E-02  0.8847790E-01
         -2   -1    0    0    0  501 -0.00000000000E+00  0.00000000000E+00  0.59907642177E+03  0.59907642177E+03  0.00000000000E+00 0.  1.
          2   -1    0    0  501    0  0.00000000000E+00 -0.00000000000E+00 -0.10108807511E+04  0.10108807511E+04  0.00000000000E+00 0. -1.
         23    2    1    2    0    0  0.20412207783E+03 -0.38809944273E+03 -0.19065614123E+02  0.44981721006E+03  0.98412523194E+02 0.  0.
        254    2    1    2    0    0 -0.20412207783E+03  0.38809944273E+03 -0.39273871521E+03  0.11601399628E+04  0.99969697148E+03 0.  0.
        -24    2    4    4    0    0  0.26308772448E+03  0.79446465002E+02 -0.50773536207E+03  0.58283577552E+03  0.79846426027E+02 0.  0.
         24    2    4    4    0    0 -0.46720980231E+03  0.30865297773E+03  0.11499664687E+03  0.57730418729E+03  0.80648842791E+02 0.  0.
         13    1    3    3    0    0  0.13028978784E+02 -0.14314584987E+02 -0.22920167407E+02  0.29999928424E+02  0.00000000000E+00 0. -1.
        -13    1    3    3    0    0  0.19109309904E+03 -0.37378485774E+03  0.38545532841E+01  0.41981728163E+03  0.00000000000E+00 0.  1.
          4    1    6    6  502    0 -0.29092140802E+03  0.15777836042E+03  0.95474330343E+02  0.34444828990E+03  0.00000000000E+00 0. -1.
          1    1    5    5  503    0  0.25637826395E+03  0.90622463721E+02 -0.47104420296E+03  0.54389786385E+03  0.00000000000E+00 0. -1.
         -2    1    5    5    0  503  0.67094605288E+01 -0.11175998718E+02 -0.36691159117E+02  0.38937911671E+02  0.00000000000E+00 0.  1.
         -3    1    6    6    0  502 -0.17628839428E+03  0.15087461730E+03  0.19522316524E+02  0.23285589739E+03  0.00000000000E+00 0.  1.
<mgrwt>
<rscale>  0 0.15563995E+04</rscale>
<asrwt>0</asrwt>
<pdfrwt beam="1">  1        2 0.15552011E+00 0.15563995E+04</pdfrwt>
<pdfrwt beam="2">  1       -2 0.92165604E-01 0.15563995E+04</pdfrwt>
<totfact> 0.23857148E+01</totfact>
</mgrwt>
</event>
<event>
12    1  0.1495204E-007  0.3522569E+04  0.7818608E-02  0.8108462E-01
         -2   -1    0    0    0  501 -0.00000000000E+00  0.00000000000E+00  0.27100568265E+04  0.27100568265E+04  0.00000000000E+00 0.  1.
          2   -1    0    0  501    0  0.00000000000E+00 -0.00000000000E+00 -0.11446710431E+04  0.11446710431E+04  0.00000000000E+00 0. -1.
         23    2    1    2    0    0 -0.49869351309E+03 -0.86638843614E+03 -0.69785719037E+03  0.12226660327E+04  0.92646786190E+02 0.  0.
        254    2    1    2    0    0  0.49869351309E+03  0.86638843614E+03  0.22632429738E+04  0.26320618369E+04  0.89786224604E+03 0.  0.
        -24    2    4    4    0    0  0.51501165313E+03  0.97083406623E+03  0.22414971370E+04  0.24976684096E+04  0.79260848048E+02 0.  0.
         24    2    4    4    0    0 -0.16318140036E+02 -0.10444563009E+03  0.21745836778E+02  0.13439342736E+03  0.80084583805E+02 0.  0.
         11    1    3    3    0    0 -0.63044361183E+02 -0.16915755789E+03 -0.10249633782E+03  0.20759183543E+03  0.00000000000E+00 0.  1.
        -11    1    3    3    0    0 -0.43564915191E+03 -0.69723087825E+03 -0.59536085255E+03  0.10150741972E+04  0.00000000000E+00 0. -1.
          2    1    6    6  502    0  0.35976479607E+01 -0.10531950954E+03  0.66981411320E+00  0.10538306700E+03  0.00000000000E+00 0. -1.
          1    1    5    5  503    0  0.34355637248E+03  0.72238249464E+03  0.16376644663E+04  0.18225839771E+04  0.00000000000E+00 0. -1.
         -4    1    5    5    0  503  0.17145528065E+03  0.24845157159E+03  0.60383267071E+03  0.67508443243E+03  0.00000000000E+00 0.  1.
         -1    1    6    6    0  502 -0.19915787996E+02  0.87387945313E+00  0.21076022665E+02  0.29010360360E+02  0.00000000000E+00 0.  1.
<mgrwt>
<rscale>  0 0.35225693E+04</rscale>
<asrwt>0</asrwt>
<pdfrwt beam="1">  1        2 0.17610324E+00 0.35225693E+04</pdfrwt>
<pdfrwt beam="2">  1       -2 0.41693182E+00 0.35225693E+04</pdfrwt>
<totfact> 0.96286577E-02</totfact>
</mgrwt>
</event>
<event>
12    1  0.1495204E-007  0.3137275E+04  0.7818608E-02  0.8205582E-01
         -2   -1    0    0    0  501 -0.00000000000E+00  0.00000000000E+00  0.16926825640E+04  0.16926825640E+04  0.00000000000E+00 0.  1.
          2   -1    0    0  501    0  0.00000000000E+00 -0.00000000000E+00 -0.14536828239E+04  0.14536828239E+04  0.00000000000E+00 0. -1.
         23    2    1    2    0    0  0.92700547971E+03 -0.90158852868E+03 -0.51989250306E+03  0.13967067653E+04  0.91107294402E+02 0.  0.
        254    2    1    2    0    0 -0.92700547971E+03  0.90158852868E+03  0.75889224310E+03  0.17496586226E+04  0.90176872012E+03 0.  0.
        -24    2    4    4    0    0 -0.78279341298E+03  0.14275396700E+03  0.40445416820E+03  0.89614733968E+03  0.79703561672E+02 0.  0.
         24    2    4    4    0    0 -0.14421206672E+03  0.75883456168E+03  0.35443807489E+03  0.85351128292E+03  0.78918622342E+02 0.  0.
         13    1    3    3    0    0  0.48565844825E+03 -0.48440106177E+03 -0.32377052899E+03  0.75850897980E+03  0.00000000000E+00 0. -1.
        -13    1    3    3    0    0  0.44134703146E+03 -0.41718746691E+03 -0.19612197407E+03  0.63819778552E+03  0.00000000000E+00 0.  1.
          2    1    6    6  502    0 -0.13357868203E+03  0.75044833611E+03  0.34333598143E+03  0.83599974020E+03  0.00000000000E+00 0. -1.
          3    1    5    5  503    0 -0.44783285492E+03  0.43459042345E+02  0.24136334972E+03  0.51058713350E+03  0.00000000000E+00 0. -1.
         -4    1    5    5    0  503 -0.33496055806E+03  0.99294924650E+02  0.16309081848E+03  0.38556020618E+03  0.00000000000E+00 0.  1.
         -1    1    6    6    0  502 -0.10633384694E+02  0.83862255700E+01  0.11102093466E+02  0.17511542727E+02  0.00000000000E+00 0.  1.
<mgrwt>
<rscale>  0 0.31372750E+04</rscale>
<asrwt>0</asrwt>
<pdfrwt beam="1">  1        2 0.22364351E+00 0.31372750E+04</pdfrwt>
<pdfrwt beam="2">  1       -2 0.26041270E+00 0.31372750E+04</pdfrwt>
<totfact> 0.63312247E-01</totfact>
</mgrwt>
</event>
<event>
12    1  0.1495204E-007  0.2546480E+04  0.7818608E-02  0.8386611E-01
          2   -1    0    0  501    0  0.00000000000E+00  0.00000000000E+00  0.12495597614E+04  0.12495597614E+04  0.00000000000E+00 0.  1.
         -2   -1    0    0    0  501 -0.00000000000E+00 -0.00000000000E+00 -0.12973692330E+04  0.12973692330E+04  0.00000000000E+00 0. -1.
         23    2    1    2    0    0 -0.10377348144E+03 -0.13346173122E+03  0.10663460560E+04  0.10835491019E+04  0.91672111094E+02 0.  0.
        254    2    1    2    0    0  0.10377348144E+03  0.13346173122E+03 -0.11141555277E+04  0.14633798925E+04  0.93357227936E+03 0.  0.
        -24    2    4    4    0    0  0.15290122964E+03  0.19448641216E+03  0.73658180567E+02  0.27030439183E+03  0.80219611942E+02 0.  0.
         24    2    4    4    0    0 -0.49127748200E+02 -0.61024680935E+02 -0.11878137082E+04  0.11930755007E+04  0.79938710921E+02 0.  0.
         13    1    3    3    0    0 -0.10547537363E+03 -0.14568963993E+03  0.98851230979E+03  0.10047423114E+04  0.00000000000E+00 0.  1.
        -13    1    3    3    0    0  0.17018921926E+01  0.12227908701E+02  0.77833746247E+02  0.78806790589E+02  0.00000000000E+00 0. -1.
          4    1    6    6  502    0 -0.52482817032E+02 -0.69701370327E+02 -0.73416775724E+03  0.73933417538E+03  0.00000000000E+00 0. -1.
          1    1    5    5  503    0  0.12304541161E+03  0.11851195215E+03  0.18610511219E+02  0.17184762800E+03  0.00000000000E+00 0. -1.
         -2    1    5    5    0  503  0.29855818025E+02  0.75974460012E+02  0.55047669348E+02  0.98456763834E+02  0.00000000000E+00 0.  1.
         -3    1    6    6    0  502  0.33550688319E+01  0.86766893922E+01 -0.45364595098E+03  0.45374132528E+03  0.00000000000E+00 0.  1.
<mgrwt>
<rscale>  0 0.25464802E+04</rscale>
<asrwt>0</asrwt>
<pdfrwt beam="1">  1        2 0.19223996E+00 0.25464802E+04</pdfrwt>
<pdfrwt beam="2">  1       -2 0.19959527E+00 0.25464802E+04</pdfrwt>
<totfact> 0.21042209E+00</totfact>
</mgrwt>
</event>
<event>
12    1  0.1495204E-007  0.3858884E+04  0.7818608E-02  0.8033635E-01
          2   -1    0    0  501    0  0.00000000000E+00  0.00000000000E+00  0.27840414597E+04  0.27840414597E+04  0.00000000000E+00 0. -1.
         -2   -1    0    0    0  501 -0.00000000000E+00 -0.00000000000E+00 -0.13371738317E+04  0.13371738317E+04  0.00000000000E+00 0.  1.
         23    2    1    2    0    0 -0.58865218787E+03 -0.77849490135E+03 -0.95408436537E+03  0.13678436045E+04  0.90296403713E+02 0.  0.
        254    2    1    2    0    0  0.58865218787E+03  0.77849490135E+03  0.24009519934E+04  0.27533716868E+04  0.92947267929E+03 0.  0.
        -24    2    4    4    0    0  0.45520406525E+03  0.97335001438E+03  0.17379009880E+04  0.20448388561E+04  0.80281454600E+02 0.  0.
         24    2    4    4    0    0  0.13344812262E+03 -0.19485511304E+03  0.66305100542E+03  0.70853283071E+03  0.81272504029E+02 0.  0.
         11    1    3    3    0    0 -0.43941296855E+03 -0.56362910163E+03 -0.64278557386E+03  0.96121528030E+03  0.00000000000E+00 0.  1.
        -11    1    3    3    0    0 -0.14923921933E+03 -0.21486579972E+03 -0.31129879151E+03  0.40662832423E+03  0.00000000000E+00 0. -1.
          2    1    6    6  502    0  0.87566247728E+02 -0.11914824853E+03  0.29497758764E+03  0.32996352841E+03  0.00000000000E+00 0. -1.
          1    1    5    5  503    0  0.39396489724E+03  0.79766616104E+03  0.13903422290E+04  0.16506153878E+04  0.00000000000E+00 0. -1.
         -2    1    5    5    0  503  0.61239168006E+02  0.17568385334E+03  0.34755875897E+03  0.39422346831E+03  0.00000000000E+00 0.  1.
         -1    1    6    6    0  502  0.45881874894E+02 -0.75706864506E+02  0.36807341778E+03  0.37856930231E+03  0.00000000000E+00 0.  1.
<mgrwt>
<rscale>  0 0.38588845E+04</rscale>
<asrwt>0</asrwt>
<pdfrwt beam="1">  1        2 0.42831407E+00 0.38588845E+04</pdfrwt>
<pdfrwt beam="2">  1       -2 0.20571905E+00 0.38588845E+04</pdfrwt>
<totfact> 0.23018277E-01</totfact>
</mgrwt>
</event>
<event>
12    1  0.1872448E-007  0.1411143E+04  0.7818608E-02  0.8945792E-01
          3   -1    0    0  501    0  0.00000000000E+00  0.00000000000E+00  0.72642460767E+03  0.72642460767E+03  0.00000000000E+00 0. -1.
         -3   -1    0    0    0  501 -0.00000000000E+00 -0.00000000000E+00 -0.68531722914E+03  0.68531722914E+03  0.00000000000E+00 0.  1.
         23    2    1    2    0    0  0.31296875869E+03  0.22470335014E+03 -0.15107660020E+03  0.42366337943E+03  0.90694434564E+02 0.  0.
        254    2    1    2    0    0 -0.31296875869E+03 -0.22470335014E+03  0.19218397873E+03  0.98807845738E+03  0.88933869633E+03 0.  0.
        -24    2    4    4    0    0 -0.35640599665E+02 -0.53459642452E+03  0.15026027362E+03  0.56214666907E+03  0.79794349825E+02 0.  0.
         24    2    4    4    0    0 -0.27732815903E+03  0.30989307439E+03  0.41923705115E+02  0.42593178831E+03  0.81949166571E+02 0.  0.
         11    1    3    3    0    0  0.30373300249E+02  0.27358390468E+02  0.11642405994E+02  0.42503700008E+02  0.00000000000E+00 0. -1.
        -11    1    3    3    0    0  0.28259545844E+03  0.19734495967E+03 -0.16271900620E+03  0.38115967942E+03  0.00000000000E+00 0.  1.
          2    1    6    6  502    0 -0.87395288185E+01 -0.45524919057E+01 -0.20325275358E+01  0.10061596032E+02  0.00000000000E+00 0. -1.
          1    1    5    5  503    0 -0.18483335732E+02 -0.38741292579E+02  0.27683760580E+02  0.51077510221E+02  0.00000000000E+00 0. -1.
         -2    1    5    5    0  503 -0.17157263932E+02 -0.49585513194E+03  0.12257651304E+03  0.51106915885E+03  0.00000000000E+00 0.  1.
         -1    1    6    6    0  502 -0.26858863021E+03  0.31444556629E+03  0.43956232651E+02  0.41587019228E+03  0.00000000000E+00 0.  1.
<mgrwt>
<rscale>  0 0.14111432E+04</rscale>
<asrwt>0</asrwt>
<pdfrwt beam="1">  1        3 0.11175763E+00 0.14111432E+04</pdfrwt>
<pdfrwt beam="2">  1       -3 0.10543342E+00 0.14111432E+04</pdfrwt>
<totfact> 0.13216102E+00</totfact>
</mgrwt>
</event>
<event>
12    1  0.1495204E-007  0.1593251E+04  0.7818608E-02  0.8824705E-01
          1   -1    0    0  501    0  0.00000000000E+00  0.00000000000E+00  0.14920294518E+04  0.14920294518E+04  0.00000000000E+00 0. -1.
         -1   -1    0    0    0  501 -0.00000000000E+00 -0.00000000000E+00 -0.42533513108E+03  0.42533513108E+03  0.00000000000E+00 0.  1.
         23    2    1    2    0    0 -0.31393992325E+03 -0.26680667289E+03 -0.81409726154E+02  0.43022995513E+03  0.93414103142E+02 0.  0.
        254    2    1    2    0    0  0.31393992325E+03  0.26680667289E+03  0.11481040469E+04  0.14871346277E+04  0.85069525830E+03 0.  0.
        -24    2    4    4    0    0 -0.19476970177E+03  0.14499011672E+03  0.83391047365E+03  0.87169591586E+03  0.74092651420E+02 0.  0.
         24    2    4    4    0    0  0.50870962503E+03  0.12181655617E+03  0.31419357323E+03  0.61543871189E+03  0.80140193931E+02 0.  0.
         13    1    3    3    0    0 -0.54629339639E+02 -0.93907276098E+02 -0.40247203652E+02  0.11585671606E+03  0.00000000000E+00 0. -1.
        -13    1    3    3    0    0 -0.25931058361E+03 -0.17289939679E+03 -0.41162522501E+02  0.31437323907E+03  0.00000000000E+00 0.  1.
          2    1    6    6  502    0  0.36662922345E+03  0.12258056138E+03  0.21734937464E+03  0.44349039694E+03  0.00000000000E+00 0. -1.
          3    1    5    5  503    0 -0.17000833051E+03  0.14897368126E+03  0.70443959798E+03  0.73981831374E+03  0.00000000000E+00 0. -1.
         -4    1    5    5    0  503 -0.24761371269E+02 -0.39835645477E+01  0.12947087567E+03  0.13187760212E+03  0.00000000000E+00 0.  1.
         -1    1    6    6    0  502  0.14208040157E+03 -0.76400520950E+00  0.96844198594E+02  0.17194831496E+03  0.00000000000E+00 0.  1.
<mgrwt>
<rscale>  0 0.15932514E+04</rscale>
<asrwt>0</asrwt>
<pdfrwt beam="1">  1        1 0.22954299E+00 0.15932514E+04</pdfrwt>
<pdfrwt beam="2">  1       -1 0.65436174E-01 0.15932514E+04</pdfrwt>
<totfact> 0.15058564E+01</totfact>
</mgrwt>
</event>
<event>
12    1  0.1495204E-007  0.2359780E+04  0.7818608E-02  0.8454716E-01
          2   -1    0    0  501    0  0.00000000000E+00  0.00000000000E+00  0.17170288600E+04  0.17170288600E+04  0.00000000000E+00 0. -1.
         -2   -1    0    0    0  501 -0.00000000000E+00 -0.00000000000E+00 -0.81078485042E+03  0.81078485042E+03  0.00000000000E+00 0.  1.
         23    2    1    2    0    0 -0.14076490963E+03 -0.48032107757E+03  0.13265089817E+04  0.14207765582E+04  0.91961145714E+02 0.  0.
        254    2    1    2    0    0  0.14076490963E+03  0.48032107757E+03 -0.42026497211E+03  0.11070371523E+04  0.89352420921E+03 0.  0.
        -24    2    4    4    0    0 -0.12773644187E+03  0.10424965462E+03  0.23770167341E+03  0.29910528297E+03  0.76008523791E+02 0.  0.
         24    2    4    4    0    0  0.26850135150E+03  0.37607142295E+03 -0.65796664552E+03  0.80793186932E+03  0.79442481880E+02 0.  0.
         11    1    3    3    0    0 -0.30058430640E+02 -0.14055869056E+03  0.27653416512E+03  0.31165910740E+03  0.00000000000E+00 0.  1.
        -11    1    3    3    0    0 -0.11070647899E+03 -0.33976238701E+03  0.10499748166E+04  0.11091174508E+04  0.00000000000E+00 0. -1.
          2    1    6    6  502    0  0.82130583165E+02  0.59408026276E+02 -0.14777698388E+03  0.17920039967E+03  0.00000000000E+00 0. -1.
          1    1    5    5  503    0 -0.15105411472E+02  0.53260460532E+02  0.51606936591E+02  0.75684384229E+02  0.00000000000E+00 0. -1.
         -2    1    5    5    0  503 -0.11263103040E+03  0.50989194084E+02  0.18609473682E+03  0.22342089874E+03  0.00000000000E+00 0.  1.
         -1    1    6    6    0  502  0.18637076833E+03  0.31666339668E+03 -0.51018966164E+03  0.62873146965E+03  0.00000000000E+00 0.  1.
<mgrwt>
<rscale>  0 0.23597805E+04</rscale>
<asrwt>0</asrwt>
<pdfrwt beam="1">  1        2 0.26415829E+00 0.23597805E+04</pdfrwt>
<pdfrwt beam="2">  1       -2 0.12473613E+00 0.23597805E+04</pdfrwt>
<totfact> 0.41733505E+00</totfact>
</mgrwt>
</event>
<event>
12    1  0.1495204E-007  0.3685544E+04  0.7818608E-02  0.8071173E-01
          2   -1    0    0  501    0  0.00000000000E+00  0.00000000000E+00  0.45931725732E+04  0.45931725732E+04  0.00000000000E+00 0. -1.
         -2   -1    0    0    0  501 -0.00000000000E+00 -0.00000000000E+00 -0.73931642187E+03  0.73931642187E+03  0.00000000000E+00 0.  1.
         23    2    1    2    0    0  0.33465480551E+03 -0.10117478584E+04 -0.15803898916E+03  0.10820510745E+04  0.10114661565E+03 0.  0.
        254    2    1    2    0    0 -0.33465480551E+03  0.10117478584E+04  0.40118951405E+04  0.42504379206E+04  0.91394328620E+03 0.  0.
        -24    2    4    4    0    0  0.13930497372E+03  0.82028955498E+03  0.29948056653E+04  0.31092924063E+04  0.80978176439E+02 0.  0.
         24    2    4    4    0    0 -0.47395977923E+03  0.19145830346E+03  0.10170894752E+04  0.11411455143E+04  0.80299003481E+02 0.  0.
         11    1    3    3    0    0  0.20089018809E+03 -0.73568499708E+03 -0.90812259356E+02  0.76800790949E+03  0.00000000000E+00 0.  1.
        -11    1    3    3    0    0  0.13376461741E+03 -0.27606286136E+03 -0.67226729805E+02  0.31404316502E+03  0.00000000000E+00 0. -1.
          4    1    6    6  502    0 -0.13021675553E+02  0.85838269891E+01  0.74038740277E+02  0.75663605397E+02  0.00000000000E+00 0. -1.
          1    1    5    5  503    0  0.83378553871E+01  0.48680446023E+02  0.26247494664E+03  0.26708126716E+03  0.00000000000E+00 0. -1.
         -2    1    5    5    0  503  0.13096711834E+03  0.77160910896E+03  0.27323307187E+04  0.28422111391E+04  0.00000000000E+00 0.  1.
         -3    1    6    6    0  502 -0.46093810368E+03  0.18287447647E+03  0.94305073491E+03  0.10654819089E+04  0.00000000000E+00 0.  1.
<mgrwt>
<rscale>  0 0.36855436E+04</rscale>
<asrwt>0</asrwt>
<pdfrwt beam="1">  1        2 0.70664191E+00 0.36855436E+04</pdfrwt>
<pdfrwt beam="2">  1       -2 0.11374099E+00 0.36855436E+04</pdfrwt>
<totfact> 0.48373914E-02</totfact>
</mgrwt>
</event>
<event>
12    1  0.1495204E-007  0.1400130E+04  0.7818608E-02  0.8953725E-01
          1   -1    0    0  501    0  0.00000000000E+00  0.00000000000E+00  0.11404571321E+04  0.11404571321E+04  0.00000000000E+00 0. -1.
         -1   -1    0    0    0  501 -0.00000000000E+00 -0.00000000000E+00 -0.42973183823E+03  0.42973183823E+03  0.00000000000E+00 0.  1.
         23    2    1    2    0    0 -0.16192854682E+03 -0.19064560500E+03 -0.15782989375E+03  0.30956056444E+03  0.91383076733E+02 0.  0.
        254    2    1    2    0    0  0.16192854682E+03  0.19064560500E+03  0.86855518761E+03  0.12606284059E+04  0.87876576108E+03 0.  0.
        -24    2    4    4    0    0  0.25818534496E+03  0.50446717767E+03  0.49521437978E+03  0.75684132931E+03  0.80154289439E+02 0.  0.
         24    2    4    4    0    0 -0.96256798134E+02 -0.31382157267E+03  0.37334080783E+03  0.50378707658E+03  0.81662164303E+02 0.  0.
         13    1    3    3    0    0 -0.34936405952E+02 -0.10453516789E+03 -0.87731163516E+02  0.14087196612E+03  0.00000000000E+00 0.  1.
        -13    1    3    3    0    0 -0.12699214087E+03 -0.86110437104E+02 -0.70098730232E+02  0.16868859831E+03  0.00000000000E+00 0. -1.
          4    1    6    6  502    0 -0.32139532541E+02 -0.20765770043E+02  0.43112359499E+02  0.57644100297E+02  0.00000000000E+00 0. -1.
          1    1    5    5  503    0  0.35023210786E+02  0.28852793620E+02  0.25156801459E+02  0.51884233184E+02  0.00000000000E+00 0. -1.
         -2    1    5    5    0  503  0.22316213417E+03  0.47561438405E+03  0.47005757832E+03  0.70495709613E+03  0.00000000000E+00 0.  1.
         -3    1    6    6    0  502 -0.64117265593E+02 -0.29305580263E+03  0.33022844833E+03  0.44614297628E+03  0.00000000000E+00 0.  1.
<mgrwt>
<rscale>  0 0.14001296E+04</rscale>
<asrwt>0</asrwt>
<pdfrwt beam="1">  1        1 0.17545494E+00 0.14001296E+04</pdfrwt>
<pdfrwt beam="2">  1       -1 0.66112591E-01 0.14001296E+04</pdfrwt>
<totfact> 0.26732888E+01</totfact>
</mgrwt>
</event>
<event>
12    1  0.1495204E-007  0.2308248E+04  0.7818608E-02  0.8474676E-01
         -2   -1    0    0    0  501 -0.00000000000E+00  0.00000000000E+00  0.11534786897E+04  0.11534786897E+04  0.00000000000E+00 0.  1.
          2   -1    0    0  501    0  0.00000000000E+00 -0.00000000000E+00 -0.11547696124E+04  0.11547696124E+04  0.00000000000E+00 0. -1.
         23    2    1    2    0    0  0.22828701519E+03  0.86822110530E+03 -0.39510871911E+03  0.98501026492E+03  0.90617178763E+02 0.  0.
        254    2    1    2    0    0 -0.22828701519E+03 -0.86822110530E+03  0.39381779633E+03  0.13232380372E+04  0.88878771219E+03 0.  0.
        -24    2    4    4    0    0 -0.28327829890E+03 -0.73658645400E+03 -0.10328933575E+03  0.79980273124E+03  0.78800527800E+02 0.  0.
         24    2    4    4    0    0  0.54991283702E+02 -0.13163465130E+03  0.49710713208E+03  0.52343530594E+03  0.80729771625E+02 0.  0.
         11    1    3    3    0    0  0.22255772915E+03  0.73654648684E+03 -0.35387015876E+03  0.84691012471E+03  0.00000000000E+00 0. -1.
        -11    1    3    3    0    0  0.57292860414E+01  0.13167461846E+03 -0.41238560346E+02  0.13810014021E+03  0.00000000000E+00 0.  1.
          2    1    6    6  502    0 -0.39297288520E+01 -0.93591409525E+02  0.27480212004E+03  0.29032912338E+03  0.00000000000E+00 0. -1.
          3    1    5    5  503    0 -0.27200837920E+03 -0.70160410082E+03 -0.11501162940E+03  0.76122568765E+03  0.00000000000E+00 0. -1.
         -4    1    5    5    0  503 -0.11269919699E+02 -0.34982353176E+02  0.11722293647E+02  0.38577043589E+02  0.00000000000E+00 0.  1.
         -1    1    6    6    0  502  0.58921012554E+02 -0.38043241775E+02  0.22230501204E+03  0.23310618255E+03  0.00000000000E+00 0.  1.
<mgrwt>
<rscale>  0 0.23082479E+04</rscale>
<asrwt>0</asrwt>
<pdfrwt beam="1">  1        2 0.17765686E+00 0.23082479E+04</pdfrwt>
<pdfrwt beam="2">  1       -2 0.17745826E+00 0.23082479E+04</pdfrwt>
<totfact> 0.34504834E+00</totfact>
</mgrwt>
</event>
<event>
12    1  0.1495204E-007  0.1612616E+04  0.7818608E-02  0.8812835E-01
         -2   -1    0    0    0  501 -0.00000000000E+00  0.00000000000E+00  0.29602407256E+03  0.29602407256E+03  0.00000000000E+00 0.  1.
          2   -1    0    0  501    0  0.00000000000E+00 -0.00000000000E+00 -0.21962151024E+04  0.21962151024E+04  0.00000000000E+00 0. -1.
         23    2    1    2    0    0 -0.52014456051E+03 -0.17922491691E+03 -0.54162663574E+03  0.77777507037E+03  0.94354188429E+02 0.  0.
        254    2    1    2    0    0  0.52014456051E+03  0.17922491691E+03 -0.13585643942E+04  0.17144641046E+04  0.88939193743E+03 0.  0.
        -24    2    4    4    0    0  0.10526403608E+03  0.45192193465E+02 -0.12511448389E+04  0.12589395406E+04  0.80265231915E+02 0.  0.
         24    2    4    4    0    0  0.41488052443E+03  0.13403272344E+03 -0.10741955529E+03  0.45552456403E+03  0.76635808014E+02 0.  0.
         11    1    3    3    0    0 -0.38254684527E+03 -0.11526485234E+03 -0.44423553865E+03  0.59747241678E+03  0.00000000000E+00 0. -1.
        -11    1    3    3    0    0 -0.13759771524E+03 -0.63960064569E+02 -0.97391097086E+02  0.18030265359E+03  0.00000000000E+00 0.  1.
          4    1    6    6  502    0 -0.15059077633E+01  0.39397219885E+01  0.34172153219E+01  0.54283080323E+01  0.00000000000E+00 0. -1.
          1    1    5    5  503    0  0.80821722238E+02 -0.77869461048E+01 -0.68459423566E+03  0.68939252594E+03  0.00000000000E+00 0. -1.
         -2    1    5    5    0  503  0.24442313838E+02  0.52979139570E+02 -0.56655060320E+03  0.56954701467E+03  0.00000000000E+00 0.  1.
         -3    1    6    6    0  502  0.41638643220E+03  0.13009300145E+03 -0.11083677061E+03  0.45009625600E+03  0.00000000000E+00 0.  1.
<mgrwt>
<rscale>  0 0.16126159E+04</rscale>
<asrwt>0</asrwt>
<pdfrwt beam="1">  1        2 0.33787926E+00 0.16126159E+04</pdfrwt>
<pdfrwt beam="2">  1       -2 0.45542164E-01 0.16126159E+04</pdfrwt>
<totfact> 0.22745538E+01</totfact>
</mgrwt>
</event>
<event>
12    1  0.1495204E-007  0.1632268E+04  0.7818608E-02  0.8800966E-01
         -1   -1    0    0    0  501 -0.00000000000E+00  0.00000000000E+00  0.67210853728E+03  0.67210853728E+03  0.00000000000E+00 0.  1.
          1   -1    0    0  501    0  0.00000000000E+00 -0.00000000000E+00 -0.99102221452E+03  0.99102221452E+03  0.00000000000E+00 0. -1.
         23    2    1    2    0    0 -0.67116121608E+02 -0.24852544366E+02 -0.67480487343E+03  0.68487061802E+03  0.92541468976E+02 0.  0.
        254    2    1    2    0    0  0.67116121608E+02  0.24852544366E+02  0.35589119619E+03  0.97826013378E+03  0.90841186863E+03 0.  0.
        -24    2    4    4    0    0 -0.25963973441E+03  0.31482616157E+03  0.33359865810E+03  0.53343095777E+03  0.82050096438E+02 0.  0.
         24    2    4    4    0    0  0.32675585602E+03 -0.28997361721E+03  0.22292538096E+02  0.44482917601E+03  0.80758593699E+02 0.  0.
         11    1    3    3    0    0 -0.59936905616E+02  0.25901525965E+02 -0.40699851370E+03  0.41220275576E+03  0.00000000000E+00 0. -1.
        -11    1    3    3    0    0 -0.71792159926E+01 -0.50754070330E+02 -0.26780635973E+03  0.27266786226E+03  0.00000000000E+00 0.  1.
          2    1    6    6  502    0  0.23011450974E+03 -0.19668778734E+03 -0.21681522303E+02  0.30349441789E+03  0.00000000000E+00 0. -1.
          3    1    5    5  503    0 -0.14492112503E+03  0.22123662141E+03  0.17888993894E+03  0.31929513837E+03  0.00000000000E+00 0. -1.
         -4    1    5    5    0  503 -0.11471860938E+03  0.93589540167E+02  0.15470871916E+03  0.21413581940E+03  0.00000000000E+00 0.  1.
         -1    1    6    6    0  502  0.96641346277E+02 -0.93285829867E+02  0.43974060399E+02  0.14133475812E+03  0.00000000000E+00 0.  1.
<mgrwt>
<rscale>  0 0.16322677E+04</rscale>
<asrwt>0</asrwt>
<pdfrwt beam="1">  1        1 0.15246496E+00 0.16322677E+04</pdfrwt>
<pdfrwt beam="2">  1       -1 0.10340131E+00 0.16322677E+04</pdfrwt>
<totfact> 0.12987820E+01</totfact>
</mgrwt>
</event>
<event>
12    1  0.1495204E-007  0.2571784E+04  0.7818608E-02  0.8377849E-01
         -1   -1    0    0    0  501 -0.00000000000E+00  0.00000000000E+00  0.64370587200E+03  0.64370587200E+03  0.00000000000E+00 0.  1.
          1   -1    0    0  501    0  0.00000000000E+00 -0.00000000000E+00 -0.25687478706E+04  0.25687478706E+04  0.00000000000E+00 0. -1.
         23    2    1    2    0    0 -0.97795366727E+03  0.19954998538E+03 -0.18958784765E+03  0.10199391731E+04  0.90104343798E+02 0.  0.
        254    2    1    2    0    0  0.97795366727E+03 -0.19954998538E+03 -0.17354541509E+04  0.21925145695E+04  0.89392698560E+03 0.  0.
        -24    2    4    4    0    0  0.74381533986E+03 -0.29216211690E+03 -0.17526970569E+04  0.19278474437E+04  0.77645543632E+02 0.  0.
         24    2    4    4    0    0  0.23413832741E+03  0.92612131521E+02  0.17242906000E+02  0.26466712582E+03  0.79709512711E+02 0.  0.
         11    1    3    3    0    0 -0.93439226136E+03  0.19904155929E+03 -0.16374925637E+03  0.96928853258E+03  0.00000000000E+00 0.  1.
        -11    1    3    3    0    0 -0.43561405902E+02  0.50842608288E+00 -0.25838591286E+02  0.50650640478E+02  0.00000000000E+00 0. -1.
          4    1    6    6  502    0  0.10699814835E+03  0.85001310285E+02  0.12276801978E+02  0.13720257420E+03  0.00000000000E+00 0. -1.
          1    1    5    5  503    0  0.19580182533E+03 -0.11442206189E+03 -0.49458360146E+03  0.54409898170E+03  0.00000000000E+00 0. -1.
         -2    1    5    5    0  503  0.54801351453E+03 -0.17774005501E+03 -0.12581134555E+04  0.13837484620E+04  0.00000000000E+00 0.  1.
         -3    1    6    6    0  502  0.12714017905E+03  0.76108212365E+01  0.49661040218E+01  0.12746455162E+03  0.00000000000E+00 0.  1.
<mgrwt>
<rscale>  0 0.25717839E+04</rscale>
<asrwt>0</asrwt>
<pdfrwt beam="1">  1        1 0.39519198E+00 0.25717839E+04</pdfrwt>
<pdfrwt beam="2">  1       -1 0.99031673E-01 0.25717839E+04</pdfrwt>
<totfact> 0.10436381E+00</totfact>
</mgrwt>
</event>
<event>
12    1  0.1495204E-007  0.1770546E+04  0.7818608E-02  0.8722121E-01
          1   -1    0    0  501    0  0.00000000000E+00  0.00000000000E+00  0.21984575446E+04  0.21984575446E+04  0.00000000000E+00 0. -1.
         -1   -1    0    0    0  501 -0.00000000000E+00 -0.00000000000E+00 -0.35648100027E+03  0.35648100027E+03  0.00000000000E+00 0.  1.
         23    2    1    2    0    0 -0.30931975793E+02 -0.32340322940E+03 -0.12946265493E+03  0.36164984177E+03  0.92106422767E+02 0.  0.
        254    2    1    2    0    0  0.30931975793E+02  0.32340322940E+03  0.19714391993E+04  0.21932887031E+04  0.90465263105E+03 0.  0.
        -24    2    4    4    0    0 -0.20781676181E+03  0.14465687974E+03  0.80064202626E+02  0.27688477958E+03  0.78367629002E+02 0.  0.
         24    2    4    4    0    0  0.23874873760E+03  0.17874634966E+03  0.18913749967E+04  0.19164039236E+04  0.79708236440E+02 0.  0.
         13    1    3    3    0    0 -0.24039059267E+02 -0.19957205613E+03 -0.12666780755E+03  0.23759548697E+03  0.00000000000E+00 0.  1.
        -13    1    3    3    0    0 -0.68929165258E+01 -0.12383117328E+03 -0.27948473774E+01  0.12405435480E+03  0.00000000000E+00 0. -1.
          2    1    6    6  502    0  0.72545063240E+02  0.91502699841E+02  0.57745746863E+03  0.58914570215E+03  0.00000000000E+00 0. -1.
          3    1    5    5  503    0 -0.66866587710E+02  0.18373589758E+02 -0.47372085967E+01  0.69506621972E+02  0.00000000000E+00 0. -1.
         -4    1    5    5    0  503 -0.14095017410E+03  0.12628328999E+03  0.84801411222E+02  0.20737815761E+03  0.00000000000E+00 0.  1.
         -1    1    6    6    0  502  0.16620367436E+03  0.87243649820E+02  0.13139175280E+04  0.13272582214E+04  0.00000000000E+00 0.  1.
<mgrwt>
<rscale>  0 0.17705461E+04</rscale>
<asrwt>0</asrwt>
<pdfrwt beam="1">  1        1 0.33822423E+00 0.17705461E+04</pdfrwt>
<pdfrwt beam="2">  1       -1 0.54843232E-01 0.17705461E+04</pdfrwt>
<totfact> 0.69437460E+00</totfact>
</mgrwt>
</event>
<event>
12    1  0.1495204E-007  0.1487038E+04  0.7818608E-02  0.8893118E-01
          2   -1    0    0  501    0  0.00000000000E+00  0.00000000000E+00  0.26768849527E+04  0.26768849527E+04  0.00000000000E+00 0. -1.
         -2   -1    0    0    0  501 -0.00000000000E+00 -0.00000000000E+00 -0.20651642548E+03  0.20651642548E+03  0.00000000000E+00 0.  1.
         23    2    1    2    0    0 -0.60425194875E+02 -0.29167590143E+03  0.14718935100E+04  0.15044807781E+04  0.90916836279E+02 0.  0.
        254    2    1    2    0    0  0.60425194875E+02  0.29167590143E+03  0.99847501717E+03  0.13789206001E+04  0.90318526656E+03 0.  0.
        -24    2    4    4    0    0 -0.11639576838E+02  0.58228227231E+03  0.41938224813E+03  0.72217442875E+03  0.80413376369E+02 0.  0.
         24    2    4    4    0    0  0.72064771713E+02 -0.29060637087E+03  0.57909276903E+03  0.65674617132E+03  0.79509145876E+02 0.  0.
         13    1    3    3    0    0 -0.14805102223E+02 -0.17267376319E+02  0.26361359124E+03  0.26459304380E+03  0.00000000000E+00 0.  1.
        -13    1    3    3    0    0 -0.45620092652E+02 -0.27440852511E+03  0.12082799188E+04  0.12398877343E+04  0.00000000000E+00 0. -1.
          2    1    6    6  502    0 -0.11403539485E+02 -0.54560519609E+01  0.21921082883E+02  0.25305001295E+02  0.00000000000E+00 0. -1.
          1    1    5    5  503    0  0.22030711381E+02  0.79886057716E+02  0.78251588609E+02  0.11397563591E+03  0.00000000000E+00 0. -1.
         -2    1    5    5    0  503 -0.33670288218E+02  0.50239621459E+03  0.34113065952E+03  0.60819879284E+03  0.00000000000E+00 0.  1.
         -1    1    6    6    0  502  0.83468311198E+02 -0.28515031891E+03  0.55717168615E+03  0.63144117002E+03  0.00000000000E+00 0.  1.
<mgrwt>
<rscale>  0 0.14870383E+04</rscale>
<asrwt>0</asrwt>
<pdfrwt beam="1">  1        2 0.41182843E+00 0.14870383E+04</pdfrwt>
<pdfrwt beam="2">  1       -2 0.31771760E-01 0.14870383E+04</pdfrwt>
<totfact> 0.24513128E+01</totfact>
</mgrwt>
</event>
<event>
12    1  0.1495204E-007  0.1651064E+04  0.7818608E-02  0.8789777E-01
          1   -1    0    0  501    0  0.00000000000E+00  0.00000000000E+00  0.14229500148E+04  0.14229500148E+04  0.00000000000E+00 0. -1.
         -1   -1    0    0    0  501 -0.00000000000E+00 -0.00000000000E+00 -0.47893684289E+03  0.47893684289E+03  0.00000000000E+00 0.  1.
         23    2    1    2    0    0  0.30073233063E+03 -0.49533863680E+02  0.89503987677E+03  0.95003159060E+03  0.92574855087E+02 0.  0.
        254    2    1    2    0    0 -0.30073233063E+03  0.49533863680E+02  0.48973295087E+02  0.95185526704E+03  0.90040908893E+03 0.  0.
        -24    2    4    4    0    0  0.86779185716E+02  0.40112685167E+03  0.58475946809E+02  0.42217461332E+03  0.79866072702E+02 0.  0.
         24    2    4    4    0    0 -0.38751151634E+03 -0.35159298799E+03 -0.95026517218E+01  0.52968065373E+03  0.81783189221E+02 0.  0.
         13    1    3    3    0    0  0.25352311499E+02 -0.20340509099E+02  0.41626787558E+02  0.52813496866E+02  0.00000000000E+00 0.  1.
        -13    1    3    3    0    0  0.27538001913E+03 -0.29193354580E+02  0.85341308922E+03  0.89721809374E+03  0.00000000000E+00 0. -1.
          2    1    6    6  502    0 -0.17612362992E+03 -0.13385698429E+03 -0.39556946349E+02  0.22472644985E+03  0.00000000000E+00 0. -1.
          1    1    5    5  503    0  0.76234207071E+02  0.29785718417E+03  0.76457202128E+02  0.31682212714E+03  0.00000000000E+00 0. -1.
         -2    1    5    5    0  503  0.10544978646E+02  0.10326966750E+03 -0.17981255319E+02  0.10535248617E+03  0.00000000000E+00 0.  1.
         -1    1    6    6    0  502 -0.21138788643E+03 -0.21773600370E+03  0.30054294628E+02  0.30495420388E+03  0.00000000000E+00 0.  1.
<mgrwt>
<rscale>  0 0.16510641E+04</rscale>
<asrwt>0</asrwt>
<pdfrwt beam="1">  1        1 0.21891539E+00 0.16510641E+04</pdfrwt>
<pdfrwt beam="2">  1       -1 0.73682592E-01 0.16510641E+04</pdfrwt>
<totfact> 0.13123909E+01</totfact>
</mgrwt>
</event>
<event>
12    1  0.1495204E-007  0.3546396E+04  0.7818608E-02  0.8102882E-01
          2   -1    0    0  501    0  0.00000000000E+00  0.00000000000E+00  0.23188765656E+04  0.23188765656E+04  0.00000000000E+00 0. -1.
         -2   -1    0    0    0  501 -0.00000000000E+00 -0.00000000000E+00 -0.13559287915E+04  0.13559287915E+04  0.00000000000E+00 0.  1.
         23    2    1    2    0    0  0.34448431470E+03  0.16181645906E+04  0.57513314739E+03  0.17539256041E+04  0.91382724007E+02 0.  0.
        254    2    1    2    0    0 -0.34448431470E+03 -0.16181645906E+04  0.38781462675E+03  0.19208797530E+04  0.89568563435E+03 0.  0.
        -24    2    4    4    0    0 -0.39143619170E+03 -0.16958368002E+04  0.29048551220E+03  0.17662682097E+04  0.78973481292E+02 0.  0.
         24    2    4    4    0    0  0.46951876995E+02  0.77672209637E+02  0.97329114544E+02  0.15461154330E+03  0.78704014381E+02 0.  0.
         13    1    3    3    0    0  0.19624887414E+03  0.11193280995E+04  0.40544448828E+03  0.12065629897E+04  0.00000000000E+00 0.  1.
        -13    1    3    3    0    0  0.14823544056E+03  0.49883649106E+03  0.16968865910E+03  0.54736261443E+03  0.00000000000E+00 0. -1.
          2    1    6    6  502    0  0.62123772246E+02  0.82603774738E+02  0.77636744633E+02  0.12926798055E+03  0.00000000000E+00 0. -1.
          3    1    5    5  503    0 -0.35130337038E+03 -0.16023848917E+04  0.27722983934E+03  0.16637030333E+04  0.00000000000E+00 0. -1.
         -4    1    5    5    0  503 -0.40132821312E+02 -0.93451908499E+02  0.13255672863E+02  0.10256517641E+03  0.00000000000E+00 0.  1.
         -1    1    6    6    0  502 -0.15171895252E+02 -0.49315651011E+01  0.19692369911E+02  0.25343562744E+02  0.00000000000E+00 0.  1.
<mgrwt>
<rscale>  0 0.35463962E+04</rscale>
<asrwt>0</asrwt>
<pdfrwt beam="1">  1        2 0.35675024E+00 0.35463962E+04</pdfrwt>
<pdfrwt beam="2">  1       -2 0.20860443E+00 0.35463962E+04</pdfrwt>
<totfact> 0.42327779E-01</totfact>
</mgrwt>
</event>
<event>
12    1  0.1495204E-007  0.3320096E+04  0.7818608E-02  0.8157801E-01
          2   -1    0    0  501    0  0.00000000000E+00  0.00000000000E+00  0.43103561569E+04  0.43103561569E+04  0.00000000000E+00 0. -1.
         -2   -1    0    0    0  501 -0.00000000000E+00 -0.00000000000E+00 -0.63933452921E+03  0.63933452921E+03  0.00000000000E+00 0.  1.
         23    2    1    2    0    0 -0.11609937670E+04  0.10063535620E+03  0.31921716357E+04  0.33993911026E+04  0.88691119929E+02 0.  0.
        254    2    1    2    0    0  0.11609937670E+04 -0.10063535620E+03  0.47884999200E+03  0.15502995835E+04  0.90338113884E+03 0.  0.
        -24    2    4    4    0    0  0.97056756968E+03  0.22848096714E+03  0.56912639483E+03  0.11509704187E+04  0.81382379913E+02 0.  0.
         24    2    4    4    0    0  0.19042619728E+03 -0.32911632335E+03 -0.90276402831E+02  0.39932916483E+03  0.82062549778E+02 0.  0.
         11    1    3    3    0    0 -0.33225088518E+03  0.11971580426E+02  0.80767745701E+03  0.87342821343E+03  0.00000000000E+00 0.  1.
        -11    1    3    3    0    0 -0.82874288177E+03  0.88663775776E+02  0.23844941787E+04  0.25259628892E+04  0.00000000000E+00 0. -1.
          4    1    6    6  502    0  0.13230835345E+03 -0.15453482052E+03 -0.65186785880E+02  0.21362543902E+03  0.00000000000E+00 0. -1.
          3    1    5    5  503    0  0.37483863985E+03  0.76401779437E+02  0.26225209899E+03  0.46380750452E+03  0.00000000000E+00 0. -1.
         -4    1    5    5    0  503  0.59572892983E+03  0.15207918771E+03  0.30687429584E+03  0.68716291417E+03  0.00000000000E+00 0.  1.
         -3    1    6    6    0  502  0.58117843833E+02 -0.17458150283E+03 -0.25089616952E+02  0.18570372581E+03  0.00000000000E+00 0.  1.
<mgrwt>
<rscale>  0 0.33200961E+04</rscale>
<asrwt>0</asrwt>
<pdfrwt beam="1">  1        2 0.66313170E+00 0.33200961E+04</pdfrwt>
<pdfrwt beam="2">  1       -2 0.98359161E-01 0.33200961E+04</pdfrwt>
<totfact> 0.13256530E-01</totfact>
</mgrwt>
</event>
<event>
12    1  0.1495204E-007  0.3436844E+04  0.7818608E-02  0.8128922E-01
          1   -1    0    0  501    0  0.00000000000E+00  0.00000000000E+00  0.29104343118E+04  0.29104343118E+04  0.00000000000E+00 0. -1.
         -1   -1    0    0    0  501 -0.00000000000E+00 -0.00000000000E+00 -0.10146165071E+04  0.10146165071E+04  0.00000000000E+00 0.  1.
         23    2    1    2    0    0  0.41771798931E+03  0.12796689958E+04 -0.10095876064E+03  0.13529506689E+04  0.90784271401E+02 0.  0.
        254    2    1    2    0    0 -0.41771798931E+03 -0.12796689958E+04  0.19967765653E+04  0.25721001500E+04  0.90362684360E+03 0.  0.
        -24    2    4    4    0    0 -0.44659144322E+02 -0.88524099364E+03  0.17640084986E+04  0.19758794569E+04  0.82021881794E+02 0.  0.
         24    2    4    4    0    0 -0.37305884498E+03 -0.39442800212E+03  0.23276806674E+03  0.59622069311E+03  0.80943136327E+02 0.  0.
         13    1    3    3    0    0  0.43158956598E+02  0.90404722630E+02  0.12454688232E+02  0.10094963431E+03  0.00000000000E+00 0. -1.
        -13    1    3    3    0    0  0.37455903271E+03  0.11892642731E+04 -0.11341344887E+03  0.12520010346E+04  0.00000000000E+00 0.  1.
          2    1    6    6  502    0 -0.76509923573E+02 -0.11957438658E+03  0.35486082798E+02  0.14632520085E+03  0.00000000000E+00 0. -1.
          1    1    5    5  503    0 -0.63088179461E+02 -0.48724251515E+03  0.94385468886E+03  0.10640709848E+04  0.00000000000E+00 0. -1.
         -2    1    5    5    0  503  0.18429035139E+02 -0.39799847848E+03  0.82015380970E+03  0.91180847209E+03  0.00000000000E+00 0.  1.
         -1    1    6    6    0  502 -0.29654892141E+03 -0.27485361553E+03  0.19728198394E+03  0.44989549225E+03  0.00000000000E+00 0.  1.
<mgrwt>
<rscale>  0 0.34368443E+04</rscale>
<asrwt>0</asrwt>
<pdfrwt beam="1">  1        1 0.44775912E+00 0.34368443E+04</pdfrwt>
<pdfrwt beam="2">  1       -1 0.15609485E+00 0.34368443E+04</pdfrwt>
<totfact> 0.17812474E-01</totfact>
</mgrwt>
</event>
<event>
12    1  0.1495204E-007  0.1925904E+04  0.7818608E-02  0.8642069E-01
         -2   -1    0    0    0  501 -0.00000000000E+00  0.00000000000E+00  0.11402787841E+04  0.11402787841E+04  0.00000000000E+00 0.  1.
          2   -1    0    0  501    0  0.00000000000E+00 -0.00000000000E+00 -0.81320120778E+03  0.81320120778E+03  0.00000000000E+00 0. -1.
         23    2    1    2    0    0  0.14081534500E+03  0.39880423898E+03  0.75707329425E+03  0.87191290263E+03  0.90544765075E+02 0.  0.
        254    2    1    2    0    0 -0.14081534500E+03 -0.39880423898E+03 -0.42999571791E+03  0.10815670893E+04  0.89778464498E+03 0.  0.
        -24    2    4    4    0    0  0.50256347851E+01  0.28023794592E+03 -0.15121939460E+03  0.32877021741E+03  0.81633248210E+02 0.  0.
         24    2    4    4    0    0 -0.14584097979E+03 -0.67904218490E+03 -0.27877632330E+03  0.75279687187E+03  0.81357308209E+02 0.  0.
         11    1    3    3    0    0  0.57752491700E-01  0.32573326406E+02  0.24042952047E+02  0.40485657604E+02  0.00000000000E+00 0.  1.
        -11    1    3    3    0    0  0.14075759251E+03  0.36623091257E+03  0.73303034220E+03  0.83142724502E+03  0.00000000000E+00 0. -1.
          2    1    6    6  502    0 -0.13419275198E+03 -0.45464910386E+03 -0.17521926345E+03  0.50538628059E+03  0.00000000000E+00 0. -1.
          1    1    5    5  503    0  0.17423822951E+02  0.26823334489E+03 -0.12279881148E+03  0.29552032928E+03  0.00000000000E+00 0. -1.
         -2    1    5    5    0  503 -0.12398188166E+02  0.12004601031E+02 -0.28420583121E+02  0.33249888130E+02  0.00000000000E+00 0.  1.
         -1    1    6    6    0  502 -0.11648227800E+02 -0.22439308104E+03 -0.10355705986E+03  0.24741059128E+03  0.00000000000E+00 0.  1.
<mgrwt>
<rscale>  0 0.19259035E+04</rscale>
<asrwt>0</asrwt>
<pdfrwt beam="1">  1        2 0.12510788E+00 0.19259035E+04</pdfrwt>
<pdfrwt beam="2">  1       -2 0.17542750E+00 0.19259035E+04</pdfrwt>
<totfact> 0.61428384E+00</totfact>
</mgrwt>
</event>
<event>
12    1  0.1495204E-007  0.1790742E+04  0.7818608E-02  0.8711238E-01
         -2   -1    0    0    0  501 -0.00000000000E+00  0.00000000000E+00  0.29100205524E+03  0.29100205524E+03  0.00000000000E+00 0.  1.
          2   -1    0    0  501    0  0.00000000000E+00 -0.00000000000E+00 -0.27549260834E+04  0.27549260834E+04  0.00000000000E+00 0. -1.
         23    2    1    2    0    0  0.62439787240E+03 -0.21853239471E+03 -0.89767231641E+03  0.11195675030E+04  0.99933455152E+02 0.  0.
        254    2    1    2    0    0 -0.62439787240E+03  0.21853239471E+03 -0.15662517117E+04  0.19263606357E+04  0.90558918032E+03 0.  0.
        -24    2    4    4    0    0 -0.40080178316E+03  0.20585050775E+03 -0.16196363192E+04  0.16832206696E+04  0.83627240212E+02 0.  0.
         24    2    4    4    0    0 -0.22359608925E+03  0.12681886969E+02  0.53384607480E+02  0.24313996601E+03  0.78173431367E+02 0.  0.
         13    1    3    3    0    0  0.41510313866E+03 -0.10502620777E+03 -0.52708833221E+03  0.67909000139E+03  0.00000000000E+00 0.  1.
        -13    1    3    3    0    0  0.20929473374E+03 -0.11350618695E+03 -0.37058398421E+03  0.44047750158E+03  0.00000000000E+00 0. -1.
          2    1    6    6  502    0 -0.63602068097E+02 -0.16902108403E+02 -0.13573527358E+02  0.67194828518E+02  0.00000000000E+00 0. -1.
          3    1    5    5  503    0 -0.68871861975E+02  0.59372105057E+02 -0.23914280474E+03  0.25584694895E+03  0.00000000000E+00 0. -1.
         -4    1    5    5    0  503 -0.33192992118E+03  0.14647840269E+03 -0.13804935145E+04  0.14273737207E+04  0.00000000000E+00 0.  1.
         -1    1    6    6    0  502 -0.15999402115E+03  0.29583995372E+02  0.66958134837E+02  0.17594513749E+03  0.00000000000E+00 0.  1.
<mgrwt>
<rscale>  0 0.17907419E+04</rscale>
<asrwt>0</asrwt>
<pdfrwt beam="1">  1        2 0.42383478E+00 0.17907419E+04</pdfrwt>
<pdfrwt beam="2">  1       -2 0.44769547E-01 0.17907419E+04</pdfrwt>
<totfact> 0.11031656E+01</totfact>
</mgrwt>
</event>
<event>
12    1  0.1495204E-007  0.1695287E+04  0.7818608E-02  0.8764057E-01
         -2   -1    0    0    0  501 -0.00000000000E+00  0.00000000000E+00  0.24658108597E+04  0.24658108597E+04  0.00000000000E+00 0.  1.
          2   -1    0    0  501    0  0.00000000000E+00 -0.00000000000E+00 -0.29138476909E+03  0.29138476909E+03  0.00000000000E+00 0. -1.
         23    2    1    2    0    0  0.42933729369E+02  0.34540842396E+03  0.15884461984E+04  0.16286667058E+04  0.90794433085E+02 0.  0.
        254    2    1    2    0    0 -0.42933729369E+02 -0.34540842396E+03  0.58597989222E+03  0.11285289230E+04  0.89947474195E+03 0.  0.
        -24    2    4    4    0    0 -0.39487202613E+03  0.48338698577E+02  0.38049415010E+03  0.55621899371E+03  0.79644358894E+02 0.  0.
         24    2    4    4    0    0  0.35193829676E+03 -0.39374712253E+03  0.20548574212E+03  0.57230992925E+03  0.80105578325E+02 0.  0.
         13    1    3    3    0    0  0.60456092123E+02  0.28084368670E+03  0.13857969673E+04  0.14152601704E+04  0.00000000000E+00 0.  1.
        -13    1    3    3    0    0 -0.17522362754E+02  0.64564737260E+02  0.20264923106E+03  0.21340653538E+03  0.00000000000E+00 0. -1.
          4    1    6    6  502    0  0.27399963488E+02 -0.61700795206E+02  0.88745893111E+01  0.68091882509E+02  0.00000000000E+00 0. -1.
          3    1    5    5  503    0 -0.43450077380E+02 -0.19189823053E+02  0.52429914046E+02  0.70746409238E+02  0.00000000000E+00 0. -1.
         -4    1    5    5    0  503 -0.35142194875E+03  0.67528521631E+02  0.32806423605E+03  0.48547258447E+03  0.00000000000E+00 0.  1.
         -3    1    6    6    0  502  0.32453833327E+03 -0.33204632733E+03  0.19661115281E+03  0.50421804675E+03  0.00000000000E+00 0.  1.
<mgrwt>
<rscale>  0 0.16952873E+04</rscale>
<asrwt>0</asrwt>
<pdfrwt beam="1">  1        2 0.44828428E-01 0.16952873E+04</pdfrwt>
<pdfrwt beam="2">  1       -2 0.37935550E+00 0.16952873E+04</pdfrwt>
<totfact> 0.10976461E+00</totfact>
</mgrwt>
</event>
<event>
12    1  0.1495204E-007  0.2239333E+04  0.7818608E-02  0.8502233E-01
         -2   -1    0    0    0  501 -0.00000000000E+00  0.00000000000E+00  0.80834644480E+03  0.80834644480E+03  0.00000000000E+00 0. -1.
          2   -1    0    0  501    0  0.00000000000E+00 -0.00000000000E+00 -0.15508858899E+04  0.15508858899E+04  0.00000000000E+00 0.  1.
         23    2    1    2    0    0  0.43920265183E+03  0.19684391877E+03  0.53557225751E+03  0.72595690924E+03  0.92354173342E+02 0.  0.
        254    2    1    2    0    0 -0.43920265183E+03 -0.19684391877E+03 -0.12781117026E+04  0.16332754255E+04  0.89575252907E+03 0.  0.
        -24    2    4    4    0    0 -0.40756682253E+03 -0.42022215244E+03 -0.37880575456E+03  0.70263833313E+03  0.86657113198E+02 0.  0.
         24    2    4    4    0    0 -0.31635829301E+02  0.22337823367E+03 -0.89930594805E+03  0.93063709233E+03  0.80221870153E+02 0.  0.
         11    1    3    3    0    0  0.11298757106E+03  0.87774766489E+02  0.12189997565E+03  0.18796330735E+03  0.00000000000E+00 0.  1.
        -11    1    3    3    0    0  0.32621508078E+03  0.10906915228E+03  0.41367228185E+03  0.53799360189E+03  0.00000000000E+00 0. -1.
          2    1    6    6  502    0  0.19016260419E+01  0.19618908408E+03 -0.74577313554E+03  0.77114936464E+03  0.00000000000E+00 0. -1.
          3    1    5    5  503    0 -0.21309595688E+03 -0.28030910096E+03 -0.21911423766E+03  0.41472174776E+03  0.00000000000E+00 0. -1.
         -4    1    5    5    0  503 -0.19447086565E+03 -0.13991305148E+03 -0.15969151690E+03  0.28791658537E+03  0.00000000000E+00 0.  1.
         -1    1    6    6    0  502 -0.33537455342E+02  0.27189149589E+02 -0.15353281250E+03  0.15948772768E+03  0.00000000000E+00 0.  1.
<mgrwt>
<rscale>  0 0.22393330E+04</rscale>
<asrwt>0</asrwt>
<pdfrwt beam="1">  1        2 0.23859782E+00 0.22393330E+04</pdfrwt>
<pdfrwt beam="2">  1       -2 0.12436099E+00 0.22393330E+04</pdfrwt>
<totfact> 0.52590316E+00</totfact>
</mgrwt>
</event>
<event>
12    1  0.2294662E-007  0.1935933E+04  0.7818608E-02  0.8637174E-01
          1   -1    0    0  501    0  0.00000000000E+00  0.00000000000E+00  0.15840514498E+04  0.15840514498E+04  0.00000000000E+00 0. -1.
         -1   -1    0    0    0  501 -0.00000000000E+00 -0.00000000000E+00 -0.59149561485E+03  0.59149561485E+03  0.00000000000E+00 0.  1.
         23    2    1    2    0    0  0.54270735731E+03 -0.24253216486E+03  0.90271524100E+03  0.10849437934E+04  0.94101550816E+02 0.  0.
        254    2    1    2    0    0 -0.54270735731E+03  0.24253216486E+03  0.89840593911E+02  0.10906032712E+04  0.90994012777E+03 0.  0.
        -24    2    4    4    0    0  0.18291382082E+03  0.21341439026E+03 -0.14125144117E+03  0.32432105857E+03  0.78924087471E+02 0.  0.
         24    2    4    4    0    0 -0.72562117813E+03  0.29117774605E+02  0.23109203508E+03  0.76628221261E+03  0.80068481556E+02 0.  0.
         11    1    3    3    0    0  0.52944379687E+03 -0.23915921659E+03  0.84376194312E+03  0.10244228041E+04  0.00000000000E+00 0. -1.
        -11    1    3    3    0    0  0.13263560439E+02 -0.33729482743E+01  0.58953297876E+02  0.60520989302E+02  0.00000000000E+00 0.  1.
          2    1    6    6  502    0 -0.11284889866E+02 -0.64326878527E+01  0.13408258655E+02  0.18668412157E+02  0.00000000000E+00 0. -1.
          1    1    5    5  503    0  0.72773633006E+01  0.43303638639E+02 -0.40931823331E+02  0.60029820067E+02  0.00000000000E+00 0. -1.
         -2    1    5    5    0  503  0.17563645752E+03  0.17011075162E+03 -0.10031961784E+03  0.26429123850E+03  0.00000000000E+00 0.  1.
         -1    1    6    6    0  502 -0.71433628826E+03  0.35550462458E+02  0.21768377643E+03  0.74761380046E+03  0.00000000000E+00 0.  1.
<mgrwt>
<rscale>  0 0.19359334E+04</rscale>
<asrwt>0</asrwt>
<pdfrwt beam="1">  1        1 0.24370022E+00 0.19359334E+04</pdfrwt>
<pdfrwt beam="2">  1       -1 0.90999326E-01 0.19359334E+04</pdfrwt>
<totfact> 0.62918312E+00</totfact>
</mgrwt>
</event>
<event>
12    1  0.1495204E-007  0.1609511E+04  0.7818608E-02  0.8814726E-01
         -2   -1    0    0    0  501 -0.00000000000E+00  0.00000000000E+00  0.78349148991E+03  0.78349148991E+03  0.00000000000E+00 0.  1.
          2   -1    0    0  501    0  0.00000000000E+00 -0.00000000000E+00 -0.82659691483E+03  0.82659691483E+03  0.00000000000E+00 0. -1.
         23    2    1    2    0    0  0.15420451989E+03  0.41026949471E+03 -0.34394470802E+03  0.56442697809E+03  0.90442021090E+02 0.  0.
        254    2    1    2    0    0 -0.15420451989E+03 -0.41026949471E+03  0.30083928309E+03  0.10456614266E+04  0.90044625197E+03 0.  0.
        -24    2    4    4    0    0 -0.31612200704E+03  0.91236423443E+02 -0.12761958318E+03  0.36177723516E+03  0.79616591065E+02 0.  0.
         24    2    4    4    0    0  0.16191748715E+03 -0.50150591815E+03  0.42845886627E+03  0.68388419149E+03  0.79969548522E+02 0.  0.
         13    1    3    3    0    0  0.45416616665E+02  0.56887055697E+02 -0.90556767792E+02  0.11618663593E+03  0.00000000000E+00 0.  1.
        -13    1    3    3    0    0  0.10878790322E+03  0.35338243901E+03 -0.25338794023E+03  0.44824034216E+03  0.00000000000E+00 0. -1.
          4    1    6    6  502    0  0.49610219996E+02 -0.20631119773E+03  0.12712697615E+03  0.24735956077E+03  0.00000000000E+00 0. -1.
          1    1    5    5  503    0 -0.11077452200E+03  0.71586220763E+02 -0.41865270035E+02  0.13837731953E+03  0.00000000000E+00 0. -1.
         -2    1    5    5    0  503 -0.20534748504E+03  0.19650202680E+02 -0.85754313143E+02  0.22339991563E+03  0.00000000000E+00 0.  1.
         -3    1    6    6    0  502  0.11230726716E+03 -0.29519472042E+03  0.30133189012E+03  0.43652463072E+03  0.00000000000E+00 0.  1.
<mgrwt>
<rscale>  0 0.16095113E+04</rscale>
<asrwt>0</asrwt>
<pdfrwt beam="1">  1        2 0.12716876E+00 0.16095113E+04</pdfrwt>
<pdfrwt beam="2">  1       -2 0.12053715E+00 0.16095113E+04</pdfrwt>
<totfact> 0.16587992E+01</totfact>
</mgrwt>
</event>
<event>
12    1  0.1495204E-007  0.1470351E+04  0.7818608E-02  0.8904412E-01
          2   -1    0    0  501    0  0.00000000000E+00  0.00000000000E+00  0.10527588122E+04  0.10527588122E+04  0.00000000000E+00 0. -1.
         -2   -1    0    0    0  501 -0.00000000000E+00 -0.00000000000E+00 -0.51339657454E+03  0.51339657454E+03  0.00000000000E+00 0.  1.
         23    2    1    2    0    0  0.55714930929E+02 -0.39770440587E+03  0.38583108763E+03  0.56419617611E+03  0.90436436135E+02 0.  0.
        254    2    1    2    0    0 -0.55714930929E+02  0.39770440587E+03  0.15353114999E+03  0.10019592106E+04  0.90502900378E+03 0.  0.
        -24    2    4    4    0    0  0.22862302807E+03  0.35814739444E+03 -0.25073310228E+03  0.49994634414E+03  0.80877767800E+02 0.  0.
         24    2    4    4    0    0 -0.28433795900E+03  0.39557011423E+02  0.40426425227E+03  0.50201286645E+03  0.78577988859E+02 0.  0.
         11    1    3    3    0    0  0.35570511802E+02 -0.10638324830E+03  0.15823564707E+03  0.19396179220E+03  0.00000000000E+00 0. -1.
        -11    1    3    3    0    0  0.20144419127E+02 -0.29132115756E+03  0.22759544056E+03  0.37023438391E+03  0.00000000000E+00 0.  1.
          2    1    6    6  502    0 -0.28271158489E+03  0.28877152021E+02  0.39935415689E+03  0.49014637892E+03  0.00000000000E+00 0. -1.
          3    1    5    5  503    0  0.20824964764E+03  0.35151654090E+03 -0.24895865416E+03  0.47844770429E+03  0.00000000000E+00 0. -1.
         -4    1    5    5    0  503  0.20373380428E+02  0.66308535472E+01 -0.17744481269E+01  0.21498639841E+02  0.00000000000E+00 0.  1.
         -3    1    6    6    0  502 -0.16263741016E+01  0.10679859402E+02  0.49100953839E+01  0.11866487528E+02  0.00000000000E+00 0.  1.
<mgrwt>
<rscale>  0 0.14703507E+04</rscale>
<asrwt>0</asrwt>
<pdfrwt beam="1">  1        2 0.16196289E+00 0.14703507E+04</pdfrwt>
<pdfrwt beam="2">  1       -2 0.78984089E-01 0.14703507E+04</pdfrwt>
<totfact> 0.32123997E+01</totfact>
</mgrwt>
</event>
<event>
12    1  0.1495204E-007  0.1338913E+04  0.7818608E-02  0.8999263E-01
         -1   -1    0    0    0  501 -0.00000000000E+00  0.00000000000E+00  0.58930214107E+03  0.58930214107E+03  0.00000000000E+00 0.  1.
          1   -1    0    0  501    0  0.00000000000E+00 -0.00000000000E+00 -0.76051352734E+03  0.76051352734E+03  0.00000000000E+00 0. -1.
         23    2    1    2    0    0  0.33230648613E+03 -0.61169178013E+02 -0.27395221618E+02  0.35090929553E+03  0.90650794049E+02 0.  0.
        254    2    1    2    0    0 -0.33230648613E+03  0.61169178013E+02 -0.14381616466E+03  0.99890637288E+03  0.92895725601E+03 0.  0.
        -24    2    4    4    0    0  0.29219234407E+02 -0.30305606003E+03  0.20159318858E+03  0.37491976459E+03  0.85019274424E+02 0.  0.
         24    2    4    4    0    0 -0.36152572053E+03  0.36422523804E+03 -0.34540935324E+03  0.62398660828E+03  0.81797282228E+02 0.  0.
         11    1    3    3    0    0 -0.46015320246E+01 -0.35177946742E+01  0.48934733171E+01  0.75825495348E+01  0.00000000000E+00 0.  1.
        -11    1    3    3    0    0  0.33690801815E+03 -0.57651383339E+02 -0.32288694935E+02  0.34332674600E+03  0.00000000000E+00 0. -1.
          2    1    6    6  502    0 -0.20375437500E+03  0.23923393661E+03 -0.24830789899E+03  0.40050659728E+03  0.00000000000E+00 0. -1.
          1    1    5    5  503    0 -0.80312062912E+01 -0.14083433808E+03  0.13621861990E+03  0.19609773957E+03  0.00000000000E+00 0. -1.
         -2    1    5    5    0  503  0.37250440698E+02 -0.16222172194E+03  0.65374568675E+02  0.17882202502E+03  0.00000000000E+00 0.  1.
         -1    1    6    6    0  502 -0.15777134553E+03  0.12499130143E+03 -0.97101454248E+02  0.22348001101E+03  0.00000000000E+00 0.  1.
<mgrwt>
<rscale>  0 0.13389134E+04</rscale>
<asrwt>0</asrwt>
<pdfrwt beam="1">  1        1 0.11700208E+00 0.13389134E+04</pdfrwt>
<pdfrwt beam="2">  1       -1 0.90661868E-01 0.13389134E+04</pdfrwt>
<totfact> 0.27914408E+01</totfact>
</mgrwt>
</event>
<event>
12    1  0.1495204E-007  0.1626619E+04  0.7818608E-02  0.8804360E-01
         -1   -1    0    0    0  501 -0.00000000000E+00  0.00000000000E+00  0.85472274426E+03  0.85472274426E+03  0.00000000000E+00 0.  1.
          1   -1    0    0  501    0  0.00000000000E+00 -0.00000000000E+00 -0.77390303336E+03  0.77390303336E+03  0.00000000000E+00 0. -1.
         23    2    1    2    0    0  0.51424021261E+03 -0.13339302564E+03  0.18199458833E+03  0.56934592928E+03  0.93787320325E+02 0.  0.
        254    2    1    2    0    0 -0.51424021261E+03  0.13339302564E+03 -0.10117487743E+03  0.10592798483E+04  0.91082421232E+03 0.  0.
        -24    2    4    4    0    0 -0.64737293753E+03 -0.20162414044E+03 -0.71102233785E+02  0.68725859523E+03  0.86745805772E+02 0.  0.
         24    2    4    4    0    0  0.13313272492E+03  0.33501716608E+03 -0.30072643644E+02  0.37202125311E+03  0.86802216919E+02 0.  0.
         11    1    3    3    0    0  0.27661945518E+03 -0.52050868826E+02  0.50920214417E+02  0.28604280129E+03  0.00000000000E+00 0. -1.
        -11    1    3    3    0    0  0.23762075742E+03 -0.81342156812E+02  0.13107437391E+03  0.28330312799E+03  0.00000000000E+00 0.  1.
          2    1    6    6  502    0  0.77212614559E+02  0.23383967480E+03 -0.58209732389E+02  0.25304377942E+03  0.00000000000E+00 0. -1.
          3    1    5    5  503    0 -0.36077949656E+03 -0.10165210618E+03 -0.81362933009E+02  0.38355563182E+03  0.00000000000E+00 0. -1.
         -4    1    5    5    0  503 -0.28659344097E+03 -0.99972034257E+02  0.10260699224E+02  0.30370296342E+03  0.00000000000E+00 0.  1.
         -1    1    6    6    0  502  0.55920110365E+02  0.10117749128E+03  0.28137088745E+02  0.11897747370E+03  0.00000000000E+00 0.  1.
<mgrwt>
<rscale>  0 0.16266192E+04</rscale>
<asrwt>0</asrwt>
<pdfrwt beam="1">  1        1 0.11906200E+00 0.16266192E+04</pdfrwt>
<pdfrwt beam="2">  1       -1 0.13149581E+00 0.16266192E+04</pdfrwt>
<totfact> 0.10998092E+01</totfact>
</mgrwt>
</event>
<event>
12    1  0.1495204E-007  0.1514231E+04  0.7818608E-02  0.8875044E-01
          2   -1    0    0  501    0  0.00000000000E+00  0.00000000000E+00  0.14594193649E+04  0.14594193649E+04  0.00000000000E+00 0. -1.
         -2   -1    0    0    0  501 -0.00000000000E+00 -0.00000000000E+00 -0.39277513915E+03  0.39277513915E+03  0.00000000000E+00 0.  1.
         23    2    1    2    0    0  0.44486431793E+03 -0.18630835513E+03  0.29780285591E+03  0.57400433881E+03  0.90439899536E+02 0.  0.
        254    2    1    2    0    0 -0.44486431793E+03  0.18630835513E+03  0.76884136982E+03  0.12781901652E+04  0.90002110084E+03 0.  0.
        -24    2    4    4    0    0  0.14758853373E+03  0.30286939797E+03  0.74279526096E+02  0.35431570151E+03  0.80684080384E+02 0.  0.
         24    2    4    4    0    0 -0.59245285166E+03 -0.11656104284E+03  0.69456184373E+03  0.92387446371E+03  0.80876521864E+02 0.  0.
         13    1    3    3    0    0  0.13438331285E+03 -0.50823251988E+02  0.13887984801E+03  0.19982364699E+03  0.00000000000E+00 0. -1.
        -13    1    3    3    0    0  0.31048100508E+03 -0.13548510314E+03  0.15892300790E+03  0.37418069182E+03  0.00000000000E+00 0.  1.
          4    1    6    6  502    0 -0.19047567921E+03 -0.58725076273E+02  0.18190324637E+03  0.26984886509E+03  0.00000000000E+00 0. -1.
          3    1    5    5  503    0  0.35441266191E+01  0.62538019424E+02 -0.57940906035E+01  0.62905772333E+02  0.00000000000E+00 0. -1.
         -4    1    5    5    0  503  0.14404440711E+03  0.24033137854E+03  0.80073616700E+02  0.29140992918E+03  0.00000000000E+00 0.  1.
         -3    1    6    6    0  502 -0.40197717245E+03 -0.57835966565E+02  0.51265859736E+03  0.65402559862E+03  0.00000000000E+00 0.  1.
<mgrwt>
<rscale>  0 0.15142307E+04</rscale>
<asrwt>0</asrwt>
<pdfrwt beam="1">  1        2 0.22452605E+00 0.15142307E+04</pdfrwt>
<pdfrwt beam="2">  1       -2 0.60426945E-01 0.15142307E+04</pdfrwt>
<totfact> 0.32953537E+01</totfact>
</mgrwt>
</event>
<event>
12    1  0.1495204E-007  0.1397114E+04  0.7818608E-02  0.8955910E-01
          1   -1    0    0  501    0  0.00000000000E+00  0.00000000000E+00  0.16741101102E+04  0.16741101102E+04  0.00000000000E+00 0. -1.
         -1   -1    0    0    0  501 -0.00000000000E+00 -0.00000000000E+00 -0.29148733754E+03  0.29148733754E+03  0.00000000000E+00 0.  1.
         23    2    1    2    0    0 -0.37942056720E+02  0.33368539902E+03  0.11990141581E+03  0.36792351565E+03  0.90585973908E+02 0.  0.
        254    2    1    2    0    0  0.37942056720E+02 -0.33368539902E+03  0.12627213568E+04  0.15976739321E+04  0.91940808296E+03 0.  0.
        -24    2    4    4    0    0 -0.85650674745E+01 -0.44546782407E+03  0.13534604643E+04  0.14271844002E+04  0.80530374789E+02 0.  0.
         24    2    4    4    0    0  0.46507124195E+02  0.11178242505E+03 -0.90739107426E+02  0.17048953184E+03  0.78580351876E+02 0.  0.
         13    1    3    3    0    0 -0.56888038202E+02  0.31748161519E+03  0.10679923375E+03  0.33976006417E+03  0.00000000000E+00 0.  1.
        -13    1    3    3    0    0  0.18945981482E+02  0.16203783827E+02  0.13102182051E+02  0.28163451478E+02  0.00000000000E+00 0. -1.
          2    1    6    6  502    0  0.67992901934E+02  0.71934049873E+02 -0.59568841315E+02  0.11552484192E+03  0.00000000000E+00 0. -1.
          3    1    5    5  503    0 -0.33142268759E+02 -0.36105070753E+03  0.10283189978E+04  0.10903650694E+04  0.00000000000E+00 0. -1.
         -4    1    5    5    0  503  0.24577201284E+02 -0.84417116540E+02  0.32514146644E+03  0.33681933078E+03  0.00000000000E+00 0.  1.
         -1    1    6    6    0  502 -0.21485777739E+02  0.39848375173E+02 -0.31170266112E+02  0.54964689924E+02  0.00000000000E+00 0.  1.
<mgrwt>
<rscale>  0 0.13971140E+04</rscale>
<asrwt>0</asrwt>
<pdfrwt beam="1">  1        1 0.25755540E+00 0.13971140E+04</pdfrwt>
<pdfrwt beam="2">  1       -1 0.44844207E-01 0.13971140E+04</pdfrwt>
<totfact> 0.23867063E+01</totfact>
</mgrwt>
</event>
<event>
12    1  0.1495204E-007  0.1701389E+04  0.7818608E-02  0.8760573E-01
         -2   -1    0    0    0  501 -0.00000000000E+00  0.00000000000E+00  0.15519332806E+03  0.15519332806E+03  0.00000000000E+00 0. -1.
          2   -1    0    0  501    0  0.00000000000E+00 -0.00000000000E+00 -0.46630942934E+04  0.46630942934E+04  0.00000000000E+00 0.  1.
         23    2    1    2    0    0 -0.27111090634E+03  0.43785524399E+03 -0.72336903308E+03  0.89273133766E+03  0.92131129368E+02 0.  0.
        254    2    1    2    0    0  0.27111090634E+03 -0.43785524399E+03 -0.37845319322E+04  0.39255562838E+04  0.90669281057E+03 0.  0.
        -24    2    4    4    0    0  0.34787117501E+03 -0.18191417536E+03 -0.55803466198E+03  0.68704921727E+03  0.80788745386E+02 0.  0.
         24    2    4    4    0    0 -0.76760268664E+02 -0.25594106863E+03 -0.32264972703E+04  0.32385070665E+04  0.79027940524E+02 0.  0.
         11    1    3    3    0    0 -0.21198372938E+02  0.10094412085E+03 -0.15938749745E+03  0.18985115457E+03  0.00000000000E+00 0.  1.
        -11    1    3    3    0    0 -0.24991253340E+03  0.33691112313E+03 -0.56398153563E+03  0.70288018309E+03  0.00000000000E+00 0. -1.
          4    1    6    6  502    0 -0.64947896595E+02 -0.85413799190E+02 -0.11601354221E+04  0.11650870971E+04  0.00000000000E+00 0. -1.
          1    1    5    5  503    0  0.90048475237E+02 -0.26811104543E+02 -0.18763066255E+03  0.20984000750E+03  0.00000000000E+00 0. -1.
         -2    1    5    5    0  503  0.25782269977E+03 -0.15510307082E+03 -0.37040399944E+03  0.47720920977E+03  0.00000000000E+00 0.  1.
         -3    1    6    6    0  502 -0.11812372069E+02 -0.17052726944E+03 -0.20663618482E+04  0.20734199694E+04  0.00000000000E+00 0.  1.
<mgrwt>
<rscale>  0 0.17013890E+04</rscale>
<asrwt>0</asrwt>
<pdfrwt beam="1">  1        2 0.71739896E+00 0.17013890E+04</pdfrwt>
<pdfrwt beam="2">  1       -2 0.23875902E-01 0.17013890E+04</pdfrwt>
<totfact> 0.12843238E+00</totfact>
</mgrwt>
</event>
<event>
12    1  0.1495204E-007  0.2014195E+04  0.7818608E-02  0.8600012E-01
         -2   -1    0    0    0  501 -0.00000000000E+00  0.00000000000E+00  0.11592714232E+04  0.11592714232E+04  0.00000000000E+00 0.  1.
          2   -1    0    0  501    0  0.00000000000E+00 -0.00000000000E+00 -0.87489932876E+03  0.87489932876E+03  0.00000000000E+00 0. -1.
         23    2    1    2    0    0  0.44194777477E+03 -0.32689257910E+03 -0.46299030360E+03  0.72470431133E+03  0.93057636649E+02 0.  0.
        254    2    1    2    0    0 -0.44194777477E+03  0.32689257910E+03  0.74736239802E+03  0.13094664406E+04  0.92410779200E+03 0.  0.
        -24    2    4    4    0    0 -0.26280605817E+03  0.47503304520E+03  0.87471445205E+03  0.10326386303E+04  0.80583806618E+02 0.  0.
         24    2    4    4    0    0 -0.17914171660E+03 -0.14814046610E+03 -0.12735205403E+03  0.27682781033E+03  0.79860744934E+02 0.  0.
         11    1    3    3    0    0  0.43575838272E+03 -0.30062615285E+03 -0.42961968618E+03  0.68178774310E+03  0.00000000000E+00 0. -1.
        -11    1    3    3    0    0  0.61893920533E+01 -0.26266426248E+02 -0.33370617417E+02  0.42916568230E+02  0.00000000000E+00 0.  1.
          4    1    6    6  502    0 -0.10911571433E+03 -0.88219049475E+02 -0.11954044405E+03  0.18433327852E+03  0.00000000000E+00 0. -1.
          1    1    5    5  503    0 -0.29732304553E+02  0.12359364753E+03  0.19993174461E+03  0.23692214364E+03  0.00000000000E+00 0. -1.
         -2    1    5    5    0  503 -0.23307375362E+03  0.35143939767E+03  0.67478270744E+03  0.79571648665E+03  0.00000000000E+00 0.  1.
         -3    1    6    6    0  502 -0.70026002269E+02 -0.59921416628E+02 -0.78116099765E+01  0.92494531811E+02  0.00000000000E+00 0.  1.
<mgrwt>
<rscale>  0 0.20141954E+04</rscale>
<asrwt>0</asrwt>
<pdfrwt beam="1">  1        2 0.13459990E+00 0.20141954E+04</pdfrwt>
<pdfrwt beam="2">  1       -2 0.17834945E+00 0.20141954E+04</pdfrwt>
<totfact> 0.52675535E+00</totfact>
</mgrwt>
</event>
<event>
12    1  0.1495204E-007  0.1392924E+04  0.7818608E-02  0.8958956E-01
          2   -1    0    0  501    0  0.00000000000E+00  0.00000000000E+00  0.21552107904E+04  0.21552107904E+04  0.00000000000E+00 0. -1.
         -2   -1    0    0    0  501 -0.00000000000E+00 -0.00000000000E+00 -0.22506352979E+03  0.22506352979E+03  0.00000000000E+00 0.  1.
         23    2    1    2    0    0  0.31848419646E+03  0.28978510874E+03  0.64952821479E+03  0.78481174844E+03  0.92924625575E+02 0.  0.
        254    2    1    2    0    0 -0.31848419646E+03 -0.28978510874E+03  0.12806190459E+04  0.15954625718E+04  0.84859182459E+03 0.  0.
        -24    2    4    4    0    0 -0.86141811100E+01  0.27587386174E+03  0.53254681633E+03  0.60504325033E+03  0.79313501252E+02 0.  0.
         24    2    4    4    0    0 -0.30987001535E+03 -0.56565897047E+03  0.74807222953E+03  0.99041932147E+03  0.72999140118E+02 0.  0.
         11    1    3    3    0    0  0.91863639988E+02  0.12943111269E+03  0.28979916982E+03  0.33041625280E+03  0.00000000000E+00 0. -1.
        -11    1    3    3    0    0  0.22662055647E+03  0.16035399605E+03  0.35972904496E+03  0.45439549564E+03  0.00000000000E+00 0.  1.
          2    1    6    6  502    0 -0.16449883554E+03 -0.23368914469E+03  0.30397353611E+03  0.41721744199E+03  0.00000000000E+00 0. -1.
          3    1    5    5  503    0  0.29073029709E+01  0.17063241614E+03  0.40363636120E+03  0.43823074508E+03  0.00000000000E+00 0. -1.
         -4    1    5    5    0  503 -0.11521484081E+02  0.10524144560E+03  0.12891045513E+03  0.16681250525E+03  0.00000000000E+00 0.  1.
         -1    1    6    6    0  502 -0.14537117981E+03 -0.33196982578E+03  0.44409869342E+03  0.57320187949E+03  0.00000000000E+00 0.  1.
<mgrwt>
<rscale>  0 0.13929240E+04</rscale>
<asrwt>0</asrwt>
<pdfrwt beam="1">  1        2 0.33157088E+00 0.13929240E+04</pdfrwt>
<pdfrwt beam="2">  1       -2 0.34625160E-01 0.13929240E+04</pdfrwt>
<totfact> 0.41727215E+01</totfact>
</mgrwt>
</event>
<event>
12    1  0.1495204E-007  0.1511576E+04  0.7818608E-02  0.8876791E-01
          2   -1    0    0  501    0  0.00000000000E+00  0.00000000000E+00  0.43617754930E+03  0.43617754930E+03  0.00000000000E+00 0. -1.
         -2   -1    0    0    0  501 -0.00000000000E+00 -0.00000000000E+00 -0.13095942141E+04  0.13095942141E+04  0.00000000000E+00 0.  1.
         23    2    1    2    0    0  0.24022715847E+03  0.77406618574E+02 -0.76247916062E+03  0.80833713545E+03  0.91288454360E+02 0.  0.
        254    2    1    2    0    0 -0.24022715847E+03 -0.77406618574E+02 -0.11093750418E+03  0.93743462796E+03  0.89597749950E+03 0.  0.
        -24    2    4    4    0    0 -0.41013638664E+03 -0.37332065065E+03 -0.16220067417E+03  0.58353250176E+03  0.81369269773E+02 0.  0.
         24    2    4    4    0    0  0.16990922817E+03  0.29591403207E+03  0.51263169984E+02  0.35390212620E+03  0.78641859978E+02 0.  0.
         11    1    3    3    0    0  0.22614470068E+02  0.19645288405E+02 -0.20391098088E+03  0.20609958694E+03  0.00000000000E+00 0.  1.
        -11    1    3    3    0    0  0.21761268840E+03  0.57761330169E+02 -0.55856817974E+03  0.60223754851E+03  0.00000000000E+00 0. -1.
          2    1    6    6  502    0  0.30637776904E+02  0.12918788929E+03  0.14319797943E+02  0.13354115742E+03  0.00000000000E+00 0. -1.
          3    1    5    5  503    0 -0.14591597085E+03 -0.14989943564E+03 -0.22584369491E+02  0.21040761655E+03  0.00000000000E+00 0. -1.
         -4    1    5    5    0  503 -0.26422041579E+03 -0.22342121500E+03 -0.13961630468E+03  0.37312488521E+03  0.00000000000E+00 0.  1.
         -1    1    6    6    0  502  0.13927145126E+03  0.16672614279E+03  0.36943372041E+02  0.22036096878E+03  0.00000000000E+00 0.  1.
<mgrwt>
<rscale>  0 0.15115761E+04</rscale>
<asrwt>0</asrwt>
<pdfrwt beam="1">  1        2 0.67104240E-01 0.15115761E+04</pdfrwt>
<pdfrwt beam="2">  1       -2 0.20147603E+00 0.15115761E+04</pdfrwt>
<totfact> 0.90406601E+00</totfact>
</mgrwt>
</event>
<event>
12    1  0.1495204E-007  0.1975465E+04  0.7818608E-02  0.8618178E-01
         -1   -1    0    0    0  501 -0.00000000000E+00  0.00000000000E+00  0.10387177296E+04  0.10387177296E+04  0.00000000000E+00 0.  1.
          1   -1    0    0  501    0  0.00000000000E+00 -0.00000000000E+00 -0.93925025035E+03  0.93925025035E+03  0.00000000000E+00 0. -1.
         23    2    1    2    0    0  0.38093725899E+03  0.56084583406E+03  0.42161232480E+03  0.80371585459E+03  0.92417409703E+02 0.  0.
        254    2    1    2    0    0 -0.38093725899E+03 -0.56084583406E+03 -0.32214484558E+03  0.11742521253E+04  0.90301135511E+03 0.  0.
        -24    2    4    4    0    0 -0.15025949668E+03 -0.71571954485E+03  0.87258378970E+01  0.73489268762E+03  0.71824361044E+02 0.  0.
         24    2    4    4    0    0 -0.23067776231E+03  0.15487371079E+03 -0.33087068347E+03  0.43935943772E+03  0.79769731170E+02 0.  0.
         13    1    3    3    0    0  0.13799219088E+03  0.12980360269E+03  0.11884152509E+03  0.22363838691E+03  0.00000000000E+00 0. -1.
        -13    1    3    3    0    0  0.24294506812E+03  0.43104223137E+03  0.30277079972E+03  0.58007746768E+03  0.00000000000E+00 0.  1.
          2    1    6    6  502    0 -0.19406657137E+03  0.15745132793E+03 -0.30573480998E+03  0.39487533327E+03  0.00000000000E+00 0. -1.
          3    1    5    5  503    0 -0.11077502017E+03 -0.57306879128E+03  0.34304894223E+02  0.58468433398E+03  0.00000000000E+00 0. -1.
         -4    1    5    5    0  503 -0.39484476513E+02 -0.14265075357E+03 -0.25579056326E+02  0.15020835364E+03  0.00000000000E+00 0.  1.
         -1    1    6    6    0  502 -0.36611190945E+02 -0.25776171402E+01 -0.25135873492E+02  0.44484104451E+02  0.00000000000E+00 0.  1.
<mgrwt>
<rscale>  0 0.19754654E+04</rscale>
<asrwt>0</asrwt>
<pdfrwt beam="1">  1        1 0.14450004E+00 0.19754654E+04</pdfrwt>
<pdfrwt beam="2">  1       -1 0.15980273E+00 0.19754654E+04</pdfrwt>
<totfact> 0.46092768E+00</totfact>
</mgrwt>
</event>
<event>
12    1  0.1495204E-007  0.2029734E+04  0.7818608E-02  0.8592844E-01
          2   -1    0    0  501    0  0.00000000000E+00  0.00000000000E+00  0.64141344419E+03  0.64141344419E+03  0.00000000000E+00 0. -1.
         -2   -1    0    0    0  501 -0.00000000000E+00 -0.00000000000E+00 -0.16057578184E+04  0.16057578184E+04  0.00000000000E+00 0.  1.
         23    2    1    2    0    0  0.10930636918E+03  0.52785824261E+03  0.28387558505E+03  0.61480366736E+03  0.82559039337E+02 0.  0.
        254    2    1    2    0    0 -0.10930636918E+03 -0.52785824261E+03 -0.12482199592E+04  0.16323675952E+04  0.90332092448E+03 0.  0.
        -24    2    4    4    0    0 -0.22838516799E+02 -0.84168705479E+02 -0.11585008299E+04  0.11647084190E+04  0.82556402240E+02 0.  0.
         24    2    4    4    0    0 -0.86467852378E+02 -0.44368953713E+03 -0.89719129369E+02  0.46765917625E+03  0.79488918064E+02 0.  0.
         11    1    3    3    0    0  0.35197899166E+01  0.69805432429E+02  0.96464084381E+01  0.70556647549E+02  0.00000000000E+00 0.  1.
        -11    1    3    3    0    0  0.10578657926E+03  0.45805281018E+03  0.27422917661E+03  0.54424701981E+03  0.00000000000E+00 0. -1.
          4    1    6    6  502    0 -0.80645781896E+02 -0.43652139591E+03 -0.74877630373E+02  0.45017922070E+03  0.00000000000E+00 0. -1.
          1    1    5    5  503    0 -0.23938563357E+02 -0.52545804187E+02 -0.10525732070E+04  0.10541558103E+04  0.00000000000E+00 0. -1.
         -2    1    5    5    0  503  0.11000465586E+01 -0.31622901292E+02 -0.10592762292E+03  0.11055260868E+03  0.00000000000E+00 0.  1.
         -3    1    6    6    0  502 -0.58220704821E+01 -0.71681412272E+01 -0.14841498996E+02  0.17479955543E+02  0.00000000000E+00 0.  1.
<mgrwt>
<rscale>  0 0.20297336E+04</rscale>
<asrwt>0</asrwt>
<pdfrwt beam="1">  1        2 0.98678992E-01 0.20297336E+04</pdfrwt>
<pdfrwt beam="2">  1       -2 0.24703966E+00 0.20297336E+04</pdfrwt>
<totfact> 0.28384587E+00</totfact>
</mgrwt>
</event>
<event>
12    1  0.1495204E-007  0.1409284E+04  0.7818608E-02  0.8947125E-01
         -4   -1    0    0    0  501 -0.00000000000E+00  0.00000000000E+00  0.88230456364E+03  0.88230456364E+03  0.00000000000E+00 0.  1.
          4   -1    0    0  501    0  0.00000000000E+00 -0.00000000000E+00 -0.56275410823E+03  0.56275410823E+03  0.00000000000E+00 0. -1.
         23    2    1    2    0    0 -0.54838245814E+02 -0.84052420863E+02  0.51864473304E+03  0.53578403984E+03  0.89443477028E+02 0.  0.
        254    2    1    2    0    0  0.54838245814E+02  0.84052420863E+02 -0.19909427763E+03  0.90927463204E+03  0.88151561666E+03 0.  0.
        -24    2    4    4    0    0  0.39734732866E+03 -0.55123846899E+02  0.10682092790E+03  0.42287431026E+03  0.80550813458E+02 0.  0.
         24    2    4    4    0    0 -0.34250908285E+03  0.13917626776E+03 -0.30591520553E+03  0.48640032178E+03  0.79489966088E+02 0.  0.
         11    1    3    3    0    0 -0.10636198660E+02  0.34981323528E+01  0.24217474125E+03  0.24243343612E+03  0.00000000000E+00 0.  1.
        -11    1    3    3    0    0 -0.44202047154E+02 -0.87550553216E+02  0.27646999179E+03  0.29335060371E+03  0.00000000000E+00 0. -1.
          2    1    6    6  502    0 -0.25504489249E+03  0.78946891932E+02 -0.25272632927E+03  0.36762903372E+03  0.00000000000E+00 0. -1.
          1    1    5    5  503    0  0.37685015501E+03 -0.68925335534E+02  0.91765970652E+02  0.39393874471E+03  0.00000000000E+00 0. -1.
         -2    1    5    5    0  503  0.20497173651E+02  0.13801488635E+02  0.15054957249E+02  0.28935565555E+02  0.00000000000E+00 0.  1.
         -1    1    6    6    0  502 -0.87464190358E+02  0.60229375830E+02 -0.53188876261E+02  0.11877128805E+03  0.00000000000E+00 0.  1.
<mgrwt>
<rscale>  0 0.14092842E+04</rscale>
<asrwt>0</asrwt>
<pdfrwt beam="1">  1        4 0.86577555E-01 0.14092842E+04</pdfrwt>
<pdfrwt beam="2">  1       -4 0.13573916E+00 0.14092842E+04</pdfrwt>
<totfact> 0.87151901E-01</totfact>
</mgrwt>
</event>
<event>
12    1  0.1495204E-007  0.2416863E+04  0.7818608E-02  0.8433217E-01
          1   -1    0    0  501    0  0.00000000000E+00  0.00000000000E+00  0.52898556230E+03  0.52898556230E+03  0.00000000000E+00 0. -1.
         -1   -1    0    0    0  501 -0.00000000000E+00 -0.00000000000E+00 -0.27605786112E+04  0.27605786112E+04  0.00000000000E+00 0.  1.
         23    2    1    2    0    0  0.79887544501E+03 -0.64221002234E+03 -0.70918725352E+03  0.12497827283E+04  0.91512938171E+02 0.  0.
        254    2    1    2    0    0 -0.79887544501E+03  0.64221002234E+03 -0.15224057954E+04  0.20397814453E+04  0.89014226344E+03 0.  0.
        -24    2    4    4    0    0 -0.27764591265E+02  0.10252510579E+03 -0.89666767044E+03  0.90668165386E+03  0.82319137432E+02 0.  0.
         24    2    4    4    0    0 -0.77111085375E+03  0.53968491655E+03 -0.62573812498E+03  0.11330997914E+04  0.80592669398E+02 0.  0.
         11    1    3    3    0    0  0.25148778764E+02 -0.38785462267E+02 -0.47699593554E+02  0.66423071156E+02  0.00000000000E+00 0. -1.
        -11    1    3    3    0    0  0.77372666625E+03 -0.60342456007E+03 -0.66148765997E+03  0.11833596571E+04  0.00000000000E+00 0.  1.
          2    1    6    6  502    0 -0.55866688815E+03  0.36438224846E+03 -0.40689953529E+03  0.78131321935E+03  0.00000000000E+00 0. -1.
          1    1    5    5  503    0 -0.85534777810E+01  0.76645840958E+02 -0.32184537232E+03  0.33095647841E+03  0.00000000000E+00 0. -1.
         -2    1    5    5    0  503 -0.19211113484E+02  0.25879264835E+02 -0.57482229812E+03  0.57572517545E+03  0.00000000000E+00 0.  1.
         -1    1    6    6    0  502 -0.21244396560E+03  0.17530266809E+03 -0.21883858969E+03  0.35178657207E+03  0.00000000000E+00 0.  1.
<mgrwt>
<rscale>  0 0.24168626E+04</rscale>
<asrwt>0</asrwt>
<pdfrwt beam="1">  1        1 0.81382393E-01 0.24168626E+04</pdfrwt>
<pdfrwt beam="2">  1       -1 0.42470441E+00 0.24168626E+04</pdfrwt>
<totfact> 0.17740192E-01</totfact>
</mgrwt>
</event>
<event>
12    1  0.1495204E-007  0.1567239E+04  0.7818608E-02  0.8840931E-01
          2   -1    0    0  501    0  0.00000000000E+00  0.00000000000E+00  0.81640139892E+03  0.81640139892E+03  0.00000000000E+00 0. -1.
         -2   -1    0    0    0  501 -0.00000000000E+00 -0.00000000000E+00 -0.75215432645E+03  0.75215432645E+03  0.00000000000E+00 0.  1.
         23    2    1    2    0    0 -0.25534641705E+03  0.27270526868E+03 -0.31635260763E+03  0.49791074254E+03  0.90918529015E+02 0.  0.
        254    2    1    2    0    0  0.25534641705E+03 -0.27270526868E+03  0.38059968010E+03  0.10706449828E+04  0.92836124785E+03 0.  0.
        -24    2    4    4    0    0  0.30928638563E+03  0.27294330603E+02 -0.22176675337E+03  0.39064414373E+03  0.83781294503E+02 0.  0.
         24    2    4    4    0    0 -0.53939968582E+02 -0.29999959928E+03  0.60236643347E+03  0.68000083910E+03  0.81526322334E+02 0.  0.
         13    1    3    3    0    0 -0.12946791916E+03  0.13345701417E+03 -0.21618085256E+03  0.28514360897E+03  0.00000000000E+00 0.  1.
        -13    1    3    3    0    0 -0.12587849789E+03  0.13924825451E+03 -0.10017175507E+03  0.21276713357E+03  0.00000000000E+00 0. -1.
          2    1    6    6  502    0  0.19327689066E+02 -0.89862014883E+02  0.20230145486E+03  0.22220400519E+03  0.00000000000E+00 0. -1.
          1    1    5    5  503    0  0.17809557205E+03  0.47886950329E+02 -0.96748568682E+02  0.20825820113E+03  0.00000000000E+00 0. -1.
         -2    1    5    5    0  503  0.13119081359E+03 -0.20592619726E+02 -0.12501818468E+03  0.18238594260E+03  0.00000000000E+00 0.  1.
         -1    1    6    6    0  502 -0.73267657648E+02 -0.21013758440E+03  0.40006497861E+03  0.45779683391E+03  0.00000000000E+00 0.  1.
<mgrwt>
<rscale>  0 0.15672394E+04</rscale>
<asrwt>0</asrwt>
<pdfrwt beam="1">  1        2 0.12560022E+00 0.15672394E+04</pdfrwt>
<pdfrwt beam="2">  1       -2 0.11571605E+00 0.15672394E+04</pdfrwt>
<totfact> 0.18716166E+01</totfact>
</mgrwt>
</event>
<event>
12    1  0.1495204E-007  0.1521978E+04  0.7818608E-02  0.8869968E-01
          1   -1    0    0  501    0  0.00000000000E+00  0.00000000000E+00  0.11585153129E+04  0.11585153129E+04  0.00000000000E+00 0. -1.
         -1   -1    0    0    0  501 -0.00000000000E+00 -0.00000000000E+00 -0.49986782221E+03  0.49986782221E+03  0.00000000000E+00 0.  1.
         23    2    1    2    0    0  0.12882164295E+03  0.24404913039E+03 -0.22416954915E+03  0.36639698554E+03  0.88542478557E+02 0.  0.
        254    2    1    2    0    0 -0.12882164295E+03 -0.24404913039E+03  0.88281703980E+03  0.12919861495E+04  0.90205725487E+03 0.  0.
        -24    2    4    4    0    0  0.18444553583E+03  0.21648999377E+02 -0.99801125339E+02  0.22393006352E+03  0.75469025881E+02 0.  0.
         24    2    4    4    0    0 -0.31326717878E+03 -0.26569812977E+03  0.98261816514E+03  0.10680560860E+04  0.80458206053E+02 0.  0.
         13    1    3    3    0    0 -0.43792504493E+01  0.56240685158E+02 -0.67170405951E+02  0.87715767894E+02  0.00000000000E+00 0. -1.
        -13    1    3    3    0    0  0.13320089340E+03  0.18780844523E+03 -0.15699914320E+03  0.27868121764E+03  0.00000000000E+00 0.  1.
          2    1    6    6  502    0 -0.85946645328E+02 -0.30747048997E+02  0.19630476282E+03  0.21648964588E+03  0.00000000000E+00 0. -1.
          1    1    5    5  503    0  0.88116920544E+01  0.21651161168E+02 -0.35263939679E+01  0.23640096261E+02  0.00000000000E+00 0. -1.
         -2    1    5    5    0  503  0.17563384378E+03 -0.21617916087E-02 -0.96274731371E+02  0.20028996726E+03  0.00000000000E+00 0.  1.
         -1    1    6    6    0  502 -0.22732053345E+03 -0.23495108077E+03  0.78631340231E+03  0.85156644012E+03  0.00000000000E+00 0.  1.
<mgrwt>
<rscale>  0 0.15219784E+04</rscale>
<asrwt>0</asrwt>
<pdfrwt beam="1">  1        1 0.17823312E+00 0.15219784E+04</pdfrwt>
<pdfrwt beam="2">  1       -1 0.76902742E-01 0.15219784E+04</pdfrwt>
<totfact> 0.18779284E+01</totfact>
</mgrwt>
</event>
<event>
12    1  0.1495204E-007  0.1367488E+04  0.7818608E-02  0.8977695E-01
         -2   -1    0    0    0  501 -0.00000000000E+00  0.00000000000E+00  0.13713490532E+03  0.13713490532E+03  0.00000000000E+00 0.  1.
          2   -1    0    0  501    0  0.00000000000E+00 -0.00000000000E+00 -0.34090926133E+04  0.34090926133E+04  0.00000000000E+00 0. -1.
         23    2    1    2    0    0  0.10739759956E+03  0.27264466837E+03 -0.16072772883E+04  0.16358123982E+04  0.81685745568E+02 0.  0.
        254    2    1    2    0    0 -0.10739759956E+03 -0.27264466837E+03 -0.16646804196E+04  0.19104151203E+04  0.89031212115E+03 0.  0.
        -24    2    4    4    0    0  0.17708599749E+03 -0.47484087963E+03 -0.13072164012E+04  0.14042418377E+04  0.79038646114E+02 0.  0.
         24    2    4    4    0    0 -0.28448359705E+03  0.20219621126E+03 -0.35746401836E+03  0.50617328265E+03  0.81342748968E+02 0.  0.
         13    1    3    3    0    0  0.94986913539E+02  0.18994217997E+03 -0.96356194788E+03  0.98668747478E+03  0.00000000000E+00 0. -1.
        -13    1    3    3    0    0  0.12410686023E+02  0.82702488392E+02 -0.64371534046E+03  0.64912492346E+03  0.00000000000E+00 0.  1.
          4    1    6    6  502    0 -0.94186552784E+01  0.33692401294E+02 -0.25455117854E+02  0.43264904914E+02  0.00000000000E+00 0. -1.
          1    1    5    5  503    0  0.61221490745E+02 -0.23836798174E+03 -0.55023701850E+03  0.60276707124E+03  0.00000000000E+00 0. -1.
         -2    1    5    5    0  503  0.11586450674E+03 -0.23647289789E+03 -0.75697938274E+03  0.80147476644E+03  0.00000000000E+00 0.  1.
         -3    1    6    6    0  502 -0.27506494177E+03  0.16850380997E+03 -0.33200890050E+03  0.46290837774E+03  0.00000000000E+00 0.  1.
<mgrwt>
<rscale>  0 0.13674876E+04</rscale>
<asrwt>0</asrwt>
<pdfrwt beam="1">  1        2 0.52447578E+00 0.13674876E+04</pdfrwt>
<pdfrwt beam="2">  1       -2 0.21097678E-01 0.13674876E+04</pdfrwt>
<totfact> 0.18132238E+01</totfact>
</mgrwt>
</event>
<event>
12    1  0.1495204E-007  0.1913940E+04  0.7818608E-02  0.8647948E-01
          2   -1    0    0  501    0  0.00000000000E+00  0.00000000000E+00  0.52261146436E+03  0.52261146436E+03  0.00000000000E+00 0. -1.
         -2   -1    0    0    0  501 -0.00000000000E+00 -0.00000000000E+00 -0.17523373713E+04  0.17523373713E+04  0.00000000000E+00 0.  1.
         23    2    1    2    0    0 -0.45585101901E+03  0.22093591471E+03  0.16684263140E+03  0.54104278137E+03  0.90983502214E+02 0.  0.
        254    2    1    2    0    0  0.45585101901E+03 -0.22093591471E+03 -0.13965685383E+04  0.17339060543E+04  0.89409937525E+03 0.  0.
        -24    2    4    4    0    0  0.16061471478E+02 -0.38014525371E+03 -0.18041641877E+03  0.42848819129E+03  0.79269547316E+02 0.  0.
         24    2    4    4    0    0  0.43978954754E+03  0.15920933900E+03 -0.12161521196E+04  0.13054178630E+04  0.79544700184E+02 0.  0.
         13    1    3    3    0    0 -0.45025905577E+03  0.22699642027E+03  0.15682335840E+03  0.52806643319E+03  0.00000000000E+00 0. -1.
        -13    1    3    3    0    0 -0.55919632387E+01 -0.60605055605E+01  0.10019273008E+02  0.12976348181E+02  0.00000000000E+00 0.  1.
          2    1    6    6  502    0  0.25029560717E+03  0.65209915886E+02 -0.75475227260E+03  0.79784159900E+03  0.00000000000E+00 0. -1.
          1    1    5    5  503    0  0.18738521075E+02 -0.37702925423E+03 -0.16402543410E+03  0.41159024983E+03  0.00000000000E+00 0. -1.
         -2    1    5    5    0  503 -0.26770495975E+01 -0.31159994749E+01 -0.16390984673E+02  0.16897941467E+02  0.00000000000E+00 0.  1.
         -1    1    6    6    0  502  0.18949394037E+03  0.93999423109E+02 -0.46139984696E+03  0.50757626398E+03  0.00000000000E+00 0.  1.
<mgrwt>
<rscale>  0 0.19139400E+04</rscale>
<asrwt>0</asrwt>
<pdfrwt beam="1">  1        2 0.80401765E-01 0.19139400E+04</pdfrwt>
<pdfrwt beam="2">  1       -2 0.26959036E+00 0.19139400E+04</pdfrwt>
<totfact> 0.26675528E+00</totfact>
</mgrwt>
</event>
<event>
12    1  0.1495204E-007  0.1360438E+04  0.7818608E-02  0.8982964E-01
         -1   -1    0    0    0  501 -0.00000000000E+00  0.00000000000E+00  0.20867719086E+03  0.20867719086E+03  0.00000000000E+00 0.  1.
          1   -1    0    0  501    0  0.00000000000E+00 -0.00000000000E+00 -0.22172892851E+04  0.22172892851E+04  0.00000000000E+00 0. -1.
         23    2    1    2    0    0 -0.12299005835E+03 -0.32262593330E+03 -0.31770245841E+03  0.47823275312E+03  0.92507658011E+02 0.  0.
        254    2    1    2    0    0  0.12299005835E+03  0.32262593330E+03 -0.16909096358E+04  0.19477337228E+04  0.90292702431E+03 0.  0.
        -24    2    4    4    0    0  0.47816101998E+03  0.35221601336E+03 -0.11188118783E+04  0.12691356163E+04  0.79190355404E+02 0.  0.
         24    2    4    4    0    0 -0.35517096163E+03 -0.29590080059E+02 -0.57209775755E+03  0.67859810657E+03  0.78597463175E+02 0.  0.
         11    1    3    3    0    0 -0.93016377573E+02 -0.30682283371E+03 -0.26689849981E+03  0.41716556304E+03  0.00000000000E+00 0.  1.
        -11    1    3    3    0    0 -0.29973680776E+02 -0.15803099590E+02 -0.50803958593E+02  0.61067190083E+02  0.00000000000E+00 0. -1.
          2    1    6    6  502    0 -0.61857452689E+02  0.20983433305E+02 -0.77577111565E+02  0.10141428482E+03  0.00000000000E+00 0. -1.
          3    1    5    5  503    0  0.17439941758E+03  0.12762855357E+03 -0.49054097542E+03  0.53603605578E+03  0.00000000000E+00 0. -1.
         -4    1    5    5    0  503  0.30376160240E+03  0.22458745979E+03 -0.62827090287E+03  0.73309956049E+03  0.00000000000E+00 0.  1.
         -1    1    6    6    0  502 -0.29331350895E+03 -0.50573513364E+02 -0.49452064598E+03  0.57718382175E+03  0.00000000000E+00 0.  1.
<mgrwt>
<rscale>  0 0.13604377E+04</rscale>
<asrwt>0</asrwt>
<pdfrwt beam="1">  1        1 0.34112142E+00 0.13604377E+04</pdfrwt>
<pdfrwt beam="2">  1       -1 0.32104184E-01 0.13604377E+04</pdfrwt>
<totfact> 0.18810814E+01</totfact>
</mgrwt>
</event>
<event>
12    1  0.1495204E-007  0.1934348E+04  0.7818608E-02  0.8637945E-01
          2   -1    0    0  501    0  0.00000000000E+00  0.00000000000E+00  0.17487439528E+04  0.17487439528E+04  0.00000000000E+00 0. -1.
         -2   -1    0    0    0  501 -0.00000000000E+00 -0.00000000000E+00 -0.53491304883E+03  0.53491304883E+03  0.00000000000E+00 0.  1.
         23    2    1    2    0    0 -0.49203491047E+03  0.26586763311E+03  0.10718243288E+04  0.12122930883E+04  0.89795259057E+02 0.  0.
        254    2    1    2    0    0  0.49203491047E+03 -0.26586763311E+03  0.14200657511E+03  0.10713639133E+04  0.90270195301E+03 0.  0.
        -24    2    4    4    0    0  0.47956261467E+02  0.19864446349E+03 -0.23537716699E+03  0.32163049930E+03  0.79273838358E+02 0.  0.
         24    2    4    4    0    0  0.44407864900E+03 -0.46451209660E+03  0.37738374210E+03  0.74973341404E+03  0.81880210888E+02 0.  0.
         13    1    3    3    0    0 -0.49515270407E+03  0.25926985111E+03  0.10613827950E+04  0.11995542895E+04  0.00000000000E+00 0. -1.
        -13    1    3    3    0    0  0.31177936075E+01  0.65977819990E+01  0.10441533837E+02  0.12738798733E+02  0.00000000000E+00 0.  1.
          2    1    6    6  502    0  0.32449068327E+03 -0.30808231098E+03  0.29704060446E+03  0.53706799808E+03  0.00000000000E+00 0. -1.
          1    1    5    5  503    0  0.13422844309E+01  0.74514856970E+02 -0.13897313764E+03  0.15769527140E+03  0.00000000000E+00 0. -1.
         -2    1    5    5    0  503  0.46613977036E+02  0.12412960652E+03 -0.96404029350E+02  0.16393522790E+03  0.00000000000E+00 0.  1.
         -3    1    6    6    0  502  0.11958796573E+03 -0.15642978562E+03  0.80343137643E+02  0.21266541596E+03  0.00000000000E+00 0.  1.
<mgrwt>
<rscale>  0 0.19343484E+04</rscale>
<asrwt>0</asrwt>
<pdfrwt beam="1">  1        2 0.26903753E+00 0.19343484E+04</pdfrwt>
<pdfrwt beam="2">  1       -2 0.82294316E-01 0.19343484E+04</pdfrwt>
<totfact> 0.11158537E+01</totfact>
</mgrwt>
</event>
<event>
12    1  0.1495204E-007  0.1243429E+04  0.7818608E-02  0.9075670E-01
          2   -1    0    0  501    0  0.00000000000E+00  0.00000000000E+00  0.51609255321E+03  0.51609255321E+03  0.00000000000E+00 0. -1.
         -2   -1    0    0    0  501 -0.00000000000E+00 -0.00000000000E+00 -0.74895306588E+03  0.74895306588E+03  0.00000000000E+00 0.  1.
         23    2    1    2    0    0  0.35747866437E+02  0.15751059810E+03  0.17476393476E+03  0.25469347150E+03  0.90768017837E+02 0.  0.
        254    2    1    2    0    0 -0.35747866437E+02 -0.15751059810E+03 -0.40762444743E+03  0.10103521476E+04  0.91025615819E+03 0.  0.
        -24    2    4    4    0    0  0.24850715600E+03 -0.42938872859E+03 -0.33167840870E+03  0.60172486058E+03  0.77017882451E+02 0.  0.
         24    2    4    4    0    0 -0.28425502244E+03  0.27187813049E+03 -0.75946038729E+02  0.40862728701E+03  0.80559439367E+02 0.  0.
         11    1    3    3    0    0  0.29496357698E+02  0.15930674802E+03  0.12532704464E+03  0.20483052312E+03  0.00000000000E+00 0.  1.
        -11    1    3    3    0    0  0.62515087381E+01 -0.17961499246E+01  0.49436890123E+02  0.49862948379E+02  0.00000000000E+00 0. -1.
          4    1    6    6  502    0 -0.34043029093E+01  0.30858487114E+02 -0.12351830044E+01  0.31070262025E+02  0.00000000000E+00 0. -1.
          1    1    5    5  503    0 -0.39537103746E+01 -0.15390120849E+01  0.26062682441E+00  0.42506835057E+01  0.00000000000E+00 0. -1.
         -2    1    5    5    0  503  0.25246086637E+03 -0.42784971650E+03 -0.33193903553E+03  0.59747417707E+03  0.00000000000E+00 0.  1.
         -3    1    6    6    0  502 -0.28085071953E+03  0.24101964337E+03 -0.74710855725E+02  0.37755702498E+03  0.00000000000E+00 0.  1.
<mgrwt>
<rscale>  0 0.12434293E+04</rscale>
<asrwt>0</asrwt>
<pdfrwt beam="1">  1        2 0.79398854E-01 0.12434293E+04</pdfrwt>
<pdfrwt beam="2">  1       -2 0.11522355E+00 0.12434293E+04</pdfrwt>
<totfact> 0.34260459E+01</totfact>
</mgrwt>
</event>
<event>
12    1  0.1495204E-007  0.1739362E+04  0.7818608E-02  0.8739228E-01
         -2   -1    0    0    0  501 -0.00000000000E+00  0.00000000000E+00  0.64116003331E+03  0.64116003331E+03  0.00000000000E+00 0.  1.
          2   -1    0    0  501    0  0.00000000000E+00 -0.00000000000E+00 -0.11796505297E+04  0.11796505297E+04  0.00000000000E+00 0. -1.
         23    2    1    2    0    0 -0.12301067151E+03  0.61104674537E+03 -0.33253812521E+03  0.71241060613E+03  0.91855956122E+02 0.  0.
        254    2    1    2    0    0  0.12301067151E+03 -0.61104674537E+03 -0.20595237112E+03  0.11083999568E+04  0.89309816639E+03 0.  0.
        -24    2    4    4    0    0 -0.13782125285E+03  0.75475945327E+02 -0.31637653817E+03  0.36138230801E+03  0.76234785891E+02 0.  0.
         24    2    4    4    0    0  0.26083192436E+03 -0.68652269069E+03  0.11042416705E+03  0.74701764882E+03  0.80592638467E+02 0.  0.
         11    1    3    3    0    0 -0.10341862362E+03  0.47084836130E+03 -0.29784212548E+03  0.56665997103E+03  0.00000000000E+00 0. -1.
        -11    1    3    3    0    0 -0.19592047893E+02  0.14019838407E+03 -0.34695999728E+02  0.14575063510E+03  0.00000000000E+00 0.  1.
          2    1    6    6  502    0  0.23207731436E+03 -0.51477634706E+03  0.83622327500E+02  0.57083032592E+03  0.00000000000E+00 0. -1.
          1    1    5    5  503    0 -0.20529313777E+02  0.64219689258E+01 -0.57826625306E+01  0.22274056545E+02  0.00000000000E+00 0. -1.
         -2    1    5    5    0  503 -0.11729193907E+03  0.69053976402E+02 -0.31059387564E+03  0.33910825147E+03  0.00000000000E+00 0.  1.
         -1    1    6    6    0  502  0.28754610008E+02 -0.17174634363E+03  0.26801839549E+02  0.17618732290E+03  0.00000000000E+00 0.  1.
<mgrwt>
<rscale>  0 0.17393617E+04</rscale>
<asrwt>0</asrwt>
<pdfrwt beam="1">  1        2 0.18148470E+00 0.17393617E+04</pdfrwt>
<pdfrwt beam="2">  1       -2 0.98640005E-01 0.17393617E+04</pdfrwt>
<totfact> 0.15769986E+01</totfact>
</mgrwt>
</event>
<event>
12    1  0.1495204E-007  0.9611030E+03  0.7818608E-02  0.9352266E-01
         -2   -1    0    0    0  501 -0.00000000000E+00  0.00000000000E+00  0.30839594403E+03  0.30839594403E+03  0.00000000000E+00 0.  1.
          2   -1    0    0  501    0  0.00000000000E+00 -0.00000000000E+00 -0.74880929771E+03  0.74880929771E+03  0.00000000000E+00 0. -1.
         23    2    1    2    0    0 -0.14792171451E+02 -0.13030373590E+02  0.10092169647E+03  0.13772137120E+03  0.91615436995E+02 0.  0.
        254    2    1    2    0    0  0.14792171451E+02  0.13030373590E+02 -0.54133505015E+03  0.91948387054E+03  0.74297937568E+03 0.  0.
        -24    2    4    4    0    0 -0.17878387960E+03 -0.26787172754E+03 -0.81988695239E+02  0.34162017757E+03  0.79140770491E+02 0.  0.
         24    2    4    4    0    0  0.19357605105E+03  0.28090210113E+03 -0.45934635491E+03  0.57786369297E+03  0.80930191711E+02 0.  0.
         11    1    3    3    0    0  0.10031738885E+02  0.15452655664E+02  0.98120662754E+02  0.99835288408E+02  0.00000000000E+00 0.  1.
        -11    1    3    3    0    0 -0.24823910336E+02 -0.28483029254E+02  0.28010337171E+01  0.37886082797E+02  0.00000000000E+00 0. -1.
          4    1    6    6  502    0  0.14758664782E+03  0.15637024370E+03 -0.31879049432E+03  0.38452678840E+03  0.00000000000E+00 0. -1.
          1    1    5    5  503    0 -0.14768000761E+03 -0.25914759803E+03 -0.65621828287E+02  0.30540642849E+03  0.00000000000E+00 0. -1.
         -2    1    5    5    0  503 -0.31103871989E+02 -0.87241295030E+01 -0.16366866952E+02  0.36213749076E+02  0.00000000000E+00 0.  1.
         -3    1    6    6    0  502  0.45989403233E+02  0.12453185742E+03 -0.14055586059E+03  0.19333690457E+03  0.00000000000E+00 0.  1.
<mgrwt>
<rscale>  0 0.96110301E+03</rscale>
<asrwt>0</asrwt>
<pdfrwt beam="1">  1        2 0.11520143E+00 0.96110301E+03</pdfrwt>
<pdfrwt beam="2">  1       -2 0.47445530E-01 0.96110301E+03</pdfrwt>
<totfact> 0.15823498E+02</totfact>
</mgrwt>
</event>
<event>
12    1  0.1495204E-007  0.2529433E+04  0.7818608E-02  0.8392574E-01
          2   -1    0    0  501    0  0.00000000000E+00  0.00000000000E+00  0.17056886053E+04  0.17056886053E+04  0.00000000000E+00 0. -1.
         -2   -1    0    0    0  501 -0.00000000000E+00 -0.00000000000E+00 -0.93774924345E+03  0.93774924345E+03  0.00000000000E+00 0.  1.
         23    2    1    2    0    0  0.48999691478E+03 -0.64287117450E+03  0.11187777737E+04  0.13832324111E+04  0.91037753769E+02 0.  0.
        254    2    1    2    0    0 -0.48999691478E+03  0.64287117450E+03 -0.35083841193E+03  0.12602054376E+04  0.90091610608E+03 0.  0.
        -24    2    4    4    0    0 -0.61155659766E+03  0.81049862309E+02 -0.10851666258E+03  0.63143643810E+03  0.79784440760E+02 0.  0.
         24    2    4    4    0    0  0.12155968287E+03  0.56182131219E+03 -0.24232174935E+03  0.62876899951E+03  0.78807875267E+02 0.  0.
         11    1    3    3    0    0  0.31169917701E+03 -0.45566369969E+03  0.70681955404E+03  0.89687215708E+03  0.00000000000E+00 0. -1.
        -11    1    3    3    0    0  0.17829773777E+03 -0.18720747481E+03  0.41195821969E+03  0.48636025402E+03  0.00000000000E+00 0.  1.
          2    1    6    6  502    0  0.65253018647E+02  0.21080427225E+03 -0.57258975006E+02  0.22798023568E+03  0.00000000000E+00 0. -1.
          3    1    5    5  503    0 -0.12997042199E+03 -0.64651537807E+01 -0.24540261024E+00  0.13013135298E+03  0.00000000000E+00 0. -1.
         -4    1    5    5    0  503 -0.48158617566E+03  0.87515016090E+02 -0.10827125997E+03  0.50130508512E+03  0.00000000000E+00 0.  1.
         -1    1    6    6    0  502  0.56306664226E+02  0.35101703994E+03 -0.18506277435E+03  0.40078876383E+03  0.00000000000E+00 0.  1.
<mgrwt>
<rscale>  0 0.25294333E+04</rscale>
<asrwt>0</asrwt>
<pdfrwt beam="1">  1        2 0.26241363E+00 0.25294333E+04</pdfrwt>
<pdfrwt beam="2">  1       -2 0.14426911E+00 0.25294333E+04</pdfrwt>
<totfact> 0.28767013E+00</totfact>
</mgrwt>
</event>
<event>
12    1  0.1495204E-007  0.1796427E+04  0.7818608E-02  0.8708202E-01
         -1   -1    0    0    0  501 -0.00000000000E+00  0.00000000000E+00  0.51029792865E+03  0.51029792865E+03  0.00000000000E+00 0.  1.
          1   -1    0    0  501    0  0.00000000000E+00 -0.00000000000E+00 -0.15810124917E+04  0.15810124917E+04  0.00000000000E+00 0. -1.
         23    2    1    2    0    0 -0.34870778725E+03  0.21182507297E+03 -0.10062129609E+04  0.10899883137E+04  0.95619134098E+02 0.  0.
        254    2    1    2    0    0  0.34870778725E+03 -0.21182507297E+03 -0.64501602111E+02  0.10013221067E+04  0.91215049316E+03 0.  0.
        -24    2    4    4    0    0  0.60421954890E+03 -0.11300508840E+03 -0.24192780227E+03  0.66550678676E+03  0.80739138214E+02 0.  0.
         24    2    4    4    0    0 -0.25551176165E+03 -0.98819984575E+02  0.17742620016E+03  0.33581531989E+03  0.78995081320E+02 0.  0.
         11    1    3    3    0    0 -0.20048004444E+03  0.12206780837E+03 -0.69792481456E+03  0.73633677406E+03  0.00000000000E+00 0.  1.
        -11    1    3    3    0    0 -0.14822774281E+03  0.89757264603E+02 -0.30828814638E+03  0.35365153963E+03  0.00000000000E+00 0. -1.
          4    1    6    6  502    0 -0.25979382471E+02 -0.96133279002E+01 -0.64991719429E+01  0.28453183000E+02  0.00000000000E+00 0. -1.
          1    1    5    5  503    0  0.13354663172E+03 -0.54669394985E+02 -0.75638859058E+02  0.16292538964E+03  0.00000000000E+00 0. -1.
         -2    1    5    5    0  503  0.47067291718E+03 -0.58335693411E+02 -0.16628894321E+03  0.50258139712E+03  0.00000000000E+00 0.  1.
         -3    1    6    6    0  502 -0.22953237918E+03 -0.89206656674E+02  0.18392537210E+03  0.30736213689E+03  0.00000000000E+00 0.  1.
<mgrwt>
<rscale>  0 0.17964269E+04</rscale>
<asrwt>0</asrwt>
<pdfrwt beam="1">  1        1 0.24323269E+00 0.17964269E+04</pdfrwt>
<pdfrwt beam="2">  1       -1 0.78507375E-01 0.17964269E+04</pdfrwt>
<totfact> 0.88124619E+00</totfact>
</mgrwt>
</event>
<event>
12    1  0.1495204E-007  0.1341944E+04  0.7818608E-02  0.8996949E-01
         -2   -1    0    0    0  501 -0.00000000000E+00  0.00000000000E+00  0.24391307787E+03  0.24391307787E+03  0.00000000000E+00 0.  1.
          2   -1    0    0  501    0  0.00000000000E+00 -0.00000000000E+00 -0.18457540178E+04  0.18457540178E+04  0.00000000000E+00 0. -1.
         23    2    1    2    0    0 -0.25069071619E+03  0.20629721378E+03 -0.19583997205E+03  0.38987740164E+03  0.90811442383E+02 0.  0.
        254    2    1    2    0    0  0.25069071619E+03 -0.20629721378E+03 -0.14060009679E+04  0.16997896940E+04  0.89835511167E+03 0.  0.
        -24    2    4    4    0    0 -0.58231386914E+02 -0.20000070926E+03 -0.13586125221E+04  0.13767529590E+04  0.78927478129E+02 0.  0.
         24    2    4    4    0    0  0.30892210310E+03 -0.62965045198E+01 -0.47388445820E+02  0.32303673506E+03  0.81452781725E+02 0.  0.
         13    1    3    3    0    0 -0.14544858155E+03  0.10405274922E+03 -0.56554645082E+02  0.18756516834E+03  0.00000000000E+00 0.  1.
        -13    1    3    3    0    0 -0.10524213463E+03  0.10224446456E+03 -0.13928532697E+03  0.20231223330E+03  0.00000000000E+00 0. -1.
          4    1    6    6  502    0  0.28764635316E+03 -0.11214443193E+02 -0.64847383280E+02  0.29507858503E+03  0.00000000000E+00 0. -1.
          1    1    5    5  503    0 -0.70922036821E+02 -0.17361248903E+03 -0.12601506731E+04  0.12740294151E+04  0.00000000000E+00 0. -1.
         -2    1    5    5    0  503  0.12690649907E+02 -0.26388220224E+02 -0.98461848935E+02  0.10272354383E+03  0.00000000000E+00 0.  1.
         -3    1    6    6    0  502  0.21275749937E+02  0.49179386732E+01  0.17458937460E+02  0.27958150036E+02  0.00000000000E+00 0.  1.
<mgrwt>
<rscale>  0 0.13419442E+04</rscale>
<asrwt>0</asrwt>
<pdfrwt beam="1">  1        2 0.28396216E+00 0.13419442E+04</pdfrwt>
<pdfrwt beam="2">  1       -2 0.37525089E-01 0.13419442E+04</pdfrwt>
<totfact> 0.53290525E+01</totfact>
</mgrwt>
</event>
<event>
12    1  0.1495204E-007  0.2245410E+04  0.7818608E-02  0.8499762E-01
          2   -1    0    0  501    0  0.00000000000E+00  0.00000000000E+00  0.17407735907E+04  0.17407735907E+04  0.00000000000E+00 0. -1.
         -2   -1    0    0    0  501 -0.00000000000E+00 -0.00000000000E+00 -0.72408393373E+03  0.72408393373E+03  0.00000000000E+00 0.  1.
         23    2    1    2    0    0  0.61399929804E+03 -0.28171185213E+03  0.11642778643E+04  0.13491500128E+04  0.91137840614E+02 0.  0.
        254    2    1    2    0    0 -0.61399929804E+03  0.28171185213E+03 -0.14758820732E+03  0.11157075117E+04  0.87559366550E+03 0.  0.
        -24    2    4    4    0    0 -0.63911896035E+03  0.96006027507E+02  0.22712846346E+03  0.68938629908E+03  0.77304124343E+02 0.  0.
         24    2    4    4    0    0  0.25119662316E+02  0.18570582462E+03 -0.37471667078E+03  0.42632121261E+03  0.78864074356E+02 0.  0.
         11    1    3    3    0    0  0.59749809562E+03 -0.27972503765E+03  0.10992332265E+04  0.12820155058E+04  0.00000000000E+00 0. -1.
        -11    1    3    3    0    0  0.16501202418E+02 -0.19868144861E+01  0.65044637791E+02  0.67134506913E+02  0.00000000000E+00 0.  1.
          2    1    6    6  502    0 -0.17463340093E+02  0.11108673568E+03 -0.25756599563E+03  0.28104354324E+03  0.00000000000E+00 0. -1.
          1    1    5    5  503    0 -0.81886907968E+02 -0.12417879992E+02  0.21051237677E+02  0.85456562344E+02  0.00000000000E+00 0. -1.
         -2    1    5    5    0  503 -0.55723205239E+03  0.10842390750E+03  0.20607722578E+03  0.60392973673E+03  0.00000000000E+00 0.  1.
         -1    1    6    6    0  502  0.42583002409E+02  0.74619088941E+02 -0.11715067515E+03  0.14527766936E+03  0.00000000000E+00 0.  1.
<mgrwt>
<rscale>  0 0.22454097E+04</rscale>
<asrwt>0</asrwt>
<pdfrwt beam="1">  1        2 0.26781132E+00 0.22454097E+04</pdfrwt>
<pdfrwt beam="2">  1       -2 0.11139753E+00 0.22454097E+04</pdfrwt>
<totfact> 0.54014092E+00</totfact>
</mgrwt>
</event>
<event>
12    1  0.1495204E-007  0.1750024E+04  0.7818608E-02  0.8733337E-01
          2   -1    0    0  501    0  0.00000000000E+00  0.00000000000E+00  0.18345166269E+04  0.18345166269E+04  0.00000000000E+00 0.  1.
         -2   -1    0    0    0  501 -0.00000000000E+00 -0.00000000000E+00 -0.41735568718E+03  0.41735568718E+03  0.00000000000E+00 0. -1.
         23    2    1    2    0    0 -0.13410166527E+03  0.48964754874E+03  0.26563344099E+02  0.51682246104E+03  0.93069148335E+02 0.  0.
        254    2    1    2    0    0  0.13410166527E+03 -0.48964754874E+03  0.13905975956E+04  0.17350498530E+04  0.90493001992E+03 0.  0.
        -24    2    4    4    0    0 -0.50553167080E+02 -0.55419087174E+03  0.14147819299E+04  0.15223985714E+04  0.80039715325E+02 0.  0.
         24    2    4    4    0    0  0.18465483235E+03  0.64543323005E+02 -0.24184334214E+02  0.21265128168E+03  0.79827551178E+02 0.  0.
         13    1    3    3    0    0 -0.55651630264E+02  0.71138472424E+02  0.64007266011E+01  0.90546979580E+02  0.00000000000E+00 0.  1.
        -13    1    3    3    0    0 -0.78450035002E+02  0.41850907631E+03  0.20162617498E+02  0.42627548146E+03  0.00000000000E+00 0. -1.
          2    1    6    6  502    0  0.51431986043E+02  0.53708295521E+02 -0.26570608175E+02  0.78967255334E+02  0.00000000000E+00 0. -1.
          1    1    5    5  503    0 -0.20521619732E+02 -0.25924911941E+02  0.79271500794E+02  0.85890679202E+02  0.00000000000E+00 0. -1.
         -2    1    5    5    0  503 -0.30031547349E+02 -0.52826595980E+03  0.13355104291E+04  0.14365078922E+04  0.00000000000E+00 0.  1.
         -1    1    6    6    0  502  0.13322284630E+03  0.10835027483E+02  0.23862739614E+01  0.13368402635E+03  0.00000000000E+00 0.  1.
<mgrwt>
<rscale>  0 0.17500239E+04</rscale>
<asrwt>0</asrwt>
<pdfrwt beam="1">  1        2 0.28223332E+00 0.17500239E+04</pdfrwt>
<pdfrwt beam="2">  1       -2 0.64208569E-01 0.17500239E+04</pdfrwt>
<totfact> 0.17538686E+01</totfact>
</mgrwt>
</event>
<event>
12    1  0.1495204E-007  0.1650690E+04  0.7818608E-02  0.8789998E-01
          2   -1    0    0  501    0  0.00000000000E+00  0.00000000000E+00  0.51337349592E+03  0.51337349592E+03  0.00000000000E+00 0. -1.
         -2   -1    0    0    0  501 -0.00000000000E+00 -0.00000000000E+00 -0.13268983440E+04  0.13268983440E+04  0.00000000000E+00 0.  1.
         23    2    1    2    0    0  0.29752007830E+03 -0.28893414495E+03 -0.70788547199E+03  0.82572517784E+03  0.93376071617E+02 0.  0.
        254    2    1    2    0    0 -0.29752007830E+03  0.28893414495E+03 -0.10563937612E+03  0.10145466621E+04  0.91986092139E+03 0.  0.
        -24    2    4    4    0    0 -0.57677363273E+03  0.20928998480E+03  0.13014768496E+03  0.63230726002E+03  0.80024558914E+02 0.  0.
         24    2    4    4    0    0  0.27925355442E+03  0.79644160143E+02 -0.23578706108E+03  0.38223940209E+03  0.78649109540E+02 0.  0.
         11    1    3    3    0    0  0.18986639683E+03 -0.23513558560E+03 -0.46371139143E+03  0.55350361047E+03  0.00000000000E+00 0.  1.
        -11    1    3    3    0    0  0.10765368148E+03 -0.53798559344E+02 -0.24417408056E+03  0.27222156737E+03  0.00000000000E+00 0. -1.
          4    1    6    6  502    0  0.24382155642E+03  0.74638136327E+02 -0.23451201370E+03  0.34643280350E+03  0.00000000000E+00 0. -1.
          1    1    5    5  503    0 -0.28345208313E+03  0.14519413048E+03  0.62969469626E+02  0.32464068300E+03  0.00000000000E+00 0. -1.
         -2    1    5    5    0  503 -0.29332154959E+03  0.64095854326E+02  0.67178215334E+02  0.30766657702E+03  0.00000000000E+00 0.  1.
         -3    1    6    6    0  502  0.35431998000E+02  0.50060238157E+01 -0.12750473849E+01  0.35806598590E+02  0.00000000000E+00 0.  1.
<mgrwt>
<rscale>  0 0.16506901E+04</rscale>
<asrwt>0</asrwt>
<pdfrwt beam="1">  1        2 0.78980539E-01 0.16506901E+04</pdfrwt>
<pdfrwt beam="2">  1       -2 0.20413820E+00 0.16506901E+04</pdfrwt>
<totfact> 0.71207678E+00</totfact>
</mgrwt>
</event>
<event>
12    1  0.1495204E-007  0.1625385E+04  0.7818608E-02  0.8805103E-01
          2   -1    0    0  501    0  0.00000000000E+00  0.00000000000E+00  0.10575332483E+04  0.10575332483E+04  0.00000000000E+00 0. -1.
         -2   -1    0    0    0  501 -0.00000000000E+00 -0.00000000000E+00 -0.62453768088E+03  0.62453768088E+03  0.00000000000E+00 0.  1.
         23    2    1    2    0    0 -0.43398803017E+03  0.21842512878E+03  0.40150424268E+03  0.63841352816E+03  0.10154323629E+03 0.  0.
        254    2    1    2    0    0  0.43398803017E+03 -0.21842512878E+03  0.31491324733E+02  0.10436574010E+04  0.92313266650E+03 0.  0.
        -24    2    4    4    0    0  0.13202854282E+03  0.22391224046E+03 -0.30310059828E+03  0.40716667389E+03  0.79664923896E+02 0.  0.
         24    2    4    4    0    0  0.30195948735E+03 -0.44233736925E+03  0.33459192301E+03  0.63649072713E+03  0.79541250608E+02 0.  0.
         11    1    3    3    0    0 -0.40779350661E+02  0.51269925079E+02  0.29293157637E+02  0.71761060070E+02  0.00000000000E+00 0.  1.
        -11    1    3    3    0    0 -0.39320867951E+03  0.16715520370E+03  0.37221108504E+03  0.56665246809E+03  0.00000000000E+00 0. -1.
          4    1    6    6  502    0  0.13919586629E+03 -0.19303181096E+03  0.10312694028E+03  0.25936833856E+03  0.00000000000E+00 0. -1.
          1    1    5    5  503    0  0.14601836513E+02  0.10071619763E+02 -0.60765624650E+02  0.63301755847E+02  0.00000000000E+00 0. -1.
         -2    1    5    5    0  503  0.11742670631E+03  0.21384062070E+03 -0.24233497363E+03  0.34386491804E+03  0.00000000000E+00 0.  1.
         -3    1    6    6    0  502  0.16276362106E+03 -0.24930555828E+03  0.23146498273E+03  0.37712238857E+03  0.00000000000E+00 0.  1.
<mgrwt>
<rscale>  0 0.16253853E+04</rscale>
<asrwt>0</asrwt>
<pdfrwt beam="1">  1        2 0.16269742E+00 0.16253853E+04</pdfrwt>
<pdfrwt beam="2">  1       -2 0.96082720E-01 0.16253853E+04</pdfrwt>
<totfact> 0.20116565E+01</totfact>
</mgrwt>
</event>
<event>
12    1  0.1495204E-007  0.1268340E+04  0.7818608E-02  0.9055056E-01
          1   -1    0    0  501    0  0.00000000000E+00  0.00000000000E+00  0.21889259013E+04  0.21889259013E+04  0.00000000000E+00 0. -1.
         -1   -1    0    0    0  501 -0.00000000000E+00 -0.00000000000E+00 -0.18373006030E+03  0.18373006030E+03  0.00000000000E+00 0.  1.
         23    2    1    2    0    0  0.75743242008E+02  0.13333159335E+03  0.92734218983E+01  0.17841030935E+03  0.90718739153E+02 0.  0.
        254    2    1    2    0    0 -0.75743242008E+02 -0.13333159335E+03  0.19959224191E+04  0.21942456523E+04  0.89860632475E+03 0.  0.
        -24    2    4    4    0    0 -0.37412078999E+03 -0.45748792401E-01  0.36401098364E+03  0.52799589175E+03  0.79431089008E+02 0.  0.
         24    2    4    4    0    0  0.29837754798E+03 -0.13328584456E+03  0.16319114355E+04  0.16662497605E+04  0.80368238108E+02 0.  0.
         13    1    3    3    0    0  0.46058771393E+02  0.10969257207E+03 -0.31135714020E+02  0.12297684123E+03  0.00000000000E+00 0.  1.
        -13    1    3    3    0    0  0.29684470615E+02  0.23639021276E+02  0.40409135918E+02  0.55433468124E+02  0.00000000000E+00 0. -1.
          4    1    6    6  502    0  0.21144261377E+02 -0.18434372517E+02  0.28173478992E+03  0.28312788229E+03  0.00000000000E+00 0. -1.
          3    1    5    5  503    0 -0.17718042708E+03 -0.38980118923E+02  0.18308302122E+03  0.25774356649E+03  0.00000000000E+00 0. -1.
         -4    1    5    5    0  503 -0.19694036291E+03  0.38934370130E+02  0.18092796242E+03  0.27025232526E+03  0.00000000000E+00 0.  1.
         -3    1    6    6    0  502  0.27723328660E+03 -0.11485147204E+03  0.13501766456E+04  0.13831218782E+04  0.00000000000E+00 0.  1.
<mgrwt>
<rscale>  0 0.12683398E+04</rscale>
<asrwt>0</asrwt>
<pdfrwt beam="1">  1        1 0.33675781E+00 0.12683398E+04</pdfrwt>
<pdfrwt beam="2">  1       -1 0.28266165E-01 0.12683398E+04</pdfrwt>
<totfact> 0.24787910E+01</totfact>
</mgrwt>
</event>
<event>
12    1  0.1495204E-007  0.1881438E+04  0.7818608E-02  0.8664151E-01
         -2   -1    0    0    0  501 -0.00000000000E+00  0.00000000000E+00  0.78602513008E+03  0.78602513008E+03  0.00000000000E+00 0.  1.
          2   -1    0    0  501    0  0.00000000000E+00 -0.00000000000E+00 -0.11258580326E+04  0.11258580326E+04  0.00000000000E+00 0. -1.
         23    2    1    2    0    0 -0.58575989424E+03 -0.46312777179E+03 -0.12643110526E+03  0.76252845235E+03  0.88672597595E+02 0.  0.
        254    2    1    2    0    0  0.58575989424E+03  0.46312777179E+03 -0.21340179724E+03  0.11493547103E+04  0.84727441619E+03 0.  0.
        -24    2    4    4    0    0  0.45425590391E+03 -0.15433497109E+03 -0.15611211736E+03  0.51049049562E+03  0.77857840969E+02 0.  0.
         24    2    4    4    0    0  0.13150399034E+03  0.61746274288E+03 -0.57289679879E+02  0.63886421468E+03  0.79447083395E+02 0.  0.
         11    1    3    3    0    0 -0.55890332710E+03 -0.44796204067E+03 -0.13826558792E+03  0.72949317456E+03  0.00000000000E+00 0.  1.
        -11    1    3    3    0    0 -0.26856567141E+02 -0.15165731121E+02  0.11834482662E+02  0.33035277794E+02  0.00000000000E+00 0. -1.
          2    1    6    6  502    0  0.54835950407E+02  0.29531460336E+03  0.11774104960E+02  0.30059328995E+03  0.00000000000E+00 0. -1.
          3    1    5    5  503    0  0.42446785428E+03 -0.16322848183E+03 -0.14270488879E+03  0.47663527134E+03  0.00000000000E+00 0. -1.
         -4    1    5    5    0  503  0.29788049621E+02  0.88935107342E+01 -0.13407228570E+02  0.33855224284E+02  0.00000000000E+00 0.  1.
         -1    1    6    6    0  502  0.76668039930E+02  0.32214813952E+03 -0.69063784839E+02  0.33827092473E+03  0.00000000000E+00 0.  1.
<mgrwt>
<rscale>  0 0.18814385E+04</rscale>
<asrwt>0</asrwt>
<pdfrwt beam="1">  1        2 0.17320893E+00 0.18814385E+04</pdfrwt>
<pdfrwt beam="2">  1       -2 0.12092694E+00 0.18814385E+04</pdfrwt>
<totfact> 0.10263267E+01</totfact>
</mgrwt>
</event>
<event>
12    1  0.1495204E-007  0.1431484E+04  0.7818608E-02  0.8931339E-01
         -2   -1    0    0    0  501 -0.00000000000E+00  0.00000000000E+00  0.17167940006E+04  0.17167940006E+04  0.00000000000E+00 0.  1.
          2   -1    0    0  501    0  0.00000000000E+00 -0.00000000000E+00 -0.29839713328E+03  0.29839713328E+03  0.00000000000E+00 0. -1.
         23    2    1    2    0    0 -0.18449602151E+03  0.27802201390E+03  0.79624569119E+02  0.35675995531E+03  0.97992711639E+02 0.  0.
        254    2    1    2    0    0  0.18449602151E+03 -0.27802201390E+03  0.13387722982E+04  0.16584311785E+04  0.92018894007E+03 0.  0.
        -24    2    4    4    0    0  0.54060244073E+03 -0.64469468779E+02  0.66614193952E+03  0.86387224761E+03  0.78248739672E+02 0.  0.
         24    2    4    4    0    0 -0.35610641922E+03 -0.21355254512E+03  0.67263035864E+03  0.79455893093E+03  0.80472504694E+02 0.  0.
         11    1    3    3    0    0 -0.17550457115E+02 -0.34928755868E+00  0.20216512770E+02  0.26774016048E+02  0.00000000000E+00 0.  1.
        -11    1    3    3    0    0 -0.16694556440E+03  0.27837130146E+03  0.59408056350E+02  0.32998593926E+03  0.00000000000E+00 0. -1.
          2    1    6    6  502    0 -0.30100289736E+03 -0.17349418663E+03  0.61010269147E+03  0.70208850664E+03  0.00000000000E+00 0. -1.
          3    1    5    5  503    0  0.43117365941E+03 -0.52477676745E+02  0.57704576824E+03  0.72225096038E+03  0.00000000000E+00 0. -1.
         -4    1    5    5    0  503  0.10942878133E+03 -0.11991792034E+02  0.89096171284E+02  0.14162128723E+03  0.00000000000E+00 0.  1.
         -3    1    6    6    0  502 -0.55103521861E+02 -0.40058358493E+02  0.62527667176E+02  0.92470424294E+02  0.00000000000E+00 0.  1.
<mgrwt>
<rscale>  0 0.14314837E+04</rscale>
<asrwt>0</asrwt>
<pdfrwt beam="1">  1        2 0.45907252E-01 0.14314837E+04</pdfrwt>
<pdfrwt beam="2">  1       -2 0.26412215E+00 0.14314837E+04</pdfrwt>
<totfact> 0.56569645E+00</totfact>
</mgrwt>
</event>
<event>
12    1  0.1495204E-007  0.1727398E+04  0.7818608E-02  0.8745891E-01
          2   -1    0    0  501    0  0.00000000000E+00  0.00000000000E+00  0.24766054001E+04  0.24766054001E+04  0.00000000000E+00 0. -1.
         -2   -1    0    0    0  501 -0.00000000000E+00 -0.00000000000E+00 -0.30120912914E+03  0.30120912914E+03  0.00000000000E+00 0.  1.
         23    2    1    2    0    0  0.58376068654E+03 -0.24000619990E+03  0.51235322618E+03  0.81800735523E+03  0.90833307226E+02 0.  0.
        254    2    1    2    0    0 -0.58376068654E+03  0.24000619990E+03  0.16630430448E+04  0.19598071740E+04  0.82264966747E+03 0.  0.
        -24    2    4    4    0    0  0.12775848340E+03  0.14191592267E+03  0.83779521945E+03  0.86288694181E+03  0.78807902093E+02 0.  0.
         24    2    4    4    0    0 -0.71151916994E+03  0.98090277230E+02  0.82524782537E+03  0.10969202322E+04  0.79490822944E+02 0.  0.
         13    1    3    3    0    0  0.19148160214E+03 -0.39581264755E+02  0.18500319883E+03  0.26918035599E+03  0.00000000000E+00 0. -1.
        -13    1    3    3    0    0  0.39227908440E+03 -0.20042493515E+03  0.32735002735E+03  0.54882699924E+03  0.00000000000E+00 0.  1.
          4    1    6    6  502    0 -0.20803408872E+03  0.53049047030E+02  0.20585266993E+03  0.29743521174E+03  0.00000000000E+00 0. -1.
          3    1    5    5  503    0 -0.50628579641E+01 -0.36787429756E+01  0.67170595676E+02  0.67461504609E+02  0.00000000000E+00 0. -1.
         -4    1    5    5    0  503  0.13282134136E+03  0.14559466565E+03  0.77062462377E+03  0.79542543720E+03  0.00000000000E+00 0.  1.
         -3    1    6    6    0  502 -0.50348508121E+03  0.45041230200E+02  0.61939515544E+03  0.79948502050E+03  0.00000000000E+00 0.  1.
<mgrwt>
<rscale>  0 0.17273982E+04</rscale>
<asrwt>0</asrwt>
<pdfrwt beam="1">  1        2 0.38101620E+00 0.17273982E+04</pdfrwt>
<pdfrwt beam="2">  1       -2 0.46339868E-01 0.17273982E+04</pdfrwt>
<totfact> 0.15077469E+01</totfact>
</mgrwt>
</event>
<event>
12    1  0.1495204E-007  0.1928371E+04  0.7818608E-02  0.8640862E-01
         -2   -1    0    0    0  501 -0.00000000000E+00  0.00000000000E+00  0.28584781605E+03  0.28584781605E+03  0.00000000000E+00 0.  1.
          2   -1    0    0  501    0  0.00000000000E+00 -0.00000000000E+00 -0.32522673697E+04  0.32522673697E+04  0.00000000000E+00 0. -1.
         23    2    1    2    0    0  0.24457564385E+03 -0.65632761025E+02 -0.24778511221E+04  0.24924593581E+04  0.92100832275E+02 0.  0.
        254    2    1    2    0    0 -0.24457564385E+03  0.65632761025E+02 -0.48856843155E+03  0.10456558277E+04  0.88914121084E+03 0.  0.
        -24    2    4    4    0    0 -0.11550398500E+03  0.42602968481E+03 -0.47843931119E+03  0.65599968054E+03  0.81172307376E+02 0.  0.
         24    2    4    4    0    0 -0.12907165885E+03 -0.36039692378E+03 -0.10129120359E+02  0.38965614717E+03  0.71999153840E+02 0.  0.
         11    1    3    3    0    0  0.19861238460E+03 -0.86738290936E+02 -0.18729458307E+04  0.18854433153E+04  0.00000000000E+00 0. -1.
        -11    1    3    3    0    0  0.45963259250E+02  0.21105529911E+02 -0.60490529143E+03  0.60701604278E+03  0.00000000000E+00 0.  1.
          4    1    6    6  502    0 -0.38409239320E+00  0.24066706106E+01  0.37306513748E+01  0.44561586680E+01  0.00000000000E+00 0. -1.
          1    1    5    5  503    0 -0.28467438209E+02  0.32766633934E+02 -0.70015875148E+02  0.82378820763E+02  0.00000000000E+00 0. -1.
         -2    1    5    5    0  503 -0.87036546789E+02  0.39326305087E+03 -0.40842343605E+03  0.57362085978E+03  0.00000000000E+00 0.  1.
         -3    1    6    6    0  502 -0.12868756646E+03 -0.36280359439E+03 -0.13859771734E+02  0.38519998850E+03  0.00000000000E+00 0.  1.
<mgrwt>
<rscale>  0 0.19283708E+04</rscale>
<asrwt>0</asrwt>
<pdfrwt beam="1">  1        2 0.50034882E+00 0.19283708E+04</pdfrwt>
<pdfrwt beam="2">  1       -2 0.43976587E-01 0.19283708E+04</pdfrwt>
<totfact> 0.55149377E+00</totfact>
</mgrwt>
</event>
<event>
12    1  0.1495204E-007  0.1871928E+04  0.7818608E-02  0.8668957E-01
         -2   -1    0    0    0  501 -0.00000000000E+00  0.00000000000E+00  0.10219579647E+04  0.10219579647E+04  0.00000000000E+00 0.  1.
          2   -1    0    0  501    0  0.00000000000E+00 -0.00000000000E+00 -0.85720656139E+03  0.85720656139E+03  0.00000000000E+00 0. -1.
         23    2    1    2    0    0 -0.61821544513E+03  0.26064852669E+03 -0.18672186202E+03  0.70203835315E+03  0.88683732831E+02 0.  0.
        254    2    1    2    0    0  0.61821544513E+03 -0.26064852669E+03  0.35147326532E+03  0.11771261729E+04  0.90109077217E+03 0.  0.
        -24    2    4    4    0    0  0.60867369218E+03  0.33076679230E+02 -0.10808907676E+03  0.62494922971E+03  0.85443320042E+02 0.  0.
         24    2    4    4    0    0  0.95417529483E+01 -0.29372520592E+03  0.45956234207E+03  0.55217694321E+03  0.85652137851E+02 0.  0.
         13    1    3    3    0    0 -0.47216798545E+03  0.17678021773E+03 -0.10565617577E+03  0.51512821641E+03  0.00000000000E+00 0. -1.
        -13    1    3    3    0    0 -0.14604745968E+03  0.83868308961E+02 -0.81065686254E+02  0.18691013674E+03  0.00000000000E+00 0.  1.
          4    1    6    6  502    0  0.10519945444E+02 -0.16207629667E+00  0.66531049540E+01  0.12448266000E+02  0.00000000000E+00 0. -1.
          3    1    5    5  503    0  0.17487192200E+03  0.48432353408E+02 -0.31046699969E+02  0.18409176935E+03  0.00000000000E+00 0. -1.
         -4    1    5    5    0  503  0.43380177018E+03 -0.15355674178E+02 -0.77042376790E+02  0.44085746036E+03  0.00000000000E+00 0.  1.
         -3    1    6    6    0  502 -0.97819249572E+00 -0.29356312962E+03  0.45290923712E+03  0.53972867721E+03  0.00000000000E+00 0.  1.
<mgrwt>
<rscale>  0 0.18719285E+04</rscale>
<asrwt>0</asrwt>
<pdfrwt beam="1">  1        2 0.13187793E+00 0.18719285E+04</pdfrwt>
<pdfrwt beam="2">  1       -2 0.15722430E+00 0.18719285E+04</pdfrwt>
<totfact> 0.77766540E+00</totfact>
</mgrwt>
</event>
<event>
12    1  0.1495204E-007  0.2223696E+04  0.7818608E-02  0.8508629E-01
         -2   -1    0    0    0  501 -0.00000000000E+00  0.00000000000E+00  0.24744356127E+04  0.24744356127E+04  0.00000000000E+00 0.  1.
          2   -1    0    0  501    0  0.00000000000E+00 -0.00000000000E+00 -0.49959130544E+03  0.49959130544E+03  0.00000000000E+00 0. -1.
         23    2    1    2    0    0  0.25538284551E+03  0.54837513708E+03  0.17840740723E+04  0.18848737424E+04  0.62394235823E+02 0.  0.
        254    2    1    2    0    0 -0.25538284551E+03 -0.54837513708E+03  0.19077023497E+03  0.10891531757E+04  0.88539576965E+03 0.  0.
        -24    2    4    4    0    0  0.15201933825E+03 -0.33195477189E+03  0.42437313349E+03  0.56578538972E+03  0.81955481931E+02 0.  0.
         24    2    4    4    0    0 -0.40740218376E+03 -0.21642036519E+03 -0.23360289852E+03  0.52336778601E+03  0.80803536055E+02 0.  0.
         11    1    3    3    0    0  0.64575428710E+02  0.10793730522E+03  0.44195564042E+03  0.45950542538E+03  0.00000000000E+00 0. -1.
        -11    1    3    3    0    0  0.19080741680E+03  0.44043783186E+03  0.13421184319E+04  0.14253683170E+04  0.00000000000E+00 0.  1.
          4    1    6    6  502    0 -0.23139505078E+03 -0.15748830268E+03 -0.16829232953E+03  0.32660150518E+03  0.00000000000E+00 0. -1.
          3    1    5    5  503    0  0.95468732855E+00 -0.22288512904E+02  0.61377353137E+02  0.65305962312E+02  0.00000000000E+00 0. -1.
         -4    1    5    5    0  503  0.15106465092E+03 -0.30966625898E+03  0.36299578035E+03  0.50047942741E+03  0.00000000000E+00 0.  1.
         -3    1    6    6    0  502 -0.17600713298E+03 -0.58932062512E+02 -0.65310568985E+02  0.19676628084E+03  0.00000000000E+00 0.  1.
<mgrwt>
<rscale>  0 0.22236965E+04</rscale>
<asrwt>0</asrwt>
<pdfrwt beam="1">  1        2 0.76860202E-01 0.22236965E+04</pdfrwt>
<pdfrwt beam="2">  1       -2 0.38068239E+00 0.22236965E+04</pdfrwt>
<totfact> 0.55815943E-01</totfact>
</mgrwt>
</event>
<event>
12    1  0.1495204E-007  0.1561732E+04  0.7818608E-02  0.8844409E-01
         -1   -1    0    0    0  501 -0.00000000000E+00  0.00000000000E+00  0.19038375585E+03  0.19038375585E+03  0.00000000000E+00 0.  1.
          1   -1    0    0  501    0  0.00000000000E+00 -0.00000000000E+00 -0.32027501596E+04  0.32027501596E+04  0.00000000000E+00 0. -1.
         23    2    1    2    0    0 -0.33061246303E+02  0.33568127531E+03 -0.18532124905E+04  0.18859006712E+04  0.91923023160E+02 0.  0.
        254    2    1    2    0    0  0.33061246303E+02 -0.33568127531E+03 -0.11591539133E+04  0.15072332442E+04  0.90240749847E+03 0.  0.
        -24    2    4    4    0    0 -0.10962308065E+03 -0.60778953794E+03 -0.91349260937E+03  0.11057409212E+04  0.82273295269E+02 0.  0.
         24    2    4    4    0    0  0.14268432696E+03  0.27210826263E+03 -0.24566130388E+03  0.40149232306E+03  0.80280044236E+02 0.  0.
         13    1    3    3    0    0  0.37743161523E+01  0.15116780915E+03 -0.10568187507E+04  0.10675822328E+04  0.00000000000E+00 0.  1.
        -13    1    3    3    0    0 -0.36835562455E+02  0.18451346616E+03 -0.79639373979E+03  0.81831843840E+03  0.00000000000E+00 0. -1.
          4    1    6    6  502    0  0.13072940760E+03  0.27167219074E+03 -0.24659464120E+03  0.38949309917E+03  0.00000000000E+00 0. -1.
          1    1    5    5  503    0 -0.75387448781E+02 -0.51502889464E+03 -0.71998123252E+03  0.88843176717E+03  0.00000000000E+00 0. -1.
         -2    1    5    5    0  503 -0.34235631873E+02 -0.92760643306E+02 -0.19351137685E+03  0.21730915399E+03  0.00000000000E+00 0.  1.
         -3    1    6    6    0  502  0.11954919354E+02  0.43607188979E+00  0.93333731645E+00  0.11999223892E+02  0.00000000000E+00 0.  1.
<mgrwt>
<rscale>  0 0.15617319E+04</rscale>
<asrwt>0</asrwt>
<pdfrwt beam="1">  1        1 0.49273075E+00 0.15617319E+04</pdfrwt>
<pdfrwt beam="2">  1       -1 0.29289811E-01 0.15617319E+04</pdfrwt>
<totfact> 0.43648905E+00</totfact>
</mgrwt>
</event>
<event>
12    1  0.1495204E-007  0.1568766E+04  0.7818608E-02  0.8839969E-01
          2   -1    0    0  501    0  0.00000000000E+00  0.00000000000E+00  0.12445388680E+04  0.12445388680E+04  0.00000000000E+00 0. -1.
         -2   -1    0    0    0  501 -0.00000000000E+00 -0.00000000000E+00 -0.49436534757E+03  0.49436534757E+03  0.00000000000E+00 0.  1.
         23    2    1    2    0    0  0.40285436232E+03  0.52568611756E+02  0.64358077475E+03  0.76653312144E+03  0.91223442398E+02 0.  0.
        254    2    1    2    0    0 -0.40285436232E+03 -0.52568611756E+02  0.10659274571E+03  0.97237109417E+03  0.87697687265E+03 0.  0.
        -24    2    4    4    0    0  0.46459043817E+02  0.17893080358E+03 -0.26965082176E+03  0.33728740278E+03  0.82924973206E+02 0.  0.
         24    2    4    4    0    0 -0.44931340614E+03 -0.23149941534E+03  0.37624356747E+03  0.63508369139E+03  0.79357146911E+02 0.  0.
         13    1    3    3    0    0  0.20974581277E+03  0.58446772798E+02  0.40220948498E+03  0.45736396998E+03  0.00000000000E+00 0.  1.
        -13    1    3    3    0    0  0.19310854955E+03 -0.58781610419E+01  0.24137128977E+03  0.30916915145E+03  0.00000000000E+00 0. -1.
          4    1    6    6  502    0 -0.26230459955E+03 -0.17548773719E+03  0.24983868938E+03  0.40251586250E+03  0.00000000000E+00 0. -1.
          3    1    5    5  503    0  0.52408187916E+02  0.83828535251E+02 -0.18532092586E+03  0.21004210779E+03  0.00000000000E+00 0. -1.
         -4    1    5    5    0  503 -0.59491440985E+01  0.95102268329E+02 -0.84329895900E+02  0.12724529500E+03  0.00000000000E+00 0.  1.
         -3    1    6    6    0  502 -0.18700880659E+03 -0.56011678147E+02  0.12640487809E+03  0.23256782889E+03  0.00000000000E+00 0.  1.
<mgrwt>
<rscale>  0 0.15687663E+04</rscale>
<asrwt>0</asrwt>
<pdfrwt beam="1">  1        2 0.19146752E+00 0.15687663E+04</pdfrwt>
<pdfrwt beam="2">  1       -2 0.76056207E-01 0.15687663E+04</pdfrwt>
<totfact> 0.26516119E+01</totfact>
</mgrwt>
</event>
<event>
12    1  0.1495204E-007  0.2171036E+04  0.7818608E-02  0.8530581E-01
          2   -1    0    0  501    0  0.00000000000E+00  0.00000000000E+00  0.32229577869E+04  0.32229577869E+04  0.00000000000E+00 0.  1.
         -2   -1    0    0    0  501 -0.00000000000E+00 -0.00000000000E+00 -0.36561101038E+03  0.36561101038E+03  0.00000000000E+00 0. -1.
         23    2    1    2    0    0  0.23445917971E+03  0.29228669517E+03 -0.15949202996E+03  0.41939821665E+03  0.10027231617E+03 0.  0.
        254    2    1    2    0    0 -0.23445917971E+03 -0.29228669517E+03  0.30168388065E+04  0.31691705806E+04  0.89550162798E+03 0.  0.
        -24    2    4    4    0    0 -0.25359307508E+03 -0.16582710750E+03  0.25912450536E+03  0.40736004576E+03  0.83597968249E+02 0.  0.
         24    2    4    4    0    0  0.19133895368E+02 -0.12645958767E+03  0.27577143011E+04  0.27618105349E+04  0.79064091959E+02 0.  0.
         13    1    3    3    0    0  0.26465544940E+02 -0.24038001257E+01 -0.51689581421E+01  0.27072522089E+02  0.00000000000E+00 0.  1.
        -13    1    3    3    0    0  0.20799363477E+03  0.29469049529E+03 -0.15432307182E+03  0.39232569457E+03  0.00000000000E+00 0. -1.
          4    1    6    6  502    0 -0.27739507701E+02 -0.76950711805E+02  0.16021441393E+04  0.16042308860E+04  0.00000000000E+00 0. -1.
          1    1    5    5  503    0 -0.18674602763E+03 -0.15150312873E+03  0.16757626469E+03  0.29310250995E+03  0.00000000000E+00 0. -1.
         -2    1    5    5    0  503 -0.66847047445E+02 -0.14323978768E+02  0.91548240667E+02  0.11425753581E+03  0.00000000000E+00 0.  1.
         -3    1    6    6    0  502  0.46873403070E+02 -0.49508875866E+02  0.11555701618E+04  0.11575796489E+04  0.00000000000E+00 0.  1.
<mgrwt>
<rscale>  0 0.21710356E+04</rscale>
<asrwt>0</asrwt>
<pdfrwt beam="1">  1        2 0.49583964E+00 0.21710356E+04</pdfrwt>
<pdfrwt beam="2">  1       -2 0.56247850E-01 0.21710356E+04</pdfrwt>
<totfact> 0.34128678E+00</totfact>
</mgrwt>
</event>
<event>
12    1  0.1495204E-007  0.2048962E+04  0.7818608E-02  0.8584065E-01
         -1   -1    0    0    0  501 -0.00000000000E+00  0.00000000000E+00  0.92461009205E+03  0.92461009205E+03  0.00000000000E+00 0.  1.
          1   -1    0    0  501    0  0.00000000000E+00 -0.00000000000E+00 -0.11351396500E+04  0.11351396500E+04  0.00000000000E+00 0. -1.
         23    2    1    2    0    0 -0.12832392189E+03 -0.46166483115E+02  0.73338753169E+03  0.75119690847E+03  0.88550271317E+02 0.  0.
        254    2    1    2    0    0  0.12832392189E+03  0.46166483115E+02 -0.94391708967E+03  0.13085528336E+04  0.89595349939E+03 0.  0.
        -24    2    4    4    0    0  0.28647671960E+03  0.29167681865E+03 -0.91254688304E+03  0.10031202692E+04  0.79775832237E+02 0.  0.
         24    2    4    4    0    0 -0.15815279770E+03 -0.24551033553E+03 -0.31370206638E+02  0.30543256437E+03  0.83769500642E+02 0.  0.
         13    1    3    3    0    0 -0.33694147884E+02  0.99615480539E+01  0.65700423109E+02  0.74505527566E+02  0.00000000000E+00 0. -1.
        -13    1    3    3    0    0 -0.94629774010E+02 -0.56128031169E+02  0.66768710859E+03  0.67669138090E+03  0.00000000000E+00 0.  1.
          2    1    6    6  502    0 -0.33452407359E+02 -0.62089010403E+02 -0.44255114839E+02  0.83262380222E+02  0.00000000000E+00 0. -1.
          3    1    5    5  503    0 -0.36761907985E+01  0.11083065849E+02 -0.15156248276E+02  0.19132709928E+02  0.00000000000E+00 0. -1.
         -4    1    5    5    0  503  0.29015291040E+03  0.28059375280E+03 -0.89739063476E+03  0.98398755931E+03  0.00000000000E+00 0.  1.
         -3    1    6    6    0  502 -0.12470039034E+03 -0.18342132513E+03  0.12884908201E+02  0.22217018415E+03  0.00000000000E+00 0.  1.
<mgrwt>
<rscale>  0 0.20489623E+04</rscale>
<asrwt>0</asrwt>
<pdfrwt beam="1">  1        1 0.17463687E+00 0.20489623E+04</pdfrwt>
<pdfrwt beam="2">  1       -1 0.14224771E+00 0.20489623E+04</pdfrwt>
<totfact> 0.44311461E+00</totfact>
</mgrwt>
</event>
<event>
12    1  0.1495204E-007  0.1727007E+04  0.7818608E-02  0.8746109E-01
         -2   -1    0    0    0  501 -0.00000000000E+00  0.00000000000E+00  0.16950691182E+04  0.16950691182E+04  0.00000000000E+00 0.  1.
          2   -1    0    0  501    0  0.00000000000E+00 -0.00000000000E+00 -0.43988674590E+03  0.43988674590E+03  0.00000000000E+00 0. -1.
         23    2    1    2    0    0  0.74925950942E+02 -0.39031445910E+03 -0.13713351543E+03  0.42958079978E+03  0.88174754772E+02 0.  0.
        254    2    1    2    0    0 -0.74925950942E+02  0.39031445910E+03  0.13923158878E+04  0.17053750643E+04  0.90100016850E+03 0.  0.
        -24    2    4    4    0    0 -0.37985218486E+02  0.43271259814E+02 -0.11799633672E+03  0.15275467009E+03  0.78074163495E+02 0.  0.
         24    2    4    4    0    0 -0.36940732456E+02  0.34704319929E+03  0.15103122245E+04  0.15526203942E+04  0.88223995133E+02 0.  0.
         11    1    3    3    0    0  0.27828924124E+02 -0.61894369778E+02 -0.56099507732E+02  0.88048377588E+02  0.00000000000E+00 0.  1.
        -11    1    3    3    0    0  0.47097026818E+02 -0.32842008932E+03 -0.81034007700E+02  0.34153242220E+03  0.00000000000E+00 0. -1.
          4    1    6    6  502    0  0.15827405562E+02  0.74205327895E+02  0.21981391371E+03  0.23254052144E+03  0.00000000000E+00 0. -1.
          1    1    5    5  503    0 -0.37821857227E+02  0.50381095299E+02 -0.40413360694E+02  0.74846425233E+02  0.00000000000E+00 0. -1.
         -2    1    5    5    0  503 -0.16336125968E+00 -0.71098354848E+01 -0.77582976028E+02  0.77908244858E+02  0.00000000000E+00 0.  1.
         -3    1    6    6    0  502 -0.52768138018E+02  0.27283787139E+03  0.12904983108E+04  0.13200798728E+04  0.00000000000E+00 0.  1.
<mgrwt>
<rscale>  0 0.17270072E+04</rscale>
<asrwt>0</asrwt>
<pdfrwt beam="1">  1        2 0.67674885E-01 0.17270072E+04</pdfrwt>
<pdfrwt beam="2">  1       -2 0.26077986E+00 0.17270072E+04</pdfrwt>
<totfact> 0.37417139E+00</totfact>
</mgrwt>
</event>
<event>
12    1  0.1495204E-007  0.1664132E+04  0.7818608E-02  0.8782090E-01
          2   -1    0    0  501    0  0.00000000000E+00  0.00000000000E+00  0.84112663264E+03  0.84112663264E+03  0.00000000000E+00 0. -1.
         -2   -1    0    0    0  501 -0.00000000000E+00 -0.00000000000E+00 -0.82310252201E+03  0.82310252201E+03  0.00000000000E+00 0.  1.
         23    2    1    2    0    0  0.38032628172E+02 -0.10545734143E+03 -0.56460953189E+03  0.58285241880E+03  0.91461942568E+02 0.  0.
        254    2    1    2    0    0 -0.38032628172E+02  0.10545734143E+03  0.58263364251E+03  0.10813767358E+04  0.90407187313E+03 0.  0.
        -24    2    4    4    0    0  0.92327481288E+02 -0.25719752207E+03  0.62389366076E+03  0.68566713188E+03  0.78874499385E+02 0.  0.
         24    2    4    4    0    0 -0.13036010946E+03  0.36265486350E+03 -0.41260018246E+02  0.39570960396E+03  0.79821008535E+02 0.  0.
         11    1    3    3    0    0  0.51041050646E+01 -0.67732152936E+02 -0.47805677491E+03  0.48285813286E+03  0.00000000000E+00 0.  1.
        -11    1    3    3    0    0  0.32928523107E+02 -0.37725188495E+02 -0.86552756973E+02  0.99994285940E+02  0.00000000000E+00 0. -1.
          4    1    6    6  502    0 -0.96874816867E+02  0.27998938614E+03  0.26720693263E+01  0.29628689888E+03  0.00000000000E+00 0. -1.
          1    1    5    5  503    0  0.10390899956E+03 -0.25002068497E+03  0.59133524872E+03  0.65037281576E+03  0.00000000000E+00 0. -1.
         -2    1    5    5    0  503 -0.11581518270E+02 -0.71768370994E+01  0.32558412036E+02  0.35294316122E+02  0.00000000000E+00 0.  1.
         -3    1    6    6    0  502 -0.33485292592E+02  0.82665477362E+02 -0.43932087573E+02  0.99422705082E+02  0.00000000000E+00 0.  1.
<mgrwt>
<rscale>  0 0.16641315E+04</rscale>
<asrwt>0</asrwt>
<pdfrwt beam="1">  1        2 0.12940410E+00 0.16641315E+04</pdfrwt>
<pdfrwt beam="2">  1       -2 0.12663116E+00 0.16641315E+04</pdfrwt>
<totfact> 0.14256522E+01</totfact>
</mgrwt>
</event>
<event>
12    1  0.1495204E-007  0.1399722E+04  0.7818608E-02  0.8954020E-01
         -2   -1    0    0    0  501 -0.00000000000E+00  0.00000000000E+00  0.35618711440E+03  0.35618711440E+03  0.00000000000E+00 0.  1.
          2   -1    0    0  501    0  0.00000000000E+00 -0.00000000000E+00 -0.13751359313E+04  0.13751359313E+04  0.00000000000E+00 0. -1.
         23    2    1    2    0    0 -0.36893126387E+02  0.33866808134E+03 -0.57425952836E+03  0.67381864796E+03  0.90556017630E+02 0.  0.
        254    2    1    2    0    0  0.36893126387E+02 -0.33866808134E+03 -0.44468928850E+03  0.10575043977E+04  0.89694471166E+03 0.  0.
        -24    2    4    4    0    0 -0.33073399434E+03  0.53008830499E+02 -0.37487019880E+03  0.51029867621E+03  0.87647942757E+02 0.  0.
         24    2    4    4    0    0  0.36762712073E+03 -0.39167691183E+03 -0.69819089691E+02  0.54720572149E+03  0.77452522187E+02 0.  0.
         11    1    3    3    0    0 -0.38303791636E+02  0.34407297381E+03 -0.55847775246E+03  0.65707746252E+03  0.00000000000E+00 0. -1.
        -11    1    3    3    0    0  0.14106652489E+01 -0.54048924763E+01 -0.15781775904E+02  0.16741185436E+02  0.00000000000E+00 0.  1.
          4    1    6    6  502    0  0.25111784916E+03 -0.25618422747E+03 -0.10388352884E+02  0.35888501006E+03  0.00000000000E+00 0. -1.
          3    1    5    5  503    0 -0.18915919446E+03  0.11004044082E+00 -0.25443676173E+03  0.31704775457E+03  0.00000000000E+00 0. -1.
         -4    1    5    5    0  503 -0.14157479988E+03  0.52898790059E+02 -0.12043343708E+03  0.19325092164E+03  0.00000000000E+00 0.  1.
         -3    1    6    6    0  502  0.11650927157E+03 -0.13549268437E+03 -0.59430736807E+02  0.18832071143E+03  0.00000000000E+00 0.  1.
<mgrwt>
<rscale>  0 0.13997224E+04</rscale>
<asrwt>0</asrwt>
<pdfrwt beam="1">  1        2 0.21155937E+00 0.13997224E+04</pdfrwt>
<pdfrwt beam="2">  1       -2 0.54798019E-01 0.13997224E+04</pdfrwt>
<totfact> 0.45592691E+01</totfact>
</mgrwt>
</event>
<event>
12    1  0.1495204E-007  0.1742467E+04  0.7818608E-02  0.8737508E-01
         -2   -1    0    0    0  501 -0.00000000000E+00  0.00000000000E+00  0.58934218696E+03  0.58934218696E+03  0.00000000000E+00 0.  1.
          2   -1    0    0  501    0  0.00000000000E+00 -0.00000000000E+00 -0.12879571207E+04  0.12879571207E+04  0.00000000000E+00 0. -1.
         23    2    1    2    0    0  0.73019043072E+02  0.14069926401E+03  0.39937650306E+03  0.43980819604E+03  0.93816813860E+02 0.  0.
        254    2    1    2    0    0 -0.73019043072E+02 -0.14069926401E+03 -0.10979914368E+04  0.14374911116E+04  0.91414847651E+03 0.  0.
        -24    2    4    4    0    0 -0.38806435651E+03  0.16154666482E+03 -0.78570329159E+03  0.89474408539E+03  0.80907640057E+02 0.  0.
         24    2    4    4    0    0  0.31504531343E+03 -0.30224592883E+03 -0.31228814519E+03  0.54274702620E+03  0.80276383914E+02 0.  0.
         13    1    3    3    0    0  0.37731513779E+01  0.75732473695E+02  0.98504815701E+02  0.12430946448E+03  0.00000000000E+00 0. -1.
        -13    1    3    3    0    0  0.69245891694E+02  0.64966790312E+02  0.30087168736E+03  0.31549873156E+03  0.00000000000E+00 0.  1.
          2    1    6    6  502    0  0.20921155206E+03 -0.23854946779E+03 -0.19508755308E+03  0.37247077129E+03  0.00000000000E+00 0. -1.
          3    1    5    5  503    0 -0.31199106343E+03  0.16020969544E+03 -0.67042392062E+03  0.75661998620E+03  0.00000000000E+00 0. -1.
         -4    1    5    5    0  503 -0.76073293075E+02  0.13369693806E+01 -0.11527937097E+03  0.13812409919E+03  0.00000000000E+00 0.  1.
         -1    1    6    6    0  502  0.10583376137E+03 -0.63696461036E+02 -0.11720059212E+03  0.17027625491E+03  0.00000000000E+00 0.  1.
<mgrwt>
<rscale>  0 0.17424666E+04</rscale>
<asrwt>0</asrwt>
<pdfrwt beam="1">  1        2 0.19814724E+00 0.17424666E+04</pdfrwt>
<pdfrwt beam="2">  1       -2 0.90668031E-01 0.17424666E+04</pdfrwt>
<totfact> 0.16556346E+01</totfact>
</mgrwt>
</event>
<event>
12    1  0.1495204E-007  0.1301848E+04  0.7818608E-02  0.9028101E-01
         -2   -1    0    0    0  501 -0.00000000000E+00  0.00000000000E+00  0.11793724944E+03  0.11793724944E+03  0.00000000000E+00 0.  1.
          2   -1    0    0  501    0  0.00000000000E+00 -0.00000000000E+00 -0.35926053026E+04  0.35926053026E+04  0.00000000000E+00 0. -1.
         23    2    1    2    0    0 -0.41791661721E+02 -0.33724085664E+03 -0.84439715434E+03  0.91474916570E+03  0.91002986364E+02 0.  0.
        254    2    1    2    0    0  0.41791661721E+02  0.33724085664E+03 -0.26302708988E+04  0.27957933863E+04  0.88467944447E+03 0.  0.
        -24    2    4    4    0    0 -0.37064901214E+03  0.26315752518E+03 -0.18378932184E+04  0.18949337092E+04  0.79307672425E+02 0.  0.
         24    2    4    4    0    0  0.41244067386E+03  0.74083331456E+02 -0.79237768043E+03  0.90085967709E+03  0.89945093959E+02 0.  0.
         13    1    3    3    0    0 -0.70414740206E+02 -0.22554050418E+03 -0.55250683739E+03  0.60090811279E+03  0.00000000000E+00 0.  1.
        -13    1    3    3    0    0  0.28623078485E+02 -0.11170035246E+03 -0.29189031695E+03  0.31384105291E+03  0.00000000000E+00 0. -1.
          4    1    6    6  502    0  0.11113261807E+03 -0.19720245715E+02 -0.19854484890E+03  0.22838433378E+03  0.00000000000E+00 0. -1.
          3    1    5    5  503    0 -0.76665123592E+02  0.39167368451E+02 -0.47906440328E+03  0.48673845792E+03  0.00000000000E+00 0. -1.
         -4    1    5    5    0  503 -0.29398388854E+03  0.22399015673E+03 -0.13588288151E+04  0.14081952513E+04  0.00000000000E+00 0.  1.
         -3    1    6    6    0  502  0.30130805579E+03  0.93803577171E+02 -0.59383283152E+03  0.67247534331E+03  0.00000000000E+00 0.  1.
<mgrwt>
<rscale>  0 0.13018479E+04</rscale>
<asrwt>0</asrwt>
<pdfrwt beam="1">  1        2 0.55270853E+00 0.13018479E+04</pdfrwt>
<pdfrwt beam="2">  1       -2 0.18144191E-01 0.13018479E+04</pdfrwt>
<totfact> 0.17758908E+01</totfact>
</mgrwt>
</event>
<event>
12    1  0.1495204E-007  0.3510611E+04  0.7818608E-02  0.8111280E-01
         -1   -1    0    0    0  501 -0.00000000000E+00  0.00000000000E+00  0.91184338586E+03  0.91184338586E+03  0.00000000000E+00 0.  1.
          1   -1    0    0  501    0  0.00000000000E+00 -0.00000000000E+00 -0.33789768906E+04  0.33789768906E+04  0.00000000000E+00 0. -1.
         23    2    1    2    0    0  0.14436024633E+04  0.18360483149E+02 -0.20967391217E+04  0.25473426703E+04  0.91184185235E+02 0.  0.
        254    2    1    2    0    0 -0.14436024633E+04 -0.18360483149E+02 -0.37039438299E+03  0.17434776062E+04  0.90454241733E+03 0.  0.
        -24    2    4    4    0    0 -0.11684269240E+04 -0.31695914107E+03 -0.49634626783E+03  0.13109055014E+04  0.80181307834E+02 0.  0.
         24    2    4    4    0    0 -0.27517553931E+03  0.29859865792E+03  0.12595188485E+03  0.43257210476E+03  0.79824886893E+02 0.  0.
         11    1    3    3    0    0  0.10976001871E+04  0.51501276262E+01 -0.15250363577E+04  0.18789594426E+04  0.00000000000E+00 0. -1.
        -11    1    3    3    0    0  0.34600227628E+03  0.13210355522E+02 -0.57170276401E+03  0.66838322769E+03  0.00000000000E+00 0.  1.
          2    1    6    6  502    0 -0.24918646210E+03  0.27000983162E+03  0.13740430696E+03  0.39227432447E+03  0.00000000000E+00 0. -1.
          3    1    5    5  503    0 -0.57218375130E+03 -0.19236504254E+03 -0.22767380864E+03  0.64516193160E+03  0.00000000000E+00 0. -1.
         -4    1    5    5    0  503 -0.59624317273E+03 -0.12459409854E+03 -0.26867245920E+03  0.66574356981E+03  0.00000000000E+00 0.  1.
         -1    1    6    6    0  502 -0.25989077206E+02  0.28588826308E+02 -0.11452422117E+02  0.40297780286E+02  0.00000000000E+00 0.  1.
<mgrwt>
<rscale>  0 0.35106112E+04</rscale>
<asrwt>0</asrwt>
<pdfrwt beam="1">  1        1 0.51984260E+00 0.35106112E+04</pdfrwt>
<pdfrwt beam="2">  1       -1 0.14028360E+00 0.35106112E+04</pdfrwt>
<totfact> 0.10542487E-01</totfact>
</mgrwt>
</event>
<event>
12    1  0.1495204E-007  0.1660821E+04  0.7818608E-02  0.8784030E-01
         -3   -1    0    0    0  501 -0.00000000000E+00  0.00000000000E+00  0.74814751002E+03  0.74814751002E+03  0.00000000000E+00 0.  1.
          3   -1    0    0  501    0  0.00000000000E+00 -0.00000000000E+00 -0.92171888030E+03  0.92171888030E+03  0.00000000000E+00 0. -1.
         23    2    1    2    0    0  0.19144957002E+03  0.23806705944E+02 -0.61542107427E+03  0.65146629421E+03  0.91899601324E+02 0.  0.
        254    2    1    2    0    0 -0.19144957002E+03 -0.23806705944E+02  0.44184970399E+03  0.10184000961E+04  0.89704397758E+03 0.  0.
        -24    2    4    4    0    0  0.45139613935E+02  0.32636883524E+03  0.47867485774E+03  0.58670853614E+03  0.80889341633E+02 0.  0.
         24    2    4    4    0    0 -0.23658918395E+03 -0.35017554118E+03 -0.36825153749E+02  0.43169155996E+03  0.80025991956E+02 0.  0.
         11    1    3    3    0    0  0.31941915603E+02 -0.30372265424E+02 -0.10202264449E+03  0.11113676470E+03  0.00000000000E+00 0.  1.
        -11    1    3    3    0    0  0.15950765442E+03  0.54178971368E+02 -0.51339842978E+03  0.54032952951E+03  0.00000000000E+00 0. -1.
          4    1    6    6  502    0 -0.98429610684E+02 -0.17460322050E+03  0.19219254011E+02  0.20135553777E+03  0.00000000000E+00 0. -1.
          1    1    5    5  503    0  0.45678533694E+02  0.22103687246E+03  0.26219475846E+03  0.34596230834E+03  0.00000000000E+00 0. -1.
         -2    1    5    5    0  503 -0.53891975938E+00  0.10533196277E+03  0.21648009928E+03  0.24074622780E+03  0.00000000000E+00 0.  1.
         -3    1    6    6    0  502 -0.13815957327E+03 -0.17557232068E+03 -0.56044407760E+02  0.23033602219E+03  0.00000000000E+00 0.  1.
<mgrwt>
<rscale>  0 0.16608211E+04</rscale>
<asrwt>0</asrwt>
<pdfrwt beam="1">  1        3 0.14180290E+00 0.16608211E+04</pdfrwt>
<pdfrwt beam="2">  1       -3 0.11509962E+00 0.16608211E+04</pdfrwt>
<totfact> 0.58417427E-01</totfact>
</mgrwt>
</event>
<event>
12    1  0.1495204E-007  0.1611422E+04  0.7818608E-02  0.8813561E-01
         -2   -1    0    0    0  501 -0.00000000000E+00  0.00000000000E+00  0.19020230362E+03  0.19020230362E+03  0.00000000000E+00 0. -1.
          2   -1    0    0  501    0  0.00000000000E+00 -0.00000000000E+00 -0.34130531590E+04  0.34130531590E+04  0.00000000000E+00 0.  1.
         23    2    1    2    0    0 -0.12938157366E+03  0.42105939695E+03 -0.34228952614E+03  0.56521293004E+03  0.90955644213E+02 0.  0.
        254    2    1    2    0    0  0.12938157366E+03 -0.42105939695E+03 -0.28805613292E+04  0.30380425326E+04  0.85909152652E+03 0.  0.
        -24    2    4    4    0    0  0.48573974701E+02 -0.19780636673E+03 -0.89262524756E+02  0.23554759110E+03  0.77640708477E+02 0.  0.
         24    2    4    4    0    0  0.80807598961E+02 -0.22325303023E+03 -0.27912988045E+04  0.28024949415E+04  0.79101817846E+02 0.  0.
         13    1    3    3    0    0 -0.20358348693E+02  0.21993692517E+03 -0.17501805717E+03  0.28181205395E+03  0.00000000000E+00 0.  1.
        -13    1    3    3    0    0 -0.10902322497E+03  0.20112247179E+03 -0.16727146897E+03  0.28340087609E+03  0.00000000000E+00 0. -1.
          4    1    6    6  502    0 -0.67637968609E+01 -0.24878009995E+01 -0.25470517963E+03  0.25480711653E+03  0.00000000000E+00 0. -1.
          1    1    5    5  503    0 -0.11156011213E+02 -0.80713164684E+02 -0.59172695207E+02  0.10069994736E+03  0.00000000000E+00 0. -1.
         -2    1    5    5    0  503  0.59729985913E+02 -0.11709320204E+03 -0.30089829549E+02  0.13484764375E+03  0.00000000000E+00 0.  1.
         -3    1    6    6    0  502  0.87571395822E+02 -0.22076522923E+03 -0.25365936249E+04  0.25476878250E+04  0.00000000000E+00 0.  1.
<mgrwt>
<rscale>  0 0.16114224E+04</rscale>
<asrwt>0</asrwt>
<pdfrwt beam="1">  1        2 0.52508507E+00 0.16114224E+04</pdfrwt>
<pdfrwt beam="2">  1       -2 0.29261895E-01 0.16114224E+04</pdfrwt>
<totfact> 0.97137040E+00</totfact>
</mgrwt>
</event>
<event>
12    1  0.1495204E-007  0.1828224E+04  0.7818608E-02  0.8691433E-01
          1   -1    0    0  501    0  0.00000000000E+00  0.00000000000E+00  0.14154194271E+04  0.14154194271E+04  0.00000000000E+00 0.  1.
         -1   -1    0    0    0  501 -0.00000000000E+00 -0.00000000000E+00 -0.59035539804E+03  0.59035539804E+03  0.00000000000E+00 0. -1.
         23    2    1    2    0    0 -0.58451721340E+03 -0.21984358172E+03  0.63515513970E+03  0.89538489469E+03  0.91106997295E+02 0.  0.
        254    2    1    2    0    0  0.58451721340E+03  0.21984358172E+03  0.18990888934E+03  0.11103899304E+04  0.89828104632E+03 0.  0.
        -24    2    4    4    0    0  0.72584582055E+03  0.51469037673E+02 -0.99175064522E+02  0.73858192405E+03  0.78526097990E+02 0.  0.
         24    2    4    4    0    0 -0.14132860715E+03  0.16837454404E+03  0.28908395387E+03  0.37180800638E+03  0.79673702972E+02 0.  0.
         11    1    3    3    0    0 -0.40299453535E+03 -0.10636087732E+03  0.43107398826E+03  0.59961822446E+03  0.00000000000E+00 0.  1.
        -11    1    3    3    0    0 -0.18152267806E+03 -0.11348270440E+03  0.20408115144E+03  0.29576667023E+03  0.00000000000E+00 0. -1.
          4    1    6    6  502    0 -0.11548813517E+02  0.53251225252E+02  0.37255669805E+02  0.66007976920E+02  0.00000000000E+00 0. -1.
          1    1    5    5  503    0  0.26905240354E+03  0.53137084397E+02 -0.54436428935E+02  0.27959983974E+03  0.00000000000E+00 0. -1.
         -2    1    5    5    0  503  0.45679341701E+03 -0.16680467234E+01 -0.44738635587E+02  0.45898208431E+03  0.00000000000E+00 0.  1.
         -3    1    6    6    0  502 -0.12977979363E+03  0.11512331879E+03  0.25182828406E+03  0.30580002946E+03  0.00000000000E+00 0.  1.
<mgrwt>
<rscale>  0 0.18282237E+04</rscale>
<asrwt>0</asrwt>
<pdfrwt beam="1">  1        1 0.21775683E+00 0.18282237E+04</pdfrwt>
<pdfrwt beam="2">  1       -1 0.90823908E-01 0.18282237E+04</pdfrwt>
<totfact> 0.83506507E+00</totfact>
</mgrwt>
</event>
<event>
12    1  0.1495204E-007  0.1496160E+04  0.7818608E-02  0.8887010E-01
          2   -1    0    0  501    0  0.00000000000E+00  0.00000000000E+00  0.18707417427E+04  0.18707417427E+04  0.00000000000E+00 0. -1.
         -2   -1    0    0    0  501 -0.00000000000E+00 -0.00000000000E+00 -0.29914543879E+03  0.29914543879E+03  0.00000000000E+00 0.  1.
         23    2    1    2    0    0  0.42418504998E+03  0.20168778091E+03  0.36948853068E+03  0.60439454785E+03  0.90333147660E+02 0.  0.
        254    2    1    2    0    0 -0.42418504998E+03 -0.20168778091E+03  0.12021077732E+04  0.15654926336E+04  0.88605483461E+03 0.  0.
        -24    2    4    4    0    0 -0.18909299571E+03  0.93603900650E+02 -0.70170392230E+02  0.23603325283E+03  0.79183086911E+02 0.  0.
         24    2    4    4    0    0 -0.23509205427E+03 -0.29529168156E+03  0.12722781654E+04  0.13294593808E+04  0.79404431583E+02 0.  0.
         11    1    3    3    0    0  0.38957489375E+03  0.15462181091E+03  0.33489669106E+03  0.53650004281E+03  0.00000000000E+00 0. -1.
        -11    1    3    3    0    0  0.34610156235E+02  0.47065969998E+02  0.34591839621E+02  0.67894505041E+02  0.00000000000E+00 0.  1.
          4    1    6    6  502    0 -0.21251132473E+02 -0.52490603154E+02  0.28324441288E+03  0.28884991168E+03  0.00000000000E+00 0. -1.
          1    1    5    5  503    0 -0.96384161267E+02  0.75837065942E+01 -0.46837685174E+02  0.10742992088E+03  0.00000000000E+00 0. -1.
         -2    1    5    5    0  503 -0.92708834444E+02  0.86020194056E+02 -0.23332707056E+02  0.12860333195E+03  0.00000000000E+00 0.  1.
         -3    1    6    6    0  502 -0.21384092180E+03 -0.24280107840E+03  0.98903375257E+03  0.10406094691E+04  0.00000000000E+00 0.  1.
<mgrwt>
<rscale>  0 0.14961602E+04</rscale>
<asrwt>0</asrwt>
<pdfrwt beam="1">  1        2 0.28780642E+00 0.14961602E+04</pdfrwt>
<pdfrwt beam="2">  1       -2 0.46022376E-01 0.14961602E+04</pdfrwt>
<totfact> 0.34108879E+01</totfact>
</mgrwt>
</event>
<event>
12    1  0.1495204E-007  0.1636600E+04  0.7818608E-02  0.8798373E-01
          1   -1    0    0  501    0  0.00000000000E+00  0.00000000000E+00  0.69292218444E+03  0.69292218444E+03  0.00000000000E+00 0. -1.
         -1   -1    0    0    0  501 -0.00000000000E+00 -0.00000000000E+00 -0.96636406543E+03  0.96636406543E+03  0.00000000000E+00 0.  1.
         23    2    1    2    0    0 -0.74477700922E+02  0.11828486004E+03  0.45922101699E+03  0.48880589526E+03  0.92244375152E+02 0.  0.
        254    2    1    2    0    0  0.74477700922E+02 -0.11828486004E+03 -0.73266289798E+03  0.11704803546E+04  0.90204828163E+03 0.  0.
        -24    2    4    4    0    0  0.20665630820E+03 -0.17319803322E+03  0.11748248366E+03  0.30471723118E+03  0.79662215500E+02 0.  0.
         24    2    4    4    0    0 -0.13217860727E+03  0.54913173180E+02 -0.85014538165E+03  0.86576312343E+03  0.79447939851E+02 0.  0.
         11    1    3    3    0    0  0.96695666677E+01  0.14359185849E+01  0.27401977676E+01  0.10152392109E+02  0.00000000000E+00 0.  1.
        -11    1    3    3    0    0 -0.84147267590E+02  0.11684894146E+03  0.45648081923E+03  0.47865350316E+03  0.00000000000E+00 0. -1.
          4    1    6    6  502    0 -0.18321405829E+02 -0.34397305668E+01 -0.31443813055E+03  0.31499022779E+03  0.00000000000E+00 0. -1.
          1    1    5    5  503    0  0.17213415395E+03 -0.14861038183E+03  0.12812326516E+03  0.26101874189E+03  0.00000000000E+00 0. -1.
         -2    1    5    5    0  503  0.34522154249E+02 -0.24587651394E+02 -0.10640781496E+02  0.43698489286E+02  0.00000000000E+00 0.  1.
         -3    1    6    6    0  502 -0.11385720145E+03  0.58352903747E+02 -0.53570725109E+03  0.55077289564E+03  0.00000000000E+00 0.  1.
<mgrwt>
<rscale>  0 0.16366003E+04</rscale>
<asrwt>0</asrwt>
<pdfrwt beam="1">  1        1 0.10660341E+00 0.16366003E+04</pdfrwt>
<pdfrwt beam="2">  1       -1 0.14867139E+00 0.16366003E+04</pdfrwt>
<totfact> 0.94598792E+00</totfact>
</mgrwt>
</event>
<event>
12    1  0.1495204E-007  0.1951999E+04  0.7818608E-02  0.8629397E-01
          1   -1    0    0  501    0  0.00000000000E+00  0.00000000000E+00  0.11947283300E+04  0.11947283300E+04  0.00000000000E+00 0. -1.
         -1   -1    0    0    0  501 -0.00000000000E+00 -0.00000000000E+00 -0.79731508898E+03  0.79731508898E+03  0.00000000000E+00 0.  1.
         23    2    1    2    0    0 -0.33172731193E+03 -0.68480781521E+03  0.63257077097E+02  0.76904062525E+03  0.91745693278E+02 0.  0.
        254    2    1    2    0    0  0.33172731193E+03  0.68480781521E+03  0.33415616393E+03  0.12230027937E+04  0.89725734232E+03 0.  0.
        -24    2    4    4    0    0 -0.62863031237E+02  0.66800082478E+03  0.43998524529E+03  0.80623659706E+03  0.79079528092E+02 0.  0.
         24    2    4    4    0    0  0.39459034317E+03  0.16806990424E+02 -0.10582908136E+03  0.41676619667E+03  0.80686147384E+02 0.  0.
         13    1    3    3    0    0 -0.26189884969E+03 -0.54407929337E+03  0.12560310328E+02  0.60396278555E+03  0.00000000000E+00 0.  1.
        -13    1    3    3    0    0 -0.69828462246E+02 -0.14072852184E+03  0.50696766769E+02  0.16507783970E+03  0.00000000000E+00 0. -1.
          2    1    6    6  502    0  0.19517737050E+03  0.31296952426E+02 -0.86914484046E+02  0.21593478812E+03  0.00000000000E+00 0. -1.
          3    1    5    5  503    0 -0.26786171086E+02  0.19403319683E+03  0.17132586974E+03  0.26022861886E+03  0.00000000000E+00 0. -1.
         -4    1    5    5    0  503 -0.36076860151E+02  0.47396762796E+03  0.26865937555E+03  0.54600797820E+03  0.00000000000E+00 0.  1.
         -1    1    6    6    0  502  0.19941297267E+03 -0.14489962002E+02 -0.18914597315E+02  0.20083140855E+03  0.00000000000E+00 0.  1.
<mgrwt>
<rscale>  0 0.19519989E+04</rscale>
<asrwt>0</asrwt>
<pdfrwt beam="1">  1        1 0.18380436E+00 0.19519989E+04</pdfrwt>
<pdfrwt beam="2">  1       -1 0.12266386E+00 0.19519989E+04</pdfrwt>
<totfact> 0.58901658E+00</totfact>
</mgrwt>
</event>
<event>
12    1  0.1495204E-007  0.1346789E+04  0.7818608E-02  0.8993262E-01
         -2   -1    0    0    0  501 -0.00000000000E+00  0.00000000000E+00  0.17570364932E+03  0.17570364932E+03  0.00000000000E+00 0.  1.
          2   -1    0    0  501    0  0.00000000000E+00 -0.00000000000E+00 -0.25808256435E+04  0.25808256435E+04  0.00000000000E+00 0. -1.
         23    2    1    2    0    0 -0.21082012854E+03 -0.20687870795E+03 -0.23753678593E+03  0.38981249926E+03  0.91028201708E+02 0.  0.
        254    2    1    2    0    0  0.21082012854E+03  0.20687870795E+03 -0.21675852082E+04  0.23667167935E+04  0.90314938935E+03 0.  0.
        -24    2    4    4    0    0 -0.28579376693E+03 -0.95432832152E+02 -0.41755224493E+03  0.52090982903E+03  0.78814148827E+02 0.  0.
         24    2    4    4    0    0  0.49661389547E+03  0.30231154011E+03 -0.17500329633E+04  0.18458069645E+04  0.79814467225E+02 0.  0.
         13    1    3    3    0    0 -0.19227447080E+02  0.25749371856E+01 -0.38534209828E+02  0.43141747181E+02  0.00000000000E+00 0. -1.
        -13    1    3    3    0    0 -0.19159268146E+03 -0.20945364514E+03 -0.19900257610E+03  0.34667075208E+03  0.00000000000E+00 0.  1.
          2    1    6    6  502    0  0.31915968953E+03  0.15716286482E+03 -0.99187098610E+03  0.10537414894E+04  0.00000000000E+00 0. -1.
          3    1    5    5  503    0 -0.17825414379E+03 -0.51592803750E+02 -0.31687157507E+03  0.36721104594E+03  0.00000000000E+00 0. -1.
         -4    1    5    5    0  503 -0.10753962314E+03 -0.43840028401E+02 -0.10068066987E+03  0.15369878308E+03  0.00000000000E+00 0.  1.
         -1    1    6    6    0  502  0.17745420594E+03  0.14514867528E+03 -0.75816197719E+03  0.79206547507E+03  0.00000000000E+00 0.  1.
<mgrwt>
<rscale>  0 0.13467895E+04</rscale>
<asrwt>0</asrwt>
<pdfrwt beam="1">  1        2 0.39705008E+00 0.13467895E+04</pdfrwt>
<pdfrwt beam="2">  1       -2 0.27031332E-01 0.13467895E+04</pdfrwt>
<totfact> 0.38144893E+01</totfact>
</mgrwt>
</event>
<event>
12    1  0.1495204E-007  0.1912667E+04  0.7818608E-02  0.8648577E-01
          1   -1    0    0  501    0  0.00000000000E+00  0.00000000000E+00  0.75012732276E+03  0.75012732276E+03  0.00000000000E+00 0. -1.
         -1   -1    0    0    0  501 -0.00000000000E+00 -0.00000000000E+00 -0.12192244926E+04  0.12192244926E+04  0.00000000000E+00 0.  1.
         23    2    1    2    0    0  0.67163666614E+03 -0.37508139682E+02 -0.51565198083E+03  0.85250418201E+03  0.91453502777E+02 0.  0.
        254    2    1    2    0    0 -0.67163666614E+03  0.37508139682E+02  0.46554811028E+02  0.11168476333E+04  0.89032500456E+03 0.  0.
        -24    2    4    4    0    0  0.19676584849E+03 -0.96192396140E+02  0.29691763385E+02  0.23424210111E+03  0.77575672156E+02 0.  0.
         24    2    4    4    0    0 -0.86840251463E+03  0.13370053582E+03  0.16863047643E+02  0.88260553220E+03  0.81910941810E+02 0.  0.
         13    1    3    3    0    0  0.48040211583E+03 -0.27661234846E+02 -0.31493103459E+03  0.57509381266E+03  0.00000000000E+00 0. -1.
        -13    1    3    3    0    0  0.19123455030E+03 -0.98469048360E+01 -0.20072094624E+03  0.27741036935E+03  0.00000000000E+00 0.  1.
          2    1    6    6  502    0 -0.69877923029E+03  0.10209764921E+03  0.45676209197E+02  0.70767411903E+03  0.00000000000E+00 0. -1.
          3    1    5    5  503    0  0.19673826999E+03 -0.98439864919E+02  0.16225179043E+02  0.22058923437E+03  0.00000000000E+00 0. -1.
         -4    1    5    5    0  503  0.27578506294E-01  0.22474687793E+01  0.13466584342E+02  0.13652866743E+02  0.00000000000E+00 0.  1.
         -1    1    6    6    0  502 -0.16962328434E+03  0.31602886615E+02 -0.28813161554E+02  0.17493141317E+03  0.00000000000E+00 0.  1.
<mgrwt>
<rscale>  0 0.19126668E+04</rscale>
<asrwt>0</asrwt>
<pdfrwt beam="1">  1        1 0.11540420E+00 0.19126668E+04</pdfrwt>
<pdfrwt beam="2">  1       -1 0.18757300E+00 0.19126668E+04</pdfrwt>
<totfact> 0.42056710E+00</totfact>
</mgrwt>
</event>
<event>
12    1  0.1495204E-007  0.1449587E+04  0.7818608E-02  0.8918687E-01
          1   -1    0    0  501    0  0.00000000000E+00  0.00000000000E+00  0.70409167594E+03  0.70409167594E+03  0.00000000000E+00 0. -1.
         -1   -1    0    0    0  501 -0.00000000000E+00 -0.00000000000E+00 -0.74610439572E+03  0.74610439572E+03  0.00000000000E+00 0.  1.
         23    2    1    2    0    0  0.23119096443E+03 -0.18109470553E+03 -0.35015017778E+03  0.46592110341E+03  0.90734630650E+02 0.  0.
        254    2    1    2    0    0 -0.23119096443E+03  0.18109470553E+03  0.30813745799E+03  0.98427496825E+03  0.88747054357E+03 0.  0.
        -24    2    4    4    0    0 -0.19134250469E+03  0.27731714349E+03  0.58420410322E+03  0.67909761029E+03  0.79764515324E+02 0.  0.
         24    2    4    4    0    0 -0.39848459746E+02 -0.96222437966E+02 -0.27606664522E+03  0.30517735796E+03  0.77934394821E+02 0.  0.
         11    1    3    3    0    0  0.58431226301E+02 -0.67914845872E+02 -0.16865250978E+03  0.19097199677E+03  0.00000000000E+00 0.  1.
        -11    1    3    3    0    0  0.17275973813E+03 -0.11317985966E+03 -0.18149766800E+03  0.27494910664E+03  0.00000000000E+00 0. -1.
          2    1    6    6  502    0 -0.23805769390E+02 -0.38582694527E+02 -0.21483963856E+03  0.21957096637E+03  0.00000000000E+00 0. -1.
          3    1    5    5  503    0 -0.82201710242E+02  0.58485398395E+02  0.15003587497E+03  0.18079941031E+03  0.00000000000E+00 0. -1.
         -4    1    5    5    0  503 -0.10914079445E+03  0.21883174510E+03  0.43416822825E+03  0.49829819997E+03  0.00000000000E+00 0.  1.
         -1    1    6    6    0  502 -0.16042690356E+02 -0.57639743439E+02 -0.61227006661E+02  0.85606391597E+02  0.00000000000E+00 0.  1.
<mgrwt>
<rscale>  0 0.14495874E+04</rscale>
<asrwt>0</asrwt>
<pdfrwt beam="1">  1        1 0.10832180E+00 0.14495874E+04</pdfrwt>
<pdfrwt beam="2">  1       -1 0.11478529E+00 0.14495874E+04</pdfrwt>
<totfact> 0.18090001E+01</totfact>
</mgrwt>
</event>
<event>
12    1  0.1495204E-007  0.1218582E+04  0.7818608E-02  0.9096746E-01
         -2   -1    0    0    0  501 -0.00000000000E+00  0.00000000000E+00  0.26296073906E+03  0.26296073906E+03  0.00000000000E+00 0.  1.
          2   -1    0    0  501    0  0.00000000000E+00 -0.00000000000E+00 -0.14117522362E+04  0.14117522362E+04  0.00000000000E+00 0. -1.
         23    2    1    2    0    0  0.26236527334E+02 -0.24795944634E+03 -0.13590356748E+03  0.29883399429E+03  0.93057692287E+02 0.  0.
        254    2    1    2    0    0 -0.26236527334E+02  0.24795944634E+03 -0.10128879296E+04  0.13758789809E+04  0.89717822633E+03 0.  0.
        -24    2    4    4    0    0 -0.19404483625E+03  0.40729464058E+03 -0.15457906925E+03  0.48351491667E+03  0.79684774431E+02 0.  0.
         24    2    4    4    0    0  0.16780830892E+03 -0.15933519424E+03 -0.85830886037E+03  0.89236406425E+03  0.77924262712E+02 0.  0.
         11    1    3    3    0    0  0.47867085926E+01 -0.17086581306E+03 -0.43078093299E+02  0.17627751068E+03  0.00000000000E+00 0.  1.
        -11    1    3    3    0    0  0.21449818741E+02 -0.77093633284E+02 -0.92825474184E+02  0.12255648361E+03  0.00000000000E+00 0. -1.
          2    1    6    6  502    0  0.79582407105E+02 -0.84212463613E+02 -0.28860228441E+03  0.31099256762E+03  0.00000000000E+00 0. -1.
          1    1    5    5  503    0 -0.52228752269E+01  0.46492603326E+02 -0.37023349023E+02  0.59662123349E+02  0.00000000000E+00 0. -1.
         -2    1    5    5    0  503 -0.18882196103E+03  0.36080203725E+03 -0.11755572022E+03  0.42385279332E+03  0.00000000000E+00 0.  1.
         -1    1    6    6    0  502  0.88225901815E+02 -0.75122730624E+02 -0.56970657596E+03  0.58137149663E+03  0.00000000000E+00 0.  1.
<mgrwt>
<rscale>  0 0.12185818E+04</rscale>
<asrwt>0</asrwt>
<pdfrwt beam="1">  1        2 0.21719265E+00 0.12185818E+04</pdfrwt>
<pdfrwt beam="2">  1       -2 0.40455499E-01 0.12185818E+04</pdfrwt>
<totfact> 0.81179097E+01</totfact>
</mgrwt>
</event>
<event>
12    1  0.1495204E-007  0.1514971E+04  0.7818608E-02  0.8874558E-01
          2   -1    0    0  501    0  0.00000000000E+00  0.00000000000E+00  0.45376214623E+03  0.45376214623E+03  0.00000000000E+00 0. -1.
         -2   -1    0    0    0  501 -0.00000000000E+00 -0.00000000000E+00 -0.12645037754E+04  0.12645037754E+04  0.00000000000E+00 0.  1.
         23    2    1    2    0    0 -0.27739214032E+03  0.20733443259E+03 -0.62903333510E+03  0.72348746578E+03  0.88414987559E+02 0.  0.
        254    2    1    2    0    0  0.27739214032E+03 -0.20733443259E+03 -0.18170829403E+03  0.99477845582E+03  0.91467606593E+03 0.  0.
        -24    2    4    4    0    0  0.27831937759E+03 -0.45827203211E+03 -0.38301571254E+03  0.66355292736E+03  0.78272089491E+02 0.  0.
         24    2    4    4    0    0 -0.92723727811E+00  0.25093759952E+03  0.20130741851E+03  0.33122552846E+03  0.78836129610E+02 0.  0.
         13    1    3    3    0    0 -0.41006500645E+02  0.75347792303E+02 -0.13019686397E+03  0.15591679284E+03  0.00000000000E+00 0. -1.
        -13    1    3    3    0    0 -0.23638563967E+03  0.13198664028E+03 -0.49883647113E+03  0.56757067294E+03  0.00000000000E+00 0.  1.
          2    1    6    6  502    0 -0.18110919238E+02  0.85384806949E+01  0.15622133762E+02  0.25396104259E+02  0.00000000000E+00 0. -1.
          1    1    5    5  503    0  0.64359018460E+01 -0.39734974015E+01 -0.20617081044E+02  0.21960727332E+02  0.00000000000E+00 0. -1.
         -2    1    5    5    0  503  0.27188347575E+03 -0.45429853471E+03 -0.36239863150E+03  0.64159220003E+03  0.00000000000E+00 0.  1.
         -1    1    6    6    0  502  0.17183681960E+02  0.24239911883E+03  0.18568528475E+03  0.30582942420E+03  0.00000000000E+00 0.  1.
<mgrwt>
<rscale>  0 0.15149706E+04</rscale>
<asrwt>0</asrwt>
<pdfrwt beam="1">  1        2 0.69809561E-01 0.15149706E+04</pdfrwt>
<pdfrwt beam="2">  1       -2 0.19453904E+00 0.15149706E+04</pdfrwt>
<totfact> 0.95990406E+00</totfact>
</mgrwt>
</event>
<event>
12    1  0.1495204E-007  0.2007747E+04  0.7818608E-02  0.8603007E-01
          2   -1    0    0  501    0  0.00000000000E+00  0.00000000000E+00  0.22967230872E+04  0.22967230872E+04  0.00000000000E+00 0. -1.
         -2   -1    0    0    0  501 -0.00000000000E+00 -0.00000000000E+00 -0.43878256387E+03  0.43878256387E+03  0.00000000000E+00 0.  1.
         23    2    1    2    0    0  0.20217304881E+03  0.37384887328E+03  0.16613460917E+04  0.17173971072E+04  0.93515055969E+02 0.  0.
        254    2    1    2    0    0 -0.20217304881E+03 -0.37384887328E+03  0.19659443166E+03  0.10181085439E+04  0.90402362518E+03 0.  0.
        -24    2    4    4    0    0 -0.33019550499E+03 -0.13408852881E+03  0.48917898489E+03  0.61127728774E+03  0.85761519178E+02 0.  0.
         24    2    4    4    0    0  0.12802245618E+03 -0.23976034447E+03 -0.29258455323E+03  0.40683125616E+03  0.77660660152E+02 0.  0.
         11    1    3    3    0    0  0.19757872891E+03  0.37906354312E+03  0.16188384815E+04  0.16743251037E+04  0.00000000000E+00 0. -1.
        -11    1    3    3    0    0  0.45943198965E+01 -0.52146698367E+01  0.42507610211E+02  0.43072003467E+02  0.00000000000E+00 0.  1.
          4    1    6    6  502    0  0.11653665116E+03 -0.24303953336E+03 -0.28673835583E+03  0.39353257876E+03  0.00000000000E+00 0. -1.
          3    1    5    5  503    0 -0.98100307085E+02 -0.13355175885E+02  0.88759253324E+02  0.13296704864E+03  0.00000000000E+00 0. -1.
         -4    1    5    5    0  503 -0.23209519790E+03 -0.12073335293E+03  0.40041973157E+03  0.47831023910E+03  0.00000000000E+00 0.  1.
         -3    1    6    6    0  502  0.11485805014E+02  0.32791888904E+01 -0.58461973976E+01  0.13298677401E+02  0.00000000000E+00 0.  1.
<mgrwt>
<rscale>  0 0.20077470E+04</rscale>
<asrwt>0</asrwt>
<pdfrwt beam="1">  1        2 0.35334201E+00 0.20077470E+04</pdfrwt>
<pdfrwt beam="2">  1       -2 0.67505011E-01 0.20077470E+04</pdfrwt>
<totfact> 0.85060546E+00</totfact>
</mgrwt>
</event>
<event>
12    1  0.1495204E-007  0.1263746E+04  0.7818608E-02  0.9058819E-01
          1   -1    0    0  501    0  0.00000000000E+00  0.00000000000E+00  0.85534805980E+03  0.85534805980E+03  0.00000000000E+00 0. -1.
         -1   -1    0    0    0  501 -0.00000000000E+00 -0.00000000000E+00 -0.46678495580E+03  0.46678495580E+03  0.00000000000E+00 0.  1.
         23    2    1    2    0    0 -0.23047334149E+02 -0.12177627776E+03  0.39115628734E+03  0.42052942922E+03  0.92092987124E+02 0.  0.
        254    2    1    2    0    0  0.23047334149E+02  0.12177627776E+03 -0.25931833363E+01  0.90160358638E+03  0.89304068269E+03 0.  0.
        -24    2    4    4    0    0  0.42167670473E+03 -0.59029757729E+02  0.10128489857E+03  0.44478084657E+03  0.79218780468E+02 0.  0.
         24    2    4    4    0    0 -0.39862937059E+03  0.18080603549E+03 -0.10387808191E+03  0.45682273981E+03  0.79373560744E+02 0.  0.
         11    1    3    3    0    0 -0.32579462707E+02 -0.23060052328E+01  0.11361574660E+03  0.11821707544E+03  0.00000000000E+00 0.  1.
        -11    1    3    3    0    0  0.95321285581E+01 -0.11947027253E+03  0.27754054074E+03  0.30231235377E+03  0.00000000000E+00 0. -1.
          4    1    6    6  502    0 -0.28213707809E+03  0.14480528992E+03 -0.10746643018E+03  0.33484165875E+03  0.00000000000E+00 0. -1.
          3    1    5    5  503    0  0.10434468766E+03  0.93169905033E+01  0.50237493350E+02  0.11618272631E+03  0.00000000000E+00 0. -1.
         -4    1    5    5    0  503  0.31733201708E+03 -0.68346748232E+02  0.51047405223E+02  0.32859812026E+03  0.00000000000E+00 0.  1.
         -3    1    6    6    0  502 -0.11649229250E+03  0.36000745568E+02  0.35883482709E+01  0.12198108106E+03  0.00000000000E+00 0.  1.
<mgrwt>
<rscale>  0 0.12637462E+04</rscale>
<asrwt>0</asrwt>
<pdfrwt beam="1">  1        1 0.13159201E+00 0.12637462E+04</pdfrwt>
<pdfrwt beam="2">  1       -1 0.71813070E-01 0.12637462E+04</pdfrwt>
<totfact> 0.38227825E+01</totfact>
</mgrwt>
</event>
<event>
12    1  0.1495204E-007  0.1628568E+04  0.7818608E-02  0.8803187E-01
         -1   -1    0    0    0  501 -0.00000000000E+00  0.00000000000E+00  0.52545210986E+03  0.52545210986E+03  0.00000000000E+00 0.  1.
          1   -1    0    0  501    0  0.00000000000E+00 -0.00000000000E+00 -0.12618814811E+04  0.12618814811E+04  0.00000000000E+00 0. -1.
         23    2    1    2    0    0  0.19261390748E+02 -0.46510911797E+03 -0.60430879020E+03  0.76836779183E+03  0.92208767547E+02 0.  0.
        254    2    1    2    0    0 -0.19261390748E+02  0.46510911797E+03 -0.13212058107E+03  0.10189657992E+04  0.89673739698E+03 0.  0.
        -24    2    4    4    0    0 -0.37419040973E+03  0.24608111110E+03 -0.31833145078E+03  0.55518903634E+03  0.79533499501E+02 0.  0.
         24    2    4    4    0    0  0.35492901899E+03  0.21902800686E+03  0.18621086971E+03  0.46377676282E+03  0.80414684153E+02 0.  0.
         13    1    3    3    0    0  0.96505836407E+01 -0.18712331279E+03 -0.31865946850E+03  0.36966488178E+03  0.00000000000E+00 0. -1.
        -13    1    3    3    0    0  0.96108071077E+01 -0.27798580518E+03 -0.28564932169E+03  0.39870291005E+03  0.00000000000E+00 0.  1.
          2    1    6    6  502    0  0.22629302553E+03  0.18309525805E+03  0.13237951025E+03  0.31977608050E+03  0.00000000000E+00 0. -1.
          3    1    5    5  503    0 -0.36987583764E+03  0.23508135249E+03 -0.29284082840E+03  0.52709309267E+03  0.00000000000E+00 0. -1.
         -4    1    5    5    0  503 -0.43145720947E+01  0.10999758611E+02 -0.25490622379E+02  0.28095943677E+02  0.00000000000E+00 0.  1.
         -1    1    6    6    0  502  0.12863599345E+03  0.35932748819E+02  0.53831359455E+02  0.14400068232E+03  0.00000000000E+00 0.  1.
<mgrwt>
<rscale>  0 0.16285678E+04</rscale>
<asrwt>0</asrwt>
<pdfrwt beam="1">  1        1 0.19413561E+00 0.16285678E+04</pdfrwt>
<pdfrwt beam="2">  1       -1 0.80838787E-01 0.16285678E+04</pdfrwt>
<totfact> 0.14070617E+01</totfact>
</mgrwt>
</event>
<event>
12    1  0.1495204E-007  0.1571765E+04  0.7818608E-02  0.8838084E-01
         -1   -1    0    0    0  501 -0.00000000000E+00  0.00000000000E+00  0.60928148428E+03  0.60928148428E+03  0.00000000000E+00 0.  1.
          1   -1    0    0  501    0  0.00000000000E+00 -0.00000000000E+00 -0.10136712375E+04  0.10136712375E+04  0.00000000000E+00 0. -1.
         23    2    1    2    0    0 -0.10887202438E+03 -0.39157055871E+03 -0.44471383203E+03  0.60912868385E+03  0.89926308398E+02 0.  0.
        254    2    1    2    0    0  0.10887202438E+03  0.39157055871E+03  0.40324078843E+02  0.10138240379E+04  0.92791838452E+03 0.  0.
        -24    2    4    4    0    0  0.38657780121E+03  0.48406215634E+03 -0.16617077774E+03  0.64654185496E+03  0.81517331011E+02 0.  0.
         24    2    4    4    0    0 -0.27770577682E+03 -0.92491597629E+02  0.20649485659E+03  0.36728218293E+03  0.81122635512E+02 0.  0.
         13    1    3    3    0    0 -0.12353361404E+03 -0.33537661025E+03 -0.36905434404E+03  0.51375006895E+03  0.00000000000E+00 0. -1.
        -13    1    3    3    0    0  0.14661589656E+02 -0.56193948468E+02 -0.75659487992E+02  0.95378614893E+02  0.00000000000E+00 0.  1.
          2    1    6    6  502    0 -0.17909592568E+03 -0.63328228147E+02  0.85003708466E+02  0.20811402050E+03  0.00000000000E+00 0. -1.
          3    1    5    5  503    0  0.10420053767E+03  0.18887474970E+03 -0.43877732439E+02  0.22012877715E+03  0.00000000000E+00 0. -1.
         -4    1    5    5    0  503  0.28237726353E+03  0.29518740664E+03 -0.12229304530E+03  0.42641307781E+03  0.00000000000E+00 0.  1.
         -3    1    6    6    0  502 -0.98609851145E+02 -0.29163369482E+02  0.12149114812E+03  0.15916816244E+03  0.00000000000E+00 0.  1.
<mgrwt>
<rscale>  0 0.15717648E+04</rscale>
<asrwt>0</asrwt>
<pdfrwt beam="1">  1        1 0.15594942E+00 0.15717648E+04</pdfrwt>
<pdfrwt beam="2">  1       -1 0.93735615E-01 0.15717648E+04</pdfrwt>
<totfact> 0.15671405E+01</totfact>
</mgrwt>
</event>
<event>
12    1  0.1495204E-007  0.1866450E+04  0.7818608E-02  0.8671739E-01
         -1   -1    0    0    0  501 -0.00000000000E+00  0.00000000000E+00  0.10926863362E+04  0.10926863362E+04  0.00000000000E+00 0.  1.
          1   -1    0    0  501    0  0.00000000000E+00 -0.00000000000E+00 -0.79703473473E+03  0.79703473473E+03  0.00000000000E+00 0. -1.
         23    2    1    2    0    0 -0.30761041788E+03  0.25319271333E+03 -0.46383412026E+03  0.61822301567E+03  0.91251776456E+02 0.  0.
        254    2    1    2    0    0  0.30761041788E+03 -0.25319271333E+03  0.75948572172E+03  0.12714980552E+04  0.93870017775E+03 0.  0.
        -24    2    4    4    0    0  0.34134135872E+02 -0.75527455795E+02 -0.21323666054E+03  0.24251289415E+03  0.80455544375E+02 0.  0.
         24    2    4    4    0    0  0.27347628201E+03 -0.17766525754E+03  0.97272238226E+03  0.10289851611E+04  0.79166964416E+02 0.  0.
         11    1    3    3    0    0 -0.29936988018E+03  0.24716416048E+03 -0.41477057099E+03  0.56810832941E+03  0.00000000000E+00 0. -1.
        -11    1    3    3    0    0 -0.82405376998E+01  0.60285528466E+01 -0.49063549278E+02  0.50114686258E+02  0.00000000000E+00 0.  1.
          2    1    6    6  502    0  0.16253649142E+03 -0.13068622504E+03  0.51387678332E+03  0.55458664688E+03  0.00000000000E+00 0. -1.
          3    1    5    5  503    0  0.31279625111E+02 -0.39413621112E+02 -0.36653686975E+02  0.62252238876E+02  0.00000000000E+00 0. -1.
         -4    1    5    5    0  503  0.28545107609E+01 -0.36113834683E+02 -0.17658297356E+03  0.18026065527E+03  0.00000000000E+00 0.  1.
         -1    1    6    6    0  502  0.11093979059E+03 -0.46979032498E+02  0.45884559893E+03  0.47439851422E+03  0.00000000000E+00 0.  1.
<mgrwt>
<rscale>  0 0.18664501E+04</rscale>
<asrwt>0</asrwt>
<pdfrwt beam="1">  1        1 0.12262073E+00 0.18664501E+04</pdfrwt>
<pdfrwt beam="2">  1       -1 0.16810559E+00 0.18664501E+04</pdfrwt>
<totfact> 0.53030766E+00</totfact>
</mgrwt>
</event>
<event>
12    1  0.1495204E-007  0.1624355E+04  0.7818608E-02  0.8805724E-01
          2   -1    0    0  501    0  0.00000000000E+00  0.00000000000E+00  0.89077369799E+03  0.89077369799E+03  0.00000000000E+00 0. -1.
         -2   -1    0    0    0  501 -0.00000000000E+00 -0.00000000000E+00 -0.74051575832E+03  0.74051575832E+03  0.00000000000E+00 0.  1.
         23    2    1    2    0    0  0.55566291083E+02  0.47431376963E+03  0.29893493542E+03  0.57028676135E+03  0.88338721906E+02 0.  0.
        254    2    1    2    0    0 -0.55566291083E+02 -0.47431376963E+03 -0.14867699575E+03  0.10610026950E+04  0.93571400807E+03 0.  0.
        -24    2    4    4    0    0 -0.35589493814E+03 -0.54323583523E+03  0.93909574119E+02  0.66101968095E+03  0.79759832170E+02 0.  0.
         24    2    4    4    0    0  0.30032864706E+03  0.68922065600E+02 -0.24258656987E+03  0.39998301401E+03  0.78680494708E+02 0.  0.
         11    1    3    3    0    0  0.71618625591E+02  0.38604289637E+03  0.26803668165E+03  0.47539668497E+03  0.00000000000E+00 0. -1.
        -11    1    3    3    0    0 -0.16052334509E+02  0.88270873255E+02  0.30898253772E+02  0.94890076376E+02  0.00000000000E+00 0.  1.
          4    1    6    6  502    0  0.26887394345E+02  0.11769581619E+02 -0.58447490240E+02  0.65403089694E+02  0.00000000000E+00 0. -1.
          1    1    5    5  503    0 -0.46687009670E+02 -0.61038506892E+02  0.37263871351E+02  0.85404755744E+02  0.00000000000E+00 0. -1.
         -2    1    5    5    0  503 -0.30920792847E+03 -0.48219732834E+03  0.56645702768E+02  0.57561492521E+03  0.00000000000E+00 0.  1.
         -3    1    6    6    0  502  0.27344125271E+03  0.57152483981E+02 -0.18413907963E+03  0.33457992432E+03  0.00000000000E+00 0.  1.
<mgrwt>
<rscale>  0 0.16243546E+04</rscale>
<asrwt>0</asrwt>
<pdfrwt beam="1">  1        2 0.13704211E+00 0.16243546E+04</pdfrwt>
<pdfrwt beam="2">  1       -2 0.11392550E+00 0.16243546E+04</pdfrwt>
<totfact> 0.17179530E+01</totfact>
</mgrwt>
</event>
<event>
12    1  0.2093358E-007  0.1582686E+04  0.7818608E-02  0.8831256E-01
         -2   -1    0    0    0  501 -0.00000000000E+00  0.00000000000E+00  0.35353562118E+03  0.35353562118E+03  0.00000000000E+00 0. -1.
          2   -1    0    0  501    0  0.00000000000E+00 -0.00000000000E+00 -0.17713174458E+04  0.17713174458E+04  0.00000000000E+00 0.  1.
         23    2    1    2    0    0  0.12654127270E+02  0.65017080935E+02 -0.11905192239E+04  0.11958953664E+04  0.91882300959E+02 0.  0.
        254    2    1    2    0    0 -0.12654127270E+02 -0.65017080935E+02 -0.22726260075E+03  0.92895770058E+03  0.89829102857E+03 0.  0.
        -24    2    4    4    0    0 -0.80912770677E+02  0.12494697330E+02  0.33366397290E+03  0.35289602545E+03  0.80628555991E+02 0.  0.
         24    2    4    4    0    0  0.68258643407E+02 -0.77511778265E+02 -0.56092657366E+03  0.57606167513E+03  0.80877155921E+02 0.  0.
         11    1    3    3    0    0  0.11607026025E+02  0.60607031813E+02 -0.35227844003E+03  0.35764232785E+03  0.00000000000E+00 0. -1.
        -11    1    3    3    0    0  0.10471012453E+01  0.44100491223E+01 -0.83824078386E+03  0.83825303858E+03  0.00000000000E+00 0.  1.
          4    1    6    6  502    0  0.61923902217E+02 -0.14069045607E+02 -0.21003972403E+03  0.21942924459E+03  0.00000000000E+00 0. -1.
          1    1    5    5  503    0 -0.29247068241E+02 -0.21429222520E+02  0.45507055268E+02  0.58185003718E+02  0.00000000000E+00 0. -1.
         -2    1    5    5    0  503 -0.51665702436E+02  0.33923919850E+02  0.28815691764E+03  0.29471102173E+03  0.00000000000E+00 0.  1.
         -3    1    6    6    0  502  0.63347411898E+01 -0.63442732658E+02 -0.35088684963E+03  0.35663243054E+03  0.00000000000E+00 0.  1.
<mgrwt>
<rscale>  0 0.15826861E+04</rscale>
<asrwt>0</asrwt>
<pdfrwt beam="1">  1        2 0.27251038E+00 0.15826861E+04</pdfrwt>
<pdfrwt beam="2">  1       -2 0.54390095E-01 0.15826861E+04</pdfrwt>
<totfact> 0.27345895E+01</totfact>
</mgrwt>
</event>
<event>
12    1  0.1659420E-007  0.1645570E+04  0.7818608E-02  0.8793032E-01
         -2   -1    0    0    0  501 -0.00000000000E+00  0.00000000000E+00  0.79564855635E+03  0.79564855635E+03  0.00000000000E+00 0.  1.
          2   -1    0    0  501    0  0.00000000000E+00 -0.00000000000E+00 -0.85084680990E+03  0.85084680990E+03  0.00000000000E+00 0. -1.
         23    2    1    2    0    0  0.38666261190E+03  0.71934770845E+02  0.39424319864E+03  0.56551106903E+03  0.98450407956E+02 0.  0.
        254    2    1    2    0    0 -0.38666261190E+03 -0.71934770845E+02 -0.44944145218E+03  0.10809842972E+04  0.90102544093E+03 0.  0.
        -24    2    4    4    0    0 -0.28136506916E+03 -0.46293310014E+03 -0.14109218955E+03  0.56551210258E+03  0.80147207420E+02 0.  0.
         24    2    4    4    0    0 -0.10529754274E+03  0.39099832930E+03 -0.30834926264E+03  0.51547219465E+03  0.81639755419E+02 0.  0.
         13    1    3    3    0    0  0.21434141098E+02  0.43171417788E+01 -0.25299398054E+01  0.22010468263E+02  0.00000000000E+00 0. -1.
        -13    1    3    3    0    0  0.36522847080E+03  0.67617629066E+02  0.39677313844E+03  0.54350060077E+03  0.00000000000E+00 0.  1.
          2    1    6    6  502    0 -0.55118462259E+02  0.28078351968E+03 -0.17533468768E+03  0.33558856135E+03  0.00000000000E+00 0. -1.
          1    1    5    5  503    0 -0.24975213222E+03 -0.44696802556E+03 -0.13568905014E+03  0.52968675814E+03  0.00000000000E+00 0. -1.
         -2    1    5    5    0  503 -0.31612936942E+02 -0.15965074582E+02 -0.54031394096E+01  0.35825344436E+02  0.00000000000E+00 0.  1.
         -3    1    6    6    0  502 -0.50179080479E+02  0.11021480962E+03 -0.13301457496E+03  0.17988363330E+03  0.00000000000E+00 0.  1.
<mgrwt>
<rscale>  0 0.16455699E+04</rscale>
<asrwt>0</asrwt>
<pdfrwt beam="1">  1        2 0.13089951E+00 0.16455699E+04</pdfrwt>
<pdfrwt beam="2">  1       -2 0.12240747E+00 0.16455699E+04</pdfrwt>
<totfact> 0.15304676E+01</totfact>
</mgrwt>
</event>
<event>
12    1  0.1495204E-007  0.1730352E+04  0.7818608E-02  0.8744240E-01
          2   -1    0    0  501    0  0.00000000000E+00  0.00000000000E+00  0.10975481675E+04  0.10975481675E+04  0.00000000000E+00 0. -1.
         -2   -1    0    0    0  501 -0.00000000000E+00 -0.00000000000E+00 -0.68200154877E+03  0.68200154877E+03  0.00000000000E+00 0.  1.
         23    2    1    2    0    0 -0.42993830522E+03  0.33365193754E+03 -0.10418407467E+03  0.56171627206E+03  0.92197001889E+02 0.  0.
        254    2    1    2    0    0  0.42993830522E+03 -0.33365193754E+03  0.51973069337E+03  0.12178334442E+04  0.95751122315E+03 0.  0.
        -24    2    4    4    0    0  0.18997544218E+03 -0.59248217984E+03  0.57586588503E+03  0.85148457972E+03  0.79238058412E+02 0.  0.
         24    2    4    4    0    0  0.23996286304E+03  0.25883024230E+03 -0.56135191659E+02  0.36634886448E+03  0.80529875164E+02 0.  0.
         11    1    3    3    0    0 -0.24340166007E+03  0.24392185514E+03 -0.54926390377E+02  0.34894003482E+03  0.00000000000E+00 0.  1.
        -11    1    3    3    0    0 -0.18653664515E+03  0.89730082405E+02 -0.49257684289E+02  0.21277623724E+03  0.00000000000E+00 0. -1.
          4    1    6    6  502    0  0.20042990099E+02  0.24432312799E+02 -0.30491144062E+02  0.43913201056E+02  0.00000000000E+00 0. -1.
          3    1    5    5  503    0  0.65736182465E+02 -0.11178778679E+03  0.99888478783E+02  0.16369319825E+03  0.00000000000E+00 0. -1.
         -4    1    5    5    0  503  0.12423925972E+03 -0.48069439305E+03  0.47597740625E+03  0.68779138147E+03  0.00000000000E+00 0.  1.
         -3    1    6    6    0  502  0.21991987294E+03  0.23439792950E+03 -0.25644047598E+02  0.32243566342E+03  0.00000000000E+00 0.  1.
<mgrwt>
<rscale>  0 0.17303520E+04</rscale>
<asrwt>0</asrwt>
<pdfrwt beam="1">  1        2 0.16885356E+00 0.17303520E+04</pdfrwt>
<pdfrwt beam="2">  1       -2 0.10492332E+00 0.17303520E+04</pdfrwt>
<totfact> 0.15285115E+01</totfact>
</mgrwt>
</event>
<event>
12    1  0.1495204E-007  0.1583585E+04  0.7818608E-02  0.8830696E-01
          1   -1    0    0  501    0  0.00000000000E+00  0.00000000000E+00  0.23675480042E+04  0.23675480042E+04  0.00000000000E+00 0. -1.
         -1   -1    0    0    0  501 -0.00000000000E+00 -0.00000000000E+00 -0.26480364141E+03  0.26480364141E+03  0.00000000000E+00 0.  1.
         23    2    1    2    0    0 -0.23824390492E+03 -0.12955582435E+03 -0.40877097295E+02  0.28936348920E+03  0.92279043925E+02 0.  0.
        254    2    1    2    0    0  0.23824390492E+03  0.12955582435E+03  0.21436214601E+04  0.23429881565E+04  0.90605500225E+03 0.  0.
        -24    2    4    4    0    0  0.36949253541E+03  0.10796695166E+03  0.30472278849E+03  0.49757493203E+03  0.80890288594E+02 0.  0.
         24    2    4    4    0    0 -0.13124863049E+03  0.21588872691E+02  0.18388986716E+04  0.18454132244E+04  0.79431491694E+02 0.  0.
         13    1    3    3    0    0 -0.23255809690E+03 -0.99703846119E+02 -0.22920081882E+02  0.25406584878E+03  0.00000000000E+00 0.  1.
        -13    1    3    3    0    0 -0.56858080227E+01 -0.29851978226E+02 -0.17957015413E+02  0.35297640423E+02  0.00000000000E+00 0. -1.
          4    1    6    6  502    0 -0.16552078103E+02 -0.52714875946E+01  0.56123304297E+02  0.58750192818E+02  0.00000000000E+00 0. -1.
          1    1    5    5  503    0  0.20107037309E+03  0.24841359113E+02  0.12774068699E+03  0.23950797725E+03  0.00000000000E+00 0. -1.
         -2    1    5    5    0  503  0.16842216233E+03  0.83125592542E+02  0.17698210150E+03  0.25806695478E+03  0.00000000000E+00 0.  1.
         -3    1    6    6    0  502 -0.11469655239E+03  0.26860360285E+02  0.17827753673E+04  0.17866630316E+04  0.00000000000E+00 0.  1.
<mgrwt>
<rscale>  0 0.15835850E+04</rscale>
<asrwt>0</asrwt>
<pdfrwt beam="1">  1        1 0.36423814E+00 0.15835850E+04</pdfrwt>
<pdfrwt beam="2">  1       -1 0.40739023E-01 0.15835850E+04</pdfrwt>
<totfact> 0.94796770E+00</totfact>
</mgrwt>
</event>
<event>
12    1  0.1495204E-007  0.2000361E+04  0.7818608E-02  0.8606452E-01
          2   -1    0    0  501    0  0.00000000000E+00  0.00000000000E+00  0.36146705226E+04  0.36146705226E+04  0.00000000000E+00 0. -1.
         -2   -1    0    0    0  501 -0.00000000000E+00 -0.00000000000E+00 -0.27675037088E+03  0.27675037088E+03  0.00000000000E+00 0.  1.
         23    2    1    2    0    0  0.73201328624E+03  0.22912687335E+03  0.93261170405E+03  0.12109815524E+04  0.91483083253E+02 0.  0.
        254    2    1    2    0    0 -0.73201328624E+03 -0.22912687335E+03  0.24053084477E+04  0.26804393411E+04  0.90050194736E+03 0.  0.
        -24    2    4    4    0    0 -0.83174328792E+03 -0.36399148465E+03  0.14921839039E+04  0.17485611485E+04  0.81034492800E+02 0.  0.
         24    2    4    4    0    0  0.99730001679E+02  0.13486461131E+03  0.91312454381E+03  0.93187819259E+03  0.80411421385E+02 0.  0.
         11    1    3    3    0    0  0.27557038557E+01 -0.49894794727E+01  0.12960422545E+02  0.14158437827E+02  0.00000000000E+00 0. -1.
        -11    1    3    3    0    0  0.72925758238E+03  0.23411635282E+03  0.91965128150E+03  0.11968231146E+04  0.00000000000E+00 0.  1.
          4    1    6    6  502    0 -0.86720925818E+01  0.40895978291E+02  0.17314740001E+03  0.17812273398E+03  0.00000000000E+00 0. -1.
          1    1    5    5  503    0 -0.61946709428E+02 -0.50818626184E+01  0.10275163340E+03  0.12008796069E+03  0.00000000000E+00 0. -1.
         -2    1    5    5    0  503 -0.76979657849E+03 -0.35890962204E+03  0.13894322705E+04  0.16284731878E+04  0.00000000000E+00 0.  1.
         -3    1    6    6    0  502  0.10840209426E+03  0.93968633016E+02  0.73997714380E+03  0.75375545860E+03  0.00000000000E+00 0.  1.
<mgrwt>
<rscale>  0 0.20003614E+04</rscale>
<asrwt>0</asrwt>
<pdfrwt beam="1">  1        2 0.55610312E+00 0.20003614E+04</pdfrwt>
<pdfrwt beam="2">  1       -2 0.42576983E-01 0.20003614E+04</pdfrwt>
<totfact> 0.32951139E+00</totfact>
</mgrwt>
</event>
<event>
12    1  0.1495204E-007  0.1475425E+04  0.7818608E-02  0.8900961E-01
          1   -1    0    0  501    0  0.00000000000E+00  0.00000000000E+00  0.91815593080E+03  0.91815593080E+03  0.00000000000E+00 0. -1.
         -1   -1    0    0    0  501 -0.00000000000E+00 -0.00000000000E+00 -0.59273161070E+03  0.59273161070E+03  0.00000000000E+00 0.  1.
         23    2    1    2    0    0 -0.45092160418E+02  0.26148496230E+03  0.48353446986E+03  0.56378250035E+03  0.11677943191E+03 0.  0.
        254    2    1    2    0    0  0.45092160418E+02 -0.26148496230E+03 -0.15811014976E+03  0.94710504115E+03  0.89532198178E+03 0.  0.
        -24    2    4    4    0    0 -0.10519067207E+03 -0.37794466183E+03  0.26244909632E+03  0.47867944408E+03  0.79669549536E+02 0.  0.
         24    2    4    4    0    0  0.15028283249E+03  0.11645969953E+03 -0.42055924608E+03  0.46842559707E+03  0.80029176995E+02 0.  0.
         11    1    3    3    0    0  0.93176459613E+01  0.11001864817E+03  0.30002198465E+03  0.31969377964E+03  0.00000000000E+00 0.  1.
        -11    1    3    3    0    0 -0.54409806380E+02  0.15146631413E+03  0.18351248521E+03  0.24408872070E+03  0.00000000000E+00 0. -1.
          4    1    6    6  502    0  0.39235708074E+02  0.44601159875E+02 -0.60267630150E+02  0.84622050874E+02  0.00000000000E+00 0. -1.
          3    1    5    5  503    0  0.47356617800E+01 -0.99621359709E+02  0.49086402150E+02  0.11115897030E+03  0.00000000000E+00 0. -1.
         -2    1    5    5    0  503 -0.10992633385E+03 -0.27832330212E+03  0.21336269417E+03  0.36752047377E+03  0.00000000000E+00 0.  1.
         -3    1    6    6    0  502  0.11104712442E+03  0.71858539656E+02 -0.36029161593E+03  0.38380354620E+03  0.00000000000E+00 0.  1.
<mgrwt>
<rscale>  0 0.14754254E+04</rscale>
<asrwt>0</asrwt>
<pdfrwt beam="1">  1        1 0.14125476E+00 0.14754254E+04</pdfrwt>
<pdfrwt beam="2">  1       -1 0.91189479E-01 0.14754254E+04</pdfrwt>
<totfact> 0.20005193E+01</totfact>
</mgrwt>
</event>
<event>
12    1  0.1495204E-007  0.2115327E+04  0.7818608E-02  0.8554522E-01
          1   -1    0    0  501    0  0.00000000000E+00  0.00000000000E+00  0.23161214660E+04  0.23161214660E+04  0.00000000000E+00 0. -1.
         -1   -1    0    0    0  501 -0.00000000000E+00 -0.00000000000E+00 -0.48298491595E+03  0.48298491595E+03  0.00000000000E+00 0.  1.
         23    2    1    2    0    0 -0.39131050338E+02 -0.50467619563E+03  0.16325805654E+04  0.17117215264E+04  0.91880248682E+02 0.  0.
        254    2    1    2    0    0  0.39131050338E+02  0.50467619563E+03  0.20055598467E+03  0.10873848555E+04  0.94125119892E+03 0.  0.
        -24    2    4    4    0    0  0.23117562721E+02  0.41461954697E+02 -0.35063165125E+03  0.36275876093E+03  0.79986551257E+02 0.  0.
         24    2    4    4    0    0  0.16013487616E+02  0.46321424093E+03  0.55118763592E+03  0.72462609458E+03  0.80319998545E+02 0.  0.
         11    1    3    3    0    0 -0.23133141809E+00 -0.12532801807E+03  0.54499193550E+03  0.55921675170E+03  0.00000000000E+00 0. -1.
        -11    1    3    3    0    0 -0.38899718920E+02 -0.37934817756E+03  0.10875886299E+04  0.11525047747E+04  0.00000000000E+00 0.  1.
          4    1    6    6  502    0 -0.19894226954E+02  0.21099835672E+03  0.29590102687E+03  0.36396909829E+03  0.00000000000E+00 0. -1.
          1    1    5    5  503    0  0.40454863266E+02  0.52515461830E+02 -0.31232683375E+03  0.31928438856E+03  0.00000000000E+00 0. -1.
         -4    1    5    5    0  503 -0.17337300545E+02 -0.11053507134E+02 -0.38304817495E+02  0.43474372376E+02  0.00000000000E+00 0.  1.
         -3    1    6    6    0  502  0.35907714570E+02  0.25221588421E+03  0.25528660905E+03  0.36065699629E+03  0.00000000000E+00 0.  1.
<mgrwt>
<rscale>  0 0.21153267E+04</rscale>
<asrwt>0</asrwt>
<pdfrwt beam="1">  1        1 0.35632637E+00 0.21153267E+04</pdfrwt>
<pdfrwt beam="2">  1       -1 0.74305373E-01 0.21153267E+04</pdfrwt>
<totfact> 0.30380147E+00</totfact>
</mgrwt>
</event>
<event>
12    1  0.1495204E-007  0.1220457E+04  0.7818608E-02  0.9095137E-01
         -1   -1    0    0    0  501 -0.00000000000E+00  0.00000000000E+00  0.24037733619E+03  0.24037733619E+03  0.00000000000E+00 0.  1.
          1   -1    0    0  501    0  0.00000000000E+00 -0.00000000000E+00 -0.15491421594E+04  0.15491421594E+04  0.00000000000E+00 0. -1.
         23    2    1    2    0    0  0.81002800131E+02  0.24172748147E+03 -0.26867364554E+03  0.38249292508E+03  0.95507491854E+02 0.  0.
        254    2    1    2    0    0 -0.81002800131E+02 -0.24172748147E+03 -0.10400911777E+04  0.14070265705E+04  0.91265573099E+03 0.  0.
        -24    2    4    4    0    0 -0.34073011343E+03 -0.10201013408E+03 -0.10398520089E+04  0.11017775231E+04  0.78220408357E+02 0.  0.
         24    2    4    4    0    0  0.25972731330E+03 -0.13971734739E+03 -0.23916878356E+00  0.30524904744E+03  0.78725531607E+02 0.  0.
         11    1    3    3    0    0  0.55574144688E+02  0.72824025451E+02 -0.14538514479E+03  0.17183906589E+03  0.00000000000E+00 0. -1.
        -11    1    3    3    0    0  0.25428655442E+02  0.16890345602E+03 -0.12328850075E+03  0.21065385919E+03  0.00000000000E+00 0.  1.
          2    1    6    6  502    0  0.41066082271E+02  0.69748913846E+01  0.45109333575E+01  0.41897741498E+02  0.00000000000E+00 0. -1.
          3    1    5    5  503    0 -0.94463723236E+02 -0.13652419986E+02 -0.19102301499E+03  0.21354057187E+03  0.00000000000E+00 0. -1.
         -4    1    5    5    0  503 -0.24626639019E+03 -0.88357714097E+02 -0.84882899391E+03  0.88823695121E+03  0.00000000000E+00 0.  1.
         -1    1    6    6    0  502  0.21866123103E+03 -0.14669223877E+03 -0.47501021411E+01  0.26335130594E+03  0.00000000000E+00 0.  1.
<mgrwt>
<rscale>  0 0.12204567E+04</rscale>
<asrwt>0</asrwt>
<pdfrwt beam="1">  1        1 0.23832956E+00 0.12204567E+04</pdfrwt>
<pdfrwt beam="2">  1       -1 0.36981129E-01 0.12204567E+04</pdfrwt>
<totfact> 0.41999985E+01</totfact>
</mgrwt>
</event>
<event>
12    1  0.1495204E-007  0.1793616E+04  0.7818608E-02  0.8709702E-01
          2   -1    0    0  501    0  0.00000000000E+00  0.00000000000E+00  0.10127612539E+04  0.10127612539E+04  0.00000000000E+00 0. -1.
         -2   -1    0    0    0  501 -0.00000000000E+00 -0.00000000000E+00 -0.79413031254E+03  0.79413031254E+03  0.00000000000E+00 0.  1.
         23    2    1    2    0    0  0.54192002668E+02 -0.45034883645E+03 -0.43778260272E+03  0.63710319517E+03  0.92173892261E+02 0.  0.
        254    2    1    2    0    0 -0.54192002668E+02  0.45034883645E+03  0.65641354403E+03  0.11697883712E+04  0.85543862726E+03 0.  0.
        -24    2    4    4    0    0 -0.24802517480E+03  0.54862036045E+03  0.70759172592E+03  0.93266331390E+03  0.81694671015E+02 0.  0.
         24    2    4    4    0    0  0.19383317214E+03 -0.98271524002E+02 -0.51178181892E+02  0.23712505731E+03  0.79878003563E+02 0.  0.
         11    1    3    3    0    0  0.53027010048E+02 -0.18733512168E+03 -0.23383881390E+03  0.30428095980E+03  0.00000000000E+00 0.  1.
        -11    1    3    3    0    0  0.11649926202E+01 -0.26301371476E+03 -0.20394378882E+03  0.33282223538E+03  0.00000000000E+00 0. -1.
          2    1    6    6  502    0  0.16776023382E+03 -0.99593503706E+02 -0.67375543263E+02  0.20640209752E+03  0.00000000000E+00 0. -1.
          1    1    5    5  503    0 -0.14075767041E+03  0.38522312550E+03  0.44299045482E+03  0.60369704427E+03  0.00000000000E+00 0. -1.
         -2    1    5    5    0  503 -0.10726750439E+03  0.16339723495E+03  0.26460127110E+03  0.32896626964E+03  0.00000000000E+00 0.  1.
         -1    1    6    6    0  502  0.26072938318E+02  0.13219797048E+01  0.16197361371E+02  0.30722959790E+02  0.00000000000E+00 0.  1.
<mgrwt>
<rscale>  0 0.17936158E+04</rscale>
<asrwt>0</asrwt>
<pdfrwt beam="1">  1        2 0.15580942E+00 0.17936158E+04</pdfrwt>
<pdfrwt beam="2">  1       -2 0.12217389E+00 0.17936158E+04</pdfrwt>
<totfact> 0.11855430E+01</totfact>
</mgrwt>
</event>
<event>
12    1  0.1495204E-007  0.3009701E+04  0.7818608E-02  0.8240966E-01
         -2   -1    0    0    0  501 -0.00000000000E+00  0.00000000000E+00  0.14826493088E+04  0.14826493088E+04  0.00000000000E+00 0.  1.
          2   -1    0    0  501    0  0.00000000000E+00 -0.00000000000E+00 -0.15273839569E+04  0.15273839569E+04  0.00000000000E+00 0. -1.
         23    2    1    2    0    0 -0.83097343237E+03  0.72363154221E+02 -0.11061484968E+04  0.13883255075E+04  0.90166214515E+02 0.  0.
        254    2    1    2    0    0  0.83097343237E+03 -0.72363154221E+02  0.10614138487E+04  0.16217077582E+04  0.89865645470E+03 0.  0.
        -24    2    4    4    0    0  0.74673946196E+03  0.25299976282E+03  0.43082545450E+03  0.90272077360E+03  0.87552948613E+02 0.  0.
         24    2    4    4    0    0  0.84233970411E+02 -0.32536291704E+03  0.63058839416E+03  0.71898698463E+03  0.79650308592E+02 0.  0.
         13    1    3    3    0    0 -0.81966513071E+03  0.59943937478E+02 -0.10781255886E+04  0.13556544497E+04  0.00000000000E+00 0. -1.
        -13    1    3    3    0    0 -0.11308301659E+02  0.12419216743E+02 -0.28022908247E+02  0.32671057797E+02  0.00000000000E+00 0.  1.
          2    1    6    6  502    0  0.73301615445E+02 -0.12874051470E+03  0.28629069573E+03  0.32235013481E+03  0.00000000000E+00 0. -1.
          3    1    5    5  503    0  0.42762625933E+02  0.73764044814E+01  0.39542360934E+01  0.43573954409E+02  0.00000000000E+00 0. -1.
         -4    1    5    5    0  503  0.70397683603E+03  0.24562335834E+03  0.42687121841E+03  0.85914681919E+03  0.00000000000E+00 0.  1.
         -1    1    6    6    0  502  0.10932354966E+02 -0.19662240234E+03  0.34429769843E+03  0.39663684982E+03  0.00000000000E+00 0.  1.
<mgrwt>
<rscale>  0 0.30097008E+04</rscale>
<asrwt>0</asrwt>
<pdfrwt beam="1">  1        2 0.23498215E+00 0.30097008E+04</pdfrwt>
<pdfrwt beam="2">  1       -2 0.22809989E+00 0.30097008E+04</pdfrwt>
<totfact> 0.92081006E-01</totfact>
</mgrwt>
</event>
<event>
12    1  0.1495204E-007  0.1835296E+04  0.7818608E-02  0.8687752E-01
         -2   -1    0    0    0  501 -0.00000000000E+00  0.00000000000E+00  0.77085841030E+03  0.77085841030E+03  0.00000000000E+00 0.  1.
          2   -1    0    0  501    0  0.00000000000E+00 -0.00000000000E+00 -0.10923895306E+04  0.10923895306E+04  0.00000000000E+00 0. -1.
         23    2    1    2    0    0  0.28509126143E+03 -0.21431310818E+02  0.52119637080E+03  0.60137944189E+03  0.90968388793E+02 0.  0.
        254    2    1    2    0    0 -0.28509126143E+03  0.21431310818E+02 -0.84272749115E+03  0.12618684991E+04  0.89464303281E+03 0.  0.
        -24    2    4    4    0    0 -0.27695383149E+03 -0.38761531838E+03 -0.26992135476E+03  0.55360631722E+03  0.81690616900E+02 0.  0.
         24    2    4    4    0    0 -0.81374299443E+01  0.40904662920E+03 -0.57280613639E+03  0.70826218184E+03  0.78377839509E+02 0.  0.
         13    1    3    3    0    0  0.21875616242E+03 -0.49282770896E+02  0.43248429698E+03  0.48716087408E+03  0.00000000000E+00 0.  1.
        -13    1    3    3    0    0  0.66335099011E+02  0.27851460078E+02  0.88712073825E+02  0.11421856781E+03  0.00000000000E+00 0. -1.
          4    1    6    6  502    0 -0.97986733169E+01  0.58406000985E+02 -0.44060125744E+02  0.73814426980E+02  0.00000000000E+00 0. -1.
          1    1    5    5  503    0 -0.10687874867E+03 -0.11291523038E+03 -0.12504905930E+03  0.19952489418E+03  0.00000000000E+00 0. -1.
         -2    1    5    5    0  503 -0.17007508282E+03 -0.27470008800E+03 -0.14487229546E+03  0.35408142303E+03  0.00000000000E+00 0.  1.
         -3    1    6    6    0  502  0.16612433726E+01  0.35064062821E+03 -0.52874601064E+03  0.63444775486E+03  0.00000000000E+00 0.  1.
<mgrwt>
<rscale>  0 0.18352958E+04</rscale>
<asrwt>0</asrwt>
<pdfrwt beam="1">  1        2 0.16805993E+00 0.18352958E+04</pdfrwt>
<pdfrwt beam="2">  1       -2 0.11859360E+00 0.18352958E+04</pdfrwt>
<totfact> 0.11338062E+01</totfact>
</mgrwt>
</event>
<event>
12    1  0.1495204E-007  0.1685210E+04  0.7818608E-02  0.8769845E-01
         -2   -1    0    0    0  501 -0.00000000000E+00  0.00000000000E+00  0.45686092111E+03  0.45686092111E+03  0.00000000000E+00 0.  1.
          2   -1    0    0  501    0  0.00000000000E+00 -0.00000000000E+00 -0.15540467462E+04  0.15540467462E+04  0.00000000000E+00 0. -1.
         23    2    1    2    0    0  0.88236645093E+02 -0.48095118522E+03 -0.91236226524E+03  0.10391539216E+04  0.91302911320E+02 0.  0.
        254    2    1    2    0    0 -0.88236645093E+02  0.48095118522E+03 -0.18482355988E+03  0.97175374575E+03  0.81917388019E+03 0.  0.
        -24    2    4    4    0    0  0.14782616710E+03  0.30767550369E+03  0.25766310704E+03  0.43510102104E+03  0.80036432522E+02 0.  0.
         24    2    4    4    0    0 -0.23606281219E+03  0.17327568153E+03 -0.44248666692E+03  0.53665272471E+03  0.80321749366E+02 0.  0.
         11    1    3    3    0    0  0.38159975816E+02 -0.60312099633E+02 -0.17110555438E+03  0.18539375355E+03  0.00000000000E+00 0.  1.
        -11    1    3    3    0    0  0.50076669277E+02 -0.42063908559E+03 -0.74125671086E+03  0.85376016804E+03  0.00000000000E+00 0. -1.
          4    1    6    6  502    0 -0.81547670278E+02  0.15999304247E+02 -0.11616501005E+03  0.14282965317E+03  0.00000000000E+00 0. -1.
          3    1    5    5  503    0  0.24667564588E+02  0.32670678511E+02  0.38364408694E+01  0.41116666397E+02  0.00000000000E+00 0. -1.
         -2    1    5    5    0  503  0.12315860251E+03  0.27500482518E+03  0.25382666617E+03  0.39398435465E+03  0.00000000000E+00 0.  1.
         -3    1    6    6    0  502 -0.15451514192E+03  0.15727637729E+03 -0.32632165687E+03  0.39382307154E+03  0.00000000000E+00 0.  1.
<mgrwt>
<rscale>  0 0.16852100E+04</rscale>
<asrwt>0</asrwt>
<pdfrwt beam="1">  1        2 0.23908412E+00 0.16852100E+04</pdfrwt>
<pdfrwt beam="2">  1       -2 0.70286294E-01 0.16852100E+04</pdfrwt>
<totfact> 0.20768778E+01</totfact>
</mgrwt>
</event>
<event>
12    1  0.1495204E-007  0.2109244E+04  0.7818608E-02  0.8557182E-01
          2   -1    0    0  501    0  0.00000000000E+00  0.00000000000E+00  0.49174438066E+04  0.49174438066E+04  0.00000000000E+00 0. -1.
         -2   -1    0    0    0  501 -0.00000000000E+00 -0.00000000000E+00 -0.22618000282E+03  0.22618000282E+03  0.00000000000E+00 0.  1.
         23    2    1    2    0    0 -0.70385884423E+03  0.20206054500E+03  0.30238416505E+04  0.31127939981E+04  0.98093888534E+02 0.  0.
        254    2    1    2    0    0  0.70385884423E+03 -0.20206054500E+03  0.16674221533E+04  0.20308298114E+04  0.89873652913E+03 0.  0.
        -24    2    4    4    0    0  0.88651909164E+03 -0.28354843603E+03  0.12445136210E+04  0.15560870689E+04  0.79227505061E+02 0.  0.
         24    2    4    4    0    0 -0.18266024741E+03  0.81487891027E+02  0.42290853234E+03  0.47474274251E+03  0.80771297334E+02 0.  0.
         13    1    3    3    0    0 -0.22846455640E+03  0.61934288716E+02  0.79379508978E+03  0.82833722252E+03  0.00000000000E+00 0.  1.
        -13    1    3    3    0    0 -0.47539428783E+03  0.14012625628E+03  0.22300465607E+04  0.22844567756E+04  0.00000000000E+00 0. -1.
          2    1    6    6  502    0 -0.24278966240E+02  0.31130303276E+02  0.35109953431E+02  0.52832497705E+02  0.00000000000E+00 0. -1.
          3    1    5    5  503    0  0.43551008846E+03 -0.10491400402E+03  0.63459074132E+03  0.77677628334E+03  0.00000000000E+00 0. -1.
         -4    1    5    5    0  503  0.45100900318E+03 -0.17863443201E+03  0.60992287968E+03  0.77931078551E+03  0.00000000000E+00 0.  1.
         -1    1    6    6    0  502 -0.15838128117E+03  0.50357587751E+02  0.38779857890E+03  0.42191024480E+03  0.00000000000E+00 0.  1.
<mgrwt>
<rscale>  0 0.21092439E+04</rscale>
<asrwt>0</asrwt>
<pdfrwt beam="1">  1        2 0.75652974E+00 0.21092439E+04</pdfrwt>
<pdfrwt beam="2">  1       -2 0.34796927E-01 0.21092439E+04</pdfrwt>
<totfact> 0.31587530E-01</totfact>
</mgrwt>
</event>
<event>
12    1  0.1495204E-007  0.1983585E+04  0.7818608E-02  0.8614334E-01
         -1   -1    0    0    0  501 -0.00000000000E+00  0.00000000000E+00  0.10402131600E+04  0.10402131600E+04  0.00000000000E+00 0.  1.
          1   -1    0    0  501    0  0.00000000000E+00 -0.00000000000E+00 -0.94562544349E+03  0.94562544349E+03  0.00000000000E+00 0. -1.
         23    2    1    2    0    0 -0.90147825646E+02 -0.64295228990E+03  0.48942646164E+03  0.81815352888E+03  0.91228602485E+02 0.  0.
        254    2    1    2    0    0  0.90147825646E+02  0.64295228990E+03 -0.39483874511E+03  0.11676850746E+04  0.88660956531E+03 0.  0.
        -24    2    4    4    0    0  0.23304517150E+03  0.53323501735E+02  0.19386110490E+03  0.31821427805E+03  0.80775930615E+02 0.  0.
         24    2    4    4    0    0 -0.14289734585E+03  0.58962878817E+03 -0.58869985001E+03  0.84947079657E+03  0.83374825583E+02 0.  0.
         11    1    3    3    0    0 -0.30304595572E+02 -0.96677084401E+02  0.11453687077E+03  0.15291671565E+03  0.00000000000E+00 0. -1.
        -11    1    3    3    0    0 -0.59843230075E+02 -0.54627520550E+03  0.37488959087E+03  0.66523681323E+03  0.00000000000E+00 0.  1.
          2    1    6    6  502    0  0.97735019802E+01  0.73342742185E+02 -0.73505681298E+02  0.10429652130E+03  0.00000000000E+00 0. -1.
          3    1    5    5  503    0  0.11626961049E+03 -0.14261161172E+02  0.82614117142E+02  0.14334258053E+03  0.00000000000E+00 0. -1.
         -4    1    5    5    0  503  0.11677556100E+03  0.67584662907E+02  0.11124698776E+03  0.17487169752E+03  0.00000000000E+00 0.  1.
         -1    1    6    6    0  502 -0.15267084783E+03  0.51628604598E+03 -0.51519416871E+03  0.74517427527E+03  0.00000000000E+00 0.  1.
<mgrwt>
<rscale>  0 0.19835847E+04</rscale>
<asrwt>0</asrwt>
<pdfrwt beam="1">  1        1 0.14548084E+00 0.19835847E+04</pdfrwt>
<pdfrwt beam="2">  1       -1 0.16003279E+00 0.19835847E+04</pdfrwt>
<totfact> 0.45337888E+00</totfact>
</mgrwt>
</event>
<event>
12    1  0.1495204E-007  0.1877636E+04  0.7818608E-02  0.8666069E-01
         -2   -1    0    0    0  501 -0.00000000000E+00  0.00000000000E+00  0.10908335310E+04  0.10908335310E+04  0.00000000000E+00 0.  1.
          2   -1    0    0  501    0  0.00000000000E+00 -0.00000000000E+00 -0.80798673911E+03  0.80798673911E+03  0.00000000000E+00 0. -1.
         23    2    1    2    0    0  0.65275695644E+03 -0.10794669677E+03  0.39680521870E+03  0.77636826657E+03  0.86885961053E+02 0.  0.
        254    2    1    2    0    0 -0.65275695644E+03  0.10794669677E+03 -0.11395842685E+03  0.11224520035E+04  0.89953757207E+03 0.  0.
        -24    2    4    4    0    0 -0.48844386404E+03 -0.47925812841E+02  0.34432997415E+03  0.60482787146E+03  0.79870715183E+02 0.  0.
         24    2    4    4    0    0 -0.16431309240E+03  0.15587250961E+03 -0.45828840100E+03  0.51762413203E+03  0.81310835567E+02 0.  0.
         11    1    3    3    0    0  0.58434112270E+03 -0.74117131846E+02  0.33137460432E+03  0.67583801706E+03  0.00000000000E+00 0.  1.
        -11    1    3    3    0    0  0.68415833739E+02 -0.33829564925E+02  0.65430614381E+02  0.10053024951E+03  0.00000000000E+00 0. -1.
          2    1    6    6  502    0 -0.11482106972E+03  0.56529332136E+02 -0.21488227976E+03  0.25010765202E+03  0.00000000000E+00 0. -1.
          1    1    5    5  503    0 -0.19077357108E+03 -0.58631474311E+01  0.17934541301E+03  0.26190400739E+03  0.00000000000E+00 0. -1.
         -4    1    5    5    0  503 -0.29767029297E+03 -0.42062665410E+02  0.16498456113E+03  0.34292386407E+03  0.00000000000E+00 0.  1.
         -1    1    6    6    0  502 -0.49492022679E+02  0.99343177476E+02 -0.24340612124E+03  0.26751648001E+03  0.00000000000E+00 0.  1.
<mgrwt>
<rscale>  0 0.18776358E+04</rscale>
<asrwt>0</asrwt>
<pdfrwt beam="1">  1        2 0.12430565E+00 0.18776358E+04</pdfrwt>
<pdfrwt beam="2">  1       -2 0.16782054E+00 0.18776358E+04</pdfrwt>
<totfact> 0.70423296E+00</totfact>
</mgrwt>
</event>
<event>
12    1  0.1495204E-007  0.1850363E+04  0.7818608E-02  0.8679966E-01
          2   -1    0    0  501    0  0.00000000000E+00  0.00000000000E+00  0.66411455284E+03  0.66411455284E+03  0.00000000000E+00 0. -1.
         -2   -1    0    0    0  501 -0.00000000000E+00 -0.00000000000E+00 -0.12888748664E+04  0.12888748664E+04  0.00000000000E+00 0.  1.
         23    2    1    2    0    0 -0.11786548809E+03 -0.10212837133E+03  0.48470155375E+03  0.51729968021E+03  0.91328448068E+02 0.  0.
        254    2    1    2    0    0  0.11786548809E+03  0.10212837133E+03 -0.11094618673E+04  0.14356897390E+04  0.89776217019E+03 0.  0.
        -24    2    4    4    0    0  0.39780790074E+03  0.11535994121E+03 -0.17527546665E+03  0.45689461883E+03  0.80449745711E+02 0.  0.
         24    2    4    4    0    0 -0.27994241264E+03 -0.13231569882E+02 -0.93418640063E+03  0.97879512017E+03  0.82418610220E+02 0.  0.
         13    1    3    3    0    0 -0.74859010495E+02 -0.35844956968E+02  0.13253808258E+03  0.15638118725E+03  0.00000000000E+00 0.  1.
        -13    1    3    3    0    0 -0.43006477599E+02 -0.66283414359E+02  0.35216347117E+03  0.36091849296E+03  0.00000000000E+00 0. -1.
          4    1    6    6  502    0 -0.16299906215E+02  0.20654327662E+02 -0.84296367923E+02  0.88307224160E+02  0.00000000000E+00 0. -1.
          1    1    5    5  503    0  0.99155883357E+02 -0.62359542156E+01 -0.36526258784E+02  0.10585340764E+03  0.00000000000E+00 0. -1.
         -2    1    5    5    0  503  0.29865201738E+03  0.12159589542E+03 -0.13874920786E+03  0.35104121119E+03  0.00000000000E+00 0.  1.
         -3    1    6    6    0  502 -0.26364250643E+03 -0.33885897544E+02 -0.84989003271E+03  0.89048789601E+03  0.00000000000E+00 0.  1.
<mgrwt>
<rscale>  0 0.18503627E+04</rscale>
<asrwt>0</asrwt>
<pdfrwt beam="1">  1        2 0.10217147E+00 0.18503627E+04</pdfrwt>
<pdfrwt beam="2">  1       -2 0.19828844E+00 0.18503627E+04</pdfrwt>
<totfact> 0.56143727E+00</totfact>
</mgrwt>
</event>
<event>
12    1  0.2462872E-007  0.1570379E+04  0.7818608E-02  0.8838955E-01
          2   -1    0    0  501    0  0.00000000000E+00  0.00000000000E+00  0.12114979305E+04  0.12114979305E+04  0.00000000000E+00 0. -1.
         -2   -1    0    0    0  501 -0.00000000000E+00 -0.00000000000E+00 -0.50889269856E+03  0.50889269856E+03  0.00000000000E+00 0.  1.
         23    2    1    2    0    0  0.31794205994E+03  0.33097790523E+03 -0.20963076091E+02  0.46874793771E+03  0.93014253305E+02 0.  0.
        254    2    1    2    0    0 -0.31794205994E+03 -0.33097790523E+03  0.72356830805E+03  0.12516426914E+04  0.91237317103E+03 0.  0.
        -24    2    4    4    0    0  0.10922050370E+03 -0.49438790531E+03  0.19544537076E+03  0.54850227706E+03  0.79418736067E+02 0.  0.
         24    2    4    4    0    0 -0.42716256364E+03  0.16341000009E+03  0.52812293729E+03  0.70314041431E+03  0.79510511508E+02 0.  0.
         13    1    3    3    0    0  0.82811545714E+02  0.99247281599E+02  0.34989266430E+02  0.13391050658E+03  0.00000000000E+00 0. -1.
        -13    1    3    3    0    0  0.23513051423E+03  0.23173062363E+03 -0.55952342521E+02  0.33483743112E+03  0.00000000000E+00 0.  1.
          4    1    6    6  502    0 -0.68053780732E+02  0.54660720490E+01  0.49753827934E+02  0.84478626940E+02  0.00000000000E+00 0. -1.
          1    1    5    5  503    0  0.15367198606E+02 -0.11678888992E+02 -0.96915536816E-01  0.19301726185E+02  0.00000000000E+00 0. -1.
         -2    1    5    5    0  503  0.93853305093E+02 -0.48270901632E+03  0.19554228630E+03  0.52920055087E+03  0.00000000000E+00 0.  1.
         -3    1    6    6    0  502 -0.35910878291E+03  0.15794392804E+03  0.47836910936E+03  0.61866178737E+03  0.00000000000E+00 0.  1.
<mgrwt>
<rscale>  0 0.15703789E+04</rscale>
<asrwt>0</asrwt>
<pdfrwt beam="1">  1        2 0.18638430E+00 0.15703789E+04</pdfrwt>
<pdfrwt beam="2">  1       -2 0.78291185E-01 0.15703789E+04</pdfrwt>
<totfact> 0.26001976E+01</totfact>
</mgrwt>
</event>
<event>
12    1  0.1495204E-007  0.2082449E+04  0.7818608E-02  0.8569014E-01
          2   -1    0    0  501    0  0.00000000000E+00  0.00000000000E+00  0.18161461870E+04  0.18161461870E+04  0.00000000000E+00 0. -1.
         -2   -1    0    0    0  501 -0.00000000000E+00 -0.00000000000E+00 -0.59694986157E+03  0.59694986157E+03  0.00000000000E+00 0.  1.
         23    2    1    2    0    0  0.37770072758E+03  0.42714592399E+03 -0.22428779966E+03  0.61960331095E+03  0.92150777879E+02 0.  0.
        254    2    1    2    0    0 -0.37770072758E+03 -0.42714592399E+03  0.14434841251E+04  0.17934927376E+04  0.89880937940E+03 0.  0.
        -24    2    4    4    0    0  0.21567581134E+03  0.11080852487E+03  0.40365745541E+03  0.47817415497E+03  0.83166077163E+02 0.  0.
         24    2    4    4    0    0 -0.59337653892E+03 -0.53795444886E+03  0.10398266697E+04  0.13153185827E+04  0.85631564868E+02 0.  0.
         13    1    3    3    0    0  0.62531463607E+02  0.12219697771E+03 -0.74487634764E+02  0.15617519981E+03  0.00000000000E+00 0. -1.
        -13    1    3    3    0    0  0.31516926397E+03  0.30494894628E+03 -0.14980016490E+03  0.46342811114E+03  0.00000000000E+00 0.  1.
          2    1    6    6  502    0 -0.59387405875E+03 -0.52674091691E+03  0.10299960395E+04  0.13003977210E+04  0.00000000000E+00 0. -1.
          1    1    5    5  503    0  0.20194400211E+03  0.12426605034E+03  0.37316539558E+03  0.44212650194E+03  0.00000000000E+00 0. -1.
         -2    1    5    5    0  503  0.13731809225E+02 -0.13457525470E+02  0.30492059830E+02  0.36047653031E+02  0.00000000000E+00 0.  1.
         -1    1    6    6    0  502  0.49751983116E+00 -0.11213531946E+02  0.98306301419E+01  0.14920861693E+02  0.00000000000E+00 0.  1.
<mgrwt>
<rscale>  0 0.20824488E+04</rscale>
<asrwt>0</asrwt>
<pdfrwt beam="1">  1        2 0.27940710E+00 0.20824488E+04</pdfrwt>
<pdfrwt beam="2">  1       -2 0.91838441E-01 0.20824488E+04</pdfrwt>
<totfact> 0.78664305E+00</totfact>
</mgrwt>
</event>
<event>
12    1  0.1495204E-007  0.1640445E+04  0.7818608E-02  0.8796079E-01
          1   -1    0    0  501    0  0.00000000000E+00  0.00000000000E+00  0.14563431873E+04  0.14563431873E+04  0.00000000000E+00 0. -1.
         -1   -1    0    0    0  501 -0.00000000000E+00 -0.00000000000E+00 -0.46195477790E+03  0.46195477790E+03  0.00000000000E+00 0.  1.
         23    2    1    2    0    0 -0.23535271236E+03  0.51939580276E+03  0.30835743178E+03  0.65474305361E+03  0.91876337378E+02 0.  0.
        254    2    1    2    0    0  0.23535271236E+03 -0.51939580276E+03  0.68603097765E+03  0.12635549116E+04  0.89485731447E+03 0.  0.
        -24    2    4    4    0    0  0.56453142165E+03 -0.35912814133E+03  0.34691186769E+03  0.75814216735E+03  0.82237181605E+02 0.  0.
         24    2    4    4    0    0 -0.32917870929E+03 -0.16026766143E+03  0.33911910996E+03  0.50541274428E+03  0.79974529625E+02 0.  0.
         11    1    3    3    0    0 -0.69739427045E+02  0.88442574449E+02  0.89265165500E+02  0.14371480937E+03  0.00000000000E+00 0. -1.
        -11    1    3    3    0    0 -0.16561328531E+03  0.43095322831E+03  0.21909226628E+03  0.51102824424E+03  0.00000000000E+00 0.  1.
          2    1    6    6  502    0 -0.87364484309E+02 -0.61711961837E+01  0.69284360625E+02  0.11167344988E+03  0.00000000000E+00 0. -1.
          3    1    5    5  503    0  0.25163144376E+02 -0.10395640796E+02  0.34375706659E+02  0.43851367034E+02  0.00000000000E+00 0. -1.
         -4    1    5    5    0  503  0.53936827727E+03 -0.34873250054E+03  0.31253616103E+03  0.71429080031E+03  0.00000000000E+00 0.  1.
         -1    1    6    6    0  502 -0.24181422498E+03 -0.15409646525E+03  0.26983474933E+03  0.39373929440E+03  0.00000000000E+00 0.  1.
<mgrwt>
<rscale>  0 0.16404447E+04</rscale>
<asrwt>0</asrwt>
<pdfrwt beam="1">  1        1 0.22405280E+00 0.16404447E+04</pdfrwt>
<pdfrwt beam="2">  1       -1 0.71069967E-01 0.16404447E+04</pdfrwt>
<totfact> 0.13416158E+01</totfact>
</mgrwt>
</event>
<event>
12    1  0.2248629E-007  0.2309421E+04  0.7818608E-02  0.8474216E-01
          1   -1    0    0  501    0  0.00000000000E+00  0.00000000000E+00  0.11280911729E+04  0.11280911729E+04  0.00000000000E+00 0. -1.
         -1   -1    0    0    0  501 -0.00000000000E+00 -0.00000000000E+00 -0.11819577131E+04  0.11819577131E+04  0.00000000000E+00 0.  1.
         23    2    1    2    0    0  0.47724659354E+03  0.34552910780E+03 -0.80393231401E+03  0.10008610554E+04  0.90890105234E+02 0.  0.
        254    2    1    2    0    0 -0.47724659354E+03 -0.34552910780E+03  0.75006577377E+03  0.13091878307E+04  0.89678282519E+03 0.  0.
        -24    2    4    4    0    0 -0.11089206692E+03 -0.37321124041E+03 -0.73549227563E+02  0.40390807208E+03  0.78412762649E+02 0.  0.
         24    2    4    4    0    0 -0.36635452662E+03  0.27682132607E+02  0.82361500134E+03  0.90527975857E+03  0.78789791254E+02 0.  0.
         11    1    3    3    0    0  0.45694882509E+03  0.33351288922E+03 -0.73178271260E+03  0.92495352017E+03  0.00000000000E+00 0.  1.
        -11    1    3    3    0    0  0.20297768452E+02  0.12016218583E+02 -0.72149601411E+02  0.75907535179E+02  0.00000000000E+00 0. -1.
          4    1    6    6  502    0 -0.32169503543E+01  0.11318047129E+02  0.18765270614E+02  0.22149093471E+02  0.00000000000E+00 0. -1.
          1    1    5    5  503    0 -0.13816700512E+02 -0.23207805808E+02  0.13808221139E+02  0.30334311175E+02  0.00000000000E+00 0. -1.
         -2    1    5    5    0  503 -0.97075366404E+02 -0.35000343460E+03 -0.87357448702E+02  0.37357376091E+03  0.00000000000E+00 0.  1.
         -3    1    6    6    0  502 -0.36313757627E+03  0.16364085478E+02  0.80484973072E+03  0.88313066510E+03  0.00000000000E+00 0.  1.
<mgrwt>
<rscale>  0 0.23094208E+04</rscale>
<asrwt>0</asrwt>
<pdfrwt beam="1">  1        1 0.17355249E+00 0.23094208E+04</pdfrwt>
<pdfrwt beam="2">  1       -1 0.18183965E+00 0.23094208E+04</pdfrwt>
<totfact> 0.22022216E+00</totfact>
</mgrwt>
</event>
<event>
12    1  0.1495204E-007  0.1937152E+04  0.7818608E-02  0.8636581E-01
          2   -1    0    0  501    0  0.00000000000E+00  0.00000000000E+00  0.11915256006E+04  0.11915256006E+04  0.00000000000E+00 0. -1.
         -2   -1    0    0    0  501 -0.00000000000E+00 -0.00000000000E+00 -0.78734343730E+03  0.78734343730E+03  0.00000000000E+00 0.  1.
         23    2    1    2    0    0 -0.84911568467E+02  0.10665542804E+03 -0.60047556962E+03  0.62193544414E+03  0.87449597911E+02 0.  0.
        254    2    1    2    0    0  0.84911568467E+02 -0.10665542804E+03  0.10046577329E+04  0.13569335937E+04  0.90185711880E+03 0.  0.
        -24    2    4    4    0    0 -0.79702417154E+02 -0.43311106813E+03  0.83237809756E+03  0.94511220713E+03  0.80287696058E+02 0.  0.
         24    2    4    4    0    0  0.16461398562E+03  0.32645564009E+03  0.17227963533E+03  0.41182138659E+03  0.79028681504E+02 0.  0.
         11    1    3    3    0    0  0.10109951495E+02  0.84170690186E+01 -0.16481904654E+03  0.16534320752E+03  0.00000000000E+00 0. -1.
        -11    1    3    3    0    0 -0.95021519962E+02  0.98238359022E+02 -0.43565652308E+03  0.45659223662E+03  0.00000000000E+00 0.  1.
          4    1    6    6  502    0  0.91735941569E+02  0.98476444945E+02  0.56913343524E+02  0.14612399480E+03  0.00000000000E+00 0. -1.
          3    1    5    5  503    0  0.81933425881E+00  0.52276369562E+00 -0.14960213571E+01  0.17840040387E+01  0.00000000000E+00 0. -1.
         -4    1    5    5    0  503 -0.80521751413E+02 -0.43363383182E+03  0.83387411891E+03  0.94332820309E+03  0.00000000000E+00 0.  1.
         -3    1    6    6    0  502  0.72878044053E+02  0.22797919514E+03  0.11536629181E+03  0.26569739180E+03  0.00000000000E+00 0.  1.
<mgrwt>
<rscale>  0 0.19371524E+04</rscale>
<asrwt>0</asrwt>
<pdfrwt beam="1">  1        2 0.18331163E+00 0.19371524E+04</pdfrwt>
<pdfrwt beam="2">  1       -2 0.12112976E+00 0.19371524E+04</pdfrwt>
<totfact> 0.92842822E+00</totfact>
</mgrwt>
</event>
<event>
12    1  0.1495204E-007  0.1548640E+04  0.7818608E-02  0.8852737E-01
          1   -1    0    0  501    0  0.00000000000E+00  0.00000000000E+00  0.14651969654E+04  0.14651969654E+04  0.00000000000E+00 0. -1.
         -1   -1    0    0    0  501 -0.00000000000E+00 -0.00000000000E+00 -0.40920852871E+03  0.40920852871E+03  0.00000000000E+00 0.  1.
         23    2    1    2    0    0  0.21968387410E+03  0.13197219509E+03  0.86612388577E+03  0.90774838099E+03  0.90326479391E+02 0.  0.
        254    2    1    2    0    0 -0.21968387410E+03 -0.13197219509E+03  0.18986455094E+03  0.96665711313E+03  0.91252384180E+03 0.  0.
        -24    2    4    4    0    0  0.24545607396E+03 -0.32426925701E+03  0.19264534942E+03  0.45696330183E+03  0.79397690637E+02 0.  0.
         24    2    4    4    0    0 -0.46513994806E+03  0.19229706192E+03 -0.27807984851E+01  0.50969381130E+03  0.80291451207E+02 0.  0.
         11    1    3    3    0    0  0.18982322841E+03  0.11270043984E+03  0.82180729834E+03  0.85094152724E+03  0.00000000000E+00 0. -1.
        -11    1    3    3    0    0  0.29860645687E+02  0.19271755256E+02  0.44316587431E+02  0.56806853751E+02  0.00000000000E+00 0.  1.
          2    1    6    6  502    0 -0.11656798605E+03  0.49953407543E+02  0.34242763342E+02  0.13136211455E+03  0.00000000000E+00 0. -1.
          1    1    5    5  503    0  0.22567362451E+02 -0.17034928780E+02 -0.54744227645E+01  0.28800068596E+02  0.00000000000E+00 0. -1.
         -4    1    5    5    0  503  0.22288871151E+03 -0.30723432823E+03  0.19811977219E+03  0.42816323323E+03  0.00000000000E+00 0.  1.
         -1    1    6    6    0  502 -0.34857196200E+03  0.14234365438E+03 -0.37023561827E+02  0.37833169675E+03  0.00000000000E+00 0.  1.
<mgrwt>
<rscale>  0 0.15486395E+04</rscale>
<asrwt>0</asrwt>
<pdfrwt beam="1">  1        1 0.22541491E+00 0.15486395E+04</pdfrwt>
<pdfrwt beam="2">  1       -1 0.62955159E-01 0.15486395E+04</pdfrwt>
<totfact> 0.17054175E+01</totfact>
</mgrwt>
</event>
<event>
12    1  0.1495204E-007  0.1489660E+04  0.7818608E-02  0.8891358E-01
          2   -1    0    0  501    0  0.00000000000E+00  0.00000000000E+00  0.18824428057E+04  0.18824428057E+04  0.00000000000E+00 0. -1.
         -2   -1    0    0    0  501 -0.00000000000E+00 -0.00000000000E+00 -0.29470822629E+03  0.29470822629E+03  0.00000000000E+00 0.  1.
         23    2    1    2    0    0  0.25016266769E+03  0.21412878026E+03  0.98418790147E+03  0.10418599041E+04  0.91726438438E+02 0.  0.
        254    2    1    2    0    0 -0.25016266769E+03 -0.21412878026E+03  0.60354667796E+03  0.11352911279E+04  0.90342949798E+03 0.  0.
        -24    2    4    4    0    0  0.25948314980E+03  0.15826767701E+03  0.11862455033E+03  0.33526604950E+03  0.77145170889E+02 0.  0.
         24    2    4    4    0    0 -0.50964581749E+03 -0.37239645727E+03  0.48492212763E+03  0.80002507842E+03  0.80452940134E+02 0.  0.
         11    1    3    3    0    0  0.23736987198E+03  0.22179391918E+03  0.95964268423E+03  0.10131392205E+04  0.00000000000E+00 0. -1.
        -11    1    3    3    0    0  0.12792795714E+02 -0.76651389199E+01  0.24545217238E+02  0.28720683594E+02  0.00000000000E+00 0.  1.
          4    1    6    6  502    0 -0.78235904129E+02 -0.27330521127E+02  0.48672964818E+02  0.96108644690E+02  0.00000000000E+00 0. -1.
          1    1    5    5  503    0  0.43962095727E+02  0.31708087677E+02  0.55301098467E+02  0.77435651844E+02  0.00000000000E+00 0. -1.
         -2    1    5    5    0  503  0.21552105407E+03  0.12655958933E+03  0.63323451865E+02  0.25783039766E+03  0.00000000000E+00 0.  1.
         -3    1    6    6    0  502 -0.43140991336E+03 -0.34506593614E+03  0.43624916281E+03  0.70391643373E+03  0.00000000000E+00 0.  1.
<mgrwt>
<rscale>  0 0.14896595E+04</rscale>
<asrwt>0</asrwt>
<pdfrwt beam="1">  1        2 0.28960658E+00 0.14896595E+04</pdfrwt>
<pdfrwt beam="2">  1       -2 0.45339728E-01 0.14896595E+04</pdfrwt>
<totfact> 0.34644242E+01</totfact>
</mgrwt>
</event>
<event>
12    1  0.1495204E-007  0.3916108E+04  0.7818608E-02  0.8021687E-01
          2   -1    0    0  501    0  0.00000000000E+00  0.00000000000E+00  0.26715241070E+04  0.26715241070E+04  0.00000000000E+00 0. -1.
         -2   -1    0    0    0  501 -0.00000000000E+00 -0.00000000000E+00 -0.14351265945E+04  0.14351265945E+04  0.00000000000E+00 0.  1.
         23    2    1    2    0    0  0.29816427580E+03  0.29013699068E+03 -0.13075639192E+04  0.13751480380E+04  0.90704547596E+02 0.  0.
        254    2    1    2    0    0 -0.29816427580E+03 -0.29013699068E+03  0.25439614316E+04  0.27315026635E+04  0.90348526627E+03 0.  0.
        -24    2    4    4    0    0  0.30436203923E+03 -0.21578320841E+03  0.10399043355E+04  0.11076065095E+04  0.78692496513E+02 0.  0.
         24    2    4    4    0    0 -0.60252631503E+03 -0.74353782266E+02  0.15040570962E+04  0.16238961540E+04  0.79274997452E+02 0.  0.
         11    1    3    3    0    0  0.28364681860E+03  0.24055823167E+03 -0.10966888065E+04  0.11580371837E+04  0.00000000000E+00 0.  1.
        -11    1    3    3    0    0  0.14517457199E+02  0.49578759005E+02 -0.21087511267E+03  0.21711085429E+03  0.00000000000E+00 0. -1.
          2    1    6    6  502    0 -0.82806377049E+02  0.16840105064E+02  0.19820777909E+03  0.21546881192E+03  0.00000000000E+00 0. -1.
          1    1    5    5  503    0  0.14787639868E+02 -0.29449743921E+02  0.14598080297E+03  0.14965412305E+03  0.00000000000E+00 0. -1.
         -2    1    5    5    0  503  0.28957439936E+03 -0.18633346449E+03  0.89392353249E+03  0.95795238645E+03  0.00000000000E+00 0.  1.
         -1    1    6    6    0  502 -0.51971993798E+03 -0.91193887330E+02  0.13058493171E+04  0.14084273421E+04  0.00000000000E+00 0.  1.
<mgrwt>
<rscale>  0 0.39161079E+04</rscale>
<asrwt>0</asrwt>
<pdfrwt beam="1">  1        2 0.41100371E+00 0.39161079E+04</pdfrwt>
<pdfrwt beam="2">  1       -2 0.22078871E+00 0.39161079E+04</pdfrwt>
<totfact> 0.21423392E-01</totfact>
</mgrwt>
</event>
<event>
12    1  0.1495204E-007  0.1207843E+04  0.7818608E-02  0.9106019E-01
         -1   -1    0    0    0  501 -0.00000000000E+00  0.00000000000E+00  0.64639287610E+03  0.64639287610E+03  0.00000000000E+00 0.  1.
          1   -1    0    0  501    0  0.00000000000E+00 -0.00000000000E+00 -0.56424047495E+03  0.56424047495E+03  0.00000000000E+00 0. -1.
         23    2    1    2    0    0 -0.70273020569E+02  0.17707005426E+03 -0.14503370884E+03  0.25553558487E+03  0.89283575768E+02 0.  0.
        254    2    1    2    0    0  0.70273020569E+02 -0.17707005426E+03  0.22718610999E+03  0.95509776617E+03  0.90791305357E+03 0.  0.
        -24    2    4    4    0    0  0.14546632349E+03  0.29927713773E+03  0.30662693566E+03  0.45951802561E+03  0.80059239023E+02 0.  0.
         24    2    4    4    0    0 -0.75193302925E+02 -0.47634719198E+03 -0.79440825668E+02  0.49557974056E+03  0.82022889226E+02 0.  0.
         11    1    3    3    0    0 -0.66694686089E+02  0.16281861358E+03 -0.15759220354E+03  0.23620623340E+03  0.00000000000E+00 0. -1.
        -11    1    3    3    0    0 -0.35783344808E+01  0.14251440681E+02  0.12558494704E+02  0.19329351473E+02  0.00000000000E+00 0.  1.
          2    1    6    6  502    0  0.14601583568E+01 -0.19120163448E+03 -0.59370340373E+01  0.19129936086E+03  0.00000000000E+00 0. -1.
          1    1    5    5  503    0  0.25266998182E+01 -0.21008438458E+01 -0.29659863162E+01  0.44266049816E+01  0.00000000000E+00 0. -1.
         -2    1    5    5    0  503  0.14293962368E+03  0.30137798157E+03  0.30959292197E+03  0.45509142063E+03  0.00000000000E+00 0.  1.
         -1    1    6    6    0  502 -0.76653461282E+02 -0.28514555750E+03 -0.73503791630E+02  0.30428037970E+03  0.00000000000E+00 0.  1.
<mgrwt>
<rscale>  0 0.12078427E+04</rscale>
<asrwt>0</asrwt>
<pdfrwt beam="1">  1        1 0.86806227E-01 0.12078427E+04</pdfrwt>
<pdfrwt beam="2">  1       -1 0.99445058E-01 0.12078427E+04</pdfrwt>
<totfact> 0.35740148E+01</totfact>
</mgrwt>
</event>
<event>
12    1  0.1495204E-007  0.2159562E+04  0.7818608E-02  0.8535451E-01
         -4   -1    0    0    0  501 -0.00000000000E+00  0.00000000000E+00  0.96576152293E+03  0.96576152293E+03  0.00000000000E+00 0.  1.
          4   -1    0    0  501    0  0.00000000000E+00 -0.00000000000E+00 -0.12072613260E+04  0.12072613260E+04  0.00000000000E+00 0. -1.
         23    2    1    2    0    0 -0.43879739247E+03 -0.24714631107E+02  0.68073543410E+03  0.81570042743E+03  0.93874871159E+02 0.  0.
        254    2    1    2    0    0  0.43879739247E+03  0.24714631107E+02 -0.92223523719E+03  0.13573224215E+04  0.89367351904E+03 0.  0.
        -24    2    4    4    0    0 -0.12020779082E+03 -0.30800812919E+03 -0.30344909956E+03  0.45575258111E+03  0.79436380460E+02 0.  0.
         24    2    4    4    0    0  0.55900518329E+03  0.33272276030E+03 -0.61878613763E+03  0.90156984042E+03  0.82101539953E+02 0.  0.
         11    1    3    3    0    0 -0.54863480626E+01  0.28883051621E+01 -0.20713019092E+01  0.65370186915E+01  0.00000000000E+00 0. -1.
        -11    1    3    3    0    0 -0.43331104440E+03 -0.27602936269E+02  0.68280673601E+03  0.80916340873E+03  0.00000000000E+00 0.  1.
          2    1    6    6  502    0  0.17107808065E+03  0.12394605305E+03 -0.15589280400E+03  0.26255075716E+03  0.00000000000E+00 0. -1.
          1    1    5    5  503    0  0.98817309072E+00 -0.26378795139E+01  0.45921833247E+01  0.53873037853E+01  0.00000000000E+00 0. -1.
         -2    1    5    5    0  503 -0.12119596391E+03 -0.30537024968E+03 -0.30804128288E+03  0.45036527732E+03  0.00000000000E+00 0.  1.
         -1    1    6    6    0  502  0.38792710264E+03  0.20877670726E+03 -0.46289333363E+03  0.63901908326E+03  0.00000000000E+00 0.  1.
<mgrwt>
<rscale>  0 0.21595616E+04</rscale>
<asrwt>0</asrwt>
<pdfrwt beam="1">  1        4 0.18573251E+00 0.21595616E+04</pdfrwt>
<pdfrwt beam="2">  1       -4 0.14857870E+00 0.21595616E+04</pdfrwt>
<totfact> 0.91924113E-02</totfact>
</mgrwt>
</event>
<event>
12    1  0.1495204E-007  0.2414167E+04  0.7818608E-02  0.8434218E-01
         -2   -1    0    0    0  501 -0.00000000000E+00  0.00000000000E+00  0.43811696244E+03  0.43811696244E+03  0.00000000000E+00 0.  1.
          2   -1    0    0  501    0  0.00000000000E+00 -0.00000000000E+00 -0.33257127013E+04  0.33257127013E+04  0.00000000000E+00 0. -1.
         23    2    1    2    0    0 -0.60744227799E+03  0.80725513391E+03 -0.16012843041E+04  0.18954876837E+04  0.90084206137E+02 0.  0.
        254    2    1    2    0    0  0.60744227799E+03 -0.80725513391E+03 -0.12863114348E+04  0.18683419801E+04  0.90302695139E+03 0.  0.
        -24    2    4    4    0    0 -0.56117196227E+02 -0.37269542733E+02 -0.66719589305E+03  0.67533446526E+03  0.79925726386E+02 0.  0.
         24    2    4    4    0    0  0.66355947422E+03 -0.76998559118E+03 -0.61911554175E+03  0.11930075148E+04  0.82303644769E+02 0.  0.
         13    1    3    3    0    0 -0.26191359703E+03  0.30590545961E+03 -0.57089055967E+03  0.69863646745E+03  0.00000000000E+00 0.  1.
        -13    1    3    3    0    0 -0.34552868096E+03  0.50134967430E+03 -0.10303937444E+04  0.11968512163E+04  0.00000000000E+00 0. -1.
          4    1    6    6  502    0  0.54598073508E+02 -0.60200470023E+02 -0.77383191344E+02  0.11221944807E+03  0.00000000000E+00 0. -1.
          3    1    5    5  503    0 -0.56557089495E+02 -0.12190552458E+01 -0.23815913266E+03  0.24478554479E+03  0.00000000000E+00 0. -1.
         -4    1    5    5    0  503  0.43989326832E+00 -0.36050487487E+02 -0.42903676039E+03  0.43054892047E+03  0.00000000000E+00 0.  1.
         -3    1    6    6    0  502  0.60896140071E+03 -0.70978512116E+03 -0.54173235041E+03  0.10807880668E+04  0.00000000000E+00 0.  1.
<mgrwt>
<rscale>  0 0.24141675E+04</rscale>
<asrwt>0</asrwt>
<pdfrwt beam="1">  1        2 0.51164809E+00 0.24141675E+04</pdfrwt>
<pdfrwt beam="2">  1       -2 0.67402613E-01 0.24141675E+04</pdfrwt>
<totfact> 0.19432972E+00</totfact>
</mgrwt>
</event>
<event>
12    1  0.1495204E-007  0.1096864E+04  0.7818608E-02  0.9208254E-01
         -2   -1    0    0    0  501 -0.00000000000E+00  0.00000000000E+00  0.87415784786E+03  0.87415784786E+03  0.00000000000E+00 0.  1.
          2   -1    0    0  501    0  0.00000000000E+00 -0.00000000000E+00 -0.34407690534E+03  0.34407690534E+03  0.00000000000E+00 0. -1.
         23    2    1    2    0    0 -0.46914940865E+02  0.49145457079E+02 -0.76572607320E+02  0.13115630727E+03  0.81989786656E+02 0.  0.
        254    2    1    2    0    0  0.46914940865E+02 -0.49145457079E+02  0.60665354984E+03  0.10870784459E+04  0.89949693188E+03 0.  0.
        -24    2    4    4    0    0  0.15788561799E+03 -0.85385546502E+02 -0.19257536514E+03  0.27528303767E+03  0.80479311945E+02 0.  0.
         24    2    4    4    0    0 -0.11097067712E+03  0.36240089424E+02  0.79922891498E+03  0.81179540827E+03  0.81345504418E+02 0.  0.
         11    1    3    3    0    0  0.72101228907E+01  0.12049339284E+02  0.13658432669E+02  0.19588905846E+02  0.00000000000E+00 0.  1.
        -11    1    3    3    0    0 -0.54125063756E+02  0.37096117794E+02 -0.90231039988E+02  0.11156740142E+03  0.00000000000E+00 0. -1.
          4    1    6    6  502    0 -0.11655657874E+03  0.49324923105E+02  0.67580533682E+03  0.68755453410E+03  0.00000000000E+00 0. -1.
          1    1    5    5  503    0  0.16470569590E+03 -0.69041358521E+02 -0.17998822433E+03  0.25355558827E+03  0.00000000000E+00 0. -1.
         -2    1    5    5    0  503 -0.68200779104E+01 -0.16344187981E+02 -0.12587140809E+02  0.21727449395E+02  0.00000000000E+00 0.  1.
         -3    1    6    6    0  502  0.55859016156E+01 -0.13084833681E+02  0.12342357816E+03  0.12424087417E+03  0.00000000000E+00 0.  1.
<mgrwt>
<rscale>  0 0.10968638E+04</rscale>
<asrwt>0</asrwt>
<pdfrwt beam="1">  1        2 0.52934909E-01 0.10968638E+04</pdfrwt>
<pdfrwt beam="2">  1       -2 0.13448582E+00 0.10968638E+04</pdfrwt>
<totfact> 0.37234192E+01</totfact>
</mgrwt>
</event>
<event>
12    1  0.1495204E-007  0.1972857E+04  0.7818608E-02  0.8619417E-01
         -1   -1    0    0    0  501 -0.00000000000E+00  0.00000000000E+00  0.12581164308E+04  0.12581164308E+04  0.00000000000E+00 0.  1.
          1   -1    0    0  501    0  0.00000000000E+00 -0.00000000000E+00 -0.77341085704E+03  0.77341085704E+03  0.00000000000E+00 0. -1.
         23    2    1    2    0    0  0.72033941127E+03 -0.29543049374E+03  0.20959229910E+03  0.81147995319E+03  0.91666452554E+02 0.  0.
        254    2    1    2    0    0 -0.72033941127E+03  0.29543049374E+03  0.27511327462E+03  0.12200473346E+04  0.89814260602E+03 0.  0.
        -24    2    4    4    0    0 -0.76499366790E+03 -0.73814762154E+02  0.41855297771E+02  0.77386910971E+03  0.80359205949E+02 0.  0.
         24    2    4    4    0    0  0.44654256626E+02  0.36924525590E+03  0.23325797684E+03  0.44617822489E+03  0.79559179036E+02 0.  0.
         11    1    3    3    0    0  0.18954356426E+03 -0.98044097980E+02  0.95493145924E+02  0.23379125052E+03  0.00000000000E+00 0. -1.
        -11    1    3    3    0    0  0.53079584702E+03 -0.19738639576E+03  0.11409915317E+03  0.57768870268E+03  0.00000000000E+00 0.  1.
          4    1    6    6  502    0 -0.13255240183E+02  0.16205715648E+02  0.23456057763E+02  0.31440630683E+02  0.00000000000E+00 0. -1.
          3    1    5    5  503    0 -0.28650279186E+03 -0.46919416918E+02  0.49786900129E+02  0.29455732354E+03  0.00000000000E+00 0. -1.
         -4    1    5    5    0  503 -0.47849087604E+03 -0.26895345237E+02 -0.79316023581E+01  0.47931178617E+03  0.00000000000E+00 0.  1.
         -3    1    6    6    0  502  0.57909496808E+02  0.35303954025E+03  0.20980191908E+03  0.41473759421E+03  0.00000000000E+00 0.  1.
<mgrwt>
<rscale>  0 0.19728567E+04</rscale>
<asrwt>0</asrwt>
<pdfrwt beam="1">  1        1 0.11898629E+00 0.19728567E+04</pdfrwt>
<pdfrwt beam="2">  1       -1 0.19355637E+00 0.19728567E+04</pdfrwt>
<totfact> 0.36198036E+00</totfact>
</mgrwt>
</event>
<event>
12    1  0.1495204E-007  0.2192326E+04  0.7818608E-02  0.8521629E-01
         -2   -1    0    0    0  501 -0.00000000000E+00  0.00000000000E+00  0.47648786190E+03  0.47648786190E+03  0.00000000000E+00 0.  1.
          2   -1    0    0  501    0  0.00000000000E+00 -0.00000000000E+00 -0.25217301379E+04  0.25217301379E+04  0.00000000000E+00 0. -1.
         23    2    1    2    0    0 -0.89125987605E+03  0.17450183617E+03 -0.84872017784E+03  0.12462623898E+04  0.89715921077E+02 0.  0.
        254    2    1    2    0    0  0.89125987605E+03 -0.17450183617E+03 -0.11965220982E+04  0.17519556100E+04  0.90160316688E+03 0.  0.
        -24    2    4    4    0    0  0.88692508674E+03  0.14973555208E+03 -0.10567714191E+04  0.13897411713E+04  0.74550962103E+02 0.  0.
         24    2    4    4    0    0  0.43347893063E+01 -0.32423738825E+03 -0.13975067901E+03  0.36221443865E+03  0.80748826310E+02 0.  0.
         11    1    3    3    0    0 -0.69040057906E+02  0.12570870960E+02 -0.35959552032E+02  0.78852049908E+02  0.00000000000E+00 0. -1.
        -11    1    3    3    0    0 -0.82221981814E+03  0.16193096521E+03 -0.81276062581E+03  0.11674103399E+04  0.00000000000E+00 0.  1.
          4    1    6    6  502    0 -0.28058131575E+02 -0.63074006159E+02 -0.13533296184E+02  0.70347275043E+02  0.00000000000E+00 0. -1.
          1    1    5    5  503    0  0.30087186337E+02 -0.81719691433E+01 -0.40707147050E+02  0.51274669012E+02  0.00000000000E+00 0. -1.
         -2    1    5    5    0  503  0.85683790040E+03  0.15790752122E+03 -0.10160642721E+04  0.13384665023E+04  0.00000000000E+00 0.  1.
         -3    1    6    6    0  502  0.32392920881E+02 -0.26116338209E+03 -0.12621738283E+03  0.29186716361E+03  0.00000000000E+00 0.  1.
<mgrwt>
<rscale>  0 0.21923264E+04</rscale>
<asrwt>0</asrwt>
<pdfrwt beam="1">  1        2 0.38795848E+00 0.21923264E+04</pdfrwt>
<pdfrwt beam="2">  1       -2 0.73305825E-01 0.21923264E+04</pdfrwt>
<totfact> 0.51953997E+00</totfact>
</mgrwt>
</event>
<event>
12    1  0.1495204E-007  0.2776061E+04  0.7818608E-02  0.8310739E-01
          1   -1    0    0  501    0  0.00000000000E+00  0.00000000000E+00  0.13796955693E+04  0.13796955693E+04  0.00000000000E+00 0. -1.
         -1   -1    0    0    0  501 -0.00000000000E+00 -0.00000000000E+00 -0.13964155467E+04  0.13964155467E+04  0.00000000000E+00 0.  1.
         23    2    1    2    0    0  0.40500846847E+03  0.65251314852E+03 -0.97139035487E+03  0.12416819412E+04  0.91485260822E+02 0.  0.
        254    2    1    2    0    0 -0.40500846847E+03 -0.65251314852E+03  0.95467037747E+03  0.15344291748E+04  0.92372728351E+03 0.  0.
        -24    2    4    4    0    0 -0.51533815330E+02 -0.43859386250E+03  0.10146119034E+04  0.11094822711E+04  0.80580922097E+02 0.  0.
         24    2    4    4    0    0 -0.35347465314E+03 -0.21391928602E+03 -0.59941525886E+02  0.42494690373E+03  0.79253347718E+02 0.  0.
         11    1    3    3    0    0  0.64249234409E+02  0.17519263156E+03 -0.21890570044E+03  0.28764583772E+03  0.00000000000E+00 0. -1.
        -11    1    3    3    0    0  0.34075923406E+03  0.47732051696E+03 -0.75248465443E+03  0.95403610344E+03  0.00000000000E+00 0.  1.
          2    1    6    6  502    0 -0.70841214162E+01  0.16788711716E+01  0.85524509690E+01  0.11231553865E+02  0.00000000000E+00 0. -1.
          3    1    5    5  503    0 -0.28379727016E+02 -0.12891796225E+03  0.22304205596E+03  0.25917756196E+03  0.00000000000E+00 0. -1.
         -4    1    5    5    0  503 -0.23154088314E+02 -0.30967590025E+03  0.79156984739E+03  0.85030470909E+03  0.00000000000E+00 0.  1.
         -1    1    6    6    0  502 -0.34639053172E+03 -0.21559815719E+03 -0.68493976855E+02  0.41371534987E+03  0.00000000000E+00 0.  1.
<mgrwt>
<rscale>  0 0.27760608E+04</rscale>
<asrwt>0</asrwt>
<pdfrwt beam="1">  1        1 0.21226086E+00 0.27760608E+04</pdfrwt>
<pdfrwt beam="2">  1       -1 0.21483316E+00 0.27760608E+04</pdfrwt>
<totfact> 0.82122572E-01</totfact>
</mgrwt>
</event>
<event>
12    1  0.1495204E-007  0.1831451E+04  0.7818608E-02  0.8689751E-01
         -1   -1    0    0    0  501 -0.00000000000E+00  0.00000000000E+00  0.75929601505E+03  0.75929601505E+03  0.00000000000E+00 0.  1.
          1   -1    0    0  501    0  0.00000000000E+00 -0.00000000000E+00 -0.11043819950E+04  0.11043819950E+04  0.00000000000E+00 0. -1.
         23    2    1    2    0    0 -0.25689068837E+03  0.43902684930E+03  0.35675557734E+03  0.62857656907E+03  0.95375893372E+02 0.  0.
        254    2    1    2    0    0  0.25689068837E+03 -0.43902684930E+03 -0.70184155733E+03  0.12351014410E+04  0.87986169244E+03 0.  0.
        -24    2    4    4    0    0  0.32108756301E+03  0.18823146859E+03 -0.27269787397E+03  0.46809928610E+03  0.78895514994E+02 0.  0.
         24    2    4    4    0    0 -0.64196874640E+02 -0.62725831789E+03 -0.42914368335E+03  0.76700215492E+03  0.80955349432E+02 0.  0.
         11    1    3    3    0    0 -0.99482086061E+02  0.25987197190E+03  0.17485384445E+03  0.32863961135E+03  0.00000000000E+00 0. -1.
        -11    1    3    3    0    0 -0.15740860231E+03  0.17915487740E+03  0.18190173290E+03  0.29993695773E+03  0.00000000000E+00 0.  1.
          2    1    6    6  502    0  0.11106377259E+02 -0.28718973198E+03 -0.19404307457E+03  0.34677659748E+03  0.00000000000E+00 0. -1.
          3    1    5    5  503    0  0.30023618029E+03  0.18744399976E+03 -0.23451612050E+03  0.42458783282E+03  0.00000000000E+00 0. -1.
         -4    1    5    5    0  503  0.20851382722E+02  0.78746883388E+00 -0.38181753468E+02  0.43511453280E+02  0.00000000000E+00 0.  1.
         -1    1    6    6    0  502 -0.75303251900E+02 -0.34006858591E+03 -0.23510060878E+03  0.42022555743E+03  0.00000000000E+00 0.  1.
<mgrwt>
<rscale>  0 0.18314506E+04</rscale>
<asrwt>0</asrwt>
<pdfrwt beam="1">  1        1 0.16990492E+00 0.18314506E+04</pdfrwt>
<pdfrwt beam="2">  1       -1 0.11681477E+00 0.18314506E+04</pdfrwt>
<totfact> 0.78281296E+00</totfact>
</mgrwt>
</event>
<event>
12    1  0.1495204E-007  0.2836975E+04  0.7818608E-02  0.8291880E-01
          1   -1    0    0  501    0  0.00000000000E+00  0.00000000000E+00  0.23226308105E+04  0.23226308105E+04  0.00000000000E+00 0. -1.
         -1   -1    0    0    0  501 -0.00000000000E+00 -0.00000000000E+00 -0.86630522865E+03  0.86630522865E+03  0.00000000000E+00 0.  1.
         23    2    1    2    0    0  0.63164048743E+02 -0.83727242605E+03  0.17321888409E+04  0.19272473085E+04  0.93750705989E+02 0.  0.
        254    2    1    2    0    0 -0.63164048743E+02  0.83727242605E+03 -0.27586325910E+03  0.12616887307E+04  0.90041274028E+03 0.  0.
        -24    2    4    4    0    0  0.11476251357E+03  0.61525090103E+03  0.23405529398E+03  0.67227770999E+03  0.73968459285E+02 0.  0.
         24    2    4    4    0    0 -0.17792656231E+03  0.22202152503E+03 -0.50991855308E+03  0.58941102067E+03  0.80230925226E+02 0.  0.
         11    1    3    3    0    0  0.87115970607E+02 -0.61917161074E+03  0.12642724944E+04  0.14104423477E+04  0.00000000000E+00 0. -1.
        -11    1    3    3    0    0 -0.23951921864E+02 -0.21810081532E+03  0.46791634650E+03  0.51680496082E+03  0.00000000000E+00 0.  1.
          2    1    6    6  502    0 -0.18219820989E+03  0.19225846658E+03 -0.44495938050E+03  0.51783043166E+03  0.00000000000E+00 0. -1.
          3    1    5    5  503    0  0.99270124845E+02  0.57036819394E+03  0.19532708838E+03  0.61100499654E+03  0.00000000000E+00 0. -1.
         -4    1    5    5    0  503  0.15492388724E+02  0.44882707092E+02  0.38728205601E+02  0.61272713449E+02  0.00000000000E+00 0.  1.
         -1    1    6    6    0  502  0.42716475736E+01  0.29763058452E+02 -0.64959172578E+02  0.71580589012E+02  0.00000000000E+00 0.  1.
<mgrwt>
<rscale>  0 0.28369753E+04</rscale>
<asrwt>0</asrwt>
<pdfrwt beam="1">  1        1 0.35732782E+00 0.28369753E+04</pdfrwt>
<pdfrwt beam="2">  1       -1 0.13327773E+00 0.28369753E+04</pdfrwt>
<totfact> 0.73752840E-01</totfact>
</mgrwt>
</event>
<event>
12    1  0.1495204E-007  0.1852491E+04  0.7818608E-02  0.8678873E-01
          2   -1    0    0  501    0  0.00000000000E+00  0.00000000000E+00  0.60060118126E+03  0.60060118126E+03  0.00000000000E+00 0. -1.
         -2   -1    0    0    0  501 -0.00000000000E+00 -0.00000000000E+00 -0.14284526223E+04  0.14284526223E+04  0.00000000000E+00 0.  1.
         23    2    1    2    0    0  0.17302324274E+03  0.58628477655E+03 -0.69357215560E+03  0.92857828512E+03  0.86881613863E+02 0.  0.
        254    2    1    2    0    0 -0.17302324274E+03 -0.58628477655E+03 -0.13427928546E+03  0.11004755185E+04  0.90517874395E+03 0.  0.
        -24    2    4    4    0    0 -0.36636976341E+03 -0.25518530522E+03 -0.41789033652E+03  0.61667495564E+03  0.79431253363E+02 0.  0.
         24    2    4    4    0    0  0.19334652067E+03 -0.33109947133E+03  0.28361105106E+03  0.48380056283E+03  0.81351209811E+02 0.  0.
         13    1    3    3    0    0  0.91387255098E+02  0.17439897525E+03 -0.24130515103E+03  0.31143989609E+03  0.00000000000E+00 0.  1.
        -13    1    3    3    0    0  0.81635987641E+02  0.41188580130E+03 -0.45226700457E+03  0.61713838902E+03  0.00000000000E+00 0. -1.
          2    1    6    6  502    0  0.18297004702E+03 -0.29433954050E+03  0.27978355814E+03  0.44541289004E+03  0.00000000000E+00 0. -1.
          1    1    5    5  503    0 -0.27644980711E+03 -0.21252021249E+03 -0.36156790451E+03  0.50231532541E+03  0.00000000000E+00 0. -1.
         -2    1    5    5    0  503 -0.89919956297E+02 -0.42665092722E+02 -0.56322432013E+02  0.11435963023E+03  0.00000000000E+00 0.  1.
         -1    1    6    6    0  502  0.10376473650E+02 -0.36759930832E+02  0.38274929243E+01  0.38387672791E+02  0.00000000000E+00 0.  1.
<mgrwt>
<rscale>  0 0.18524906E+04</rscale>
<asrwt>0</asrwt>
<pdfrwt beam="1">  1        2 0.92400183E-01 0.18524906E+04</pdfrwt>
<pdfrwt beam="2">  1       -2 0.21976194E+00 0.18524906E+04</pdfrwt>
<totfact> 0.46157525E+00</totfact>
</mgrwt>
</event>
<event>
12    1  0.1495204E-007  0.1360925E+04  0.7818608E-02  0.8982599E-01
         -2   -1    0    0    0  501 -0.00000000000E+00  0.00000000000E+00  0.18203375677E+03  0.18203375677E+03  0.00000000000E+00 0.  1.
          2   -1    0    0  501    0  0.00000000000E+00 -0.00000000000E+00 -0.25436454348E+04  0.25436454348E+04  0.00000000000E+00 0. -1.
         23    2    1    2    0    0  0.17266721980E+03  0.24629276063E+03 -0.22370741100E+03  0.38646028354E+03  0.93981127254E+02 0.  0.
        254    2    1    2    0    0 -0.17266721980E+03 -0.24629276063E+03 -0.21379042670E+04  0.23392189080E+04  0.90046452013E+03 0.  0.
        -24    2    4    4    0    0  0.29425907627E+03 -0.33687394215E+03 -0.85024826218E+03  0.96417325610E+03  0.81458600404E+02 0.  0.
         24    2    4    4    0    0 -0.46692629607E+03  0.90581181518E+02 -0.12876560048E+04  0.13750456519E+04  0.80420405807E+02 0.  0.
         13    1    3    3    0    0  0.10023921203E+03  0.19756999453E+03 -0.19331986686E+03  0.29403124543E+03  0.00000000000E+00 0.  1.
        -13    1    3    3    0    0  0.72428007771E+02  0.48722766104E+02 -0.30387544145E+02  0.92429038108E+02  0.00000000000E+00 0. -1.
          2    1    6    6  502    0 -0.21360896480E+03  0.93749308708E+00 -0.55952008720E+03  0.59890933931E+03  0.00000000000E+00 0. -1.
          3    1    5    5  503    0  0.57419027070E+02 -0.63151559445E+02 -0.10219922228E+03  0.13315308920E+03  0.00000000000E+00 0. -1.
         -4    1    5    5    0  503  0.23684004920E+03 -0.27372238271E+03 -0.74804903990E+03  0.83102016690E+03  0.00000000000E+00 0.  1.
         -1    1    6    6    0  502 -0.25331733127E+03  0.89643688431E+02 -0.72813591761E+03  0.77613631259E+03  0.00000000000E+00 0.  1.
<mgrwt>
<rscale>  0 0.13609252E+04</rscale>
<asrwt>0</asrwt>
<pdfrwt beam="1">  1        2 0.39133009E+00 0.13609252E+04</pdfrwt>
<pdfrwt beam="2">  1       -2 0.28005192E-01 0.13609252E+04</pdfrwt>
<totfact> 0.37512744E+01</totfact>
</mgrwt>
</event>
<event>
12    1  0.1495204E-007  0.1602398E+04  0.7818608E-02  0.8819076E-01
          1   -1    0    0  501    0  0.00000000000E+00  0.00000000000E+00  0.22551220772E+04  0.22551220772E+04  0.00000000000E+00 0. -1.
         -1   -1    0    0    0  501 -0.00000000000E+00 -0.00000000000E+00 -0.28464955311E+03  0.28464955311E+03  0.00000000000E+00 0.  1.
         23    2    1    2    0    0  0.21591401103E+03 -0.80986671183E+01 -0.11222575166E+03  0.25957530278E+03  0.90001499498E+02 0.  0.
        254    2    1    2    0    0 -0.21591401103E+03  0.80986671183E+01  0.20826982757E+04  0.22801963275E+04  0.90276172698E+03 0.  0.
        -24    2    4    4    0    0 -0.43125524727E+03 -0.40440246026E+02  0.19695440021E+04  0.20181992076E+04  0.80049755199E+02 0.  0.
         24    2    4    4    0    0  0.21534123624E+03  0.48538913145E+02  0.11315427358E+03  0.26199711993E+03  0.84325127373E+02 0.  0.
         13    1    3    3    0    0  0.10942359369E+03 -0.41340850271E+02 -0.29340881706E+02  0.12059633534E+03  0.00000000000E+00 0.  1.
        -13    1    3    3    0    0  0.10649041734E+03  0.33242183152E+02 -0.82884869951E+02  0.13897896745E+03  0.00000000000E+00 0. -1.
          4    1    6    6  502    0 -0.26173009501E+01 -0.31188581929E+01 -0.67834003593E+01  0.79115144647E+01  0.00000000000E+00 0. -1.
          1    1    5    5  503    0 -0.10399755423E+03 -0.21591828685E+02  0.64554630682E+03  0.65422605619E+03  0.00000000000E+00 0. -1.
         -2    1    5    5    0  503 -0.32725769303E+03 -0.18848417342E+02  0.13239976953E+04  0.13639731514E+04  0.00000000000E+00 0.  1.
         -3    1    6    6    0  502  0.21795853719E+03  0.51657771337E+02  0.11993767394E+03  0.25408560546E+03  0.00000000000E+00 0.  1.
<mgrwt>
<rscale>  0 0.16023976E+04</rscale>
<asrwt>0</asrwt>
<pdfrwt beam="1">  1        1 0.34694185E+00 0.16023976E+04</pdfrwt>
<pdfrwt beam="2">  1       -1 0.43792240E-01 0.16023976E+04</pdfrwt>
<totfact> 0.98848355E+00</totfact>
</mgrwt>
</event>
<event>
12    1  0.1495204E-007  0.1502975E+04  0.7818608E-02  0.8882477E-01
         -2   -1    0    0    0  501 -0.00000000000E+00  0.00000000000E+00  0.26563160012E+03  0.26563160012E+03  0.00000000000E+00 0.  1.
          2   -1    0    0  501    0  0.00000000000E+00 -0.00000000000E+00 -0.21260031230E+04  0.21260031230E+04  0.00000000000E+00 0. -1.
         23    2    1    2    0    0 -0.10889485666E+03  0.16716295126E+03  0.85979607068E+02  0.23597378759E+03  0.92138990194E+02 0.  0.
        254    2    1    2    0    0  0.10889485666E+03 -0.16716295126E+03 -0.19463511299E+04  0.21556609355E+04  0.90487004916E+03 0.  0.
        -24    2    4    4    0    0  0.35419462557E+03 -0.24171411705E+03 -0.17947158822E+04  0.18470616984E+04  0.82172213504E+02 0.  0.
         24    2    4    4    0    0 -0.24529976890E+03  0.74551165791E+02 -0.15163524769E+03  0.30859923709E+03  0.80686974447E+02 0.  0.
         13    1    3    3    0    0 -0.62629206175E+02  0.15174202821E+03  0.89694372789E+02  0.18706453726E+03  0.00000000000E+00 0.  1.
        -13    1    3    3    0    0 -0.46265650488E+02  0.15420923054E+02 -0.37147657217E+01  0.48909250324E+02  0.00000000000E+00 0. -1.
          2    1    6    6  502    0 -0.14214682843E+03  0.40763075334E+02 -0.40658281536E+02  0.15336376691E+03  0.00000000000E+00 0. -1.
          1    1    5    5  503    0  0.12091458352E+03 -0.11006308639E+03 -0.82400698211E+03  0.84007245286E+03  0.00000000000E+00 0. -1.
         -2    1    5    5    0  503  0.23328004205E+03 -0.13165103066E+03 -0.97070890014E+03  0.10069892456E+04  0.00000000000E+00 0.  1.
         -1    1    6    6    0  502 -0.10315294047E+03  0.33788090457E+02 -0.11097696615E+03  0.15523547017E+03  0.00000000000E+00 0.  1.
<mgrwt>
<rscale>  0 0.15029752E+04</rscale>
<asrwt>0</asrwt>
<pdfrwt beam="1">  1        2 0.32707739E+00 0.15029752E+04</pdfrwt>
<pdfrwt beam="2">  1       -2 0.40866402E-01 0.15029752E+04</pdfrwt>
<totfact> 0.31149001E+01</totfact>
</mgrwt>
</event>
<event>
12    1  0.1495204E-007  0.2189424E+04  0.7818608E-02  0.8522843E-01
         -2   -1    0    0    0  501 -0.00000000000E+00  0.00000000000E+00  0.26376721633E+04  0.26376721633E+04  0.00000000000E+00 0.  1.
          2   -1    0    0  501    0  0.00000000000E+00 -0.00000000000E+00 -0.45433788216E+03  0.45433788216E+03  0.00000000000E+00 0. -1.
         23    2    1    2    0    0  0.74214066430E+03  0.52150622516E+03  0.87441967159E+03  0.12622862916E+04  0.77559082860E+02 0.  0.
        254    2    1    2    0    0 -0.74214066430E+03 -0.52150622516E+03  0.13089146096E+04  0.18297237539E+04  0.90104941706E+03 0.  0.
        -24    2    4    4    0    0  0.22868465560E+01 -0.20015647650E+03 -0.71639247532E+02  0.22666396854E+03  0.78590890671E+02 0.  0.
         24    2    4    4    0    0 -0.74442751086E+03 -0.32134974866E+03  0.13805538571E+04  0.16030597854E+04  0.80210617859E+02 0.  0.
         11    1    3    3    0    0  0.72891477769E+03  0.52247161030E+03  0.86516242337E+03  0.12461137009E+04  0.00000000000E+00 0.  1.
        -11    1    3    3    0    0  0.13225886615E+02 -0.96538513876E+00  0.92572482232E+01  0.16172590698E+02  0.00000000000E+00 0. -1.
          2    1    6    6  502    0 -0.17891068829E+03 -0.61256982512E+02  0.26435053378E+03  0.32502716348E+03  0.00000000000E+00 0. -1.
          3    1    5    5  503    0 -0.34064360895E+02 -0.66840083197E+02 -0.39536607498E+02  0.84800476045E+02  0.00000000000E+00 0. -1.
         -2    1    5    5    0  503  0.36351207451E+02 -0.13331639330E+03 -0.32102640034E+02  0.14186349250E+03  0.00000000000E+00 0.  1.
         -1    1    6    6    0  502 -0.56551682257E+03 -0.26009276615E+03  0.11162033233E+04  0.12780326219E+04  0.00000000000E+00 0.  1.
<mgrwt>
<rscale>  0 0.21894240E+04</rscale>
<asrwt>0</asrwt>
<pdfrwt beam="1">  1        2 0.69898137E-01 0.21894240E+04</pdfrwt>
<pdfrwt beam="2">  1       -2 0.40579571E+00 0.21894240E+04</pdfrwt>
<totfact> 0.42865336E-01</totfact>
</mgrwt>
</event>
<event>
12    1  0.1495204E-007  0.1991180E+04  0.7818608E-02  0.8610755E-01
          2   -1    0    0  501    0  0.00000000000E+00  0.00000000000E+00  0.55455056425E+03  0.55455056425E+03  0.00000000000E+00 0. -1.
         -2   -1    0    0    0  501 -0.00000000000E+00 -0.00000000000E+00 -0.17873924601E+04  0.17873924601E+04  0.00000000000E+00 0.  1.
         23    2    1    2    0    0 -0.19142266062E+03 -0.59703847991E+03 -0.10819953591E+04  0.12541699764E+04  0.95555173341E+02 0.  0.
        254    2    1    2    0    0  0.19142266062E+03  0.59703847991E+03 -0.15084653674E+03  0.10877730479E+04  0.87601252540E+03 0.  0.
        -24    2    4    4    0    0  0.18234983863E+03 -0.17539501006E+03 -0.16348715128E+03  0.31096128183E+03  0.77162147236E+02 0.  0.
         24    2    4    4    0    0  0.90728219917E+01  0.77243348997E+03  0.12640614539E+02  0.77681176609E+03  0.80875968522E+02 0.  0.
         11    1    3    3    0    0  0.37697104371E+01  0.18745855889E+01 -0.56385809268E+01  0.70369299256E+01  0.00000000000E+00 0.  1.
        -11    1    3    3    0    0 -0.19519237106E+03 -0.59891306550E+03 -0.10763567782E+04  0.12471330465E+04  0.00000000000E+00 0. -1.
          2    1    6    6  502    0  0.18346671315E+02  0.75707399781E+03  0.50057664921E+01  0.75731281266E+03  0.00000000000E+00 0. -1.
          1    1    5    5  503    0  0.10995303040E+03 -0.52711406737E+02 -0.80251634570E+02  0.14597426535E+03  0.00000000000E+00 0. -1.
         -2    1    5    5    0  503  0.72396808227E+02 -0.12268360332E+03 -0.83235516708E+02  0.16498701648E+03  0.00000000000E+00 0.  1.
         -1    1    6    6    0  502 -0.92738493234E+01  0.15359492152E+02  0.76348480472E+01  0.19498953437E+02  0.00000000000E+00 0.  1.
<mgrwt>
<rscale>  0 0.19911800E+04</rscale>
<asrwt>0</asrwt>
<pdfrwt beam="1">  1        2 0.85315473E-01 0.19911800E+04</pdfrwt>
<pdfrwt beam="2">  1       -2 0.27498345E+00 0.19911800E+04</pdfrwt>
<totfact> 0.22911298E+00</totfact>
</mgrwt>
</event>
<event>
12    1  0.1495204E-007  0.1230416E+04  0.7818608E-02  0.9086642E-01
         -2   -1    0    0    0  501 -0.00000000000E+00  0.00000000000E+00  0.39539600069E+03  0.39539600069E+03  0.00000000000E+00 0.  1.
          2   -1    0    0  501    0  0.00000000000E+00 -0.00000000000E+00 -0.95722020914E+03  0.95722020914E+03  0.00000000000E+00 0. -1.
         23    2    1    2    0    0 -0.20223955421E+03 -0.88590392121E+02 -0.30864835297E+03  0.39030865534E+03  0.91257579284E+02 0.  0.
        254    2    1    2    0    0  0.20223955421E+03  0.88590392121E+02 -0.25317585547E+03  0.96230755448E+03  0.90176977148E+03 0.  0.
        -24    2    4    4    0    0 -0.24574494260E+03  0.79077299260E+02  0.18737623305E+03  0.32872809822E+03  0.79426152991E+02 0.  0.
         24    2    4    4    0    0  0.44798449681E+03  0.95130928614E+01 -0.44055208852E+03  0.63357945626E+03  0.80970219101E+02 0.  0.
         11    1    3    3    0    0 -0.19513625961E+03 -0.71485998068E+02 -0.30827763821E+03  0.37178422500E+03  0.00000000000E+00 0. -1.
        -11    1    3    3    0    0 -0.71032946072E+01 -0.17104394054E+02 -0.37071475959E+00  0.18524430346E+02  0.00000000000E+00 0.  1.
          4    1    6    6  502    0  0.20704501400E+03  0.11758136830E+02 -0.25952343192E+03  0.33220220247E+03  0.00000000000E+00 0. -1.
          3    1    5    5  503    0 -0.56922853779E+02 -0.11290003662E+02  0.61057125894E+02  0.84235669924E+02  0.00000000000E+00 0. -1.
         -4    1    5    5    0  503 -0.18882208882E+03  0.90367302922E+02  0.12631910715E+03  0.24449242830E+03  0.00000000000E+00 0.  1.
         -3    1    6    6    0  502  0.24093948281E+03 -0.22450439690E+01 -0.18102865660E+03  0.30137725380E+03  0.00000000000E+00 0.  1.
<mgrwt>
<rscale>  0 0.12304163E+04</rscale>
<asrwt>0</asrwt>
<pdfrwt beam="1">  1        2 0.14726465E+00 0.12304163E+04</pdfrwt>
<pdfrwt beam="2">  1       -2 0.60830154E-01 0.12304163E+04</pdfrwt>
<totfact> 0.66538072E+01</totfact>
</mgrwt>
</event>
<event>
12    1  0.1495204E-007  0.1787514E+04  0.7818608E-02  0.8712967E-01
         -1   -1    0    0    0  501 -0.00000000000E+00  0.00000000000E+00  0.15404536706E+04  0.15404536706E+04  0.00000000000E+00 0.  1.
          1   -1    0    0  501    0  0.00000000000E+00 -0.00000000000E+00 -0.51854978576E+03  0.51854978576E+03  0.00000000000E+00 0. -1.
         23    2    1    2    0    0  0.60579515880E+03  0.28402528304E+03  0.46986807193E+03  0.82262956308E+03  0.91023388214E+02 0.  0.
        254    2    1    2    0    0 -0.60579515880E+03 -0.28402528304E+03  0.55203581296E+03  0.12363738933E+04  0.88103276299E+03 0.  0.
        -24    2    4    4    0    0 -0.79797229532E+03 -0.16189876888E+03  0.56501584140E+03  0.99408615267E+03  0.77416938962E+02 0.  0.
         24    2    4    4    0    0  0.19217713652E+03 -0.12212651416E+03 -0.12980028442E+02  0.24228774065E+03  0.81779770542E+02 0.  0.
         13    1    3    3    0    0  0.37456320652E+02  0.27694027721E+02  0.93238396728E+01  0.47506516547E+02  0.00000000000E+00 0.  1.
        -13    1    3    3    0    0  0.56833883815E+03  0.25633125532E+03  0.46054423225E+03  0.77512304653E+03  0.00000000000E+00 0. -1.
          4    1    6    6  502    0  0.16191013757E+03 -0.94811382840E+02 -0.41966438357E+02  0.19226355066E+03  0.00000000000E+00 0. -1.
          3    1    5    5  503    0 -0.72991352971E+03 -0.12586547372E+03  0.50514776907E+03  0.89654344397E+03  0.00000000000E+00 0. -1.
         -4    1    5    5    0  503 -0.68058765607E+02 -0.36033295162E+02  0.59868072323E+02  0.97542708697E+02  0.00000000000E+00 0.  1.
         -3    1    6    6    0  502  0.30266998945E+02 -0.27315131320E+02  0.28986409915E+02  0.50024189988E+02  0.00000000000E+00 0.  1.
<mgrwt>
<rscale>  0 0.17875144E+04</rscale>
<asrwt>0</asrwt>
<pdfrwt beam="1">  1        1 0.79776891E-01 0.17875144E+04</pdfrwt>
<pdfrwt beam="2">  1       -1 0.23699287E+00 0.17875144E+04</pdfrwt>
<totfact> 0.33772892E+00</totfact>
</mgrwt>
</event>
<event>
12    1  0.1495204E-007  0.2516617E+04  0.7818608E-02  0.8397090E-01
         -2   -1    0    0    0  501 -0.00000000000E+00  0.00000000000E+00  0.24256093997E+04  0.24256093997E+04  0.00000000000E+00 0. -1.
          2   -1    0    0  501    0  0.00000000000E+00 -0.00000000000E+00 -0.65275969127E+03  0.65275969127E+03  0.00000000000E+00 0.  1.
         23    2    1    2    0    0  0.10433440095E+04 -0.14395194087E+03  0.41089690631E+03  0.11341290304E+04  0.90130497168E+02 0.  0.
        254    2    1    2    0    0 -0.10433440095E+04  0.14395194087E+03  0.13619528021E+04  0.19442400605E+04  0.90325250862E+03 0.  0.
        -24    2    4    4    0    0  0.59404172171E+02  0.21223215140E+03  0.79779121143E+02  0.24992843718E+03  0.86765049308E+02 0.  0.
         24    2    4    4    0    0 -0.11027481817E+04 -0.68280210532E+02  0.12821736809E+04  0.16943116233E+04  0.77503480488E+02 0.  0.
         13    1    3    3    0    0  0.66730194665E+03 -0.48367833076E+02  0.25632821396E+03  0.71647434605E+03  0.00000000000E+00 0.  1.
        -13    1    3    3    0    0  0.37604206289E+03 -0.95584107796E+02  0.15456869235E+03  0.41765468437E+03  0.00000000000E+00 0. -1.
          2    1    6    6  502    0 -0.24776949385E+03  0.15868975094E+02  0.30060846271E+03  0.38988074370E+03  0.00000000000E+00 0. -1.
          3    1    5    5  503    0 -0.10777165299E+02  0.46329736880E+02 -0.10080674396E+02  0.48623161225E+02  0.00000000000E+00 0. -1.
         -4    1    5    5    0  503  0.70181337470E+02  0.16590241452E+03  0.89859795540E+02  0.20130527596E+03  0.00000000000E+00 0.  1.
         -1    1    6    6    0  502 -0.85497868785E+03 -0.84149185626E+02  0.98156521824E+03  0.13044308796E+04  0.00000000000E+00 0.  1.
<mgrwt>
<rscale>  0 0.25166168E+04</rscale>
<asrwt>0</asrwt>
<pdfrwt beam="1">  1        2 0.10042457E+00 0.25166168E+04</pdfrwt>
<pdfrwt beam="2">  1       -2 0.37317067E+00 0.25166168E+04</pdfrwt>
<totfact> 0.44154865E-01</totfact>
</mgrwt>
</event>
<event>
12    1  0.1495204E-007  0.1614753E+04  0.7818608E-02  0.8811536E-01
         -1   -1    0    0    0  501 -0.00000000000E+00  0.00000000000E+00  0.49926511665E+03  0.49926511665E+03  0.00000000000E+00 0.  1.
          1   -1    0    0  501    0  0.00000000000E+00 -0.00000000000E+00 -0.13056321593E+04  0.13056321593E+04  0.00000000000E+00 0. -1.
         23    2    1    2    0    0  0.31281137720E+02 -0.16722254243E+03  0.30591429494E+03  0.36214286811E+03  0.92854794150E+02 0.  0.
        254    2    1    2    0    0 -0.31281137720E+02  0.16722254243E+03 -0.11122813376E+04  0.14427544079E+04  0.90301086323E+03 0.  0.
        -24    2    4    4    0    0  0.38470354334E+03  0.20541290501E+03 -0.80091555302E+03  0.91583956624E+03  0.84291815861E+02 0.  0.
         24    2    4    4    0    0 -0.41598468106E+03 -0.38190362581E+02 -0.31136578461E+03  0.52691484163E+03  0.78669179681E+02 0.  0.
         11    1    3    3    0    0  0.84948405192E+01  0.65882255083E+01  0.14879760874E+01  0.10852700292E+02  0.00000000000E+00 0. -1.
        -11    1    3    3    0    0  0.22786297201E+02 -0.17381076794E+03  0.30442631886E+03  0.35129016782E+03  0.00000000000E+00 0.  1.
          4    1    6    6  502    0 -0.92390014992E+02 -0.23564353337E+02 -0.36528297401E+02  0.10210538737E+03  0.00000000000E+00 0. -1.
          1    1    5    5  503    0  0.16881394968E+03  0.64524864077E+02 -0.40363332906E+03  0.44224594064E+03  0.00000000000E+00 0. -1.
         -2    1    5    5    0  503  0.21588959366E+03  0.14088804094E+03 -0.39728222396E+03  0.47359362559E+03  0.00000000000E+00 0.  1.
         -3    1    6    6    0  502 -0.32359466607E+03 -0.14626009244E+02 -0.27483748721E+03  0.42480945426E+03  0.00000000000E+00 0.  1.
<mgrwt>
<rscale>  0 0.16147527E+04</rscale>
<asrwt>0</asrwt>
<pdfrwt beam="1">  1        1 0.20086649E+00 0.16147527E+04</pdfrwt>
<pdfrwt beam="2">  1       -1 0.76810018E-01 0.16147527E+04</pdfrwt>
<totfact> 0.14605981E+01</totfact>
</mgrwt>
</event>
<event>
12    1  0.1495204E-007  0.1347709E+04  0.7818608E-02  0.8992564E-01
         -2   -1    0    0    0  501 -0.00000000000E+00  0.00000000000E+00  0.35517045189E+03  0.35517045189E+03  0.00000000000E+00 0.  1.
          2   -1    0    0  501    0  0.00000000000E+00 -0.00000000000E+00 -0.12784846747E+04  0.12784846747E+04  0.00000000000E+00 0. -1.
         23    2    1    2    0    0  0.37094644931E+03 -0.17390331084E+02 -0.25054735737E+03  0.45618202284E+03  0.86164771254E+02 0.  0.
        254    2    1    2    0    0 -0.37094644931E+03  0.17390331084E+02 -0.67276686547E+03  0.11774731038E+04  0.89214570726E+03 0.  0.
        -24    2    4    4    0    0 -0.29380718923E+03  0.34268422226E+03 -0.44756699010E+02  0.46157651887E+03  0.85408313589E+02 0.  0.
         24    2    4    4    0    0 -0.77139260073E+02 -0.32529389118E+03 -0.62801016646E+03  0.71589658491E+03  0.79652809280E+02 0.  0.
         11    1    3    3    0    0  0.13983600140E+03 -0.37759170500E+01 -0.14587257075E+03  0.20210683248E+03  0.00000000000E+00 0. -1.
        -11    1    3    3    0    0  0.23111044790E+03 -0.13614414034E+02 -0.10467478662E+03  0.25407519035E+03  0.00000000000E+00 0.  1.
          4    1    6    6  502    0  0.13937234492E+02 -0.61020267856E+02 -0.14306533606E+03  0.15615828501E+03  0.00000000000E+00 0. -1.
          1    1    5    5  503    0 -0.95970870140E+02  0.17261551626E+03 -0.34466806295E+02  0.20048562319E+03  0.00000000000E+00 0. -1.
         -2    1    5    5    0  503 -0.19783631909E+03  0.17006870600E+03 -0.10289892716E+02  0.26109089568E+03  0.00000000000E+00 0.  1.
         -3    1    6    6    0  502 -0.91076494565E+02 -0.26427362332E+03 -0.48494483040E+03  0.55973829990E+03  0.00000000000E+00 0.  1.
<mgrwt>
<rscale>  0 0.13477091E+04</rscale>
<asrwt>0</asrwt>
<pdfrwt beam="1">  1        2 0.19668995E+00 0.13477091E+04</pdfrwt>
<pdfrwt beam="2">  1       -2 0.54641607E-01 0.13477091E+04</pdfrwt>
<totfact> 0.52387571E+01</totfact>
</mgrwt>
</event>
<event>
12    1  0.1495204E-007  0.1733785E+04  0.7818608E-02  0.8742327E-01
          1   -1    0    0  501    0  0.00000000000E+00  0.00000000000E+00  0.95668401202E+03  0.95668401202E+03  0.00000000000E+00 0. -1.
         -1   -1    0    0    0  501 -0.00000000000E+00 -0.00000000000E+00 -0.78552870671E+03  0.78552870671E+03  0.00000000000E+00 0.  1.
         23    2    1    2    0    0  0.57814030979E+02 -0.97553310363E+02 -0.55768884196E+03  0.57626002858E+03  0.90552004690E+02 0.  0.
        254    2    1    2    0    0 -0.57814030979E+02  0.97553310363E+02  0.72884414726E+03  0.11659526902E+04  0.90297994115E+03 0.  0.
        -24    2    4    4    0    0 -0.42470756933E+02  0.49543773105E+03  0.39479483013E+03  0.64003974840E+03  0.80781254608E+02 0.  0.
         24    2    4    4    0    0 -0.15343274045E+02 -0.39788442068E+03  0.33404931714E+03  0.52591294175E+03  0.80299736860E+02 0.  0.
         13    1    3    3    0    0 -0.19571650057E+02 -0.50183580229E+02 -0.23179487966E+03  0.23797123240E+03  0.00000000000E+00 0. -1.
        -13    1    3    3    0    0  0.77385681036E+02 -0.47369730134E+02 -0.32589396230E+03  0.33828879619E+03  0.00000000000E+00 0.  1.
          4    1    6    6  502    0 -0.31334856648E+02 -0.37878233997E+03  0.32246429634E+03  0.49843871913E+03  0.00000000000E+00 0. -1.
          3    1    5    5  503    0 -0.15952059305E+02  0.45108937353E+03  0.34330400223E+03  0.56709234615E+03  0.00000000000E+00 0. -1.
         -4    1    5    5    0  503 -0.26518697628E+02  0.44348357518E+02  0.51490827892E+02  0.72947402252E+02  0.00000000000E+00 0.  1.
         -3    1    6    6    0  502  0.15991582602E+02 -0.19102080713E+02  0.11585020797E+02  0.27474222620E+02  0.00000000000E+00 0.  1.
<mgrwt>
<rscale>  0 0.17337852E+04</rscale>
<asrwt>0</asrwt>
<pdfrwt beam="1">  1        1 0.14718216E+00 0.17337852E+04</pdfrwt>
<pdfrwt beam="2">  1       -1 0.12085057E+00 0.17337852E+04</pdfrwt>
<totfact> 0.94542175E+00</totfact>
</mgrwt>
</event>
<event>
12    1  0.1495204E-007  0.1323033E+04  0.7818608E-02  0.9011497E-01
         -3   -1    0    0    0  501 -0.00000000000E+00  0.00000000000E+00  0.11637074654E+04  0.11637074654E+04  0.00000000000E+00 0.  1.
          3   -1    0    0  501    0  0.00000000000E+00 -0.00000000000E+00 -0.37604299156E+03  0.37604299156E+03  0.00000000000E+00 0. -1.
         23    2    1    2    0    0  0.22287783840E+03  0.81603340758E+02  0.50682529304E+03  0.57098486432E+03  0.11321749661E+03 0.  0.
        254    2    1    2    0    0 -0.22287783840E+03 -0.81603340758E+02  0.28083918078E+03  0.96876559262E+03  0.89627143875E+03 0.  0.
        -24    2    4    4    0    0 -0.34884980667E+03  0.29959183763E+03  0.30654990819E+03  0.55851543726E+03  0.80716730959E+02 0.  0.
         24    2    4    4    0    0  0.12597196827E+03 -0.38119517839E+03 -0.25710727403E+02  0.41025015537E+03  0.80408007406E+02 0.  0.
         11    1    3    3    0    0  0.55828593587E+02  0.59774096154E+01  0.38607435839E+02  0.68140262619E+02  0.00000000000E+00 0. -1.
        -11    1    3    3    0    0  0.16704924481E+03  0.75625931143E+02  0.46821785720E+03  0.50284460170E+03  0.00000000000E+00 0.  1.
          4    1    6    6  502    0  0.85874167915E+02 -0.26929064424E+03  0.18901730460E+02  0.28328271956E+03  0.00000000000E+00 0. -1.
          3    1    5    5  503    0 -0.20217539485E+03  0.21489300846E+03  0.16681934679E+03  0.33894334310E+03  0.00000000000E+00 0. -1.
         -4    1    5    5    0  503 -0.14667441181E+03  0.84698829176E+02  0.13973056139E+03  0.21957209415E+03  0.00000000000E+00 0.  1.
         -3    1    6    6    0  502  0.40097800351E+02 -0.11190453416E+03 -0.44612457863E+02  0.12696743580E+03  0.00000000000E+00 0.  1.
<mgrwt>
<rscale>  0 0.13230329E+04</rscale>
<asrwt>0</asrwt>
<pdfrwt beam="1">  1        3 0.57852768E-01 0.13230329E+04</pdfrwt>
<pdfrwt beam="2">  1       -3 0.17903192E+00 0.13230329E+04</pdfrwt>
<totfact> 0.15090406E+00</totfact>
</mgrwt>
</event>
<event>
12    1  0.1495204E-007  0.3219566E+04  0.7818608E-02  0.8183669E-01
         -2   -1    0    0    0  501 -0.00000000000E+00  0.00000000000E+00  0.11978384926E+04  0.11978384926E+04  0.00000000000E+00 0. -1.
          2   -1    0    0  501    0  0.00000000000E+00 -0.00000000000E+00 -0.21633984487E+04  0.21633984487E+04  0.00000000000E+00 0.  1.
         23    2    1    2    0    0 -0.36989059760E+03 -0.35660280492E+02  0.10520980205E+04  0.11193652911E+04  0.89317973116E+02 0.  0.
        254    2    1    2    0    0  0.36989059760E+03  0.35660280492E+02 -0.20176579766E+04  0.22418716502E+04  0.90385511870E+03 0.  0.
        -24    2    4    4    0    0  0.23044053851E+03  0.15468164022E+03 -0.87422543073E+02  0.30127603988E+03  0.78072399463E+02 0.  0.
         24    2    4    4    0    0  0.13945005908E+03 -0.11902135972E+03 -0.19302354336E+04  0.19405956103E+04  0.80561100127E+02 0.  0.
         11    1    3    3    0    0 -0.34707974206E+03 -0.16508198523E+02  0.10074987931E+04  0.10657348104E+04  0.00000000000E+00 0. -1.
        -11    1    3    3    0    0 -0.22810855536E+02 -0.19152081969E+02  0.44599227396E+02  0.53630480683E+02  0.00000000000E+00 0.  1.
          2    1    6    6  502    0  0.70071623343E+02 -0.72844817945E+02 -0.66710823185E+03  0.67472201157E+03  0.00000000000E+00 0. -1.
          1    1    5    5  503    0  0.92028872694E+00  0.15436914617E+02  0.66239600219E+01  0.16823260998E+02  0.00000000000E+00 0. -1.
         -2    1    5    5    0  503  0.22952024979E+03  0.13924472560E+03 -0.94046503095E+02  0.28445277888E+03  0.00000000000E+00 0.  1.
         -1    1    6    6    0  502  0.69378435739E+02 -0.46176541779E+02 -0.12631272017E+04  0.12658735988E+04  0.00000000000E+00 0.  1.
<mgrwt>
<rscale>  0 0.32195664E+04</rscale>
<asrwt>0</asrwt>
<pdfrwt beam="1">  1        2 0.33283053E+00 0.32195664E+04</pdfrwt>
<pdfrwt beam="2">  1       -2 0.18428284E+00 0.32195664E+04</pdfrwt>
<totfact> 0.77133271E-01</totfact>
</mgrwt>
</event>
<event>
12    1  0.1495204E-007  0.1469496E+04  0.7818608E-02  0.8904995E-01
          1   -1    0    0  501    0  0.00000000000E+00  0.00000000000E+00  0.22284721785E+04  0.22284721785E+04  0.00000000000E+00 0. -1.
         -1   -1    0    0    0  501 -0.00000000000E+00 -0.00000000000E+00 -0.24225317294E+03  0.24225317294E+03  0.00000000000E+00 0.  1.
         23    2    1    2    0    0  0.21083022890E+02 -0.44796113562E+03  0.44754911563E+03  0.63950480439E+03  0.86905184267E+02 0.  0.
        254    2    1    2    0    0 -0.21083022890E+02  0.44796113562E+03  0.15386698899E+04  0.18312205471E+04  0.88586115668E+03 0.  0.
        -24    2    4    4    0    0 -0.41506680902E+03  0.12809984691E+03  0.96676723526E+03  0.10629443183E+04  0.80757103851E+02 0.  0.
         24    2    4    4    0    0  0.39398378613E+03  0.31986128871E+03  0.57190265467E+03  0.76827622880E+03  0.75108252371E+02 0.  0.
         13    1    3    3    0    0 -0.13190458049E+02 -0.22111471902E+02  0.90469129824E+01  0.27290144883E+02  0.00000000000E+00 0. -1.
        -13    1    3    3    0    0  0.34273480939E+02 -0.42584966371E+03  0.43850220265E+03  0.61221465950E+03  0.00000000000E+00 0.  1.
          2    1    6    6  502    0  0.44753032447E+02  0.17026905015E+02  0.80238486188E+02  0.93439627961E+02  0.00000000000E+00 0. -1.
          1    1    5    5  503    0 -0.56827090119E+02  0.41274091088E+02  0.11368336663E+03  0.13362925060E+03  0.00000000000E+00 0. -1.
         -2    1    5    5    0  503 -0.35823971890E+03  0.86825755820E+02  0.85308386863E+03  0.92931506766E+03  0.00000000000E+00 0.  1.
         -1    1    6    6    0  502  0.34923075368E+03  0.30283438369E+03  0.49166416848E+03  0.67483660084E+03  0.00000000000E+00 0.  1.
<mgrwt>
<rscale>  0 0.14694958E+04</rscale>
<asrwt>0</asrwt>
<pdfrwt beam="1">  1        1 0.34284186E+00 0.14694958E+04</pdfrwt>
<pdfrwt beam="2">  1       -1 0.37269720E-01 0.14694958E+04</pdfrwt>
<totfact> 0.14017486E+01</totfact>
</mgrwt>
</event>
<event>
12    1  0.1495204E-007  0.1420733E+04  0.7818608E-02  0.8938946E-01
         -2   -1    0    0    0  501 -0.00000000000E+00  0.00000000000E+00  0.38004951802E+03  0.38004951802E+03  0.00000000000E+00 0. -1.
          2   -1    0    0  501    0  0.00000000000E+00 -0.00000000000E+00 -0.13277766374E+04  0.13277766374E+04  0.00000000000E+00 0.  1.
         23    2    1    2    0    0 -0.14709998199E+03  0.31956293791E+03 -0.12384509233E+02  0.36330125019E+03  0.89864043637E+02 0.  0.
        254    2    1    2    0    0  0.14709998199E+03 -0.31956293791E+03 -0.93534261019E+03  0.13445249053E+04  0.89951239373E+03 0.  0.
        -24    2    4    4    0    0 -0.14947552225E+03 -0.46861964535E+03 -0.86383062737E+03  0.99723277333E+03  0.79514449365E+02 0.  0.
         24    2    4    4    0    0  0.29657550423E+03  0.14905670745E+03 -0.71511982814E+02  0.34729213194E+03  0.72958409224E+02 0.  0.
         11    1    3    3    0    0 -0.46114753492E+02  0.80503767997E+02  0.35631041128E+02  0.99383088316E+02  0.00000000000E+00 0. -1.
        -11    1    3    3    0    0 -0.10098522849E+03  0.23905916991E+03 -0.48015550361E+02  0.26391816188E+03  0.00000000000E+00 0.  1.
          4    1    6    6  502    0  0.23535673357E+03  0.95009659239E+02 -0.29683597227E+02  0.25554010121E+03  0.00000000000E+00 0. -1.
          1    1    5    5  503    0 -0.14558172943E+03 -0.46272223371E+03 -0.81921130298E+03  0.95205728002E+03  0.00000000000E+00 0. -1.
         -4    1    5    5    0  503 -0.38937928170E+01 -0.58974116457E+01 -0.44619324390E+02  0.45175493308E+02  0.00000000000E+00 0.  1.
         -3    1    6    6    0  502  0.61218770665E+02  0.54047048206E+02 -0.41828385587E+02  0.91752030727E+02  0.00000000000E+00 0.  1.
<mgrwt>
<rscale>  0 0.14207334E+04</rscale>
<asrwt>0</asrwt>
<pdfrwt beam="1">  1        2 0.20427333E+00 0.14207334E+04</pdfrwt>
<pdfrwt beam="2">  1       -2 0.58469156E-01 0.14207334E+04</pdfrwt>
<totfact> 0.42333790E+01</totfact>
</mgrwt>
</event>
<event>
12    1  0.1495204E-007  0.1527398E+04  0.7818608E-02  0.8866436E-01
         -2   -1    0    0    0  501 -0.00000000000E+00  0.00000000000E+00  0.42020521194E+03  0.42020521194E+03  0.00000000000E+00 0.  1.
          2   -1    0    0  501    0  0.00000000000E+00 -0.00000000000E+00 -0.13879785623E+04  0.13879785623E+04  0.00000000000E+00 0. -1.
         23    2    1    2    0    0  0.10378500255E+03  0.25203056051E+03  0.16509285111E+03  0.33143176014E+03  0.91107804044E+02 0.  0.
        254    2    1    2    0    0 -0.10378500255E+03 -0.25203056051E+03 -0.11328662014E+04  0.14767520141E+04  0.90725958278E+03 0.  0.
        -24    2    4    4    0    0  0.30594744348E+03  0.16270885449E+03 -0.49416316727E+03  0.60837901004E+03  0.76483818358E+02 0.  0.
         24    2    4    4    0    0 -0.40973244603E+03 -0.41473941500E+03 -0.63870303415E+03  0.86837300402E+03  0.78997775923E+02 0.  0.
         13    1    3    3    0    0  0.10923549266E+03  0.24877601077E+03  0.17237688140E+03  0.32176961577E+03  0.00000000000E+00 0.  1.
        -13    1    3    3    0    0 -0.54504901095E+01  0.32545497365E+01 -0.72840302953E+01  0.96621443667E+01  0.00000000000E+00 0. -1.
          2    1    6    6  502    0 -0.47367543501E+02 -0.71555845985E+02 -0.63000229539E+02  0.10645633938E+03  0.00000000000E+00 0. -1.
          3    1    5    5  503    0  0.10966379548E+03  0.22621918743E+02 -0.12953038957E+03  0.17121921933E+03  0.00000000000E+00 0. -1.
         -4    1    5    5    0  503  0.19628364800E+03  0.14008693575E+03 -0.36463277770E+03  0.43715979071E+03  0.00000000000E+00 0.  1.
         -1    1    6    6    0  502 -0.36236490253E+03 -0.34318356901E+03 -0.57570280461E+03  0.76191666464E+03  0.00000000000E+00 0.  1.
<mgrwt>
<rscale>  0 0.15273976E+04</rscale>
<asrwt>0</asrwt>
<pdfrwt beam="1">  1        2 0.21353516E+00 0.15273976E+04</pdfrwt>
<pdfrwt beam="2">  1       -2 0.64646956E-01 0.15273976E+04</pdfrwt>
<totfact> 0.31311120E+01</totfact>
</mgrwt>
</event>
<event>
12    1  0.1495204E-007  0.1512559E+04  0.7818608E-02  0.8876144E-01
         -2   -1    0    0    0  501 -0.00000000000E+00  0.00000000000E+00  0.33646721547E+03  0.33646721547E+03  0.00000000000E+00 0. -1.
          2   -1    0    0  501    0  0.00000000000E+00 -0.00000000000E+00 -0.16998937775E+04  0.16998937775E+04  0.00000000000E+00 0.  1.
         23    2    1    2    0    0  0.12495173149E+03  0.46194366305E+03 -0.43124266156E+03  0.65065201344E+03  0.91503696144E+02 0.  0.
        254    2    1    2    0    0 -0.12495173149E+03 -0.46194366305E+03 -0.93218390047E+03  0.13857089795E+04  0.90676218966E+03 0.  0.
        -24    2    4    4    0    0  0.43073707830E+02  0.11139003797E+03 -0.73961273176E+03  0.75315865070E+03  0.77187274083E+02 0.  0.
         24    2    4    4    0    0 -0.16802543932E+03 -0.57333370103E+03 -0.19257116871E+03  0.63255032882E+03  0.78052434184E+02 0.  0.
         13    1    3    3    0    0  0.12815210390E+03  0.42963070324E+03 -0.36984930744E+03  0.58120049304E+03  0.00000000000E+00 0.  1.
        -13    1    3    3    0    0 -0.32003724097E+01  0.32312959817E+02 -0.61393354122E+02  0.69451520401E+02  0.00000000000E+00 0. -1.
          2    1    6    6  502    0  0.41620919816E+01 -0.78008300946E+02 -0.24083202987E+02  0.81747285534E+02  0.00000000000E+00 0. -1.
          3    1    5    5  503    0 -0.79094123864E+01  0.62468473869E+02 -0.47961408968E+03  0.48372982547E+03  0.00000000000E+00 0. -1.
         -4    1    5    5    0  503  0.50983120216E+02  0.48921564105E+02 -0.25999864208E+03  0.26942882523E+03  0.00000000000E+00 0.  1.
         -1    1    6    6    0  502 -0.17218753130E+03 -0.49532540008E+03 -0.16848796572E+03  0.55080304329E+03  0.00000000000E+00 0.  1.
<mgrwt>
<rscale>  0 0.15125588E+04</rscale>
<asrwt>0</asrwt>
<pdfrwt beam="1">  1        2 0.26152212E+00 0.15125588E+04</pdfrwt>
<pdfrwt beam="2">  1       -2 0.51764187E-01 0.15125588E+04</pdfrwt>
<totfact> 0.33365603E+01</totfact>
</mgrwt>
</event>
<event>
12    1  0.1945106E-007  0.1327066E+04  0.7818608E-02  0.9008372E-01
          2   -1    0    0  501    0  0.00000000000E+00  0.00000000000E+00  0.13108478911E+04  0.13108478911E+04  0.00000000000E+00 0. -1.
         -2   -1    0    0    0  501 -0.00000000000E+00 -0.00000000000E+00 -0.33587137210E+03  0.33587137210E+03  0.00000000000E+00 0.  1.
         23    2    1    2    0    0 -0.15603473381E+03  0.14765913180E+03 -0.80288295167E+02  0.24615933186E+03  0.89432370883E+02 0.  0.
        254    2    1    2    0    0  0.15603473381E+03 -0.14765913180E+03  0.10552648142E+04  0.14005599313E+04  0.89545197297E+03 0.  0.
        -24    2    4    4    0    0 -0.14273629957E+02  0.23842110343E+03  0.91377505710E+03  0.94768256969E+03  0.77904036109E+02 0.  0.
         24    2    4    4    0    0  0.17030836377E+03 -0.38608023522E+03  0.14148975708E+03  0.45287736166E+03  0.83759575838E+02 0.  0.
         13    1    3    3    0    0 -0.15802643412E+03  0.14884500066E+03 -0.90860828784E+02  0.23533567156E+03  0.00000000000E+00 0.  1.
        -13    1    3    3    0    0  0.19917003071E+01 -0.11858688675E+01  0.10572533618E+02  0.10823660295E+02  0.00000000000E+00 0. -1.
          4    1    6    6  502    0  0.17641383444E+03 -0.34814931320E+03  0.11756001084E+03  0.40761518791E+03  0.00000000000E+00 0. -1.
          1    1    5    5  503    0  0.10808437175E+02  0.21528344465E+03  0.82118282306E+03  0.84900236321E+03  0.00000000000E+00 0. -1.
         -2    1    5    5    0  503 -0.25082067132E+02  0.23137658776E+02  0.92592234038E+02  0.98680206473E+02  0.00000000000E+00 0.  1.
         -3    1    6    6    0  502 -0.61054706745E+01 -0.37930922020E+02  0.23929746231E+02  0.45262173745E+02  0.00000000000E+00 0.  1.
<mgrwt>
<rscale>  0 0.13270664E+04</rscale>
<asrwt>0</asrwt>
<pdfrwt beam="1">  1        2 0.20166890E+00 0.13270664E+04</pdfrwt>
<pdfrwt beam="2">  1       -2 0.51672519E-01 0.13270664E+04</pdfrwt>
<totfact> 0.56372678E+01</totfact>
</mgrwt>
</event>
<event>
12    1  0.1495204E-007  0.1550223E+04  0.7818608E-02  0.8851725E-01
         -2   -1    0    0    0  501 -0.00000000000E+00  0.00000000000E+00  0.40533348976E+03  0.40533348976E+03  0.00000000000E+00 0.  1.
          2   -1    0    0  501    0  0.00000000000E+00 -0.00000000000E+00 -0.14822310693E+04  0.14822310693E+04  0.00000000000E+00 0. -1.
         23    2    1    2    0    0 -0.91119682284E+01 -0.50776528147E+03 -0.37001916923E+03  0.63527195922E+03  0.93528966308E+02 0.  0.
        254    2    1    2    0    0  0.91119682284E+01  0.50776528147E+03 -0.70687841034E+03  0.12522925999E+04  0.90036162715E+03 0.  0.
        -24    2    4    4    0    0 -0.29932327819E+02  0.45853637759E+03  0.67675290499E+02  0.47109856556E+03  0.78755061464E+02 0.  0.
         24    2    4    4    0    0  0.39044296047E+02  0.49228903873E+02 -0.77455370083E+03  0.78119403430E+03  0.79892062914E+02 0.  0.
         13    1    3    3    0    0  0.34020385317E+02 -0.21977682821E+03 -0.19318788194E+03  0.29458580849E+03  0.00000000000E+00 0. -1.
        -13    1    3    3    0    0 -0.43132353546E+02 -0.28798845325E+03 -0.17683128729E+03  0.34068615072E+03  0.00000000000E+00 0.  1.
          4    1    6    6  502    0  0.56251402154E+02  0.51919432249E+02 -0.71667894360E+03  0.72075554517E+03  0.00000000000E+00 0. -1.
          1    1    5    5  503    0 -0.29558460794E+02  0.46185416988E+03  0.67893699483E+02  0.46775263898E+03  0.00000000000E+00 0. -1.
         -4    1    5    5    0  503 -0.37386702441E+00 -0.33177922888E+01 -0.21840898347E+00  0.33459265843E+01  0.00000000000E+00 0.  1.
         -3    1    6    6    0  502 -0.17207106107E+02 -0.26905283762E+01 -0.57874757236E+02  0.60438489133E+02  0.00000000000E+00 0.  1.
<mgrwt>
<rscale>  0 0.15502231E+04</rscale>
<asrwt>0</asrwt>
<pdfrwt beam="1">  1        2 0.22803555E+00 0.15502231E+04</pdfrwt>
<pdfrwt beam="2">  1       -2 0.62358998E-01 0.15502231E+04</pdfrwt>
<totfact> 0.29834394E+01</totfact>
</mgrwt>
</event>
<event>
12    1  0.1495204E-007  0.1715052E+04  0.7818608E-02  0.8752826E-01
         -2   -1    0    0    0  501 -0.00000000000E+00  0.00000000000E+00  0.21318139578E+03  0.21318139578E+03  0.00000000000E+00 0.  1.
          2   -1    0    0  501    0  0.00000000000E+00 -0.00000000000E+00 -0.34494121934E+04  0.34494121934E+04  0.00000000000E+00 0. -1.
         23    2    1    2    0    0  0.15815184541E+03 -0.81445657538E+01 -0.24469674000E+04  0.24537653836E+04  0.90756602858E+02 0.  0.
        254    2    1    2    0    0 -0.15815184541E+03  0.81445657538E+01 -0.78926339766E+03  0.12088282056E+04  0.90180406943E+03 0.  0.
        -24    2    4    4    0    0 -0.49936375376E+02  0.44325082888E+03 -0.46735304946E+03  0.65097615675E+03  0.79913358871E+02 0.  0.
         24    2    4    4    0    0 -0.10821547003E+03 -0.43510626313E+03 -0.32191034820E+03  0.55785204887E+03  0.80898627776E+02 0.  0.
         11    1    3    3    0    0  0.13413378542E+03 -0.38794044618E+02 -0.20956549663E+04  0.21003015470E+04  0.00000000000E+00 0. -1.
        -11    1    3    3    0    0  0.24018059988E+02  0.30649478865E+02 -0.35131243369E+03  0.35346383665E+03  0.00000000000E+00 0.  1.
          4    1    6    6  502    0 -0.64051239274E+02 -0.31765752987E+03 -0.18932052677E+03  0.37530138474E+03  0.00000000000E+00 0. -1.
          3    1    5    5  503    0 -0.61712690184E+02  0.39757016245E+03 -0.38973156248E+03  0.56014389311E+03  0.00000000000E+00 0. -1.
         -2    1    5    5    0  503  0.11776314808E+02  0.45680666433E+02 -0.77621486978E+02  0.90832263634E+02  0.00000000000E+00 0.  1.
         -3    1    6    6    0  502 -0.44164230760E+02 -0.11744873326E+03 -0.13258982144E+03  0.18255066412E+03  0.00000000000E+00 0.  1.
<mgrwt>
<rscale>  0 0.17150516E+04</rscale>
<asrwt>0</asrwt>
<pdfrwt beam="1">  1        2 0.53067878E+00 0.17150516E+04</pdfrwt>
<pdfrwt beam="2">  1       -2 0.32797139E-01 0.17150516E+04</pdfrwt>
<totfact> 0.73321640E+00</totfact>
</mgrwt>
</event>
<event>
12    1  0.1495204E-007  0.1679001E+04  0.7818608E-02  0.8773432E-01
          1   -1    0    0  501    0  0.00000000000E+00  0.00000000000E+00  0.68312108785E+03  0.68312108785E+03  0.00000000000E+00 0. -1.
         -1   -1    0    0    0  501 -0.00000000000E+00 -0.00000000000E+00 -0.10316779923E+04  0.10316779923E+04  0.00000000000E+00 0.  1.
         23    2    1    2    0    0 -0.28950288060E+03 -0.23774729256E+02  0.40577622902E+03  0.50672264214E+03  0.87956423275E+02 0.  0.
        254    2    1    2    0    0  0.28950288060E+03  0.23774729256E+02 -0.75433313344E+03  0.12080764380E+04  0.89780457127E+03 0.  0.
        -24    2    4    4    0    0 -0.21136220944E+03  0.28063058128E+03 -0.19199234211E+03  0.40778123926E+03  0.77440124868E+02 0.  0.
         24    2    4    4    0    0  0.50086509004E+03 -0.25685585202E+03 -0.56234079133E+03  0.80029519872E+03  0.86049243885E+02 0.  0.
         13    1    3    3    0    0 -0.15083456184E+02 -0.76559973057E+01  0.38610513085E+00  0.16919634227E+02  0.00000000000E+00 0.  1.
        -13    1    3    3    0    0 -0.27441942441E+03 -0.16118731950E+02  0.40539012389E+03  0.48980300791E+03  0.00000000000E+00 0. -1.
          2    1    6    6  502    0  0.21354509057E+02 -0.31752675125E+02 -0.24744658160E+02  0.45569129267E+02  0.00000000000E+00 0. -1.
          1    1    5    5  503    0 -0.36398404149E+02  0.63277502479E+02 -0.76670558415E+02  0.10586435034E+03  0.00000000000E+00 0. -1.
         -2    1    5    5    0  503 -0.17496380529E+03  0.21735307880E+03 -0.11532178369E+03  0.30191688893E+03  0.00000000000E+00 0.  1.
         -1    1    6    6    0  502  0.47951058098E+03 -0.22510317690E+03 -0.53759613317E+03  0.75472606946E+03  0.00000000000E+00 0.  1.
<mgrwt>
<rscale>  0 0.16790009E+04</rscale>
<asrwt>0</asrwt>
<pdfrwt beam="1">  1        1 0.10509555E+00 0.16790009E+04</pdfrwt>
<pdfrwt beam="2">  1       -1 0.15871969E+00 0.16790009E+04</pdfrwt>
<totfact> 0.80547030E+00</totfact>
</mgrwt>
</event>
<event>
12    1  0.1495204E-007  0.1350894E+04  0.7818608E-02  0.8990151E-01
         -2   -1    0    0    0  501 -0.00000000000E+00  0.00000000000E+00  0.38342444231E+03  0.38342444231E+03  0.00000000000E+00 0. -1.
          2   -1    0    0  501    0  0.00000000000E+00 -0.00000000000E+00 -0.11898796963E+04  0.11898796963E+04  0.00000000000E+00 0.  1.
         23    2    1    2    0    0  0.20043491322E+03  0.20084120103E+03 -0.48159259325E+03  0.56618285285E+03  0.90112454813E+02 0.  0.
        254    2    1    2    0    0 -0.20043491322E+03 -0.20084120103E+03 -0.32486266077E+03  0.10071212858E+04  0.91008032255E+03 0.  0.
        -24    2    4    4    0    0 -0.16156444712E+03 -0.36086496418E+03  0.20091006875E+03  0.45086886161E+03  0.81186708901E+02 0.  0.
         24    2    4    4    0    0 -0.38870466108E+02  0.16002376315E+03 -0.52577272953E+03  0.55625242420E+03  0.76558986414E+02 0.  0.
         13    1    3    3    0    0  0.12732212031E+03  0.81811518015E+02 -0.30958950037E+03  0.34460079155E+03  0.00000000000E+00 0.  1.
        -13    1    3    3    0    0  0.73112792917E+02  0.11902968301E+03 -0.17200309289E+03  0.22158206130E+03  0.00000000000E+00 0. -1.
          2    1    6    6  502    0 -0.47649917334E+02  0.13456441446E+03 -0.49587645809E+03  0.51601507531E+03  0.00000000000E+00 0. -1.
          3    1    5    5  503    0 -0.65459917757E+02 -0.20162684528E+03  0.14435183485E+03  0.25646800540E+03  0.00000000000E+00 0. -1.
         -4    1    5    5    0  503 -0.96104529359E+02 -0.15923811890E+03  0.56558233907E+02  0.19440085621E+03  0.00000000000E+00 0.  1.
         -1    1    6    6    0  502  0.87794512258E+01  0.25459348684E+02 -0.29896271437E+02  0.40237348882E+02  0.00000000000E+00 0.  1.
<mgrwt>
<rscale>  0 0.13508945E+04</rscale>
<asrwt>0</asrwt>
<pdfrwt beam="1">  1        2 0.18305842E+00 0.13508945E+04</pdfrwt>
<pdfrwt beam="2">  1       -2 0.58988376E-01 0.13508945E+04</pdfrwt>
<totfact> 0.50364009E+01</totfact>
</mgrwt>
</event>
<event>
12    1  0.1495204E-007  0.2486982E+04  0.7818608E-02  0.8407638E-01
         -1   -1    0    0    0  501 -0.00000000000E+00  0.00000000000E+00  0.84142073002E+03  0.84142073002E+03  0.00000000000E+00 0.  1.
          1   -1    0    0  501    0  0.00000000000E+00 -0.00000000000E+00 -0.18376891727E+04  0.18376891727E+04  0.00000000000E+00 0. -1.
         23    2    1    2    0    0  0.78696668166E+03  0.25272460097E+03  0.31219058213E+03  0.88827248018E+03  0.91535553085E+02 0.  0.
        254    2    1    2    0    0 -0.78696668166E+03 -0.25272460097E+03 -0.13084590248E+04  0.17908374225E+04  0.90102573346E+03 0.  0.
        -24    2    4    4    0    0 -0.49088684701E+03 -0.58374016832E+03 -0.89765194013E+03  0.11806487931E+04  0.80187819191E+02 0.  0.
         24    2    4    4    0    0 -0.29607983465E+03  0.33101556735E+03 -0.41080708465E+03  0.61018862941E+03  0.79580954687E+02 0.  0.
         11    1    3    3    0    0  0.72843397802E+02  0.29136343862E+02  0.27320395005E+01  0.78501918300E+02  0.00000000000E+00 0. -1.
        -11    1    3    3    0    0  0.71412328386E+03  0.22358825711E+03  0.30945854263E+03  0.80977056188E+03  0.00000000000E+00 0.  1.
          2    1    6    6  502    0 -0.24708341221E+03  0.26142156623E+03 -0.36916552926E+03  0.51543635482E+03  0.00000000000E+00 0. -1.
          3    1    5    5  503    0 -0.44985471685E+03 -0.49634649583E+03 -0.77010441180E+03  0.10206811036E+04  0.00000000000E+00 0. -1.
         -4    1    5    5    0  503 -0.41032130161E+02 -0.87393672491E+02 -0.12754752832E+03  0.15996768948E+03  0.00000000000E+00 0.  1.
         -1    1    6    6    0  502 -0.48996422443E+02  0.69594001123E+02 -0.41641555386E+02  0.94752274587E+02  0.00000000000E+00 0.  1.
<mgrwt>
<rscale>  0 0.24869819E+04</rscale>
<asrwt>0</asrwt>
<pdfrwt beam="1">  1        1 0.28272141E+00 0.24869819E+04</pdfrwt>
<pdfrwt beam="2">  1       -1 0.12944934E+00 0.24869819E+04</pdfrwt>
<totfact> 0.17508697E+00</totfact>
</mgrwt>
</event>
<event>
12    1  0.1495204E-007  0.1441867E+04  0.7818608E-02  0.8924058E-01
         -2   -1    0    0    0  501 -0.00000000000E+00  0.00000000000E+00  0.39394163286E+03  0.39394163286E+03  0.00000000000E+00 0.  1.
          2   -1    0    0  501    0  0.00000000000E+00 -0.00000000000E+00 -0.13193456970E+04  0.13193456970E+04  0.00000000000E+00 0. -1.
         23    2    1    2    0    0 -0.23351755348E+03 -0.34838936236E+03 -0.68338645066E+03  0.80724065030E+03  0.93353259019E+02 0.  0.
        254    2    1    2    0    0  0.23351755348E+03  0.34838936236E+03 -0.24201761348E+03  0.90604667955E+03  0.76579531515E+03 0.  0.
        -24    2    4    4    0    0  0.40491622606E+03 -0.62357404253E+02 -0.75780166113E+02  0.42423014971E+03  0.79893619023E+02 0.  0.
         24    2    4    4    0    0 -0.17139867258E+03  0.41074676661E+03 -0.16623744737E+03  0.48181652984E+03  0.80136560172E+02 0.  0.
         13    1    3    3    0    0 -0.31314025187E+02 -0.12190497046E+03 -0.18924317956E+03  0.22727597983E+03  0.00000000000E+00 0.  1.
        -13    1    3    3    0    0 -0.20220352829E+03 -0.22648439190E+03 -0.49414327110E+03  0.57996467047E+03  0.00000000000E+00 0. -1.
          4    1    6    6  502    0 -0.85358489987E+02  0.13597882939E+03 -0.89632834226E+02  0.18387593325E+03  0.00000000000E+00 0. -1.
          3    1    5    5  503    0  0.35246239445E+03 -0.51661721154E+02 -0.92689888081E+02  0.36808978292E+03  0.00000000000E+00 0. -1.
         -4    1    5    5    0  503  0.52453831602E+02 -0.10695683099E+02  0.16909721969E+02  0.56140366794E+02  0.00000000000E+00 0.  1.
         -3    1    6    6    0  502 -0.86040182594E+02  0.27476793722E+03 -0.76604613140E+02  0.29794059659E+03  0.00000000000E+00 0.  1.
<mgrwt>
<rscale>  0 0.14418671E+04</rscale>
<asrwt>0</asrwt>
<pdfrwt beam="1">  1        2 0.20297626E+00 0.14418671E+04</pdfrwt>
<pdfrwt beam="2">  1       -2 0.60606405E-01 0.14418671E+04</pdfrwt>
<totfact> 0.39625339E+01</totfact>
</mgrwt>
</event>
<event>
12    1  0.1495204E-007  0.1442706E+04  0.7818608E-02  0.8923473E-01
         -1   -1    0    0    0  501 -0.00000000000E+00  0.00000000000E+00  0.11054518548E+04  0.11054518548E+04  0.00000000000E+00 0.  1.
          1   -1    0    0  501    0  0.00000000000E+00 -0.00000000000E+00 -0.47071262350E+03  0.47071262350E+03  0.00000000000E+00 0. -1.
         23    2    1    2    0    0 -0.16743392848E+03 -0.16803209895E+03  0.60539770380E+03  0.65665057019E+03  0.91731591501E+02 0.  0.
        254    2    1    2    0    0  0.16743392848E+03  0.16803209895E+03  0.29341527519E+02  0.91951390812E+03  0.88790539773E+03 0.  0.
        -24    2    4    4    0    0  0.17641553920E+03 -0.29321376938E+03 -0.19268105562E+03  0.40059748628E+03  0.79092349785E+02 0.  0.
         24    2    4    4    0    0 -0.89816107196E+01  0.46124586833E+03  0.22202258314E+03  0.51891642185E+03  0.84568345473E+02 0.  0.
         11    1    3    3    0    0 -0.40427928466E+02 -0.73126101109E+02  0.12164312091E+03  0.14757673573E+03  0.00000000000E+00 0. -1.
        -11    1    3    3    0    0 -0.12700600001E+03 -0.94905997844E+02  0.48375458289E+03  0.50907383446E+03  0.00000000000E+00 0.  1.
          2    1    6    6  502    0  0.26110018797E+02  0.33083235330E+03  0.17968350430E+03  0.37738301603E+03  0.00000000000E+00 0. -1.
          1    1    5    5  503    0  0.12075550973E+03 -0.14304779196E+03 -0.74137423038E+02  0.20134776237E+03  0.00000000000E+00 0. -1.
         -2    1    5    5    0  503  0.55660029469E+02 -0.15016597741E+03 -0.11854363258E+03  0.19924972391E+03  0.00000000000E+00 0.  1.
         -1    1    6    6    0  502 -0.35091629517E+02  0.13041351503E+03  0.42339078836E+02  0.14153340582E+03  0.00000000000E+00 0.  1.
<mgrwt>
<rscale>  0 0.14427060E+04</rscale>
<asrwt>0</asrwt>
<pdfrwt beam="1">  1        1 0.72417327E-01 0.14427060E+04</pdfrwt>
<pdfrwt beam="2">  1       -1 0.17006952E+00 0.14427060E+04</pdfrwt>
<totfact> 0.11501389E+01</totfact>
</mgrwt>
</event>
<event>
12    1  0.3520918E-007  0.1732287E+04  0.7818608E-02  0.8743161E-01
         -2   -1    0    0    0  501 -0.00000000000E+00  0.00000000000E+00  0.42968348812E+03  0.42968348812E+03  0.00000000000E+00 0.  1.
          2   -1    0    0  501    0  0.00000000000E+00 -0.00000000000E+00 -0.17459461748E+04  0.17459461748E+04  0.00000000000E+00 0. -1.
         23    2    1    2    0    0 -0.61280249669E+03 -0.51241269287E+02 -0.31667002539E+03  0.69680232072E+03  0.84267440661E+02 0.  0.
        254    2    1    2    0    0  0.61280249669E+03  0.51241269287E+02 -0.99959266128E+03  0.14788273422E+04  0.89977344475E+03 0.  0.
        -24    2    4    4    0    0  0.82105209711E+03  0.93948206528E+02 -0.92014189285E+03  0.12391710566E+04  0.77012939758E+02 0.  0.
         24    2    4    4    0    0 -0.20824960042E+03 -0.42706937241E+02 -0.79450768436E+02  0.23965628558E+03  0.77012544732E+02 0.  0.
         11    1    3    3    0    0 -0.60804055191E+03 -0.56948724678E+02 -0.30416684093E+03  0.68225650391E+03  0.00000000000E+00 0.  1.
        -11    1    3    3    0    0 -0.47619447828E+01  0.57074553908E+01 -0.12503184455E+02  0.14545816810E+02  0.00000000000E+00 0. -1.
          4    1    6    6  502    0  0.84456220225E-01 -0.16690155275E+01  0.93499860731E+01  0.94981569397E+01  0.00000000000E+00 0. -1.
          1    1    5    5  503    0  0.38286141649E+01  0.68569480492E+01 -0.12196495797E+02  0.14506223930E+02  0.00000000000E+00 0. -1.
         -2    1    5    5    0  503  0.81722348295E+03  0.87091258479E+02 -0.90794539705E+03  0.12246648327E+04  0.00000000000E+00 0.  1.
         -3    1    6    6    0  502 -0.20833405664E+03 -0.41037921714E+02 -0.88800754509E+02  0.23015812864E+03  0.00000000000E+00 0.  1.
<mgrwt>
<rscale>  0 0.17322866E+04</rscale>
<asrwt>0</asrwt>
<pdfrwt beam="1">  1        2 0.26860711E+00 0.17322866E+04</pdfrwt>
<pdfrwt beam="2">  1       -2 0.66105150E-01 0.17322866E+04</pdfrwt>
<totfact> 0.18473804E+01</totfact>
</mgrwt>
</event>
<event>
12    1  0.1495204E-007  0.1575312E+04  0.7818608E-02  0.8835860E-01
          1   -1    0    0  501    0  0.00000000000E+00  0.00000000000E+00  0.21206515842E+04  0.21206515842E+04  0.00000000000E+00 0. -1.
         -1   -1    0    0    0  501 -0.00000000000E+00 -0.00000000000E+00 -0.29255240249E+03  0.29255240249E+03  0.00000000000E+00 0.  1.
         23    2    1    2    0    0 -0.51211280963E+03  0.11822742648E+03  0.66093558053E+03  0.84953199293E+03  0.92905926793E+02 0.  0.
        254    2    1    2    0    0  0.51211280963E+03 -0.11822742648E+03  0.11671636012E+04  0.15636719938E+04  0.89808795675E+03 0.  0.
        -24    2    4    4    0    0  0.31215262010E+03  0.26180795127E+03  0.10217301871E+04  0.11029132243E+04  0.80637109938E+02 0.  0.
         24    2    4    4    0    0  0.19996018953E+03 -0.38003537775E+03  0.14543341413E+03  0.46075876953E+03  0.82078011781E+02 0.  0.
         13    1    3    3    0    0 -0.65049753795E+02 -0.13381411231E+02  0.64093750909E+02  0.92295945420E+02  0.00000000000E+00 0.  1.
        -13    1    3    3    0    0 -0.44706305584E+03  0.13160883771E+03  0.59684182962E+03  0.75723604751E+03  0.00000000000E+00 0. -1.
          4    1    6    6  502    0 -0.79250224597E+01 -0.11123386386E+02  0.62367133846E+01  0.15014403069E+02  0.00000000000E+00 0. -1.
          3    1    5    5  503    0  0.48815894640E+02  0.78544333690E+01  0.11742487181E+03  0.12740990626E+03  0.00000000000E+00 0. -1.
         -4    1    5    5    0  503  0.26333672546E+03  0.25395351790E+03  0.90430531527E+03  0.97550331802E+03  0.00000000000E+00 0.  1.
         -3    1    6    6    0  502  0.20788521199E+03 -0.36891199136E+03  0.13919670074E+03  0.44574436646E+03  0.00000000000E+00 0.  1.
<mgrwt>
<rscale>  0 0.15753117E+04</rscale>
<asrwt>0</asrwt>
<pdfrwt beam="1">  1        1 0.32625408E+00 0.15753117E+04</pdfrwt>
<pdfrwt beam="2">  1       -1 0.45008063E-01 0.15753117E+04</pdfrwt>
<totfact> 0.11623005E+01</totfact>
</mgrwt>
</event>
<event>
12    1  0.1495204E-007  0.2057902E+04  0.7818608E-02  0.8580018E-01
         -2   -1    0    0    0  501 -0.00000000000E+00  0.00000000000E+00  0.46712189865E+03  0.46712189865E+03  0.00000000000E+00 0.  1.
          2   -1    0    0  501    0  0.00000000000E+00 -0.00000000000E+00 -0.22665175343E+04  0.22665175343E+04  0.00000000000E+00 0. -1.
         23    2    1    2    0    0  0.75863573889E+03  0.18090137295E+03 -0.35459079716E+03  0.86187036345E+03  0.93980843261E+02 0.  0.
        254    2    1    2    0    0 -0.75863573889E+03 -0.18090137295E+03 -0.14448048385E+04  0.18717690695E+04  0.89877969334E+03 0.  0.
        -24    2    4    4    0    0 -0.18700753821E+03  0.14512577982E+03  0.32698944445E+02  0.25239093068E+03  0.81232072515E+02 0.  0.
         24    2    4    4    0    0 -0.57162820068E+03 -0.32602715277E+03 -0.14775037830E+04  0.16193781388E+04  0.79470898645E+02 0.  0.
         13    1    3    3    0    0  0.18719875103E+03  0.51698348284E+02 -0.13356519305E+03  0.23570267795E+03  0.00000000000E+00 0.  1.
        -13    1    3    3    0    0  0.57143698787E+03  0.12920302467E+03 -0.22102560412E+03  0.62616768550E+03  0.00000000000E+00 0. -1.
          2    1    6    6  502    0 -0.93775159324E+01 -0.18284813472E+02 -0.66795475027E+02  0.69884960420E+02  0.00000000000E+00 0. -1.
          1    1    5    5  503    0 -0.97280098407E+01 -0.28353001688E+00 -0.15302025905E+02  0.18134678423E+02  0.00000000000E+00 0. -1.
         -2    1    5    5    0  503 -0.17727952837E+03  0.14540930984E+03  0.48000970349E+02  0.23425625226E+03  0.00000000000E+00 0.  1.
         -1    1    6    6    0  502 -0.56225068475E+03 -0.30774233930E+03 -0.14107083079E+04  0.15494931784E+04  0.00000000000E+00 0.  1.
<mgrwt>
<rscale>  0 0.20579018E+04</rscale>
<asrwt>0</asrwt>
<pdfrwt beam="1">  1        2 0.34869502E+00 0.20579018E+04</pdfrwt>
<pdfrwt beam="2">  1       -2 0.71864904E-01 0.20579018E+04</pdfrwt>
<totfact> 0.76854175E+00</totfact>
</mgrwt>
</event>
<event>
12    1  0.1495204E-007  0.2173184E+04  0.7818608E-02  0.8529673E-01
         -1   -1    0    0    0  501 -0.00000000000E+00  0.00000000000E+00  0.39629499907E+03  0.39629499907E+03  0.00000000000E+00 0.  1.
          1   -1    0    0  501    0  0.00000000000E+00 -0.00000000000E+00 -0.29793018758E+04  0.29793018758E+04  0.00000000000E+00 0. -1.
         23    2    1    2    0    0 -0.20018564719E+03 -0.22619933366E+03  0.23823165066E+03  0.39543273024E+03  0.91500234314E+02 0.  0.
        254    2    1    2    0    0  0.20018564719E+03  0.22619933366E+03 -0.28212385274E+04  0.29801641446E+04  0.91145546716E+03 0.  0.
        -24    2    4    4    0    0 -0.33722741582E+03 -0.30132860193E+02 -0.12676716097E+04  0.13144742097E+04  0.78872167607E+02 0.  0.
         24    2    4    4    0    0  0.53741306301E+03  0.25633219385E+03 -0.15535669177E+04  0.16656899349E+04  0.80210956251E+02 0.  0.
         13    1    3    3    0    0 -0.41089928467E+02 -0.11029538209E+02  0.61348012590E+02  0.74656624510E+02  0.00000000000E+00 0. -1.
        -13    1    3    3    0    0 -0.15909571872E+03 -0.21516979545E+03  0.17688363807E+03  0.32077610573E+03  0.00000000000E+00 0.  1.
          2    1    6    6  502    0  0.21712703133E+03  0.84413843402E+02 -0.51183414429E+03  0.56235579125E+03  0.00000000000E+00 0. -1.
          3    1    5    5  503    0  0.34660196000E+01  0.39244365935E+01 -0.17963611394E+02  0.18711115113E+02  0.00000000000E+00 0. -1.
         -4    1    5    5    0  503 -0.34069343542E+03 -0.34057296786E+02 -0.12497079983E+04  0.12957630946E+04  0.00000000000E+00 0.  1.
         -1    1    6    6    0  502  0.32028603168E+03  0.17191835045E+03 -0.10417327734E+04  0.11033341436E+04  0.00000000000E+00 0.  1.
<mgrwt>
<rscale>  0 0.21731842E+04</rscale>
<asrwt>0</asrwt>
<pdfrwt beam="1">  1        1 0.45835412E+00 0.21731842E+04</pdfrwt>
<pdfrwt beam="2">  1       -1 0.60968463E-01 0.21731842E+04</pdfrwt>
<totfact> 0.15446010E+00</totfact>
</mgrwt>
</event>
<event>
12    1  0.1495204E-007  0.1601497E+04  0.7818608E-02  0.8819629E-01
         -2   -1    0    0    0  501 -0.00000000000E+00  0.00000000000E+00  0.60614220489E+03  0.60614220489E+03  0.00000000000E+00 0. -1.
          2   -1    0    0  501    0  0.00000000000E+00 -0.00000000000E+00 -0.10578343378E+04  0.10578343378E+04  0.00000000000E+00 0.  1.
         23    2    1    2    0    0  0.37834580019E+03  0.41361607472E+02 -0.57531435447E+03  0.69594416294E+03  0.92170192499E+02 0.  0.
        254    2    1    2    0    0 -0.37834580019E+03 -0.41361607472E+02  0.12362222156E+03  0.96803237975E+03  0.88144648589E+03 0.  0.
        -24    2    4    4    0    0 -0.64347945005E+03  0.12614615626E+02 -0.23696023658E+02  0.64880128703E+03  0.78464497384E+02 0.  0.
         24    2    4    4    0    0  0.26513364986E+03 -0.53976223098E+02  0.14731824522E+03  0.31923109272E+03  0.83645324039E+02 0.  0.
         11    1    3    3    0    0  0.16651800095E+03  0.49212660288E+02 -0.19958864467E+03  0.26454821423E+03  0.00000000000E+00 0. -1.
        -11    1    3    3    0    0  0.21182779924E+03 -0.78510528154E+01 -0.37572570980E+03  0.43139594871E+03  0.00000000000E+00 0.  1.
          2    1    6    6  502    0  0.10682031934E+03  0.17958792632E+02  0.43648141069E+02  0.11678295713E+03  0.00000000000E+00 0. -1.
          1    1    5    5  503    0 -0.22576578781E+03 -0.18978179383E+02  0.20917618140E+02  0.22752562270E+03  0.00000000000E+00 0. -1.
         -2    1    5    5    0  503 -0.41771366224E+03  0.31592795009E+02 -0.44613641798E+02  0.42127566433E+03  0.00000000000E+00 0.  1.
         -1    1    6    6    0  502  0.15831333052E+03 -0.71935015730E+02  0.10367010415E+03  0.20244813559E+03  0.00000000000E+00 0.  1.
<mgrwt>
<rscale>  0 0.16014968E+04</rscale>
<asrwt>0</asrwt>
<pdfrwt beam="1">  1        2 0.16274374E+00 0.16014968E+04</pdfrwt>
<pdfrwt beam="2">  1       -2 0.93252648E-01 0.16014968E+04</pdfrwt>
<totfact> 0.21602740E+01</totfact>
</mgrwt>
</event>
<event>
12    1  0.1495204E-007  0.1680357E+04  0.7818608E-02  0.8772647E-01
          1   -1    0    0  501    0  0.00000000000E+00  0.00000000000E+00  0.86072410319E+03  0.86072410319E+03  0.00000000000E+00 0. -1.
         -1   -1    0    0    0  501 -0.00000000000E+00 -0.00000000000E+00 -0.82012374204E+03  0.82012374204E+03  0.00000000000E+00 0.  1.
         23    2    1    2    0    0  0.72997483724E+02  0.51959810031E+03  0.34334573595E+03  0.63393739926E+03  0.93163905671E+02 0.  0.
        254    2    1    2    0    0 -0.72997483724E+02 -0.51959810031E+03 -0.30274537480E+03  0.10469104460E+04  0.85384770389E+03 0.  0.
        -24    2    4    4    0    0 -0.24111429437E+03 -0.66938250190E+03 -0.35945246091E+03  0.80110718583E+03  0.79734652041E+02 0.  0.
         24    2    4    4    0    0  0.16811681064E+03  0.14978440159E+03  0.56707086112E+02  0.24580326013E+03  0.80653084859E+02 0.  0.
         11    1    3    3    0    0  0.80830149492E+02  0.44267775518E+03  0.32320700549E+03  0.55403959822E+03  0.00000000000E+00 0. -1.
        -11    1    3    3    0    0 -0.78326657671E+01  0.76920345122E+02  0.20138730459E+02  0.79897801042E+02  0.00000000000E+00 0.  1.
          4    1    6    6  502    0  0.10235923652E+03  0.48891278508E+02  0.53276012806E+02  0.12532399593E+03  0.00000000000E+00 0. -1.
          1    1    5    5  503    0 -0.94199853373E+02 -0.24216826946E+03 -0.17418258392E+03  0.31282368141E+03  0.00000000000E+00 0. -1.
         -2    1    5    5    0  503 -0.14691444099E+03 -0.42721423243E+03 -0.18526987700E+03  0.48828350442E+03  0.00000000000E+00 0.  1.
         -3    1    6    6    0  502  0.65757574125E+02  0.10089312308E+03  0.34310733060E+01  0.12047926421E+03  0.00000000000E+00 0.  1.
<mgrwt>
<rscale>  0 0.16803574E+04</rscale>
<asrwt>0</asrwt>
<pdfrwt beam="1">  1        1 0.13241909E+00 0.16803574E+04</pdfrwt>
<pdfrwt beam="2">  1       -1 0.12617288E+00 0.16803574E+04</pdfrwt>
<totfact> 0.10224367E+01</totfact>
</mgrwt>
</event>
<event>
12    1  0.1495204E-007  0.1571883E+04  0.7818608E-02  0.8838010E-01
         -1   -1    0    0    0  501 -0.00000000000E+00  0.00000000000E+00  0.27144539432E+03  0.27144539432E+03  0.00000000000E+00 0.  1.
          1   -1    0    0  501    0  0.00000000000E+00 -0.00000000000E+00 -0.22756094232E+04  0.22756094232E+04  0.00000000000E+00 0. -1.
         23    2    1    2    0    0  0.45372986212E+02 -0.23758555146E+03  0.78938316374E+02  0.26634550851E+03  0.78759570652E+02 0.  0.
        254    2    1    2    0    0 -0.45372986212E+02  0.23758555146E+03 -0.20831023452E+04  0.22807093090E+04  0.89655672955E+03 0.  0.
        -24    2    4    4    0    0  0.76109549565E+02 -0.32708592473E+03 -0.78553113579E+03  0.85814346446E+03  0.81075116992E+02 0.  0.
         24    2    4    4    0    0 -0.12148253578E+03  0.56467147619E+03 -0.12975712094E+04  0.14225658445E+04  0.79941578506E+02 0.  0.
         11    1    3    3    0    0 -0.22625935605E+02 -0.51668891277E+02  0.18558423750E+02  0.59380319803E+02  0.00000000000E+00 0. -1.
        -11    1    3    3    0    0  0.67998921817E+02 -0.18591666019E+03  0.60379892624E+02  0.20696518871E+03  0.00000000000E+00 0.  1.
          2    1    6    6  502    0 -0.76028143004E+02  0.18530215345E+03 -0.48038750389E+03  0.52047028781E+03  0.00000000000E+00 0. -1.
          1    1    5    5  503    0  0.68068958638E+02 -0.11867176899E+03 -0.30134996052E+03  0.33095040503E+03  0.00000000000E+00 0. -1.
         -2    1    5    5    0  503  0.80405909271E+01 -0.20841415574E+03 -0.48418117527E+03  0.52719305943E+03  0.00000000000E+00 0.  1.
         -1    1    6    6    0  502 -0.45454392773E+02  0.37936932274E+03 -0.81718370554E+03  0.90209555672E+03  0.00000000000E+00 0.  1.
<mgrwt>
<rscale>  0 0.15718826E+04</rscale>
<asrwt>0</asrwt>
<pdfrwt beam="1">  1        1 0.35009378E+00 0.15718826E+04</pdfrwt>
<pdfrwt beam="2">  1       -1 0.41760828E-01 0.15718826E+04</pdfrwt>
<totfact> 0.10479781E+01</totfact>
</mgrwt>
</event>
<event>
12    1  0.1495204E-007  0.2008097E+04  0.7818608E-02  0.8602844E-01
          2   -1    0    0  501    0  0.00000000000E+00  0.00000000000E+00  0.28979352363E+04  0.28979352363E+04  0.00000000000E+00 0. -1.
         -2   -1    0    0    0  501 -0.00000000000E+00 -0.00000000000E+00 -0.34787296380E+03  0.34787296380E+03  0.00000000000E+00 0.  1.
         23    2    1    2    0    0  0.36219306804E+03  0.16350054965E+02 -0.12976519795E+03  0.39673979518E+03  0.95458449866E+02 0.  0.
        254    2    1    2    0    0 -0.36219306804E+03 -0.16350054965E+02  0.26798274704E+04  0.28490684049E+04  0.89680787337E+03 0.  0.
        -24    2    4    4    0    0 -0.47429698219E+03  0.25261802281E+03  0.23012188376E+04  0.23644760892E+04  0.79784364531E+02 0.  0.
         24    2    4    4    0    0  0.11210391415E+03 -0.26896807778E+03  0.37860863280E+03  0.48459231573E+03  0.81080831328E+02 0.  0.
         11    1    3    3    0    0  0.23322613640E+03  0.51743165866E+02 -0.61978265572E+02  0.24680577651E+03  0.00000000000E+00 0. -1.
        -11    1    3    3    0    0  0.12896693164E+03 -0.35393110901E+02 -0.67786932374E+02  0.14993401868E+03  0.00000000000E+00 0.  1.
          2    1    6    6  502    0  0.10658016267E+03 -0.18809780129E+03  0.23235705872E+03  0.31737976725E+03  0.00000000000E+00 0. -1.
          1    1    5    5  503    0 -0.18827090422E+03  0.58125482075E+02  0.79533415519E+03  0.81937837625E+03  0.00000000000E+00 0. -1.
         -2    1    5    5    0  503 -0.28602607796E+03  0.19449254074E+03  0.15058846824E+04  0.15450977129E+04  0.00000000000E+00 0.  1.
         -1    1    6    6    0  502  0.55237514819E+01 -0.80870276490E+02  0.14625157408E+03  0.16721254848E+03  0.00000000000E+00 0.  1.
<mgrwt>
<rscale>  0 0.20080969E+04</rscale>
<asrwt>0</asrwt>
<pdfrwt beam="1">  1        2 0.44583617E+00 0.20080969E+04</pdfrwt>
<pdfrwt beam="2">  1       -2 0.53518920E-01 0.20080969E+04</pdfrwt>
<totfact> 0.61669050E+00</totfact>
</mgrwt>
</event>
<event>
12    1  0.1495204E-007  0.1581973E+04  0.7818608E-02  0.8831700E-01
          2   -1    0    0  501    0  0.00000000000E+00  0.00000000000E+00  0.21217459698E+04  0.21217459698E+04  0.00000000000E+00 0. -1.
         -2   -1    0    0    0  501 -0.00000000000E+00 -0.00000000000E+00 -0.29487977125E+03  0.29487977125E+03  0.00000000000E+00 0.  1.
         23    2    1    2    0    0 -0.40291531490E+03 -0.25866123547E+03  0.26286725127E+03  0.55370403631E+03  0.90788668478E+02 0.  0.
        254    2    1    2    0    0  0.40291531490E+03  0.25866123547E+03  0.15639989473E+04  0.18629217047E+04  0.89170521202E+03 0.  0.
        -24    2    4    4    0    0  0.17310144875E+03 -0.52022402232E+02  0.14341253986E+04  0.14477859415E+04  0.81841501864E+02 0.  0.
         24    2    4    4    0    0  0.22981386615E+03  0.31068363770E+03  0.12987354863E+03  0.41513576324E+03  0.78305986197E+02 0.  0.
         13    1    3    3    0    0 -0.17842282001E+03 -0.63020266595E+02  0.92334410768E+02  0.21055141917E+03  0.00000000000E+00 0. -1.
        -13    1    3    3    0    0 -0.22449249489E+03 -0.19564096888E+03  0.17053284050E+03  0.34315261715E+03  0.00000000000E+00 0.  1.
          4    1    6    6  502    0  0.10426145273E+03  0.10607565469E+03  0.83725555872E+02  0.17068234750E+03  0.00000000000E+00 0. -1.
          1    1    5    5  503    0  0.14399562993E+01 -0.20947275028E+02  0.91719207224E+02  0.94091842255E+02  0.00000000000E+00 0. -1.
         -2    1    5    5    0  503  0.17166149245E+03 -0.31075127204E+02  0.13424061914E+04  0.13536940992E+04  0.00000000000E+00 0.  1.
         -1    1    6    6    0  502  0.12555241342E+03  0.20460798301E+03  0.46147992756E+02  0.24445341573E+03  0.00000000000E+00 0.  1.
<mgrwt>
<rscale>  0 0.15819734E+04</rscale>
<asrwt>0</asrwt>
<pdfrwt beam="1">  1        2 0.32642245E+00 0.15819734E+04</pdfrwt>
<pdfrwt beam="2">  1       -2 0.45366120E-01 0.15819734E+04</pdfrwt>
<totfact> 0.25294064E+01</totfact>
</mgrwt>
</event>
<event>
12    1  0.1495204E-007  0.1548292E+04  0.7818608E-02  0.8852960E-01
          2   -1    0    0  501    0  0.00000000000E+00  0.00000000000E+00  0.22537275055E+04  0.22537275055E+04  0.00000000000E+00 0. -1.
         -2   -1    0    0    0  501 -0.00000000000E+00 -0.00000000000E+00 -0.26591583204E+03  0.26591583204E+03  0.00000000000E+00 0.  1.
         23    2    1    2    0    0 -0.41634935655E+03 -0.14946631633E+03  0.34118939361E+03  0.56579669931E+03  0.89603215460E+02 0.  0.
        254    2    1    2    0    0  0.41634935655E+03  0.14946631633E+03  0.16466222798E+04  0.19538466382E+04  0.95418278479E+03 0.  0.
        -24    2    4    4    0    0  0.50502684601E+03  0.46828568000E+03  0.12637308975E+04  0.14414078067E+04  0.79354208535E+02 0.  0.
         24    2    4    4    0    0 -0.88677489461E+02 -0.31881936367E+03  0.38289138228E+03  0.51243883154E+03  0.80487649104E+02 0.  0.
         11    1    3    3    0    0 -0.35602829219E+03 -0.12163590489E+03  0.32559895923E+03  0.49756016766E+03  0.00000000000E+00 0. -1.
        -11    1    3    3    0    0 -0.60321064363E+02 -0.27830411445E+02  0.15590434385E+02  0.68236531648E+02  0.00000000000E+00 0.  1.
          2    1    6    6  502    0 -0.91475148193E+02 -0.21207041264E+03  0.22999538140E+03  0.32594391867E+03  0.00000000000E+00 0. -1.
          3    1    5    5  503    0  0.27743015479E+03  0.20588650948E+03  0.60420225503E+03  0.69600079781E+03  0.00000000000E+00 0. -1.
         -4    1    5    5    0  503  0.22759669122E+03  0.26239917052E+03  0.65952864252E+03  0.74540700886E+03  0.00000000000E+00 0.  1.
         -3    1    6    6    0  502  0.27976587322E+01 -0.10674895103E+03  0.15289600088E+03  0.18649491287E+03  0.00000000000E+00 0.  1.
<mgrwt>
<rscale>  0 0.15482917E+04</rscale>
<asrwt>0</asrwt>
<pdfrwt beam="1">  1        2 0.34672730E+00 0.15482917E+04</pdfrwt>
<pdfrwt beam="2">  1       -2 0.40910129E-01 0.15482917E+04</pdfrwt>
<totfact> 0.26263336E+01</totfact>
</mgrwt>
</event>
<event>
12    1  0.1495204E-007  0.1610708E+04  0.7818608E-02  0.8813996E-01
          2   -1    0    0  501    0  0.00000000000E+00  0.00000000000E+00  0.84082235851E+03  0.84082235851E+03  0.00000000000E+00 0.  1.
         -2   -1    0    0    0  501 -0.00000000000E+00 -0.00000000000E+00 -0.77138191466E+03  0.77138191466E+03  0.00000000000E+00 0. -1.
         23    2    1    2    0    0 -0.87636059890E+02  0.14903331278E+03 -0.49279580293E+03  0.53308391192E+03  0.10695675039E+03 0.  0.
        254    2    1    2    0    0  0.87636059890E+02 -0.14903331278E+03  0.56223624678E+03  0.10791203612E+04  0.90470998091E+03 0.  0.
        -24    2    4    4    0    0  0.37708066491E+03 -0.21664937441E+03  0.33360943197E+01  0.44198842753E+03  0.78840733581E+02 0.  0.
         24    2    4    4    0    0 -0.28944460502E+03  0.67616061628E+02  0.55890015246E+03  0.63713193371E+03  0.72233021346E+02 0.  0.
         13    1    3    3    0    0 -0.58346602631E+02  0.16103800328E+03 -0.40374522608E+03  0.43857470529E+03  0.00000000000E+00 0. -1.
        -13    1    3    3    0    0 -0.29289457259E+02 -0.12004690501E+02 -0.89050576852E+02  0.94509206632E+02  0.00000000000E+00 0.  1.
          4    1    6    6  502    0 -0.71413213247E+02  0.28225527141E+02  0.21236785706E+03  0.22582434351E+03  0.00000000000E+00 0. -1.
          1    1    5    5  503    0  0.12166380569E+03 -0.74058035683E+02 -0.35791803697E+02  0.14685955017E+03  0.00000000000E+00 0. -1.
         -2    1    5    5    0  503  0.25541685922E+03 -0.14259133872E+03  0.39127898017E+02  0.29512887737E+03  0.00000000000E+00 0.  1.
         -3    1    6    6    0  502 -0.21803139177E+03  0.39390534488E+02  0.34653229540E+03  0.41130759020E+03  0.00000000000E+00 0.  1.
<mgrwt>
<rscale>  0 0.16107081E+04</rscale>
<asrwt>0</asrwt>
<pdfrwt beam="1">  1        2 0.12935729E+00 0.16107081E+04</pdfrwt>
<pdfrwt beam="2">  1       -2 0.11867414E+00 0.16107081E+04</pdfrwt>
<totfact> 0.16847368E+01</totfact>
</mgrwt>
</event>
<event>
12    1  0.1495204E-007  0.1632523E+04  0.7818608E-02  0.8800813E-01
          2   -1    0    0  501    0  0.00000000000E+00  0.00000000000E+00  0.62281455546E+03  0.62281455546E+03  0.00000000000E+00 0. -1.
         -2   -1    0    0    0  501 -0.00000000000E+00 -0.00000000000E+00 -0.10697933609E+04  0.10697933609E+04  0.00000000000E+00 0.  1.
         23    2    1    2    0    0  0.25604440867E+03 -0.46680365005E+03 -0.35349432323E+03  0.64592793367E+03  0.93809765106E+02 0.  0.
        254    2    1    2    0    0 -0.25604440867E+03  0.46680365005E+03 -0.93484482257E+02  0.10466799827E+04  0.89628971371E+03 0.  0.
        -24    2    4    4    0    0 -0.52387871550E+03  0.53685024369E+03 -0.68973551221E+02  0.75772747337E+03  0.82076064913E+02 0.  0.
         24    2    4    4    0    0  0.26783430683E+03 -0.70046593637E+02 -0.24510931036E+02  0.28895250936E+03  0.79063428529E+02 0.  0.
         11    1    3    3    0    0  0.80097280136E+02 -0.19136359322E+03 -0.18621109989E+03  0.27876544409E+03  0.00000000000E+00 0.  1.
        -11    1    3    3    0    0  0.17594712853E+03 -0.27544005683E+03 -0.16728322334E+03  0.36716248959E+03  0.00000000000E+00 0. -1.
          2    1    6    6  502    0  0.16431838677E+03 -0.76786717015E+02  0.38321768669E+01  0.18141504271E+03  0.00000000000E+00 0. -1.
          1    1    5    5  503    0 -0.37967852920E+03  0.40989439371E+03 -0.84074724320E+02  0.56501129086E+03  0.00000000000E+00 0. -1.
         -2    1    5    5    0  503 -0.14420018630E+03  0.12695584998E+03  0.15101173099E+02  0.19271618251E+03  0.00000000000E+00 0.  1.
         -1    1    6    6    0  502  0.10351592005E+03  0.67401233778E+01 -0.28343107903E+02  0.10753746665E+03  0.00000000000E+00 0.  1.
<mgrwt>
<rscale>  0 0.16325230E+04</rscale>
<asrwt>0</asrwt>
<pdfrwt beam="1">  1        2 0.95817624E-01 0.16325230E+04</pdfrwt>
<pdfrwt beam="2">  1       -2 0.16458359E+00 0.16325230E+04</pdfrwt>
<totfact> 0.10559955E+01</totfact>
</mgrwt>
</event>
<event>
12    1  0.1495204E-007  0.2063941E+04  0.7818608E-02  0.8577296E-01
          2   -1    0    0  501    0  0.00000000000E+00  0.00000000000E+00  0.98417618110E+03  0.98417618110E+03  0.00000000000E+00 0. -1.
         -2   -1    0    0    0  501 -0.00000000000E+00 -0.00000000000E+00 -0.10820861833E+04  0.10820861833E+04  0.00000000000E+00 0.  1.
         23    2    1    2    0    0  0.39287098268E+03  0.71880451771E+03  0.12110558237E+03  0.83365890304E+03  0.96400522909E+02 0.  0.
        254    2    1    2    0    0 -0.39287098268E+03 -0.71880451771E+03 -0.21901558457E+03  0.12326034614E+04  0.89460377987E+03 0.  0.
        -24    2    4    4    0    0 -0.70625632824E+02 -0.15801832833E+03 -0.49135753263E+03  0.52695314433E+03  0.79307120399E+02 0.  0.
         24    2    4    4    0    0 -0.32224534986E+03 -0.56078618939E+03  0.27234194806E+03  0.70565031704E+03  0.73817461014E+02 0.  0.
         13    1    3    3    0    0  0.29034312570E+03  0.58543816241E+03  0.66785993202E+02  0.65688457246E+03  0.00000000000E+00 0.  1.
        -13    1    3    3    0    0  0.10252785699E+03  0.13336635530E+03  0.54319589169E+02  0.17677433058E+03  0.00000000000E+00 0. -1.
          2    1    6    6  502    0 -0.16742008834E+03 -0.24029166397E+03  0.94298190335E+02  0.30767144563E+03  0.00000000000E+00 0. -1.
          1    1    5    5  503    0 -0.26237117118E+02 -0.44699025344E+02 -0.26431598852E+03  0.26934983009E+03  0.00000000000E+00 0. -1.
         -2    1    5    5    0  503 -0.44388515706E+02 -0.11331930298E+03 -0.22704154411E+03  0.25760331424E+03  0.00000000000E+00 0.  1.
         -1    1    6    6    0  502 -0.15482526153E+03 -0.32049452541E+03  0.17804375772E+03  0.39797887141E+03  0.00000000000E+00 0.  1.
<mgrwt>
<rscale>  0 0.20639413E+04</rscale>
<asrwt>0</asrwt>
<pdfrwt beam="1">  1        2 0.15141172E+00 0.20639413E+04</pdfrwt>
<pdfrwt beam="2">  1       -2 0.16647480E+00 0.20639413E+04</pdfrwt>
<totfact> 0.53832882E+00</totfact>
</mgrwt>
</event>
<event>
12    1  0.1495204E-007  0.1454063E+04  0.7818608E-02  0.8915589E-01
          2   -1    0    0  501    0  0.00000000000E+00  0.00000000000E+00  0.16007529207E+04  0.16007529207E+04  0.00000000000E+00 0.  1.
         -2   -1    0    0    0  501 -0.00000000000E+00 -0.00000000000E+00 -0.33020386811E+03  0.33020386811E+03  0.00000000000E+00 0. -1.
         23    2    1    2    0    0 -0.18804551127E+03  0.17684164591E+03 -0.79796935414E+02  0.28607876782E+03  0.94018234698E+02 0.  0.
        254    2    1    2    0    0  0.18804551127E+03 -0.17684164591E+03  0.13503459880E+04  0.16448780210E+04  0.90308102330E+03 0.  0.
        -24    2    4    4    0    0  0.14873535114E+02 -0.24752573792E+03  0.14064824999E+04  0.14304134305E+04  0.79995917271E+02 0.  0.
         24    2    4    4    0    0  0.17317197616E+03  0.70684092004E+02 -0.56136511842E+02  0.21446459051E+03  0.88650879475E+02 0.  0.
         11    1    3    3    0    0 -0.19774387011E+03  0.16020926784E+03 -0.67732750179E+02  0.26335788029E+03  0.00000000000E+00 0. -1.
        -11    1    3    3    0    0  0.96983588344E+01  0.16632378072E+02 -0.12064185235E+02  0.22720887522E+02  0.00000000000E+00 0.  1.
          4    1    6    6  502    0  0.15433325717E+03  0.72941719138E+02 -0.17721756120E+02  0.17161966467E+03  0.00000000000E+00 0. -1.
          1    1    5    5  503    0 -0.32171674397E+02 -0.12949839524E+03  0.73623887576E+03  0.74823294046E+03  0.00000000000E+00 0. -1.
         -2    1    5    5    0  503  0.47045209511E+02 -0.11802734267E+03  0.67024362413E+03  0.68218049008E+03  0.00000000000E+00 0.  1.
         -3    1    6    6    0  502  0.18838718986E+02 -0.22576271334E+01 -0.38414755723E+02  0.42844925843E+02  0.00000000000E+00 0.  1.
<mgrwt>
<rscale>  0 0.14540630E+04</rscale>
<asrwt>0</asrwt>
<pdfrwt beam="1">  1        2 0.24626968E+00 0.14540630E+04</pdfrwt>
<pdfrwt beam="2">  1       -2 0.50800596E-01 0.14540630E+04</pdfrwt>
<totfact> 0.39559851E+01</totfact>
</mgrwt>
</event>
<event>
12    1  0.1495204E-007  0.3474694E+04  0.7818608E-02  0.8119813E-01
         -2   -1    0    0    0  501 -0.00000000000E+00  0.00000000000E+00  0.11174864511E+04  0.11174864511E+04  0.00000000000E+00 0.  1.
          2   -1    0    0  501    0  0.00000000000E+00 -0.00000000000E+00 -0.27010389344E+04  0.27010389344E+04  0.00000000000E+00 0. -1.
         23    2    1    2    0    0  0.10949178255E+04  0.29112028954E+03 -0.20141456518E+04  0.23127728130E+04  0.92408388134E+02 0.  0.
        254    2    1    2    0    0 -0.10949178255E+04 -0.29112028954E+03  0.43059316843E+03  0.15057525725E+04  0.89346755131E+03 0.  0.
        -24    2    4    4    0    0 -0.10934026427E+04 -0.12265586845E+03  0.76829106843E+02  0.11059920061E+04  0.82108493775E+02 0.  0.
         24    2    4    4    0    0 -0.15151827908E+01 -0.16846442109E+03  0.35376406159E+03  0.39976056637E+03  0.79227155679E+02 0.  0.
         13    1    3    3    0    0  0.78931605461E+02  0.98029799284E+01 -0.18879952270E+03  0.20486960860E+03  0.00000000000E+00 0.  1.
        -13    1    3    3    0    0  0.10159862201E+04  0.28131730961E+03 -0.18253461291E+04  0.21079032044E+04  0.00000000000E+00 0. -1.
          4    1    6    6  502    0  0.42998886667E+01 -0.87237491178E+02  0.26628594705E+03  0.28024466900E+03  0.00000000000E+00 0. -1.
          1    1    5    5  503    0 -0.95995786855E+03 -0.84808157724E+02  0.52161046558E+02  0.96510740738E+03  0.00000000000E+00 0. -1.
         -2    1    5    5    0  503 -0.13344477419E+03 -0.37847710731E+02  0.24668060284E+02  0.14088459875E+03  0.00000000000E+00 0.  1.
         -3    1    6    6    0  502 -0.58150714575E+01 -0.81226929909E+02  0.87478114544E+02  0.11951589736E+03  0.00000000000E+00 0.  1.
<mgrwt>
<rscale>  0 0.34746939E+04</rscale>
<asrwt>0</asrwt>
<pdfrwt beam="1">  1        2 0.41554445E+00 0.34746939E+04</pdfrwt>
<pdfrwt beam="2">  1       -2 0.17192099E+00 0.34746939E+04</pdfrwt>
<totfact> 0.45084521E-01</totfact>
</mgrwt>
</event>
<event>
12    1  0.1495204E-007  0.1647935E+04  0.7818608E-02  0.8791629E-01
          2   -1    0    0  501    0  0.00000000000E+00  0.00000000000E+00  0.31624390684E+04  0.31624390684E+04  0.00000000000E+00 0. -1.
         -2   -1    0    0    0  501 -0.00000000000E+00 -0.00000000000E+00 -0.21468312031E+03  0.21468312031E+03  0.00000000000E+00 0.  1.
         23    2    1    2    0    0  0.18255666337E+03 -0.37233746678E+03  0.18690063834E+04  0.19164204922E+04  0.86720915067E+02 0.  0.
        254    2    1    2    0    0 -0.18255666337E+03  0.37233746678E+03  0.10787495647E+04  0.14607016965E+04  0.89330101220E+03 0.  0.
        -24    2    4    4    0    0  0.28724008117E+03  0.24673739840E+03  0.81335283060E+03  0.90067833945E+03  0.79324876929E+02 0.  0.
         24    2    4    4    0    0 -0.46979674455E+03  0.12560006837E+03  0.26539673406E+03  0.56002335706E+03  0.81892463858E+02 0.  0.
         13    1    3    3    0    0  0.29738791831E+02 -0.91504103339E+02  0.60515482218E+03  0.61275586939E+03  0.00000000000E+00 0.  1.
        -13    1    3    3    0    0  0.15281787154E+03 -0.28083336344E+03  0.12638515613E+04  0.13036646228E+04  0.00000000000E+00 0. -1.
          4    1    6    6  502    0 -0.37098226029E+03  0.13214641735E+03  0.20417945448E+03  0.44359865047E+03  0.00000000000E+00 0. -1.
          1    1    5    5  503    0  0.85040109729E+02  0.38553025783E+02  0.25201962969E+03  0.26876020875E+03  0.00000000000E+00 0. -1.
         -2    1    5    5    0  503  0.20219997144E+03  0.20818437262E+03  0.56133320091E+03  0.63191813070E+03  0.00000000000E+00 0.  1.
         -3    1    6    6    0  502 -0.98814484258E+02 -0.65463489804E+01  0.61217279583E+02  0.11642470659E+03  0.00000000000E+00 0.  1.
<mgrwt>
<rscale>  0 0.16479348E+04</rscale>
<asrwt>0</asrwt>
<pdfrwt beam="1">  1        2 0.48652905E+00 0.16479348E+04</pdfrwt>
<pdfrwt beam="2">  1       -2 0.33028175E-01 0.16479348E+04</pdfrwt>
<totfact> 0.11292750E+01</totfact>
</mgrwt>
</event>
<event>
12    1  0.1495204E-007  0.1982110E+04  0.7818608E-02  0.8615031E-01
         -1   -1    0    0    0  501 -0.00000000000E+00  0.00000000000E+00  0.90042471571E+03  0.90042471571E+03  0.00000000000E+00 0.  1.
          1   -1    0    0  501    0  0.00000000000E+00 -0.00000000000E+00 -0.10908075786E+04  0.10908075786E+04  0.00000000000E+00 0. -1.
         23    2    1    2    0    0 -0.49291467269E+03  0.41687635802E+03 -0.50312847381E+03  0.82351564539E+03  0.91043860975E+02 0.  0.
        254    2    1    2    0    0  0.49291467269E+03 -0.41687635802E+03  0.31274561095E+03  0.11677166489E+04  0.92141281871E+03 0.  0.
        -24    2    4    4    0    0 -0.14590468383E+03 -0.21131973547E+03  0.40432623771E+03  0.48579612485E+03  0.81079967050E+02 0.  0.
         24    2    4    4    0    0  0.63881935652E+03 -0.20555662255E+03 -0.91580626755E+02  0.68192052404E+03  0.79277326970E+02 0.  0.
         13    1    3    3    0    0 -0.24426136056E+03  0.26583522898E+03 -0.27979023523E+03  0.45674342575E+03  0.00000000000E+00 0. -1.
        -13    1    3    3    0    0 -0.24865331213E+03  0.15104112904E+03 -0.22333823857E+03  0.36677221964E+03  0.00000000000E+00 0.  1.
          2    1    6    6  502    0  0.63731235457E+03 -0.20803533163E+03 -0.86357987216E+02  0.67594632808E+03  0.00000000000E+00 0. -1.
          3    1    5    5  503    0 -0.14427962244E+03 -0.19799711033E+03  0.33409123010E+03  0.41429025475E+03  0.00000000000E+00 0. -1.
         -4    1    5    5    0  503 -0.16250613916E+01 -0.13322625139E+02  0.70235007607E+02  0.71505870099E+02  0.00000000000E+00 0.  1.
         -1    1    6    6    0  502  0.15070019489E+01  0.24787090772E+01 -0.52226395395E+01  0.59741959562E+01  0.00000000000E+00 0.  1.
<mgrwt>
<rscale>  0 0.19821101E+04</rscale>
<asrwt>0</asrwt>
<pdfrwt beam="1">  1        1 0.16781655E+00 0.19821101E+04</pdfrwt>
<pdfrwt beam="2">  1       -1 0.13852688E+00 0.19821101E+04</pdfrwt>
<totfact> 0.51582236E+00</totfact>
</mgrwt>
</event>
<event>
12    1  0.1495204E-007  0.2128020E+04  0.7818608E-02  0.8549000E-01
          2   -1    0    0  501    0  0.00000000000E+00  0.00000000000E+00  0.41316461076E+04  0.41316461076E+04  0.00000000000E+00 0. -1.
         -2   -1    0    0    0  501 -0.00000000000E+00 -0.00000000000E+00 -0.27401122983E+03  0.27401122983E+03  0.00000000000E+00 0.  1.
         23    2    1    2    0    0  0.83020689733E+02  0.41669328520E+03  0.12278416384E+02  0.43416965246E+03  0.88469196631E+02 0.  0.
        254    2    1    2    0    0 -0.83020689733E+02 -0.41669328520E+03  0.38453564613E+04  0.39714876849E+04  0.89745327892E+03 0.  0.
        -24    2    4    4    0    0 -0.10858679612E+03 -0.45919825601E+03  0.86100846215E+03  0.98562343280E+03  0.86393569146E+02 0.  0.
         24    2    4    4    0    0  0.25566106384E+02  0.42504970815E+02  0.29843479992E+04  0.29858642521E+04  0.81191461500E+02 0.  0.
         11    1    3    3    0    0  0.60343597131E+02  0.20615552544E+03 -0.33827562572E+02  0.21745287851E+03  0.00000000000E+00 0.  1.
        -11    1    3    3    0    0  0.22677092602E+02  0.21053775976E+03  0.46105978956E+02  0.21671677394E+03  0.00000000000E+00 0. -1.
          4    1    6    6  502    0 -0.43247619376E+01  0.18860338406E+02  0.14792233709E+03  0.14918255173E+03  0.00000000000E+00 0. -1.
          3    1    5    5  503    0 -0.33071515225E+02 -0.32789964581E+02  0.78044640466E+02  0.90883842359E+02  0.00000000000E+00 0. -1.
         -4    1    5    5    0  503 -0.75515280892E+02 -0.42640829143E+03  0.78296382168E+03  0.89473959044E+03  0.00000000000E+00 0.  1.
         -3    1    6    6    0  502  0.29890868322E+02  0.23644632409E+02  0.28364256621E+04  0.28366817004E+04  0.00000000000E+00 0.  1.
<mgrwt>
<rscale>  0 0.21280201E+04</rscale>
<asrwt>0</asrwt>
<pdfrwt beam="1">  1        2 0.63563782E+00 0.21280201E+04</pdfrwt>
<pdfrwt beam="2">  1       -2 0.42155577E-01 0.21280201E+04</pdfrwt>
<totfact> 0.13176452E+00</totfact>
</mgrwt>
</event>
<event>
12    1  0.1495204E-007  0.1431203E+04  0.7818608E-02  0.8931537E-01
         -1   -1    0    0    0  501 -0.00000000000E+00  0.00000000000E+00  0.11775829623E+04  0.11775829623E+04  0.00000000000E+00 0.  1.
          1   -1    0    0  501    0  0.00000000000E+00 -0.00000000000E+00 -0.43486169874E+03  0.43486169874E+03  0.00000000000E+00 0. -1.
         23    2    1    2    0    0 -0.39056388056E+02  0.17259437152E+03  0.67862855202E+03  0.70725743769E+03  0.91444808624E+02 0.  0.
        254    2    1    2    0    0  0.39056388056E+02 -0.17259437152E+03  0.64092711511E+02  0.90518722333E+03  0.88540488765E+03 0.  0.
        -24    2    4    4    0    0  0.12966833577E+03  0.33214042551E+03 -0.63571160938E+02  0.37082963450E+03  0.79637841278E+02 0.  0.
         24    2    4    4    0    0 -0.90611947718E+02 -0.50473479703E+03  0.12766387245E+03  0.53435758882E+03  0.79197398986E+02 0.  0.
         11    1    3    3    0    0  0.27290896376E+02  0.25236941611E+02  0.11000856197E+03  0.11611881826E+03  0.00000000000E+00 0. -1.
        -11    1    3    3    0    0 -0.66347284433E+02  0.14735742991E+03  0.56861999004E+03  0.59113861943E+03  0.00000000000E+00 0.  1.
          2    1    6    6  502    0 -0.44590709838E+02 -0.87964544944E+02  0.37219348159E+02  0.10541049496E+03  0.00000000000E+00 0. -1.
          3    1    5    5  503    0  0.70495106426E+02  0.99216497163E+02 -0.45100820690E+02  0.12979814084E+03  0.00000000000E+00 0. -1.
         -4    1    5    5    0  503  0.59173229349E+02  0.23292392835E+03 -0.18470340248E+02  0.24103149366E+03  0.00000000000E+00 0.  1.
         -1    1    6    6    0  502 -0.46021237880E+02 -0.41677025208E+03  0.90444524290E+02  0.42894709386E+03  0.00000000000E+00 0.  1.
<mgrwt>
<rscale>  0 0.14312033E+04</rscale>
<asrwt>0</asrwt>
<pdfrwt beam="1">  1        1 0.66901800E-01 0.14312033E+04</pdfrwt>
<pdfrwt beam="2">  1       -1 0.18116661E+00 0.14312033E+04</pdfrwt>
<totfact> 0.10647464E+01</totfact>
</mgrwt>
</event>
<event>
12    1  0.1495204E-007  0.1766776E+04  0.7818608E-02  0.8724170E-01
         -2   -1    0    0    0  501 -0.00000000000E+00  0.00000000000E+00  0.53648465005E+03  0.53648465005E+03  0.00000000000E+00 0.  1.
          2   -1    0    0  501    0  0.00000000000E+00 -0.00000000000E+00 -0.14546062588E+04  0.14546062588E+04  0.00000000000E+00 0. -1.
         23    2    1    2    0    0 -0.14716931873E+03 -0.11615308000E+03  0.35601930691E+03  0.41270394876E+03  0.91784835651E+02 0.  0.
        254    2    1    2    0    0  0.14716931873E+03  0.11615308000E+03 -0.12741409157E+04  0.15783869601E+04  0.91253491795E+03 0.  0.
        -24    2    4    4    0    0 -0.37689645274E+03  0.11281603236E+03 -0.51073191420E+03  0.64907970653E+03  0.75359033972E+02 0.  0.
         24    2    4    4    0    0  0.52406577147E+03  0.33370476460E+01 -0.76340900148E+03  0.92930725359E+03  0.78502224893E+02 0.  0.
         11    1    3    3    0    0 -0.60954701588E+02 -0.11142342734E+00  0.14093366156E+03  0.15355059434E+03  0.00000000000E+00 0. -1.
        -11    1    3    3    0    0 -0.86214617143E+02 -0.11604165657E+03  0.21508564535E+03  0.25915335442E+03  0.00000000000E+00 0.  1.
          4    1    6    6  502    0  0.17427217530E+03  0.11446308732E+02 -0.31913548475E+03  0.36379838743E+03  0.00000000000E+00 0. -1.
          1    1    5    5  503    0 -0.25602423595E+03  0.69783545721E+02 -0.28486615004E+03  0.38931590782E+03  0.00000000000E+00 0. -1.
         -2    1    5    5    0  503 -0.12087221679E+03  0.43032486635E+02 -0.22586576416E+03  0.25976379871E+03  0.00000000000E+00 0.  1.
         -3    1    6    6    0  502  0.34979359617E+03 -0.81092610861E+01 -0.44427351673E+03  0.56550886616E+03  0.00000000000E+00 0.  1.
<mgrwt>
<rscale>  0 0.17667755E+04</rscale>
<asrwt>0</asrwt>
<pdfrwt beam="1">  1        2 0.22378558E+00 0.17667755E+04</pdfrwt>
<pdfrwt beam="2">  1       -2 0.82536100E-01 0.17667755E+04</pdfrwt>
<totfact> 0.16423549E+01</totfact>
</mgrwt>
</event>
<event>
12    1  0.1495204E-007  0.1969118E+04  0.7818608E-02  0.8621196E-01
         -2   -1    0    0    0  501 -0.00000000000E+00  0.00000000000E+00  0.50236271233E+03  0.50236271233E+03  0.00000000000E+00 0. -1.
          2   -1    0    0  501    0  0.00000000000E+00 -0.00000000000E+00 -0.19295953690E+04  0.19295953690E+04  0.00000000000E+00 0.  1.
         23    2    1    2    0    0 -0.43417360034E+03 -0.23416735838E+03  0.16285831956E+03  0.52823349094E+03  0.95742998377E+02 0.  0.
        254    2    1    2    0    0  0.43417360034E+03  0.23416735838E+03 -0.15900909762E+04  0.19037245904E+04  0.92327511415E+03 0.  0.
        -24    2    4    4    0    0  0.46231574411E+03 -0.21963597285E+03 -0.49975260103E+03  0.71977417482E+03  0.79664249723E+02 0.  0.
         24    2    4    4    0    0 -0.28142143766E+02  0.45380333123E+03 -0.10903383752E+04  0.11839504156E+04  0.78558070241E+02 0.  0.
         13    1    3    3    0    0 -0.32860325193E+03 -0.13900593133E+03  0.87525060296E+02  0.36737362767E+03  0.00000000000E+00 0. -1.
        -13    1    3    3    0    0 -0.10557034841E+03 -0.95161427042E+02  0.75333259268E+02  0.16085986327E+03  0.00000000000E+00 0.  1.
          2    1    6    6  502    0  0.20522023625E+02  0.73169157010E+02 -0.14521623394E+03  0.16389824157E+03  0.00000000000E+00 0. -1.
          1    1    5    5  503    0  0.57735368688E+02 -0.56932446399E+02 -0.63966251209E+02  0.10327805936E+03  0.00000000000E+00 0. -1.
         -4    1    5    5    0  503  0.40458037542E+03 -0.16270352645E+03 -0.43578634982E+03  0.61649611547E+03  0.00000000000E+00 0.  1.
         -1    1    6    6    0  502 -0.48664167391E+02  0.38063417422E+03 -0.94512214125E+03  0.10200521740E+04  0.00000000000E+00 0.  1.
<mgrwt>
<rscale>  0 0.19691183E+04</rscale>
<asrwt>0</asrwt>
<pdfrwt beam="1">  1        2 0.29686082E+00 0.19691183E+04</pdfrwt>
<pdfrwt beam="2">  1       -2 0.77286573E-01 0.19691183E+04</pdfrwt>
<totfact> 0.10169508E+01</totfact>
</mgrwt>
</event>
<event>
12    1  0.1495204E-007  0.1850912E+04  0.7818608E-02  0.8679684E-01
          1   -1    0    0  501    0  0.00000000000E+00  0.00000000000E+00  0.62127538686E+03  0.62127538686E+03  0.00000000000E+00 0. -1.
         -1   -1    0    0    0  501 -0.00000000000E+00 -0.00000000000E+00 -0.13785654759E+04  0.13785654759E+04  0.00000000000E+00 0.  1.
         23    2    1    2    0    0 -0.53710906518E+03  0.34448351064E+03  0.29779010935E+02  0.64459273523E+03  0.86359526486E+02 0.  0.
        254    2    1    2    0    0  0.53710906518E+03 -0.34448351064E+03 -0.78706910000E+03  0.13552481276E+04  0.90003593376E+03 0.  0.
        -24    2    4    4    0    0 -0.15871122514E+03  0.87634228185E+02  0.22035038823E+02  0.20145837773E+03  0.85034840412E+02 0.  0.
         24    2    4    4    0    0  0.69582029032E+03 -0.43211773883E+03 -0.80910413882E+03  0.11537897498E+04  0.75429852952E+02 0.  0.
         11    1    3    3    0    0 -0.11990021391E+03  0.11956406756E+03  0.20135413898E+02  0.17051997666E+03  0.00000000000E+00 0.  1.
        -11    1    3    3    0    0 -0.41720885127E+03  0.22491944309E+03  0.96435970366E+01  0.47407275857E+03  0.00000000000E+00 0. -1.
          4    1    6    6  502    0  0.38250098911E+03 -0.24686532199E+03 -0.39786634580E+03  0.60460493133E+03  0.00000000000E+00 0. -1.
          1    1    5    5  503    0 -0.12268732452E+03  0.77790671536E+02  0.51247940769E+02  0.15404518690E+03  0.00000000000E+00 0. -1.
         -2    1    5    5    0  503 -0.36023900625E+02  0.98435566490E+01 -0.29212901946E+02  0.47413190821E+02  0.00000000000E+00 0.  1.
         -3    1    6    6    0  502  0.31331930121E+03 -0.18525241684E+03 -0.41123779303E+03  0.54918481850E+03  0.00000000000E+00 0.  1.
<mgrwt>
<rscale>  0 0.18509120E+04</rscale>
<asrwt>0</asrwt>
<pdfrwt beam="1">  1        1 0.95580830E-01 0.18509120E+04</pdfrwt>
<pdfrwt beam="2">  1       -1 0.21208699E+00 0.18509120E+04</pdfrwt>
<totfact> 0.38052108E+00</totfact>
</mgrwt>
</event>
<event>
12    1  0.2720767E-007  0.1303338E+04  0.7818608E-02  0.9026923E-01
         -1   -1    0    0    0  501 -0.00000000000E+00  0.00000000000E+00  0.31266277767E+03  0.31266277767E+03  0.00000000000E+00 0.  1.
          1   -1    0    0  501    0  0.00000000000E+00 -0.00000000000E+00 -0.13582435882E+04  0.13582435882E+04  0.00000000000E+00 0. -1.
         23    2    1    2    0    0 -0.16216206768E+03  0.55213435512E+01  0.94965720500E+02  0.20860483351E+03  0.90390635935E+02 0.  0.
        254    2    1    2    0    0  0.16216206768E+03 -0.55213435512E+01 -0.11405465311E+04  0.14623015324E+04  0.90063997284E+03 0.  0.
        -24    2    4    4    0    0 -0.93037866825E+02 -0.40418590265E+03 -0.41120116411E+03  0.58896456517E+03  0.75964288246E+02 0.  0.
         24    2    4    4    0    0  0.25519993450E+03  0.39866455910E+03 -0.72934536694E+03  0.87333696722E+03  0.81928974029E+02 0.  0.
         13    1    3    3    0    0 -0.16924947279E+03  0.10559585029E+02  0.10158402634E+03  0.19767701759E+03  0.00000000000E+00 0.  1.
        -13    1    3    3    0    0  0.70874051145E+01 -0.50382414776E+01 -0.66183058429E+01  0.10927815915E+02  0.00000000000E+00 0. -1.
          2    1    6    6  502    0  0.28704294926E+02  0.15528784397E+02 -0.29725972243E+02  0.44144230856E+02  0.00000000000E+00 0. -1.
          1    1    5    5  503    0 -0.24939855014E+02 -0.25580558957E+02 -0.48660786329E+02  0.60367487034E+02  0.00000000000E+00 0. -1.
         -2    1    5    5    0  503 -0.68098011811E+02 -0.37860534369E+03 -0.36254037779E+03  0.52859707813E+03  0.00000000000E+00 0.  1.
         -1    1    6    6    0  502  0.22649563957E+03  0.38313577470E+03 -0.69961939470E+03  0.82919273636E+03  0.00000000000E+00 0.  1.
<mgrwt>
<rscale>  0 0.13033376E+04</rscale>
<asrwt>0</asrwt>
<pdfrwt beam="1">  1        1 0.20896055E+00 0.13033376E+04</pdfrwt>
<pdfrwt beam="2">  1       -1 0.48101966E-01 0.13033376E+04</pdfrwt>
<totfact> 0.34883844E+01</totfact>
</mgrwt>
</event>
<event>
12    1  0.1495204E-007  0.1831736E+04  0.7818608E-02  0.8689602E-01
          2   -1    0    0  501    0  0.00000000000E+00  0.00000000000E+00  0.73509748043E+03  0.73509748043E+03  0.00000000000E+00 0.  1.
         -2   -1    0    0    0  501 -0.00000000000E+00 -0.00000000000E+00 -0.11410923961E+04  0.11410923961E+04  0.00000000000E+00 0. -1.
         23    2    1    2    0    0  0.15010840549E+03 -0.73097333407E+02 -0.84371963051E+03  0.86485760238E+03  0.90775018211E+02 0.  0.
        254    2    1    2    0    0 -0.15010840549E+03  0.73097333407E+02  0.43772471488E+03  0.10113322741E+04  0.89627801997E+03 0.  0.
        -24    2    4    4    0    0 -0.52004492935E+03  0.77278543748E+02  0.27618881535E+03  0.59920615301E+03  0.79680927605E+02 0.  0.
         24    2    4    4    0    0  0.36993652386E+03 -0.41812103411E+01  0.16153589953E+03  0.41212612109E+03  0.82967334827E+02 0.  0.
         11    1    3    3    0    0  0.10053862768E+03 -0.79277369479E+01 -0.34415223163E+03  0.35862462716E+03  0.00000000000E+00 0.  1.
        -11    1    3    3    0    0  0.49569777813E+02 -0.65169596459E+02 -0.49956739888E+03  0.50623297522E+03  0.00000000000E+00 0. -1.
          2    1    6    6  502    0  0.35442578805E+03 -0.20256006985E+02  0.14165551780E+03  0.38222275021E+03  0.00000000000E+00 0. -1.
          3    1    5    5  503    0 -0.23178512170E+03  0.58548143724E+02  0.16097201869E+03  0.28820863724E+03  0.00000000000E+00 0. -1.
         -4    1    5    5    0  503 -0.28825980764E+03  0.18730400024E+02  0.11521679666E+03  0.31099751578E+03  0.00000000000E+00 0.  1.
         -1    1    6    6    0  502  0.15510735804E+02  0.16074796644E+02  0.19880381739E+02  0.29903370887E+02  0.00000000000E+00 0.  1.
<mgrwt>
<rscale>  0 0.18317359E+04</rscale>
<asrwt>0</asrwt>
<pdfrwt beam="1">  1        2 0.11309192E+00 0.18317359E+04</pdfrwt>
<pdfrwt beam="2">  1       -2 0.17555268E+00 0.18317359E+04</pdfrwt>
<totfact> 0.70530706E+00</totfact>
</mgrwt>
</event>
<event>
12    1  0.1495204E-007  0.2885581E+04  0.7818608E-02  0.8277181E-01
          1   -1    0    0  501    0  0.00000000000E+00  0.00000000000E+00  0.22081090214E+04  0.22081090214E+04  0.00000000000E+00 0. -1.
         -1   -1    0    0    0  501 -0.00000000000E+00 -0.00000000000E+00 -0.94272712775E+03  0.94272712775E+03  0.00000000000E+00 0.  1.
         23    2    1    2    0    0  0.94873758964E+03  0.89768986037E+03  0.68112816611E+03  0.14761674117E+04  0.95836054534E+02 0.  0.
        254    2    1    2    0    0 -0.94873758964E+03 -0.89768986037E+03  0.58425372752E+03  0.16746687374E+04  0.87017978746E+03 0.  0.
        -24    2    4    4    0    0 -0.52258415136E+03 -0.19824888984E+02  0.43444856193E+03  0.68423709391E+03  0.77120854769E+02 0.  0.
         24    2    4    4    0    0 -0.42615343828E+03 -0.87786497138E+03  0.14980516559E+03  0.99043164350E+03  0.79117582497E+02 0.  0.
         11    1    3    3    0    0  0.85219719605E+03  0.82871293960E+03  0.59322838681E+03  0.13285048423E+04  0.00000000000E+00 0. -1.
        -11    1    3    3    0    0  0.96540393591E+02  0.68976920763E+02  0.87899779296E+02  0.14766256937E+03  0.00000000000E+00 0.  1.
          2    1    6    6  502    0 -0.38355769862E+03 -0.83023435505E+03  0.14842378484E+03  0.92651778848E+03  0.00000000000E+00 0. -1.
          1    1    5    5  503    0 -0.48522098694E+03 -0.22149371398E+02  0.42551625895E+03  0.64575079361E+03  0.00000000000E+00 0. -1.
         -2    1    5    5    0  503 -0.37363164418E+02  0.23244824143E+01  0.89323029814E+01  0.38486300295E+02  0.00000000000E+00 0.  1.
         -1    1    6    6    0  502 -0.42595739660E+02 -0.47630616338E+02  0.13813807531E+01  0.63913855013E+02  0.00000000000E+00 0.  1.
<mgrwt>
<rscale>  0 0.28855809E+04</rscale>
<asrwt>0</asrwt>
<pdfrwt beam="1">  1        1 0.33970908E+00 0.28855809E+04</pdfrwt>
<pdfrwt beam="2">  1       -1 0.14503494E+00 0.28855809E+04</pdfrwt>
<totfact> 0.70570532E-01</totfact>
</mgrwt>
</event>
<event>
12    1  0.1495204E-007  0.1508814E+04  0.7818608E-02  0.8878613E-01
          2   -1    0    0  501    0  0.00000000000E+00  0.00000000000E+00  0.23828218764E+04  0.23828218764E+04  0.00000000000E+00 0. -1.
         -2   -1    0    0    0  501 -0.00000000000E+00 -0.00000000000E+00 -0.23884691666E+03  0.23884691666E+03  0.00000000000E+00 0.  1.
         23    2    1    2    0    0  0.67714616243E+02  0.27533415223E+03  0.18837175810E+02  0.29870428881E+03  0.92061111887E+02 0.  0.
        254    2    1    2    0    0 -0.67714616243E+02 -0.27533415223E+03  0.21251377839E+04  0.23229645042E+04  0.89418081094E+03 0.  0.
        -24    2    4    4    0    0 -0.17465906742E+03  0.28642790517E+01  0.19665200924E+04  0.19758421551E+04  0.78974387707E+02 0.  0.
         24    2    4    4    0    0  0.10694445118E+03 -0.27819843128E+03  0.15861769151E+03  0.34712234918E+03  0.80640377193E+02 0.  0.
         11    1    3    3    0    0  0.92204233061E+00  0.27531205842E+02  0.31374672601E+02  0.41751497434E+02  0.00000000000E+00 0. -1.
        -11    1    3    3    0    0  0.66792573912E+02  0.24780294639E+03 -0.12537496791E+02  0.25695279137E+03  0.00000000000E+00 0.  1.
          2    1    6    6  502    0  0.11370563409E+03 -0.19840503681E+03  0.11656926505E+03  0.25667474245E+03  0.00000000000E+00 0. -1.
          1    1    5    5  503    0 -0.71754336755E+02 -0.37186526040E+02  0.89961521703E+03  0.90323809778E+03  0.00000000000E+00 0. -1.
         -2    1    5    5    0  503 -0.10290473066E+03  0.40050805092E+02  0.10669048754E+04  0.10726040573E+04  0.00000000000E+00 0.  1.
         -1    1    6    6    0  502 -0.67611829146E+01 -0.79793394471E+02  0.42048426458E+02  0.90447606730E+02  0.00000000000E+00 0.  1.
<mgrwt>
<rscale>  0 0.15088137E+04</rscale>
<asrwt>0</asrwt>
<pdfrwt beam="1">  1        2 0.36658797E+00 0.15088137E+04</pdfrwt>
<pdfrwt beam="2">  1       -2 0.36745681E-01 0.15088137E+04</pdfrwt>
<totfact> 0.27446335E+01</totfact>
</mgrwt>
</event>
<event>
12    1  0.1495204E-007  0.1355258E+04  0.7818608E-02  0.8986857E-01
         -1   -1    0    0    0  501 -0.00000000000E+00  0.00000000000E+00  0.31376363105E+03  0.31376363105E+03  0.00000000000E+00 0.  1.
          1   -1    0    0  501    0  0.00000000000E+00 -0.00000000000E+00 -0.14634623755E+04  0.14634623755E+04  0.00000000000E+00 0. -1.
         23    2    1    2    0    0 -0.24379665972E+03 -0.25556772444E+03 -0.23157582417E+03  0.43262518352E+03  0.93731072830E+02 0.  0.
        254    2    1    2    0    0  0.24379665972E+03  0.25556772444E+03 -0.91812292032E+03  0.13446008231E+04  0.91665151696E+03 0.  0.
        -24    2    4    4    0    0 -0.20760773351E+03  0.42939089833E+03 -0.36462001561E+03  0.60521221460E+03  0.76528127761E+02 0.  0.
         24    2    4    4    0    0  0.45140439323E+03 -0.17382317389E+03 -0.55350290472E+03  0.73938860848E+03  0.79684545597E+02 0.  0.
         11    1    3    3    0    0 -0.19869656939E+02 -0.75372217071E+02 -0.52473390665E+02  0.93963988320E+02  0.00000000000E+00 0. -1.
        -11    1    3    3    0    0 -0.22392700278E+03 -0.18019550736E+03 -0.17910243351E+03  0.33866119520E+03  0.00000000000E+00 0.  1.
          2    1    6    6  502    0  0.26919152691E+03 -0.67272825138E+02 -0.34444638020E+03  0.44230421657E+03  0.00000000000E+00 0. -1.
          1    1    5    5  503    0 -0.20274810295E+03  0.43062146511E+03 -0.35307040638E+03  0.59262159202E+03  0.00000000000E+00 0. -1.
         -2    1    5    5    0  503 -0.48596305610E+01 -0.12305667807E+01 -0.11549609221E+02  0.12590622580E+02  0.00000000000E+00 0.  1.
         -1    1    6    6    0  502  0.18221286632E+03 -0.10655034876E+03 -0.20905652452E+03  0.29708439191E+03  0.00000000000E+00 0.  1.
<mgrwt>
<rscale>  0 0.13552583E+04</rscale>
<asrwt>0</asrwt>
<pdfrwt beam="1">  1        1 0.22514806E+00 0.13552583E+04</pdfrwt>
<pdfrwt beam="2">  1       -1 0.48271327E-01 0.13552583E+04</pdfrwt>
<totfact> 0.29119390E+01</totfact>
</mgrwt>
</event>
<event>
12    1  0.1495204E-007  0.1734945E+04  0.7818608E-02  0.8741681E-01
          2   -1    0    0  501    0  0.00000000000E+00  0.00000000000E+00  0.22708506412E+04  0.22708506412E+04  0.00000000000E+00 0. -1.
         -2   -1    0    0    0  501 -0.00000000000E+00 -0.00000000000E+00 -0.33137733157E+03  0.33137733157E+03  0.00000000000E+00 0.  1.
         23    2    1    2    0    0 -0.53035449090E+03 -0.18258570257E+03  0.27792313643E+03  0.63293281567E+03  0.93537450187E+02 0.  0.
        254    2    1    2    0    0  0.53035449090E+03  0.18258570257E+03  0.16615501732E+04  0.19692951571E+04  0.89596931471E+03 0.  0.
        -24    2    4    4    0    0  0.39015757876E+03 -0.26096030856E+03  0.12688151631E+04  0.13551413111E+04  0.78694574444E+02 0.  0.
         24    2    4    4    0    0  0.14019691214E+03  0.44354601113E+03  0.39273501010E+03  0.61415384599E+03  0.80968637272E+02 0.  0.
         11    1    3    3    0    0 -0.48531079321E+03 -0.13967613066E+03  0.26096155481E+03  0.56845133527E+03  0.00000000000E+00 0.  1.
        -11    1    3    3    0    0 -0.45043697694E+02 -0.42909571914E+02  0.16961581613E+02  0.64481480401E+02  0.00000000000E+00 0. -1.
          2    1    6    6  502    0  0.13326744776E+03  0.42754870714E+03  0.39425610328E+03  0.59665399067E+03  0.00000000000E+00 0. -1.
          3    1    5    5  503    0  0.21861591624E+03 -0.17876552425E+03  0.67805430620E+03  0.73451186080E+03  0.00000000000E+00 0. -1.
         -4    1    5    5    0  503  0.17154166251E+03 -0.82194784316E+02  0.59076085689E+03  0.62062945030E+03  0.00000000000E+00 0.  1.
         -1    1    6    6    0  502  0.69294643859E+01  0.15997303994E+02 -0.15210931836E+01  0.17499855320E+02  0.00000000000E+00 0.  1.
<mgrwt>
<rscale>  0 0.17349449E+04</rscale>
<asrwt>0</asrwt>
<pdfrwt beam="1">  1        2 0.34936163E+00 0.17349449E+04</pdfrwt>
<pdfrwt beam="2">  1       -2 0.50981129E-01 0.17349449E+04</pdfrwt>
<totfact> 0.16262564E+01</totfact>
</mgrwt>
</event>
<event>
12    1  0.1495204E-007  0.1678853E+04  0.7818608E-02  0.8773518E-01
         -1   -1    0    0    0  501 -0.00000000000E+00  0.00000000000E+00  0.31868998774E+03  0.31868998774E+03  0.00000000000E+00 0.  1.
          1   -1    0    0  501    0  0.00000000000E+00 -0.00000000000E+00 -0.22110408601E+04  0.22110408601E+04  0.00000000000E+00 0. -1.
         23    2    1    2    0    0 -0.55113978763E+03  0.16694942995E+03 -0.44149268471E+03  0.73095554866E+03  0.88051381577E+02 0.  0.
        254    2    1    2    0    0  0.55113978763E+03 -0.16694942995E+03 -0.14508581877E+04  0.17987752992E+04  0.89385452878E+03 0.  0.
        -24    2    4    4    0    0  0.70305545722E+03  0.11723856664E+03 -0.11197511742E+04  0.13298188190E+04  0.80892160922E+02 0.  0.
         24    2    4    4    0    0 -0.15191566960E+03 -0.28418799659E+03 -0.33110701348E+03  0.46895648024E+03  0.80294071465E+02 0.  0.
         13    1    3    3    0    0 -0.44812337087E+03  0.13121847377E+03 -0.39807125358E+03  0.61359071563E+03  0.00000000000E+00 0.  1.
        -13    1    3    3    0    0 -0.10301641676E+03  0.35730956179E+02 -0.43421431129E+02  0.11736483303E+03  0.00000000000E+00 0. -1.
          4    1    6    6  502    0 -0.88566665735E+01 -0.84334020965E+02 -0.66072176276E+02  0.10749976797E+03  0.00000000000E+00 0. -1.
          3    1    5    5  503    0  0.13936384313E+02 -0.63225672807E+01 -0.12327743095E+02  0.19651231884E+02  0.00000000000E+00 0. -1.
         -4    1    5    5    0  503  0.68911907291E+03  0.12356113392E+03 -0.11074234311E+04  0.13101675871E+04  0.00000000000E+00 0.  1.
         -3    1    6    6    0  502 -0.14305900302E+03 -0.19985397563E+03 -0.26503483720E+03  0.36145671228E+03  0.00000000000E+00 0.  1.
<mgrwt>
<rscale>  0 0.16788527E+04</rscale>
<asrwt>0</asrwt>
<pdfrwt beam="1">  1        1 0.34016013E+00 0.16788527E+04</pdfrwt>
<pdfrwt beam="2">  1       -1 0.49029229E-01 0.16788527E+04</pdfrwt>
<totfact> 0.85103146E+00</totfact>
</mgrwt>
</event>
<event>
12    1  0.1495204E-007  0.1272503E+04  0.7818608E-02  0.9051659E-01
          1   -1    0    0  501    0  0.00000000000E+00  0.00000000000E+00  0.17007115985E+04  0.17007115985E+04  0.00000000000E+00 0. -1.
         -1   -1    0    0    0  501 -0.00000000000E+00 -0.00000000000E+00 -0.23802756537E+03  0.23802756537E+03  0.00000000000E+00 0.  1.
         23    2    1    2    0    0  0.42218668266E+02  0.20020602714E+03  0.75172017360E+03  0.78427013137E+03  0.90175109076E+02 0.  0.
        254    2    1    2    0    0 -0.42218668266E+02 -0.20020602714E+03  0.71096385957E+03  0.11544690325E+04  0.88626422032E+03 0.  0.
        -24    2    4    4    0    0 -0.13988833841E+03  0.31717617472E+02  0.84312106945E+03  0.85894794403E+03  0.79772666456E+02 0.  0.
         24    2    4    4    0    0  0.97669670144E+02 -0.23192364461E+03 -0.13215720989E+03  0.29552108851E+03  0.80865593635E+02 0.  0.
         11    1    3    3    0    0  0.46710629712E+02  0.15790650263E+03  0.44266687371E+03  0.47230319455E+03  0.00000000000E+00 0. -1.
        -11    1    3    3    0    0 -0.44919614454E+01  0.42299524504E+02  0.30905329989E+03  0.31196693681E+03  0.00000000000E+00 0.  1.
          2    1    6    6  502    0  0.29965002992E+02 -0.12142457786E+03 -0.10457477438E+03  0.16302672465E+03  0.00000000000E+00 0. -1.
          3    1    5    5  503    0 -0.17957147466E+02  0.22163344541E+02  0.61221478968E+02  0.67540672734E+02  0.00000000000E+00 0. -1.
         -4    1    5    5    0  503 -0.12193119094E+03  0.95542729303E+01  0.78189959048E+03  0.79140727129E+03  0.00000000000E+00 0.  1.
         -1    1    6    6    0  502  0.67704667152E+02 -0.11049906675E+03 -0.27582435506E+02  0.13249436386E+03  0.00000000000E+00 0.  1.
<mgrwt>
<rscale>  0 0.12725034E+04</rscale>
<asrwt>0</asrwt>
<pdfrwt beam="1">  1        1 0.26164793E+00 0.12725034E+04</pdfrwt>
<pdfrwt beam="2">  1       -1 0.36619626E-01 0.12725034E+04</pdfrwt>
<totfact> 0.33531550E+01</totfact>
</mgrwt>
</event>
<event>
12    1  0.1495204E-007  0.1871366E+04  0.7818608E-02  0.8669242E-01
         -1   -1    0    0    0  501 -0.00000000000E+00  0.00000000000E+00  0.95189876043E+03  0.95189876043E+03  0.00000000000E+00 0.  1.
          1   -1    0    0  501    0  0.00000000000E+00 -0.00000000000E+00 -0.91974317659E+03  0.91974317659E+03  0.00000000000E+00 0. -1.
         23    2    1    2    0    0  0.23546315744E+03 -0.36359119647E+03  0.57744909928E+03  0.72751064549E+03  0.90458943038E+02 0.  0.
        254    2    1    2    0    0 -0.23546315744E+03  0.36359119647E+03 -0.54529351545E+03  0.11441312915E+04  0.90777196345E+03 0.  0.
        -24    2    4    4    0    0 -0.27839300734E+03 -0.18074072681E+03 -0.47792105127E+03  0.58738360390E+03  0.80256401746E+02 0.  0.
         24    2    4    4    0    0  0.42929849905E+02  0.54433192328E+03 -0.67372464181E+02  0.55674768764E+03  0.85374024424E+02 0.  0.
         11    1    3    3    0    0  0.20948101338E+03 -0.33082232599E+03  0.55725193851E+03  0.68106932784E+03  0.00000000000E+00 0.  1.
        -11    1    3    3    0    0  0.25982144055E+02 -0.32768870477E+02  0.20197160768E+02  0.46441317650E+02  0.00000000000E+00 0. -1.
          4    1    6    6  502    0 -0.62395520669E+01  0.28796459035E+03 -0.37063894520E+01  0.28805602689E+03  0.00000000000E+00 0. -1.
          1    1    5    5  503    0 -0.23991039389E+03 -0.13768583168E+03 -0.43473214010E+03  0.51527314987E+03  0.00000000000E+00 0. -1.
         -2    1    5    5    0  503 -0.38482613451E+02 -0.43054895126E+02 -0.43188911170E+02  0.72110454029E+02  0.00000000000E+00 0.  1.
         -3    1    6    6    0  502  0.49169401972E+02  0.25636733293E+03 -0.63666074729E+02  0.26869166075E+03  0.00000000000E+00 0.  1.
<mgrwt>
<rscale>  0 0.18713657E+04</rscale>
<asrwt>0</asrwt>
<pdfrwt beam="1">  1        1 0.14149895E+00 0.18713657E+04</pdfrwt>
<pdfrwt beam="2">  1       -1 0.14644596E+00 0.18713657E+04</pdfrwt>
<totfact> 0.61195923E+00</totfact>
</mgrwt>
</event>
<event>
12    1  0.1495204E-007  0.2337663E+04  0.7818608E-02  0.8463217E-01
          2   -1    0    0  501    0  0.00000000000E+00  0.00000000000E+00  0.95269144710E+03  0.95269144710E+03  0.00000000000E+00 0.  1.
         -2   -1    0    0    0  501 -0.00000000000E+00 -0.00000000000E+00 -0.14340083395E+04  0.14340083395E+04  0.00000000000E+00 0. -1.
         23    2    1    2    0    0 -0.91152588089E+02 -0.65970950898E+03 -0.95558690921E+03  0.11683587184E+04  0.91598708023E+02 0.  0.
        254    2    1    2    0    0  0.91152588089E+02  0.65970950898E+03  0.47427001680E+03  0.12183410682E+04  0.90327043517E+03 0.  0.
        -24    2    4    4    0    0  0.30624617452E+03  0.64140901641E+03  0.61840334301E+03  0.94564218310E+03  0.81389176696E+02 0.  0.
         24    2    4    4    0    0 -0.21509358643E+03  0.18300492573E+02 -0.14413332620E+03  0.27269888509E+03  0.83606861268E+02 0.  0.
         11    1    3    3    0    0 -0.26625157092E+02 -0.16389223935E+03 -0.31136693536E+03  0.35287240405E+03  0.00000000000E+00 0.  1.
        -11    1    3    3    0    0 -0.64527430997E+02 -0.49581726963E+03 -0.64421997386E+03  0.81548631438E+03  0.00000000000E+00 0. -1.
          2    1    6    6  502    0 -0.77351140012E+02 -0.32495621908E+02 -0.41745960981E+02  0.93711736525E+02  0.00000000000E+00 0. -1.
          3    1    5    5  503    0  0.25862787733E+03  0.52937542252E+03  0.46984977256E+03  0.75358179760E+03  0.00000000000E+00 0. -1.
         -4    1    5    5    0  503  0.47618297196E+02  0.11203359389E+03  0.14855357045E+03  0.19206038550E+03  0.00000000000E+00 0.  1.
         -1    1    6    6    0  502 -0.13774244642E+03  0.50796114481E+02 -0.10238736522E+03  0.17898714856E+03  0.00000000000E+00 0.  1.
<mgrwt>
<rscale>  0 0.23376633E+04</rscale>
<asrwt>0</asrwt>
<pdfrwt beam="1">  1        2 0.14656791E+00 0.23376633E+04</pdfrwt>
<pdfrwt beam="2">  1       -2 0.22061667E+00 0.23376633E+04</pdfrwt>
<totfact> 0.23932004E+00</totfact>
</mgrwt>
</event>
<event>
12    1  0.1495204E-007  0.1675935E+04  0.7818608E-02  0.8775210E-01
          1   -1    0    0  501    0  0.00000000000E+00  0.00000000000E+00  0.80989199455E+03  0.80989199455E+03  0.00000000000E+00 0. -1.
         -1   -1    0    0    0  501 -0.00000000000E+00 -0.00000000000E+00 -0.86701657206E+03  0.86701657206E+03  0.00000000000E+00 0.  1.
         23    2    1    2    0    0  0.44357802251E+03  0.20786438751E+03  0.30243127570E+03  0.58246378017E+03  0.88489056041E+02 0.  0.
        254    2    1    2    0    0 -0.44357802251E+03 -0.20786438751E+03 -0.35955585321E+03  0.10944447864E+04  0.91025266455E+03 0.  0.
        -24    2    4    4    0    0 -0.12664877876E+03 -0.72322144177E+02 -0.62894889627E+03  0.65021856798E+03  0.77052360963E+02 0.  0.
         24    2    4    4    0    0 -0.31692924375E+03 -0.13554224334E+03  0.26939304305E+03  0.44422621845E+03  0.77126365424E+02 0.  0.
         13    1    3    3    0    0  0.38025431656E+03  0.16694644218E+03  0.28883085143E+03  0.50585345759E+03  0.00000000000E+00 0. -1.
        -13    1    3    3    0    0  0.63323705947E+02  0.40917945337E+02  0.13600424273E+02  0.76610322580E+02  0.00000000000E+00 0.  1.
          4    1    6    6  502    0 -0.18541423082E+03 -0.41226326419E+02  0.16533685427E+03  0.25182200531E+03  0.00000000000E+00 0. -1.
          1    1    5    5  503    0 -0.73030934685E+02 -0.68849180911E+02 -0.50876846815E+03  0.51857408470E+03  0.00000000000E+00 0. -1.
         -2    1    5    5    0  503 -0.53617844072E+02 -0.34729632661E+01 -0.12018042811E+03  0.13164448328E+03  0.00000000000E+00 0.  1.
         -3    1    6    6    0  502 -0.13151501293E+03 -0.94315916918E+02  0.10405618879E+03  0.19240421315E+03  0.00000000000E+00 0.  1.
<mgrwt>
<rscale>  0 0.16759353E+04</rscale>
<asrwt>0</asrwt>
<pdfrwt beam="1">  1        1 0.12459877E+00 0.16759353E+04</pdfrwt>
<pdfrwt beam="2">  1       -1 0.13338716E+00 0.16759353E+04</pdfrwt>
<totfact> 0.98200032E+00</totfact>
</mgrwt>
</event>
<event>
12    1  0.1495204E-007  0.1788607E+04  0.7818608E-02  0.8712382E-01
         -2   -1    0    0    0  501 -0.00000000000E+00  0.00000000000E+00  0.14500746304E+04  0.14500746304E+04  0.00000000000E+00 0.  1.
          2   -1    0    0  501    0  0.00000000000E+00 -0.00000000000E+00 -0.55154324243E+03  0.55154324243E+03  0.00000000000E+00 0. -1.
         23    2    1    2    0    0  0.47307706814E+03  0.40985281904E+03  0.84498219904E+02  0.63822627201E+03  0.91714663153E+02 0.  0.
        254    2    1    2    0    0 -0.47307706814E+03 -0.40985281904E+03  0.81403316810E+03  0.13633916008E+04  0.89688651056E+03 0.  0.
        -24    2    4    4    0    0 -0.56883297342E+03 -0.60122092898E+03  0.76301446648E+03  0.11287127381E+04  0.82242397271E+02 0.  0.
         24    2    4    4    0    0  0.95755905279E+02  0.19136810994E+03  0.51018701617E+02  0.23467886279E+03  0.81733186824E+02 0.  0.
         11    1    3    3    0    0  0.50508119273E+02  0.87603956973E+02  0.10158639572E+02  0.10163031707E+03  0.00000000000E+00 0.  1.
        -11    1    3    3    0    0  0.42256894887E+03  0.32224886207E+03  0.74339580332E+02  0.53659595494E+03  0.00000000000E+00 0. -1.
          2    1    6    6  502    0 -0.17730140575E+01  0.46715108187E+02  0.37068593165E+02  0.59661759202E+02  0.00000000000E+00 0. -1.
          1    1    5    5  503    0 -0.27727460801E+03 -0.34881103893E+03  0.38913345854E+03  0.59158701616E+03  0.00000000000E+00 0. -1.
         -2    1    5    5    0  503 -0.29155836541E+03 -0.25240989005E+03  0.37388100794E+03  0.53712572190E+03  0.00000000000E+00 0.  1.
         -1    1    6    6    0  502  0.97528919337E+02  0.14465300175E+03  0.13950108452E+02  0.17501710359E+03  0.00000000000E+00 0.  1.
<mgrwt>
<rscale>  0 0.17886071E+04</rscale>
<asrwt>0</asrwt>
<pdfrwt beam="1">  1        2 0.84852808E-01 0.17886071E+04</pdfrwt>
<pdfrwt beam="2">  1       -2 0.22308840E+00 0.17886071E+04</pdfrwt>
<totfact> 0.48958010E+00</totfact>
</mgrwt>
</event>
<event>
12    1  0.1495204E-007  0.1601160E+04  0.7818608E-02  0.8819836E-01
         -2   -1    0    0    0  501 -0.00000000000E+00  0.00000000000E+00  0.42873203474E+03  0.42873203474E+03  0.00000000000E+00 0.  1.
          2   -1    0    0  501    0  0.00000000000E+00 -0.00000000000E+00 -0.14949391990E+04  0.14949391990E+04  0.00000000000E+00 0. -1.
         23    2    1    2    0    0 -0.21739015403E+03  0.40307013471E+03 -0.70720354910E+03  0.84753862256E+03  0.91982847944E+02 0.  0.
        254    2    1    2    0    0  0.21739015403E+03 -0.40307013471E+03 -0.35900361519E+03  0.10761326112E+04  0.90523686879E+03 0.  0.
        -24    2    4    4    0    0 -0.19357617712E+03  0.88719891425E+02 -0.36554187396E+03  0.43048865711E+03  0.79728707500E+02 0.  0.
         24    2    4    4    0    0  0.41096633114E+03 -0.49179002614E+03  0.65382587702E+01  0.64564395410E+03  0.77862773492E+02 0.  0.
         11    1    3    3    0    0 -0.22521752286E+03  0.39641793730E+03 -0.69820320502E+03  0.83388118405E+03  0.00000000000E+00 0. -1.
        -11    1    3    3    0    0  0.78273688287E+01  0.66521974141E+01 -0.90003440756E+01  0.13657438512E+02  0.00000000000E+00 0.  1.
          4    1    6    6  502    0  0.27012674345E+03 -0.33051095157E+03 -0.32123902161E+02  0.42806295299E+03  0.00000000000E+00 0. -1.
          1    1    5    5  503    0 -0.19979939169E+03  0.92129482267E+02 -0.35735099962E+03  0.41965149273E+03  0.00000000000E+00 0. -1.
         -2    1    5    5    0  503  0.62232145714E+01 -0.34095908418E+01 -0.81908743429E+01  0.10837164381E+02  0.00000000000E+00 0.  1.
         -3    1    6    6    0  502  0.14083958769E+03 -0.16127907457E+03  0.38662160931E+02  0.21758100110E+03  0.00000000000E+00 0.  1.
<mgrwt>
<rscale>  0 0.16011600E+04</rscale>
<asrwt>0</asrwt>
<pdfrwt beam="1">  1        2 0.22999064E+00 0.16011600E+04</pdfrwt>
<pdfrwt beam="2">  1       -2 0.65958775E-01 0.16011600E+04</pdfrwt>
<totfact> 0.25914255E+01</totfact>
</mgrwt>
</event>
<event>
12    1  0.1495204E-007  0.2712962E+04  0.7818608E-02  0.8330811E-01
         -1   -1    0    0    0  501 -0.00000000000E+00  0.00000000000E+00  0.11395934060E+04  0.11395934060E+04  0.00000000000E+00 0.  1.
          1   -1    0    0  501    0  0.00000000000E+00 -0.00000000000E+00 -0.16146470488E+04  0.16146470488E+04  0.00000000000E+00 0. -1.
         23    2    1    2    0    0  0.10864410943E+04  0.46870031983E+03  0.13421866344E+02  0.11868745944E+04  0.91961487254E+02 0.  0.
        254    2    1    2    0    0 -0.10864410943E+04 -0.46870031983E+03 -0.48847550913E+03  0.15673658604E+04  0.90442975194E+03 0.  0.
        -24    2    4    4    0    0 -0.28936531835E+03 -0.40580340156E+03 -0.56864690672E+03  0.76044108986E+03  0.80639062824E+02 0.  0.
         24    2    4    4    0    0 -0.79707577596E+03 -0.62896918268E+02  0.80171397589E+02  0.80692477056E+03  0.73582045354E+02 0.  0.
         11    1    3    3    0    0  0.10378796820E+04  0.44136638520E+03 -0.60485832062E+01  0.11278453377E+04  0.00000000000E+00 0. -1.
        -11    1    3    3    0    0  0.48561412303E+02  0.27333934627E+02  0.19470449550E+02  0.59029256752E+02  0.00000000000E+00 0.  1.
          2    1    6    6  502    0 -0.63609458275E+03 -0.28866807921E+02  0.84484368524E+02  0.64232952550E+03  0.00000000000E+00 0. -1.
          1    1    5    5  503    0 -0.14225280010E+03 -0.17493559919E+03 -0.31394374511E+03  0.38652166575E+03  0.00000000000E+00 0. -1.
         -2    1    5    5    0  503 -0.14711251825E+03 -0.23086780237E+03 -0.25470316161E+03  0.37391942411E+03  0.00000000000E+00 0.  1.
         -3    1    6    6    0  502 -0.16098119321E+03 -0.34030110347E+02 -0.43129709353E+01  0.16459524506E+03  0.00000000000E+00 0.  1.
<mgrwt>
<rscale>  0 0.27129623E+04</rscale>
<asrwt>0</asrwt>
<pdfrwt beam="1">  1        1 0.24840724E+00 0.27129623E+04</pdfrwt>
<pdfrwt beam="2">  1       -1 0.17532206E+00 0.27129623E+04</pdfrwt>
<totfact> 0.10698868E+00</totfact>
</mgrwt>
</event>
<event>
12    1  0.1495204E-007  0.1622821E+04  0.7818608E-02  0.8806649E-01
         -1   -1    0    0    0  501 -0.00000000000E+00  0.00000000000E+00  0.33151446878E+03  0.33151446878E+03  0.00000000000E+00 0.  1.
          1   -1    0    0  501    0  0.00000000000E+00 -0.00000000000E+00 -0.19859984810E+04  0.19859984810E+04  0.00000000000E+00 0. -1.
         23    2    1    2    0    0 -0.18160589611E+03 -0.17413461721E+03 -0.12812067560E+04  0.13090733300E+04  0.94226669862E+02 0.  0.
        254    2    1    2    0    0  0.18160589611E+03  0.17413461721E+03 -0.37327725624E+03  0.10084396198E+04  0.90239181641E+03 0.  0.
        -24    2    4    4    0    0 -0.94614881874E+02 -0.31847190354E+02 -0.58323479146E+03  0.59725077890E+03  0.81113818261E+02 0.  0.
         24    2    4    4    0    0  0.27622077798E+03  0.20598180756E+03  0.20995753522E+03  0.41118884090E+03  0.79168636749E+02 0.  0.
         13    1    3    3    0    0 -0.83052555306E+02 -0.14284318118E+03 -0.77804198580E+03  0.79539375974E+03  0.00000000000E+00 0. -1.
        -13    1    3    3    0    0 -0.98553340800E+02 -0.31291436033E+02 -0.50316477022E+03  0.51367957030E+03  0.00000000000E+00 0.  1.
          2    1    6    6  502    0  0.80821528424E+02  0.45177052067E+02  0.19896263648E+02  0.94704523637E+02  0.00000000000E+00 0. -1.
          3    1    5    5  503    0 -0.68570360863E+02 -0.62984866643E+01 -0.18587755948E+03  0.19822217949E+03  0.00000000000E+00 0. -1.
         -2    1    5    5    0  503 -0.26044521011E+02 -0.25548703689E+02 -0.39735723199E+03  0.39902859941E+03  0.00000000000E+00 0.  1.
         -1    1    6    6    0  502  0.19539924956E+03  0.16080475550E+03  0.19006127157E+03  0.31648431726E+03  0.00000000000E+00 0.  1.
<mgrwt>
<rscale>  0 0.16228213E+04</rscale>
<asrwt>0</asrwt>
<pdfrwt beam="1">  1        1 0.30553822E+00 0.16228213E+04</pdfrwt>
<pdfrwt beam="2">  1       -1 0.51002228E-01 0.16228213E+04</pdfrwt>
<totfact> 0.11277716E+01</totfact>
</mgrwt>
</event>
<event>
12    1  0.1495204E-007  0.1125119E+04  0.7818608E-02  0.9181050E-01
          2   -1    0    0  501    0  0.00000000000E+00  0.00000000000E+00  0.11181847254E+04  0.11181847254E+04  0.00000000000E+00 0. -1.
         -2   -1    0    0    0  501 -0.00000000000E+00 -0.00000000000E+00 -0.28302389463E+03  0.28302389463E+03  0.00000000000E+00 0.  1.
         23    2    1    2    0    0 -0.31488054490E+02  0.39794057573E+02 -0.80186739523E+02  0.12939372130E+03  0.87964523089E+02 0.  0.
        254    2    1    2    0    0  0.31488054490E+02 -0.39794057573E+02  0.91534757032E+03  0.12718148988E+04  0.88151965244E+03 0.  0.
        -24    2    4    4    0    0  0.25690745293E+03 -0.30840838149E+03  0.79188964050E+03  0.89152851394E+03  0.81343219103E+02 0.  0.
         24    2    4    4    0    0 -0.22541939844E+03  0.26861432392E+03  0.12345792982E+03  0.38028638483E+03  0.80051944628E+02 0.  0.
         13    1    3    3    0    0 -0.40646445179E+01 -0.28033842127E+02 -0.20356195395E+02  0.34882550515E+02  0.00000000000E+00 0. -1.
        -13    1    3    3    0    0 -0.27423409972E+02  0.67827899699E+02 -0.59830544128E+02  0.94511170783E+02  0.00000000000E+00 0.  1.
          4    1    6    6  502    0 -0.14313491439E+03  0.22434418186E+03  0.95916033530E+02  0.28287417899E+03  0.00000000000E+00 0. -1.
          3    1    5    5  503    0  0.13936659656E+03 -0.22551194400E+03  0.48958964540E+03  0.55675551727E+03  0.00000000000E+00 0. -1.
         -4    1    5    5    0  503  0.11754085637E+03 -0.82896437487E+02  0.30229999510E+03  0.33477299667E+03  0.00000000000E+00 0.  1.
         -3    1    6    6    0  502 -0.82284484059E+02  0.44270142059E+02  0.27541896291E+02  0.97412205837E+02  0.00000000000E+00 0.  1.
<mgrwt>
<rscale>  0 0.11251187E+04</rscale>
<asrwt>0</asrwt>
<pdfrwt beam="1">  1        2 0.17202842E+00 0.11251187E+04</pdfrwt>
<pdfrwt beam="2">  1       -2 0.43542138E-01 0.11251187E+04</pdfrwt>
<totfact> 0.10521350E+02</totfact>
</mgrwt>
</event>
<event>
12    1  0.1495204E-007  0.2251084E+04  0.7818608E-02  0.8497462E-01
          4   -1    0    0  501    0  0.00000000000E+00  0.00000000000E+00  0.15505573890E+04  0.15505573890E+04  0.00000000000E+00 0. -1.
         -4   -1    0    0    0  501 -0.00000000000E+00 -0.00000000000E+00 -0.81702541719E+03  0.81702541719E+03  0.00000000000E+00 0.  1.
         23    2    1    2    0    0 -0.54023343327E+03 -0.21481738382E+03 -0.47137564272E+03  0.75402992556E+03  0.91473828402E+02 0.  0.
        254    2    1    2    0    0  0.54023343327E+03  0.21481738382E+03  0.12049076145E+04  0.16135528806E+04  0.90208196313E+03 0.  0.
        -24    2    4    4    0    0  0.30700723339E+02 -0.21049328004E+03 -0.93330121872E+01  0.22746064257E+03  0.80008021113E+02 0.  0.
         24    2    4    4    0    0  0.50953270993E+03  0.42531066387E+03  0.12142406267E+04  0.13860922380E+04  0.79741140931E+02 0.  0.
         11    1    3    3    0    0 -0.10983099046E+03 -0.27864966161E+02 -0.13723251874E+03  0.17796647720E+03  0.00000000000E+00 0. -1.
        -11    1    3    3    0    0 -0.43040244281E+03 -0.18695241766E+03 -0.33414312397E+03  0.57606344837E+03  0.00000000000E+00 0.  1.
          4    1    6    6  502    0  0.49359796174E+03  0.41983108601E+03  0.12010058913E+04  0.13646656145E+04  0.00000000000E+00 0. -1.
          1    1    5    5  503    0  0.45445857237E+02 -0.20663939115E+03 -0.12296173975E+02  0.21193480085E+03  0.00000000000E+00 0. -1.
         -4    1    5    5    0  503 -0.14745133898E+02 -0.38538888912E+01  0.29631617883E+01  0.15525841717E+02  0.00000000000E+00 0.  1.
         -3    1    6    6    0  502  0.15934748189E+02  0.54795778585E+01  0.13234735422E+02  0.21426623511E+02  0.00000000000E+00 0.  1.
<mgrwt>
<rscale>  0 0.22510840E+04</rscale>
<asrwt>0</asrwt>
<pdfrwt beam="1">  1        4 0.23854729E+00 0.22510840E+04</pdfrwt>
<pdfrwt beam="2">  1       -4 0.12569622E+00 0.22510840E+04</pdfrwt>
<totfact> 0.63804505E-02</totfact>
</mgrwt>
</event>
<event>
12    1  0.1495204E-007  0.2463331E+04  0.7818608E-02  0.8416167E-01
         -2   -1    0    0    0  501 -0.00000000000E+00  0.00000000000E+00  0.14627021569E+04  0.14627021569E+04  0.00000000000E+00 0.  1.
          2   -1    0    0  501    0  0.00000000000E+00 -0.00000000000E+00 -0.10371218415E+04  0.10371218415E+04  0.00000000000E+00 0. -1.
         23    2    1    2    0    0  0.34704466333E+01  0.74175072716E+03  0.91013063787E+03  0.11776425771E+04  0.91093777140E+02 0.  0.
        254    2    1    2    0    0 -0.34704466333E+01 -0.74175072716E+03 -0.48455032248E+03  0.13221814213E+04  0.98141148886E+03 0.  0.
        -24    2    4    4    0    0 -0.10889285403E+02  0.16580525591E+03  0.12765503126E+03  0.22442940815E+03  0.80391497162E+02 0.  0.
         24    2    4    4    0    0  0.74188387701E+01 -0.90755598307E+03 -0.61220535374E+03  0.10977520131E+04  0.80939394397E+02 0.  0.
         13    1    3    3    0    0 -0.22262029433E+02  0.45483153493E+03  0.49797469540E+03  0.67479339089E+03  0.00000000000E+00 0.  1.
        -13    1    3    3    0    0  0.25732476066E+02  0.28691919223E+03  0.41215594246E+03  0.50284918624E+03  0.00000000000E+00 0. -1.
          4    1    6    6  502    0 -0.23934298593E+02 -0.72739902736E+03 -0.47404535301E+03  0.86856271643E+03  0.00000000000E+00 0. -1.
          1    1    5    5  503    0 -0.41666107139E+02  0.64966233984E+02  0.37974944520E+02  0.86016117405E+02  0.00000000000E+00 0. -1.
         -2    1    5    5    0  503  0.30776821736E+02  0.10083902192E+03  0.89680086737E+02  0.13841329075E+03  0.00000000000E+00 0.  1.
         -3    1    6    6    0  502  0.31353137363E+02 -0.18015695570E+03 -0.13816000073E+03  0.22918929668E+03  0.00000000000E+00 0.  1.
<mgrwt>
<rscale>  0 0.24633314E+04</rscale>
<asrwt>0</asrwt>
<pdfrwt beam="1">  1        2 0.15955721E+00 0.24633314E+04</pdfrwt>
<pdfrwt beam="2">  1       -2 0.22503110E+00 0.24633314E+04</pdfrwt>
<totfact> 0.19597043E+00</totfact>
</mgrwt>
</event>
<event>
12    1  0.1495204E-007  0.1507320E+04  0.7818608E-02  0.8879599E-01
          1   -1    0    0  501    0  0.00000000000E+00  0.00000000000E+00  0.69259537196E+03  0.69259537196E+03  0.00000000000E+00 0. -1.
         -1   -1    0    0    0  501 -0.00000000000E+00 -0.00000000000E+00 -0.82010901029E+03  0.82010901029E+03  0.00000000000E+00 0.  1.
         23    2    1    2    0    0 -0.70359864544E+02  0.15594120114E+03 -0.49945528454E+03  0.53558148147E+03  0.90131977049E+02 0.  0.
        254    2    1    2    0    0  0.70359864544E+02 -0.15594120114E+03  0.37194164622E+03  0.97712290078E+03  0.88722060744E+03 0.  0.
        -24    2    4    4    0    0  0.17451272469E+03 -0.38070943560E+03 -0.99690797281E+02  0.43841968267E+03  0.82940928719E+02 0.  0.
         24    2    4    4    0    0 -0.10415286015E+03  0.22476823446E+03  0.47163244350E+03  0.53870321810E+03  0.79971356955E+02 0.  0.
         11    1    3    3    0    0 -0.38560192289E+02  0.12778204162E+03 -0.45467342015E+03  0.47385974463E+03  0.00000000000E+00 0.  1.
        -11    1    3    3    0    0 -0.31799672255E+02  0.28159159521E+02 -0.44781864396E+02  0.61721736846E+02  0.00000000000E+00 0. -1.
          4    1    6    6  502    0 -0.73093293610E+02  0.16008026442E+03  0.24986738197E+03  0.30561745565E+03  0.00000000000E+00 0. -1.
          3    1    5    5  503    0  0.15608118002E+03 -0.33469193984E+03 -0.11457486976E+03  0.38666190674E+03  0.00000000000E+00 0. -1.
         -4    1    5    5    0  503  0.18431544677E+02 -0.46017495764E+02  0.14884072476E+02  0.51757775929E+02  0.00000000000E+00 0.  1.
         -3    1    6    6    0  502 -0.31059566542E+02  0.64687970040E+02  0.22176506153E+03  0.23308576245E+03  0.00000000000E+00 0.  1.
<mgrwt>
<rscale>  0 0.15073204E+04</rscale>
<asrwt>0</asrwt>
<pdfrwt beam="1">  1        1 0.10655313E+00 0.15073204E+04</pdfrwt>
<pdfrwt beam="2">  1       -1 0.12617062E+00 0.15073204E+04</pdfrwt>
<totfact> 0.14639807E+01</totfact>
</mgrwt>
</event>
<event>
12    1  0.1495204E-007  0.1556769E+04  0.7818608E-02  0.8847556E-01
         -2   -1    0    0    0  501 -0.00000000000E+00  0.00000000000E+00  0.21899312590E+03  0.21899312590E+03  0.00000000000E+00 0. -1.
          2   -1    0    0  501    0  0.00000000000E+00 -0.00000000000E+00 -0.27666724623E+04  0.27666724623E+04  0.00000000000E+00 0.  1.
         23    2    1    2    0    0 -0.52377550392E+02  0.74786907847E+02  0.11517544470E+03  0.17532685491E+03  0.95590970396E+02 0.  0.
        254    2    1    2    0    0  0.52377550392E+02 -0.74786907847E+02 -0.26628547811E+04  0.28103387333E+04  0.89379624145E+03 0.  0.
        -24    2    4    4    0    0 -0.91416760799E+02  0.82245960688E+02 -0.25530849871E+04  0.25572121987E+04  0.77264839297E+02 0.  0.
         24    2    4    4    0    0  0.14379431119E+03 -0.15703286854E+03 -0.10976979402E+03  0.25312653465E+03  0.81777192012E+02 0.  0.
         11    1    3    3    0    0 -0.50354868651E+02  0.86292824389E+02  0.55041289194E+02  0.11406843496E+03  0.00000000000E+00 0. -1.
        -11    1    3    3    0    0 -0.20226817409E+01 -0.11505916542E+02  0.60134155502E+02  0.61258419951E+02  0.00000000000E+00 0.  1.
          2    1    6    6  502    0 -0.68500469614E+01 -0.64005574681E+01  0.55370688098E+01  0.10888039781E+02  0.00000000000E+00 0. -1.
          3    1    5    5  503    0  0.95588879001E+01 -0.23065324885E+01 -0.76729468282E+02  0.77356988908E+02  0.00000000000E+00 0. -1.
         -4    1    5    5    0  503 -0.10097564870E+03  0.84552493177E+02 -0.24763555188E+04  0.24798552097E+04  0.00000000000E+00 0.  1.
         -1    1    6    6    0  502  0.15064435815E+03 -0.15063231107E+03 -0.11530686282E+03  0.24223849487E+03  0.00000000000E+00 0.  1.
<mgrwt>
<rscale>  0 0.15567688E+04</rscale>
<asrwt>0</asrwt>
<pdfrwt beam="1">  1        2 0.42564191E+00 0.15567688E+04</pdfrwt>
<pdfrwt beam="2">  1       -2 0.33691251E-01 0.15567688E+04</pdfrwt>
<totfact> 0.19282973E+01</totfact>
</mgrwt>
</event>
<event>
12    1  0.1495204E-007  0.1336675E+04  0.7818608E-02  0.9000976E-01
          1   -1    0    0  501    0  0.00000000000E+00  0.00000000000E+00  0.31289349151E+04  0.31289349151E+04  0.00000000000E+00 0. -1.
         -1   -1    0    0    0  501 -0.00000000000E+00 -0.00000000000E+00 -0.14275630549E+03  0.14275630549E+03  0.00000000000E+00 0.  1.
         23    2    1    2    0    0  0.16424011845E+03 -0.17117230408E+03  0.14572300757E+04  0.14792498158E+04  0.91573740259E+02 0.  0.
        254    2    1    2    0    0 -0.16424011845E+03  0.17117230408E+03  0.15289485339E+04  0.17924414048E+04  0.90492419351E+03 0.  0.
        -24    2    4    4    0    0 -0.48937362370E+02  0.52616822705E+03  0.10654287331E+04  0.11919911300E+04  0.80352971926E+02 0.  0.
         24    2    4    4    0    0 -0.11530275608E+03 -0.35499592297E+03  0.46351980080E+03  0.60045027476E+03  0.79831671899E+02 0.  0.
         13    1    3    3    0    0  0.33325319402E+02 -0.78175902363E+01  0.40203536622E+03  0.40348993460E+03  0.00000000000E+00 0.  1.
        -13    1    3    3    0    0  0.13091479905E+03 -0.16335471385E+03  0.10551947094E+04  0.10757598812E+04  0.00000000000E+00 0. -1.
          4    1    6    6  502    0  0.11115539650E+01 -0.92464724975E+02  0.14080960562E+03  0.16845861792E+03  0.00000000000E+00 0. -1.
          1    1    5    5  503    0 -0.53931340028E+02  0.44589720769E+03  0.83826878125E+03  0.95101391098E+03  0.00000000000E+00 0. -1.
         -2    1    5    5    0  503  0.49939776589E+01  0.80271019364E+02  0.22715995188E+03  0.24097721905E+03  0.00000000000E+00 0.  1.
         -1    1    6    6    0  502 -0.11641431005E+03 -0.26253119800E+03  0.32271019518E+03  0.43199165684E+03  0.00000000000E+00 0.  1.
<mgrwt>
<rscale>  0 0.13366753E+04</rscale>
<asrwt>0</asrwt>
<pdfrwt beam="1">  1        1 0.48137455E+00 0.13366753E+04</pdfrwt>
<pdfrwt beam="2">  1       -1 0.21962511E-01 0.13366753E+04</pdfrwt>
<totfact> 0.83122942E+00</totfact>
</mgrwt>
</event>
<event>
12    1  0.1495204E-007  0.1672226E+04  0.7818608E-02  0.8777366E-01
          1   -1    0    0  501    0  0.00000000000E+00  0.00000000000E+00  0.23948035069E+04  0.23948035069E+04  0.00000000000E+00 0. -1.
         -1   -1    0    0    0  501 -0.00000000000E+00 -0.00000000000E+00 -0.29191732222E+03  0.29191732222E+03  0.00000000000E+00 0.  1.
         23    2    1    2    0    0 -0.44553071782E+02  0.50597845028E+03  0.12353479669E+04  0.13387560397E+04  0.90465275509E+02 0.  0.
        254    2    1    2    0    0  0.44553071782E+02 -0.50597845028E+03  0.86753821773E+03  0.13479647894E+04  0.89799072706E+03 0.  0.
        -24    2    4    4    0    0  0.23405646978E+03 -0.50258954162E+03  0.12017851395E+03  0.57280167953E+03  0.79247778944E+02 0.  0.
         24    2    4    4    0    0 -0.18950339800E+03 -0.33889086650E+01  0.74735970378E+03  0.77516310987E+03  0.80051842686E+02 0.  0.
         13    1    3    3    0    0  0.15827671771E+02  0.14012631435E+03  0.42027126225E+03  0.44329880785E+03  0.00000000000E+00 0.  1.
        -13    1    3    3    0    0 -0.60380743553E+02  0.36585213593E+03  0.81507670466E+03  0.89545723183E+03  0.00000000000E+00 0. -1.
          2    1    6    6  502    0 -0.13773904659E+03 -0.34264000862E+02  0.45377988470E+03  0.47546004088E+03  0.00000000000E+00 0. -1.
          1    1    5    5  503    0  0.21125035637E+03 -0.43263145195E+03  0.77243492199E+02  0.48760972444E+03  0.00000000000E+00 0. -1.
         -2    1    5    5    0  503  0.22806113406E+02 -0.69958089668E+02  0.42935021753E+02  0.85191955087E+02  0.00000000000E+00 0.  1.
         -1    1    6    6    0  502 -0.51764351404E+02  0.30875092197E+02  0.29357981908E+03  0.29970306899E+03  0.00000000000E+00 0.  1.
<mgrwt>
<rscale>  0 0.16722256E+04</rscale>
<asrwt>0</asrwt>
<pdfrwt beam="1">  1        1 0.36843130E+00 0.16722256E+04</pdfrwt>
<pdfrwt beam="2">  1       -1 0.44910359E-01 0.16722256E+04</pdfrwt>
<totfact> 0.75203183E+00</totfact>
</mgrwt>
</event>
<event>
12    1  0.1495204E-007  0.2112711E+04  0.7818608E-02  0.8555665E-01
         -1   -1    0    0    0  501 -0.00000000000E+00  0.00000000000E+00  0.53788807306E+03  0.53788807306E+03  0.00000000000E+00 0.  1.
          1   -1    0    0  501    0  0.00000000000E+00 -0.00000000000E+00 -0.20745708972E+04  0.20745708972E+04  0.00000000000E+00 0. -1.
         23    2    1    2    0    0  0.36728789737E+03 -0.50834939969E+03  0.10063020967E+03  0.64179126083E+03  0.91924271318E+02 0.  0.
        254    2    1    2    0    0 -0.36728789737E+03  0.50834939969E+03 -0.16373130338E+04  0.19706677095E+04  0.89967646332E+03 0.  0.
        -24    2    4    4    0    0 -0.18448946857E+03 -0.17520267822E+03 -0.92423958482E+03  0.96284302579E+03  0.90086290332E+02 0.  0.
         24    2    4    4    0    0 -0.18279842879E+03  0.68355207792E+03 -0.71307344901E+03  0.10078246837E+04  0.81105736722E+02 0.  0.
         13    1    3    3    0    0  0.27327370911E+03 -0.30801745500E+03  0.80685494998E+02  0.41959912033E+03  0.00000000000E+00 0.  1.
        -13    1    3    3    0    0  0.94014188257E+02 -0.20033194469E+03  0.19944714671E+02  0.22219214050E+03  0.00000000000E+00 0. -1.
          2    1    6    6  502    0 -0.12235056052E+03  0.45422986878E+03 -0.41834478394E+03  0.62952902364E+03  0.00000000000E+00 0. -1.
          3    1    5    5  503    0 -0.12104780909E+03 -0.15700573343E+03 -0.76925391967E+03  0.79438968104E+03  0.00000000000E+00 0. -1.
         -4    1    5    5    0  503 -0.63441659480E+02 -0.18196944791E+02 -0.15498566515E+03  0.16845334475E+03  0.00000000000E+00 0.  1.
         -1    1    6    6    0  502 -0.60447868274E+02  0.22932220913E+03 -0.29472866508E+03  0.37829566003E+03  0.00000000000E+00 0.  1.
<mgrwt>
<rscale>  0 0.21127110E+04</rscale>
<asrwt>0</asrwt>
<pdfrwt beam="1">  1        1 0.31916476E+00 0.21127110E+04</pdfrwt>
<pdfrwt beam="2">  1       -1 0.82752010E-01 0.21127110E+04</pdfrwt>
<totfact> 0.35341286E+00</totfact>
</mgrwt>
</event>
<event>
12    1  0.1495204E-007  0.1486506E+04  0.7818608E-02  0.8893476E-01
         -1   -1    0    0    0  501 -0.00000000000E+00  0.00000000000E+00  0.79656180599E+03  0.79656180599E+03  0.00000000000E+00 0.  1.
          1   -1    0    0  501    0  0.00000000000E+00 -0.00000000000E+00 -0.69351158441E+03  0.69351158441E+03  0.00000000000E+00 0. -1.
         23    2    1    2    0    0  0.36338730962E+03 -0.21580452426E+03  0.20605623052E+03  0.47873008738E+03  0.90007760449E+02 0.  0.
        254    2    1    2    0    0 -0.36338730962E+03  0.21580452426E+03 -0.10300600894E+03  0.10113433030E+04  0.91300772681E+03 0.  0.
        -24    2    4    4    0    0 -0.51682080503E+03  0.45355404433E+03  0.19843262575E+02  0.69251922714E+03  0.79838018841E+02 0.  0.
         24    2    4    4    0    0  0.15343349540E+03 -0.23774952007E+03 -0.12284927151E+03  0.31882407588E+03  0.80561628847E+02 0.  0.
         13    1    3    3    0    0  0.41847712991E+02 -0.73117453403E+01  0.48262143215E+02  0.64295623258E+02  0.00000000000E+00 0. -1.
        -13    1    3    3    0    0  0.32153959663E+03 -0.20849277892E+03  0.15779408731E+03  0.41443446412E+03  0.00000000000E+00 0.  1.
          2    1    6    6  502    0  0.10807166902E+03 -0.22007081576E+03 -0.10814979887E+03  0.26796833505E+03  0.00000000000E+00 0. -1.
          1    1    5    5  503    0 -0.48500609877E+03  0.44464564635E+03  0.27679572582E+02  0.65856421509E+03  0.00000000000E+00 0. -1.
         -2    1    5    5    0  503 -0.31814706260E+02  0.89083979874E+01 -0.78363100075E+01  0.33955012055E+02  0.00000000000E+00 0.  1.
         -1    1    6    6    0  502  0.45361826387E+02 -0.17678704312E+02 -0.14699472642E+02  0.50855740829E+02  0.00000000000E+00 0.  1.
<mgrwt>
<rscale>  0 0.14865058E+04</rscale>
<asrwt>0</asrwt>
<pdfrwt beam="1">  1        1 0.10669409E+00 0.14865058E+04</pdfrwt>
<pdfrwt beam="2">  1       -1 0.12254797E+00 0.14865058E+04</pdfrwt>
<totfact> 0.15735386E+01</totfact>
</mgrwt>
</event>
<event>
12    1  0.1495204E-007  0.1984677E+04  0.7818608E-02  0.8613818E-01
          1   -1    0    0  501    0  0.00000000000E+00  0.00000000000E+00  0.62244565918E+03  0.62244565918E+03  0.00000000000E+00 0. -1.
         -1   -1    0    0    0  501 -0.00000000000E+00 -0.00000000000E+00 -0.15820435463E+04  0.15820435463E+04  0.00000000000E+00 0.  1.
         23    2    1    2    0    0 -0.27327106902E+03 -0.70745462288E+02 -0.12025578360E+04  0.12386286336E+04  0.91507078619E+02 0.  0.
        254    2    1    2    0    0  0.27327106902E+03  0.70745462288E+02  0.24295994880E+03  0.96586057197E+03  0.89116502970E+03 0.  0.
        -24    2    4    4    0    0 -0.12531661899E+03  0.42533898915E+01 -0.26933603624E+03  0.30803617952E+03  0.81375924916E+02 0.  0.
         24    2    4    4    0    0  0.39858768801E+03  0.66492072397E+02  0.51229598505E+03  0.65782439245E+03  0.83620656995E+02 0.  0.
         11    1    3    3    0    0 -0.21410253009E+03 -0.15457519374E+02 -0.91875830650E+03  0.94350180395E+03  0.00000000000E+00 0.  1.
        -11    1    3    3    0    0 -0.59168538937E+02 -0.55287942915E+02 -0.28379952946E+03  0.29512682961E+03  0.00000000000E+00 0. -1.
          2    1    6    6  502    0  0.10509588356E+03  0.26244547979E+02  0.19950921287E+03  0.22701948608E+03  0.00000000000E+00 0. -1.
          3    1    5    5  503    0 -0.92435145808E+01 -0.24752444446E+02 -0.78196291207E+02  0.82539602776E+02  0.00000000000E+00 0. -1.
         -4    1    5    5    0  503 -0.11607310441E+03  0.29005834337E+02 -0.19113974503E+03  0.22549657675E+03  0.00000000000E+00 0.  1.
         -1    1    6    6    0  502  0.29349180445E+03  0.40247524418E+02  0.31278677218E+03  0.43080490637E+03  0.00000000000E+00 0.  1.
<mgrwt>
<rscale>  0 0.19846774E+04</rscale>
<asrwt>0</asrwt>
<pdfrwt beam="1">  1        1 0.95760870E-01 0.19846774E+04</pdfrwt>
<pdfrwt beam="2">  1       -1 0.24339132E+00 0.19846774E+04</pdfrwt>
<totfact> 0.23225278E+00</totfact>
</mgrwt>
</event>
<event>
12    1  0.1999710E-007  0.1937585E+04  0.7818608E-02  0.8636371E-01
         -1   -1    0    0    0  501 -0.00000000000E+00  0.00000000000E+00  0.45988644382E+03  0.45988644382E+03  0.00000000000E+00 0.  1.
          1   -1    0    0  501    0  0.00000000000E+00 -0.00000000000E+00 -0.20408496182E+04  0.20408496182E+04  0.00000000000E+00 0. -1.
         23    2    1    2    0    0 -0.47009624279E+02  0.93704966299E+02  0.34525790742E+03  0.37197456342E+03  0.90396502745E+02 0.  0.
        254    2    1    2    0    0  0.47009624279E+02 -0.93704966299E+02 -0.19262210818E+04  0.21287614986E+04  0.90017072628E+03 0.  0.
        -24    2    4    4    0    0 -0.33186403088E+03  0.16228615902E+03 -0.12688538939E+04  0.13240470540E+04  0.81485364999E+02 0.  0.
         24    2    4    4    0    0  0.37887365516E+03 -0.25599112532E+03 -0.65736718790E+03  0.80471444461E+03  0.79730889949E+02 0.  0.
         11    1    3    3    0    0 -0.31266744579E+02  0.10152906737E+03  0.33539364577E+03  0.35181622825E+03  0.00000000000E+00 0.  1.
        -11    1    3    3    0    0 -0.15742879700E+02 -0.78241010698E+01  0.98642616523E+01  0.20158335168E+02  0.00000000000E+00 0. -1.
          2    1    6    6  502    0 -0.36434274017E+01  0.81114492787E-01 -0.74615492293E+01  0.83039665036E+01  0.00000000000E+00 0. -1.
          3    1    5    5  503    0 -0.29722036589E+02  0.18842552781E+02 -0.57927391665E+02  0.67779229558E+02  0.00000000000E+00 0. -1.
         -4    1    5    5    0  503 -0.30214199430E+03  0.14344360624E+03 -0.12109265023E+04  0.12562678245E+04  0.00000000000E+00 0.  1.
         -1    1    6    6    0  502  0.38251708257E+03 -0.25607223981E+03 -0.64990563867E+03  0.79641047810E+03  0.00000000000E+00 0.  1.
<mgrwt>
<rscale>  0 0.19375852E+04</rscale>
<asrwt>0</asrwt>
<pdfrwt beam="1">  1        1 0.31397687E+00 0.19375852E+04</pdfrwt>
<pdfrwt beam="2">  1       -1 0.70751760E-01 0.19375852E+04</pdfrwt>
<totfact> 0.52622886E+00</totfact>
</mgrwt>
</event>
<event>
12    1  0.1495204E-007  0.1073812E+04  0.7818608E-02  0.9231100E-01
          2   -1    0    0  501    0  0.00000000000E+00  0.00000000000E+00  0.44174264832E+03  0.44174264832E+03  0.00000000000E+00 0. -1.
         -2   -1    0    0    0  501 -0.00000000000E+00 -0.00000000000E+00 -0.65256960546E+03  0.65256960546E+03  0.00000000000E+00 0.  1.
         23    2    1    2    0    0  0.37483759014E+02  0.68906093556E+02  0.81512962599E+02  0.14437491334E+03  0.89703236342E+02 0.  0.
        254    2    1    2    0    0 -0.37483759014E+02 -0.68906093556E+02 -0.29233991973E+03  0.94993734044E+03  0.90042503306E+03 0.  0.
        -24    2    4    4    0    0 -0.23352542565E+03 -0.25462213916E+03  0.18156001266E+03  0.39837479937E+03  0.79824084078E+02 0.  0.
         24    2    4    4    0    0  0.19604166664E+03  0.18571604561E+03 -0.47389993239E+03  0.55156254107E+03  0.81959173588E+02 0.  0.
         13    1    3    3    0    0  0.89755648038E+01  0.85557379988E+02  0.55957430612E+02  0.10262485116E+03  0.00000000000E+00 0. -1.
        -13    1    3    3    0    0  0.28508194211E+02 -0.16651286432E+02  0.25555531987E+02  0.41750062181E+02  0.00000000000E+00 0.  1.
          2    1    6    6  502    0  0.20353154724E+03  0.17160049875E+03 -0.44605940248E+03  0.51946204138E+03  0.00000000000E+00 0. -1.
          1    1    5    5  503    0 -0.20188379219E+03 -0.18990730468E+03  0.11426956760E+03  0.29979890593E+03  0.00000000000E+00 0. -1.
         -2    1    5    5    0  503 -0.31641633461E+02 -0.64714834487E+02  0.67290445060E+02  0.98575893438E+02  0.00000000000E+00 0.  1.
         -1    1    6    6    0  502 -0.74898806027E+01  0.14115546858E+02 -0.27840529908E+02  0.32100499686E+02  0.00000000000E+00 0.  1.
<mgrwt>
<rscale>  0 0.10738116E+04</rscale>
<asrwt>0</asrwt>
<pdfrwt beam="1">  1        2 0.67960408E-01 0.10738116E+04</pdfrwt>
<pdfrwt beam="2">  1       -2 0.10039532E+00 0.10738116E+04</pdfrwt>
<totfact> 0.57817207E+01</totfact>
</mgrwt>
</event>
<event>
12    1  0.1495204E-007  0.1186489E+04  0.7818608E-02  0.9124765E-01
          1   -1    0    0  501    0  0.00000000000E+00  0.00000000000E+00  0.21123906259E+04  0.21123906259E+04  0.00000000000E+00 0. -1.
         -1   -1    0    0    0  501 -0.00000000000E+00 -0.00000000000E+00 -0.16660704165E+03  0.16660704165E+03  0.00000000000E+00 0.  1.
         23    2    1    2    0    0  0.52126074063E+02  0.17743154565E+03  0.13436551294E+03  0.24642814811E+03  0.92052485715E+02 0.  0.
        254    2    1    2    0    0 -0.52126074063E+02 -0.17743154565E+03  0.18114180713E+04  0.20325695195E+04  0.90327423371E+03 0.  0.
        -24    2    4    4    0    0 -0.46728663224E+02 -0.53480327177E+03  0.91018764070E+03  0.10597808403E+04  0.80596406179E+02 0.  0.
         24    2    4    4    0    0 -0.53974108386E+01  0.35737172612E+03  0.90123043064E+03  0.97278867918E+03  0.79736080639E+02 0.  0.
         11    1    3    3    0    0  0.62629317229E+01  0.78090745194E+02  0.10878995591E+03  0.13406208750E+03  0.00000000000E+00 0. -1.
        -11    1    3    3    0    0  0.45863142340E+02  0.99340800453E+02  0.25575557035E+02  0.11236606061E+03  0.00000000000E+00 0.  1.
          2    1    6    6  502    0  0.36643572786E+02  0.13486496627E+03  0.34302587642E+03  0.37040256809E+03  0.00000000000E+00 0. -1.
          1    1    5    5  503    0 -0.35598285061E+02 -0.98647213456E+02  0.21115687108E+03  0.23576627161E+03  0.00000000000E+00 0. -1.
         -2    1    5    5    0  503 -0.11130378164E+02 -0.43615605831E+03  0.69903076961E+03  0.82401456867E+03  0.00000000000E+00 0.  1.
         -1    1    6    6    0  502 -0.42040983624E+02  0.22250675984E+03  0.55820455422E+03  0.60238611109E+03  0.00000000000E+00 0.  1.
<mgrwt>
<rscale>  0 0.11864892E+04</rscale>
<asrwt>0</asrwt>
<pdfrwt beam="1">  1        1 0.32498315E+00 0.11864892E+04</pdfrwt>
<pdfrwt beam="2">  1       -1 0.25631854E-01 0.11864892E+04</pdfrwt>
<totfact> 0.33320542E+01</totfact>
</mgrwt>
</event>
<event>
12    1  0.1495204E-007  0.1488463E+04  0.7818608E-02  0.8892162E-01
         -2   -1    0    0    0  501 -0.00000000000E+00  0.00000000000E+00  0.33584054508E+03  0.33584054508E+03  0.00000000000E+00 0.  1.
          2   -1    0    0  501    0  0.00000000000E+00 -0.00000000000E+00 -0.16492356764E+04  0.16492356764E+04  0.00000000000E+00 0. -1.
         23    2    1    2    0    0 -0.16157542573E+03  0.16318707178E+03 -0.96023522102E+03  0.99155229681E+03  0.91584054466E+02 0.  0.
        254    2    1    2    0    0  0.16157542573E+03 -0.16318707178E+03 -0.35315991030E+03  0.99352392467E+03  0.89979510338E+03 0.  0.
        -24    2    4    4    0    0  0.35278608844E+03 -0.11862378888E+03 -0.57355147928E+03  0.68818500269E+03  0.78151590271E+02 0.  0.
         24    2    4    4    0    0 -0.19121066270E+03 -0.44563282899E+02  0.22039156897E+03  0.30533892199E+03  0.78179344395E+02 0.  0.
         13    1    3    3    0    0 -0.15274974858E+03  0.11538266436E+03 -0.84628910161E+03  0.86766980380E+03  0.00000000000E+00 0. -1.
        -13    1    3    3    0    0 -0.88256771467E+01  0.47804407421E+02 -0.11394611941E+03  0.12388249301E+03  0.00000000000E+00 0.  1.
          2    1    6    6  502    0 -0.82219320000E+02 -0.56512019013E+02  0.84605716863E+02  0.13081189625E+03  0.00000000000E+00 0. -1.
          1    1    5    5  503    0  0.78745272249E+02 -0.38133159554E+02 -0.83317906262E+02  0.12081733842E+03  0.00000000000E+00 0. -1.
         -2    1    5    5    0  503  0.27404081619E+03 -0.80490629328E+02 -0.49023357301E+03  0.56736766427E+03  0.00000000000E+00 0.  1.
         -1    1    6    6    0  502 -0.10899134271E+03  0.11948736114E+02  0.13578585211E+03  0.17452702574E+03  0.00000000000E+00 0.  1.
<mgrwt>
<rscale>  0 0.14884626E+04</rscale>
<asrwt>0</asrwt>
<pdfrwt beam="1">  1        2 0.25372856E+00 0.14884626E+04</pdfrwt>
<pdfrwt beam="2">  1       -2 0.51667777E-01 0.14884626E+04</pdfrwt>
<totfact> 0.35807214E+01</totfact>
</mgrwt>
</event>
<event>
12    1  0.1495204E-007  0.1515192E+04  0.7818608E-02  0.8874413E-01
         -2   -1    0    0    0  501 -0.00000000000E+00  0.00000000000E+00  0.27433200002E+03  0.27433200002E+03  0.00000000000E+00 0.  1.
          2   -1    0    0  501    0  0.00000000000E+00 -0.00000000000E+00 -0.20921799207E+04  0.20921799207E+04  0.00000000000E+00 0. -1.
         23    2    1    2    0    0  0.47022899480E+03 -0.10264871583E+03 -0.46892883396E+03  0.67831218833E+03  0.92526250913E+02 0.  0.
        254    2    1    2    0    0 -0.47022899480E+03  0.10264871583E+03 -0.13489190868E+04  0.16881997324E+04  0.89374692590E+03 0.  0.
        -24    2    4    4    0    0 -0.12308870013E+03 -0.10273798905E+03 -0.12534472997E+04  0.12660724111E+04  0.78123584638E+02 0.  0.
         24    2    4    4    0    0 -0.34714029466E+03  0.20538670488E+03 -0.95471787020E+02  0.42212732131E+03  0.79915771669E+02 0.  0.
         13    1    3    3    0    0  0.22355296208E+03 -0.21957266641E+02 -0.16542087494E+03  0.27896615257E+03  0.00000000000E+00 0.  1.
        -13    1    3    3    0    0  0.24667603272E+03 -0.80691449187E+02 -0.30350795903E+03  0.39934603576E+03  0.00000000000E+00 0. -1.
          2    1    6    6  502    0 -0.12007542983E+03  0.65332884640E+02 -0.71501099700E+02  0.15426892727E+03  0.00000000000E+00 0. -1.
          3    1    5    5  503    0  0.80560201342E+01  0.33088538187E+01 -0.97193049167E+02  0.97582461438E+02  0.00000000000E+00 0. -1.
         -4    1    5    5    0  503 -0.13114472027E+03 -0.10604684287E+03 -0.11562542506E+04  0.11684899497E+04  0.00000000000E+00 0.  1.
         -1    1    6    6    0  502 -0.22706486484E+03  0.14005382024E+03 -0.23970687319E+02  0.26785839404E+03  0.00000000000E+00 0.  1.
<mgrwt>
<rscale>  0 0.15151923E+04</rscale>
<asrwt>0</asrwt>
<pdfrwt beam="1">  1        2 0.32187382E+00 0.15151923E+04</pdfrwt>
<pdfrwt beam="2">  1       -2 0.42204924E-01 0.15151923E+04</pdfrwt>
<totfact> 0.30498338E+01</totfact>
</mgrwt>
</event>
<event>
12    1  0.1495204E-007  0.1355588E+04  0.7818608E-02  0.8986609E-01
          1   -1    0    0  501    0  0.00000000000E+00  0.00000000000E+00  0.17587687822E+04  0.17587687822E+04  0.00000000000E+00 0. -1.
         -1   -1    0    0    0  501 -0.00000000000E+00 -0.00000000000E+00 -0.26120808399E+03  0.26120808399E+03  0.00000000000E+00 0.  1.
         23    2    1    2    0    0  0.33279945637E+03 -0.10431320818E+03  0.22854547994E+03  0.42683348611E+03  0.91197943534E+02 0.  0.
        254    2    1    2    0    0 -0.33279945637E+03  0.10431320818E+03  0.12690152183E+04  0.15931433801E+04  0.89781372327E+03 0.  0.
        -24    2    4    4    0    0 -0.42634233045E+03  0.17490272689E+03  0.18870289720E+03  0.50415583340E+03  0.78775467819E+02 0.  0.
         24    2    4    4    0    0  0.93542874079E+02 -0.70589518715E+02  0.10803123210E+04  0.10889875466E+04  0.71316311680E+02 0.  0.
         13    1    3    3    0    0  0.16005977076E+03 -0.78306740203E+01  0.78072681652E+02  0.17825765984E+03  0.00000000000E+00 0.  1.
        -13    1    3    3    0    0  0.17273968561E+03 -0.96482534159E+02  0.15047279829E+03  0.24857582627E+03  0.00000000000E+00 0. -1.
          2    1    6    6  502    0  0.79907294486E+02 -0.17304791455E+02  0.68702870482E+03  0.69187648664E+03  0.00000000000E+00 0. -1.
          3    1    5    5  503    0 -0.20830446321E+03  0.95841946142E+02  0.52636113376E+02  0.23525940675E+03  0.00000000000E+00 0. -1.
         -4    1    5    5    0  503 -0.21803786724E+03  0.79060780752E+02  0.13606678383E+03  0.26889642665E+03  0.00000000000E+00 0.  1.
         -1    1    6    6    0  502  0.13635579592E+02 -0.53284727260E+02  0.39328361623E+03  0.39711106001E+03  0.00000000000E+00 0.  1.
<mgrwt>
<rscale>  0 0.13555879E+04</rscale>
<asrwt>0</asrwt>
<pdfrwt beam="1">  1        1 0.27057980E+00 0.13555879E+04</pdfrwt>
<pdfrwt beam="2">  1       -1 0.40185860E-01 0.13555879E+04</pdfrwt>
<totfact> 0.25687397E+01</totfact>
</mgrwt>
</event>
<event>
12    1  0.1495204E-007  0.1705631E+04  0.7818608E-02  0.8758159E-01
          1   -1    0    0  501    0  0.00000000000E+00  0.00000000000E+00  0.11417337102E+04  0.11417337102E+04  0.00000000000E+00 0. -1.
         -1   -1    0    0    0  501 -0.00000000000E+00 -0.00000000000E+00 -0.63700851735E+03  0.63700851735E+03  0.00000000000E+00 0.  1.
         23    2    1    2    0    0  0.33925215200E+03 -0.49456241686E+03  0.31604619132E+03  0.68394391340E+03  0.90609463188E+02 0.  0.
        254    2    1    2    0    0 -0.33925215200E+03  0.49456241686E+03  0.18867900149E+03  0.10947983141E+04  0.89626981216E+03 0.  0.
        -24    2    4    4    0    0  0.24804046751E+02 -0.11470973200E+03 -0.22692788979E+03  0.26817571717E+03  0.81537627883E+02 0.  0.
         24    2    4    4    0    0 -0.36405619875E+03  0.60927214886E+03  0.41560689128E+03  0.82662259695E+03  0.82621803959E+02 0.  0.
         13    1    3    3    0    0  0.33513076069E+03 -0.46891637199E+03  0.31731244392E+03  0.65793797409E+03  0.00000000000E+00 0.  1.
        -13    1    3    3    0    0  0.41213913047E+01 -0.25646044872E+02 -0.12662525927E+01  0.26005939312E+02  0.00000000000E+00 0. -1.
          2    1    6    6  502    0 -0.22570881382E+03  0.30176779785E+03  0.23496496787E+03  0.44409099133E+03  0.00000000000E+00 0. -1.
          1    1    5    5  503    0 -0.25311824806E+01 -0.11176207272E+03 -0.15447894096E+03  0.19068537170E+03  0.00000000000E+00 0. -1.
         -2    1    5    5    0  503  0.27335229232E+02 -0.29476592843E+01 -0.72448948838E+02  0.77490345464E+02  0.00000000000E+00 0.  1.
         -1    1    6    6    0  502 -0.13834738493E+03  0.30750435101E+03  0.18064192341E+03  0.38253160562E+03  0.00000000000E+00 0.  1.
<mgrwt>
<rscale>  0 0.17056308E+04</rscale>
<asrwt>0</asrwt>
<pdfrwt beam="1">  1        1 0.17565134E+00 0.17056308E+04</pdfrwt>
<pdfrwt beam="2">  1       -1 0.98001310E-01 0.17056308E+04</pdfrwt>
<totfact> 0.11201564E+01</totfact>
</mgrwt>
</event>
<event>
12    1  0.1495204E-007  0.1688342E+04  0.7818608E-02  0.8768042E-01
          2   -1    0    0  501    0  0.00000000000E+00  0.00000000000E+00  0.10866855421E+04  0.10866855421E+04  0.00000000000E+00 0. -1.
         -2   -1    0    0    0  501 -0.00000000000E+00 -0.00000000000E+00 -0.65577782839E+03  0.65577782839E+03  0.00000000000E+00 0.  1.
         23    2    1    2    0    0 -0.89533327578E+02  0.13647004752E+03  0.75546751442E+03  0.77821456801E+03  0.90810009900E+02 0.  0.
        254    2    1    2    0    0  0.89533327578E+02 -0.13647004752E+03 -0.32455980071E+03  0.96424880247E+03  0.89319449069E+03 0.  0.
        -24    2    4    4    0    0  0.16613526865E+03 -0.49365828115E+03 -0.24413594482E+03  0.58074054570E+03  0.79735787644E+02 0.  0.
         24    2    4    4    0    0 -0.76601941075E+02  0.35718823362E+03 -0.80423855893E+02  0.38350825677E+03  0.84612616068E+02 0.  0.
         13    1    3    3    0    0 -0.40451715324E+02  0.33788292778E+02  0.10100104265E+03  0.11392629467E+03  0.00000000000E+00 0.  1.
        -13    1    3    3    0    0 -0.49081612253E+02  0.10268175475E+03  0.65446647178E+03  0.66428827334E+03  0.00000000000E+00 0. -1.
          4    1    6    6  502    0 -0.31600125144E+01 -0.42926910807E+01 -0.43480960347E+01  0.68788672710E+01  0.00000000000E+00 0. -1.
          1    1    5    5  503    0  0.64156136898E+02 -0.29391711319E+03 -0.11584849367E+03  0.32237269241E+03  0.00000000000E+00 0. -1.
         -2    1    5    5    0  503  0.10197913175E+03 -0.19974116796E+03 -0.12828745115E+03  0.25836785329E+03  0.00000000000E+00 0.  1.
         -3    1    6    6    0  502 -0.73441928560E+02  0.36148092470E+03 -0.76075759859E+02  0.37662938950E+03  0.00000000000E+00 0.  1.
<mgrwt>
<rscale>  0 0.16883415E+04</rscale>
<asrwt>0</asrwt>
<pdfrwt beam="1">  1        2 0.16718239E+00 0.16883415E+04</pdfrwt>
<pdfrwt beam="2">  1       -2 0.10088890E+00 0.16883415E+04</pdfrwt>
<totfact> 0.17107105E+01</totfact>
</mgrwt>
</event>
<event>
12    1  0.1495204E-007  0.2279251E+04  0.7818608E-02  0.8486147E-01
         -1   -1    0    0    0  501 -0.00000000000E+00  0.00000000000E+00  0.51616416345E+03  0.51616416345E+03  0.00000000000E+00 0.  1.
          1   -1    0    0  501    0  0.00000000000E+00 -0.00000000000E+00 -0.25161506958E+04  0.25161506958E+04  0.00000000000E+00 0. -1.
         23    2    1    2    0    0 -0.27997487749E+03 -0.44503399457E+03 -0.19106842159E+04  0.19838313445E+04  0.91822886902E+02 0.  0.
        254    2    1    2    0    0  0.27997487749E+03  0.44503399457E+03 -0.89302316528E+02  0.10484835147E+04  0.90271899756E+03 0.  0.
        -24    2    4    4    0    0  0.54424802924E+03  0.46378991217E+03  0.80071260180E+02  0.72398985138E+03  0.80267666213E+02 0.  0.
         24    2    4    4    0    0 -0.26427315175E+03 -0.18755917601E+02 -0.16937357671E+03  0.32449366334E+03  0.80103969191E+02 0.  0.
         11    1    3    3    0    0 -0.20826259919E+03 -0.35735497990E+03 -0.16169840131E+04  0.16690455927E+04  0.00000000000E+00 0. -1.
        -11    1    3    3    0    0 -0.71712278301E+02 -0.87679014668E+02 -0.29370020277E+03  0.31478575187E+03  0.00000000000E+00 0.  1.
          4    1    6    6  502    0 -0.53757548197E-01 -0.10452174290E+02 -0.15272520024E+02  0.18506774575E+02  0.00000000000E+00 0. -1.
          1    1    5    5  503    0  0.75347002715E+02  0.31935679563E+02  0.15122730613E+02  0.83221123692E+02  0.00000000000E+00 0. -1.
         -2    1    5    5    0  503  0.46890102652E+03  0.43185423261E+03  0.64948529567E+02  0.64076872769E+03  0.00000000000E+00 0.  1.
         -3    1    6    6    0  502 -0.26421939420E+03 -0.83037433103E+01 -0.15410105668E+03  0.30598688876E+03  0.00000000000E+00 0.  1.
<mgrwt>
<rscale>  0 0.22792515E+04</rscale>
<asrwt>0</asrwt>
<pdfrwt beam="1">  1        1 0.38710010E+00 0.22792515E+04</pdfrwt>
<pdfrwt beam="2">  1       -1 0.79409872E-01 0.22792515E+04</pdfrwt>
<totfact> 0.18942641E+00</totfact>
</mgrwt>
</event>
<event>
12    1  0.1495204E-007  0.2041601E+04  0.7818608E-02  0.8587414E-01
          1   -1    0    0  501    0  0.00000000000E+00  0.00000000000E+00  0.82464397308E+03  0.82464397308E+03  0.00000000000E+00 0. -1.
         -1   -1    0    0    0  501 -0.00000000000E+00 -0.00000000000E+00 -0.12636166628E+04  0.12636166628E+04  0.00000000000E+00 0.  1.
         23    2    1    2    0    0  0.47782152809E+03  0.64365182722E+03 -0.35590969438E+03  0.88181773985E+03  0.91267345555E+02 0.  0.
        254    2    1    2    0    0 -0.47782152809E+03 -0.64365182722E+03 -0.83062995334E+02  0.12064428960E+04  0.89777720665E+03 0.  0.
        -24    2    4    4    0    0 -0.12747398020E+03 -0.20670083946E+03 -0.46052946745E+03  0.52637571072E+03  0.77518680210E+02 0.  0.
         24    2    4    4    0    0 -0.35034754789E+03 -0.43695098776E+03  0.37746647211E+03  0.68006718531E+03  0.79629573328E+02 0.  0.
         11    1    3    3    0    0  0.44410361553E+03  0.57467030368E+03 -0.29536480307E+03  0.78403720967E+03  0.00000000000E+00 0.  1.
        -11    1    3    3    0    0  0.33717912562E+02  0.68981523541E+02 -0.60544891314E+02  0.97780530177E+02  0.00000000000E+00 0. -1.
          4    1    6    6  502    0 -0.99121523395E+02 -0.15558276467E+03  0.86864251343E+02  0.20390309272E+03  0.00000000000E+00 0. -1.
          3    1    5    5  503    0 -0.42444740226E+02 -0.21772607914E+02 -0.12677708288E+03  0.13545490457E+03  0.00000000000E+00 0. -1.
         -2    1    5    5    0  503 -0.85029239975E+02 -0.18492823155E+03 -0.33375238457E+03  0.39092080615E+03  0.00000000000E+00 0.  1.
         -3    1    6    6    0  502 -0.25122602450E+03 -0.28136822309E+03  0.29060222077E+03  0.47616409258E+03  0.00000000000E+00 0.  1.
<mgrwt>
<rscale>  0 0.20416012E+04</rscale>
<asrwt>0</asrwt>
<pdfrwt beam="1">  1        1 0.12686830E+00 0.20416012E+04</pdfrwt>
<pdfrwt beam="2">  1       -1 0.19440256E+00 0.20416012E+04</pdfrwt>
<totfact> 0.32020472E+00</totfact>
</mgrwt>
</event>
<event>
12    1  0.1495204E-007  0.3365997E+04  0.7818608E-02  0.8146303E-01
         -2   -1    0    0    0  501 -0.00000000000E+00  0.00000000000E+00  0.16098270601E+04  0.16098270601E+04  0.00000000000E+00 0.  1.
          2   -1    0    0  501    0  0.00000000000E+00 -0.00000000000E+00 -0.17594959705E+04  0.17594959705E+04  0.00000000000E+00 0. -1.
         23    2    1    2    0    0 -0.31359286891E+02 -0.14651768982E+04  0.46517886528E+03  0.15402602054E+04  0.91013052313E+02 0.  0.
        254    2    1    2    0    0  0.31359286891E+02  0.14651768982E+04 -0.61484777565E+03  0.18290628252E+04  0.90537632139E+03 0.  0.
        -24    2    4    4    0    0 -0.28516573450E+03  0.13403478372E+04 -0.49193970797E+03  0.14581109944E+04  0.78937790841E+02 0.  0.
         24    2    4    4    0    0  0.31652502139E+03  0.12482906096E+03 -0.12290806768E+03  0.37095183076E+03  0.82027337030E+02 0.  0.
         13    1    3    3    0    0  0.30659129986E+02 -0.40870555839E+03  0.11871991781E+03  0.42670204429E+03  0.00000000000E+00 0. -1.
        -13    1    3    3    0    0 -0.62018416877E+02 -0.10564713398E+04  0.34645894746E+03  0.11135581611E+04  0.00000000000E+00 0.  1.
          4    1    6    6  502    0  0.24095727320E+03  0.55107814328E+02 -0.86264523399E+02  0.26179924886E+03  0.00000000000E+00 0. -1.
          3    1    5    5  503    0 -0.15901769243E+03  0.59166079657E+03 -0.19621714417E+03  0.64331197126E+03  0.00000000000E+00 0. -1.
         -4    1    5    5    0  503 -0.12614804207E+03  0.74868704067E+03 -0.29572256381E+03  0.81479902315E+03  0.00000000000E+00 0.  1.
         -3    1    6    6    0  502  0.75567748189E+02  0.69721246628E+02 -0.36643544278E+02  0.10915258190E+03  0.00000000000E+00 0.  1.
<mgrwt>
<rscale>  0 0.33659972E+04</rscale>
<asrwt>0</asrwt>
<pdfrwt beam="1">  1        2 0.27069169E+00 0.33659972E+04</pdfrwt>
<pdfrwt beam="2">  1       -2 0.24766570E+00 0.33659972E+04</pdfrwt>
<totfact> 0.50149062E-01</totfact>
</mgrwt>
</event>
<event>
12    1  0.1495204E-007  0.1949991E+04  0.7818608E-02  0.8630365E-01
         -2   -1    0    0    0  501 -0.00000000000E+00  0.00000000000E+00  0.58410256348E+03  0.58410256348E+03  0.00000000000E+00 0.  1.
          2   -1    0    0  501    0  0.00000000000E+00 -0.00000000000E+00 -0.16274814970E+04  0.16274814970E+04  0.00000000000E+00 0. -1.
         23    2    1    2    0    0  0.64155747028E+02  0.53918452004E+03  0.19878104780E+03  0.58569057576E+03  0.93186045351E+02 0.  0.
        254    2    1    2    0    0 -0.64155747028E+02 -0.53918452004E+03 -0.12421599814E+04  0.16258934848E+04  0.89762592318E+03 0.  0.
        -24    2    4    4    0    0 -0.50072888785E+01 -0.69266175294E+03 -0.12630075892E+04  0.14427140677E+04  0.80189362616E+02 0.  0.
         24    2    4    4    0    0 -0.59148458150E+02  0.15347723290E+03  0.20847607849E+02  0.18317941704E+03  0.77886295030E+02 0.  0.
         11    1    3    3    0    0  0.76657760774E+02  0.52703701740E+03  0.18620384482E+03  0.56419526923E+03  0.00000000000E+00 0.  1.
        -11    1    3    3    0    0 -0.12502013746E+02  0.12147502635E+02  0.12577202983E+02  0.21495306530E+02  0.00000000000E+00 0. -1.
          4    1    6    6  502    0 -0.74257506385E+02  0.14611643576E+03  0.25173606798E+02  0.16582490927E+03  0.00000000000E+00 0. -1.
          1    1    5    5  503    0 -0.38205381570E+02 -0.41897252268E+03 -0.79849972173E+03  0.90255162265E+03  0.00000000000E+00 0. -1.
         -2    1    5    5    0  503  0.33198092691E+02 -0.27368923026E+03 -0.46450786747E+03  0.54016244507E+03  0.00000000000E+00 0.  1.
         -3    1    6    6    0  502  0.15109048235E+02  0.73607971382E+01 -0.43259989488E+01  0.17354507772E+02  0.00000000000E+00 0.  1.
<mgrwt>
<rscale>  0 0.19499909E+04</rscale>
<asrwt>0</asrwt>
<pdfrwt beam="1">  1        2 0.25038177E+00 0.19499909E+04</pdfrwt>
<pdfrwt beam="2">  1       -2 0.89861934E-01 0.19499909E+04</pdfrwt>
<totfact> 0.10649116E+01</totfact>
</mgrwt>
</event>
<event>
12    1  0.1495204E-007  0.1212678E+04  0.7818608E-02  0.9101831E-01
          2   -1    0    0  501    0  0.00000000000E+00  0.00000000000E+00  0.71720273541E+03  0.71720273541E+03  0.00000000000E+00 0.  1.
         -2   -1    0    0    0  501 -0.00000000000E+00 -0.00000000000E+00 -0.51261223146E+03  0.51261223146E+03  0.00000000000E+00 0. -1.
         23    2    1    2    0    0  0.21465518415E+03  0.14077404350E+03  0.41092296506E+02  0.27634672863E+03  0.93727040869E+02 0.  0.
        254    2    1    2    0    0 -0.21465518415E+03 -0.14077404350E+03  0.16349820744E+03  0.95346823823E+03  0.90359052567E+03 0.  0.
        -24    2    4    4    0    0  0.20294107774E+03  0.14443530917E+03  0.32451921995E+03  0.41691373927E+03  0.80359830148E+02 0.  0.
         24    2    4    4    0    0 -0.41759626189E+03 -0.28520935267E+03 -0.16102101251E+03  0.53655449897E+03  0.78942707725E+02 0.  0.
         13    1    3    3    0    0  0.22331231396E+03  0.13163200094E+03  0.32839793295E+02  0.26129260468E+03  0.00000000000E+00 0.  1.
        -13    1    3    3    0    0 -0.86571298126E+01  0.91420425520E+01  0.82525032114E+01  0.15054123949E+02  0.00000000000E+00 0. -1.
          2    1    6    6  502    0 -0.14958581344E+03 -0.68069234255E+02 -0.27247633886E+02  0.16658862442E+03  0.00000000000E+00 0. -1.
          1    1    5    5  503    0  0.22552587948E+02  0.87723338949E+01  0.34440894601E+01  0.24442479770E+02  0.00000000000E+00 0. -1.
         -2    1    5    5    0  503  0.18038848979E+03  0.13566297527E+03  0.32107513049E+03  0.39247125950E+03  0.00000000000E+00 0.  1.
         -1    1    6    6    0  502 -0.26801044845E+03 -0.21714011841E+03 -0.13377337862E+03  0.36996587455E+03  0.00000000000E+00 0.  1.
<mgrwt>
<rscale>  0 0.12126779E+04</rscale>
<asrwt>0</asrwt>
<pdfrwt beam="1">  1        2 0.11033888E+00 0.12126779E+04</pdfrwt>
<pdfrwt beam="2">  1       -2 0.78863420E-01 0.12126779E+04</pdfrwt>
<totfact> 0.55937230E+01</totfact>
</mgrwt>
</event>
<event>
12    1  0.1495204E-007  0.1273216E+04  0.7818608E-02  0.9051079E-01
          1   -1    0    0  501    0  0.00000000000E+00  0.00000000000E+00  0.15311512979E+03  0.15311512979E+03  0.00000000000E+00 0. -1.
         -1   -1    0    0    0  501 -0.00000000000E+00 -0.00000000000E+00 -0.26468307230E+04  0.26468307230E+04  0.00000000000E+00 0.  1.
         23    2    1    2    0    0 -0.44461857476E+02 -0.30072436313E+03 -0.49646708220E+03  0.58919079064E+03  0.90852763986E+02 0.  0.
        254    2    1    2    0    0  0.44461857476E+02  0.30072436313E+03 -0.19972485110E+04  0.22107550621E+04  0.89778857794E+03 0.  0.
        -24    2    4    4    0    0  0.45083412448E+03  0.13375147206E+03 -0.78184463651E+03  0.91586804758E+03  0.79952366237E+02 0.  0.
         24    2    4    4    0    0 -0.40637226700E+03  0.16697289107E+03 -0.12154038745E+04  0.12948870145E+04  0.80668683971E+02 0.  0.
         13    1    3    3    0    0 -0.15993885761E+02 -0.14277293516E+03 -0.15189755560E+03  0.20907602156E+03  0.00000000000E+00 0. -1.
        -13    1    3    3    0    0 -0.28467971714E+02 -0.15795142796E+03 -0.34456952660E+03  0.38011476908E+03  0.00000000000E+00 0.  1.
          2    1    6    6  502    0 -0.19433247523E+03  0.37116955349E+02 -0.55760680671E+03  0.59166555603E+03  0.00000000000E+00 0. -1.
          3    1    5    5  503    0  0.10305640931E+03  0.61685129873E+02 -0.16506128798E+03  0.20413453294E+03  0.00000000000E+00 0. -1.
         -2    1    5    5    0  503  0.34777771516E+03  0.72066342183E+02 -0.61678334853E+03  0.71173351464E+03  0.00000000000E+00 0.  1.
         -1    1    6    6    0  502 -0.21203979177E+03  0.12985593572E+03 -0.65779706778E+03  0.70322145852E+03  0.00000000000E+00 0.  1.
<mgrwt>
<rscale>  0 0.12732161E+04</rscale>
<asrwt>0</asrwt>
<pdfrwt beam="1">  1        1 0.23556174E-01 0.12732161E+04</pdfrwt>
<pdfrwt beam="2">  1       -1 0.40720472E+00 0.12732161E+04</pdfrwt>
<totfact> 0.13451629E+00</totfact>
</mgrwt>
</event>
<event>
12    1  0.1495204E-007  0.3820821E+04  0.7818608E-02  0.8041701E-01
          1   -1    0    0  501    0  0.00000000000E+00  0.00000000000E+00  0.10886423334E+04  0.10886423334E+04  0.00000000000E+00 0. -1.
         -1   -1    0    0    0  501 -0.00000000000E+00 -0.00000000000E+00 -0.33524957970E+04  0.33524957970E+04  0.00000000000E+00 0.  1.
         23    2    1    2    0    0 -0.13952806335E+04  0.93266001518E+03 -0.29909956569E+03  0.17070429488E+04  0.88726145375E+02 0.  0.
        254    2    1    2    0    0  0.13952806335E+04 -0.93266001518E+03 -0.19647538979E+04  0.27340951816E+04  0.89350760087E+03 0.  0.
        -24    2    4    4    0    0 -0.13807707574E+02 -0.28565529335E+02  0.60438499329E+02  0.10527750537E+03  0.80149227581E+02 0.  0.
         24    2    4    4    0    0  0.14090883411E+04 -0.90409448584E+03 -0.20251923973E+04  0.26288176763E+04  0.79757989923E+02 0.  0.
         13    1    3    3    0    0 -0.12573780283E+04  0.81156018402E+03 -0.28020730082E+03  0.15225457529E+04  0.00000000000E+00 0. -1.
        -13    1    3    3    0    0 -0.13790260518E+03  0.12109983116E+03 -0.18892264871E+02  0.18449719590E+03  0.00000000000E+00 0.  1.
          4    1    6    6  502    0  0.13783647510E+04 -0.88856931632E+03 -0.19986335684E+04  0.25853396213E+04  0.00000000000E+00 0. -1.
          1    1    5    5  503    0 -0.76135343969E+01 -0.46222821837E+02  0.54130100046E+01  0.47157351939E+02  0.00000000000E+00 0. -1.
         -4    1    5    5    0  503 -0.61941731773E+01  0.17657292501E+02  0.55025489324E+02  0.58120153434E+02  0.00000000000E+00 0.  1.
         -3    1    6    6    0  502  0.30723590049E+02 -0.15525169516E+02 -0.26558828856E+02  0.43478054973E+02  0.00000000000E+00 0.  1.
<mgrwt>
<rscale>  0 0.38208213E+04</rscale>
<asrwt>0</asrwt>
<pdfrwt beam="1">  1        1 0.16748344E+00 0.38208213E+04</pdfrwt>
<pdfrwt beam="2">  1       -1 0.51576858E+00 0.38208213E+04</pdfrwt>
<totfact> 0.12167840E-02</totfact>
</mgrwt>
</event>
<event>
12    1  0.1495204E-007  0.1236079E+04  0.7818608E-02  0.9081850E-01
         -2   -1    0    0    0  501 -0.00000000000E+00  0.00000000000E+00  0.18833885140E+04  0.18833885140E+04  0.00000000000E+00 0.  1.
          2   -1    0    0  501    0  0.00000000000E+00 -0.00000000000E+00 -0.20281137815E+03  0.20281137815E+03  0.00000000000E+00 0. -1.
         23    2    1    2    0    0  0.95899055099E+02 -0.64928341744E+02  0.84734144297E+03  0.85990224302E+03  0.89621583568E+02 0.  0.
        254    2    1    2    0    0 -0.95899055099E+02  0.64928341744E+02  0.83323569285E+03  0.12262976491E+04  0.89225102187E+03 0.  0.
        -24    2    4    4    0    0 -0.41500806854E+03 -0.19225187457E+03  0.55817679455E+03  0.72670388143E+03  0.85701324836E+02 0.  0.
         24    2    4    4    0    0  0.31910901344E+03  0.25718021631E+03  0.27505889829E+03  0.49959376768E+03  0.77228939205E+02 0.  0.
         11    1    3    3    0    0  0.66985762172E+02  0.71049734217E+01  0.45465870781E+03  0.45962170702E+03  0.00000000000E+00 0. -1.
        -11    1    3    3    0    0  0.28913292927E+02 -0.72033315166E+02  0.39268273516E+03  0.40028053599E+03  0.00000000000E+00 0.  1.
          4    1    6    6  502    0  0.22683986919E+01 -0.23921946463E+01 -0.30631748769E+01  0.45001409064E+01  0.00000000000E+00 0. -1.
          1    1    5    5  503    0 -0.98344801935E+02 -0.73013626995E+02  0.19542225266E+03  0.23063509409E+03  0.00000000000E+00 0. -1.
         -2    1    5    5    0  503 -0.31666326660E+03 -0.11923824757E+03  0.36275454189E+03  0.49606878733E+03  0.00000000000E+00 0.  1.
         -3    1    6    6    0  502  0.31684061475E+03  0.25957241096E+03  0.27812207317E+03  0.49509362677E+03  0.00000000000E+00 0.  1.
<mgrwt>
<rscale>  0 0.12360787E+04</rscale>
<asrwt>0</asrwt>
<pdfrwt beam="1">  1        2 0.31201752E-01 0.12360787E+04</pdfrwt>
<pdfrwt beam="2">  1       -2 0.28975207E+00 0.12360787E+04</pdfrwt>
<totfact> 0.61961435E+00</totfact>
</mgrwt>
</event>
<event>
12    1  0.1495204E-007  0.1418400E+04  0.7818608E-02  0.8940606E-01
         -2   -1    0    0    0  501 -0.00000000000E+00  0.00000000000E+00  0.29943863208E+03  0.29943863208E+03  0.00000000000E+00 0.  1.
          2   -1    0    0  501    0  0.00000000000E+00 -0.00000000000E+00 -0.16796927088E+04  0.16796927088E+04  0.00000000000E+00 0. -1.
         23    2    1    2    0    0 -0.17168505212E+03 -0.12275743912E+03  0.10619941310E+03  0.25345016024E+03  0.91725254989E+02 0.  0.
        254    2    1    2    0    0  0.17168505212E+03  0.12275743912E+03 -0.14864534898E+04  0.17256811807E+04  0.85081514670E+03 0.  0.
        -24    2    4    4    0    0 -0.32445385197E+03  0.14198744358E+03 -0.49247346869E+03  0.61177084064E+03  0.79389595666E+02 0.  0.
         24    2    4    4    0    0  0.49613890409E+03 -0.19230004460E+02 -0.99398002115E+03  0.11139103400E+04  0.79223468333E+02 0.  0.
         13    1    3    3    0    0 -0.96643894284E+02 -0.55897763355E+02  0.64248457102E+01  0.11182969593E+03  0.00000000000E+00 0. -1.
        -13    1    3    3    0    0 -0.75041157836E+02 -0.66859675761E+02  0.99774567387E+02  0.14162046430E+03  0.00000000000E+00 0.  1.
          2    1    6    6  502    0  0.40470090333E+03  0.45167099582E+01 -0.74915662201E+03  0.85149214096E+03  0.00000000000E+00 0. -1.
          1    1    5    5  503    0 -0.22505192473E+03  0.57332435440E+02 -0.30685661153E+03  0.38483289493E+03  0.00000000000E+00 0. -1.
         -2    1    5    5    0  503 -0.99401927240E+02  0.84655008135E+02 -0.18561685717E+03  0.22693794572E+03  0.00000000000E+00 0.  1.
         -1    1    6    6    0  502  0.91438000766E+02 -0.23746714418E+02 -0.24482339914E+03  0.26241819906E+03  0.00000000000E+00 0.  1.
<mgrwt>
<rscale>  0 0.14184003E+04</rscale>
<asrwt>0</asrwt>
<pdfrwt beam="1">  1        2 0.25841426E+00 0.14184003E+04</pdfrwt>
<pdfrwt beam="2">  1       -2 0.46067482E-01 0.14184003E+04</pdfrwt>
<totfact> 0.43707455E+01</totfact>
</mgrwt>
</event>
<event>
12    1  0.1495204E-007  0.1217960E+04  0.7818608E-02  0.9097279E-01
         -1   -1    0    0    0  501 -0.00000000000E+00  0.00000000000E+00  0.11329671613E+04  0.11329671613E+04  0.00000000000E+00 0.  1.
          1   -1    0    0  501    0  0.00000000000E+00 -0.00000000000E+00 -0.32733246108E+03  0.32733246108E+03  0.00000000000E+00 0. -1.
         23    2    1    2    0    0  0.12521282989E+03 -0.23380729463E+03  0.21760558433E+03  0.35529188744E+03  0.92390644313E+02 0.  0.
        254    2    1    2    0    0 -0.12521282989E+03  0.23380729463E+03  0.58802911591E+03  0.11050077350E+04  0.89717319920E+03 0.  0.
        -24    2    4    4    0    0  0.20704386390E+03 -0.46675198824E+02 -0.13027028328E+03  0.26161989541E+03  0.80180341737E+02 0.  0.
         24    2    4    4    0    0 -0.33225669380E+03  0.28048249345E+03  0.71829939919E+03  0.84338783954E+03  0.79272197573E+02 0.  0.
         11    1    3    3    0    0 -0.62505148510E+01 -0.83743798846E+01 -0.56324349113E+01  0.11871120309E+02  0.00000000000E+00 0. -1.
        -11    1    3    3    0    0  0.13146334474E+03 -0.22543291474E+03  0.22323801924E+03  0.34342076713E+03  0.00000000000E+00 0.  1.
          4    1    6    6  502    0 -0.30248350014E+03  0.24697150888E+03  0.68124097504E+03  0.78522637509E+03  0.00000000000E+00 0. -1.
          1    1    5    5  503    0  0.73941030354E+02  0.21940529572E+02 -0.43501457549E+02  0.88549644927E+02  0.00000000000E+00 0. -1.
         -2    1    5    5    0  503  0.13310283355E+03 -0.68615728396E+02 -0.86768825733E+02  0.17307025048E+03  0.00000000000E+00 0.  1.
         -3    1    6    6    0  502 -0.29773193655E+02  0.33510984570E+02  0.37058424146E+02  0.58161464454E+02  0.00000000000E+00 0.  1.
<mgrwt>
<rscale>  0 0.12179605E+04</rscale>
<asrwt>0</asrwt>
<pdfrwt beam="1">  1        1 0.50358841E-01 0.12179605E+04</pdfrwt>
<pdfrwt beam="2">  1       -1 0.17430264E+00 0.12179605E+04</pdfrwt>
<totfact> 0.17692161E+01</totfact>
</mgrwt>
</event>
<event>
12    1  0.1495204E-007  0.1950879E+04  0.7818608E-02  0.8629937E-01
          2   -1    0    0  501    0  0.00000000000E+00  0.00000000000E+00  0.88431217782E+03  0.88431217782E+03  0.00000000000E+00 0. -1.
         -2   -1    0    0    0  501 -0.00000000000E+00 -0.00000000000E+00 -0.10759569850E+04  0.10759569850E+04  0.00000000000E+00 0.  1.
         23    2    1    2    0    0 -0.37567076559E+03 -0.46048390009E+03  0.33041953859E+03  0.68578950543E+03  0.89197690077E+02 0.  0.
        254    2    1    2    0    0  0.37567076559E+03  0.46048390009E+03 -0.52206434578E+03  0.12744796574E+04  0.99928638018E+03 0.  0.
        -24    2    4    4    0    0  0.58343823346E+03  0.45747591011E+03 -0.67242746513E+03  0.10043149206E+04  0.82494746934E+02 0.  0.
         24    2    4    4    0    0 -0.20776746787E+03  0.30079899785E+01  0.15036311935E+03  0.27016473680E+03  0.84873721747E+02 0.  0.
         11    1    3    3    0    0 -0.49066799354E+02 -0.22641488435E+02  0.20798135447E+02  0.57902938056E+02  0.00000000000E+00 0.  1.
        -11    1    3    3    0    0 -0.32660396624E+03 -0.43784241165E+03  0.30962140315E+03  0.62788656737E+03  0.00000000000E+00 0. -1.
          2    1    6    6  502    0 -0.46729423490E+02 -0.24630206107E+02  0.71063445684E+02  0.88545465074E+02  0.00000000000E+00 0. -1.
          1    1    5    5  503    0  0.25568174500E+03  0.25019258482E+03 -0.34012755564E+03  0.49361547618E+03  0.00000000000E+00 0. -1.
         -2    1    5    5    0  503  0.32775648846E+03  0.20728332529E+03 -0.33229990949E+03  0.51069944441E+03  0.00000000000E+00 0.  1.
         -1    1    6    6    0  502 -0.16103804438E+03  0.27638196086E+02  0.79299673665E+02  0.18161927173E+03  0.00000000000E+00 0.  1.
<mgrwt>
<rscale>  0 0.19508786E+04</rscale>
<asrwt>0</asrwt>
<pdfrwt beam="1">  1        2 0.13604803E+00 0.19508786E+04</pdfrwt>
<pdfrwt beam="2">  1       -2 0.16553184E+00 0.19508786E+04</pdfrwt>
<totfact> 0.64300816E+00</totfact>
</mgrwt>
</event>
<event>
12    1  0.1495204E-007  0.1877686E+04  0.7818608E-02  0.8666044E-01
          2   -1    0    0  501    0  0.00000000000E+00  0.00000000000E+00  0.11916257982E+04  0.11916257982E+04  0.00000000000E+00 0. -1.
         -2   -1    0    0    0  501 -0.00000000000E+00 -0.00000000000E+00 -0.73968336248E+03  0.73968336248E+03  0.00000000000E+00 0.  1.
         23    2    1    2    0    0  0.62621816003E+03  0.20846508428E+02 -0.18864188950E+03  0.66082699855E+03  0.92319004931E+02 0.  0.
        254    2    1    2    0    0 -0.62621816003E+03 -0.20846508428E+02  0.64058432522E+03  0.12704821621E+04  0.90066247046E+03 0.  0.
        -24    2    4    4    0    0  0.42821815854E+02  0.11782457596E+03 -0.15853751230E+03  0.21652769233E+03  0.77677281918E+02 0.  0.
         24    2    4    4    0    0 -0.66903997588E+03 -0.13867108439E+03  0.79912183751E+03  0.10539544698E+04  0.73349534632E+02 0.  0.
         13    1    3    3    0    0  0.53675769446E+03  0.49876433728E+02 -0.16658568970E+03  0.56422271597E+03  0.00000000000E+00 0.  1.
        -13    1    3    3    0    0  0.89460465566E+02 -0.29029925300E+02 -0.22056199801E+02  0.96604282575E+02  0.00000000000E+00 0. -1.
          2    1    6    6  502    0 -0.57625001398E+03 -0.14386520921E+03  0.70162644022E+03  0.91926108296E+03  0.00000000000E+00 0. -1.
          3    1    5    5  503    0 -0.14243427001E+02  0.55567491776E+02 -0.94471659611E+02  0.11052382469E+03  0.00000000000E+00 0. -1.
         -4    1    5    5    0  503  0.57065242856E+02  0.62257084183E+02 -0.64065852687E+02  0.10600386764E+03  0.00000000000E+00 0.  1.
         -1    1    6    6    0  502 -0.92789961898E+02  0.51941248224E+01  0.97495397297E+02  0.13469338683E+03  0.00000000000E+00 0.  1.
<mgrwt>
<rscale>  0 0.18776856E+04</rscale>
<asrwt>0</asrwt>
<pdfrwt beam="1">  1        2 0.18332705E+00 0.18776856E+04</pdfrwt>
<pdfrwt beam="2">  1       -2 0.11379744E+00 0.18776856E+04</pdfrwt>
<totfact> 0.10877837E+01</totfact>
</mgrwt>
</event>
<event>
12    1  0.1495204E-007  0.1550749E+04  0.7818608E-02  0.8851389E-01
          2   -1    0    0  501    0  0.00000000000E+00  0.00000000000E+00  0.25369939898E+04  0.25369939898E+04  0.00000000000E+00 0. -1.
         -2   -1    0    0    0  501 -0.00000000000E+00 -0.00000000000E+00 -0.23697569476E+03  0.23697569476E+03  0.00000000000E+00 0.  1.
         23    2    1    2    0    0 -0.35183169866E+03 -0.26449676514E+03  0.33050023912E+03  0.55894848562E+03  0.97205547993E+02 0.  0.
        254    2    1    2    0    0  0.35183169866E+03  0.26449676514E+03  0.19695180560E+04  0.22150211990E+04  0.91300244046E+03 0.  0.
        -24    2    4    4    0    0  0.64612595448E+03  0.15552610057E+03  0.15224950690E+04  0.16631519782E+04  0.80100875475E+02 0.  0.
         24    2    4    4    0    0 -0.29429425582E+03  0.10897066457E+03  0.44702298694E+03  0.55186922084E+03  0.79033988296E+02 0.  0.
         13    1    3    3    0    0 -0.35148185954E+03 -0.23885079895E+03  0.30809421848E+03  0.52489165473E+03  0.00000000000E+00 0.  1.
        -13    1    3    3    0    0 -0.34983912579E+00 -0.25645966188E+02  0.22406020641E+02  0.34056830887E+02  0.00000000000E+00 0. -1.
          4    1    6    6  502    0 -0.16301186918E+02  0.11366170371E+02  0.47296754714E+01  0.20427637012E+02  0.00000000000E+00 0. -1.
          3    1    5    5  503    0  0.17169170667E+03  0.13541273814E+02  0.33956770106E+03  0.38074615144E+03  0.00000000000E+00 0. -1.
         -4    1    5    5    0  503  0.47443424781E+03  0.14198482676E+03  0.11829273680E+04  0.12824058267E+04  0.00000000000E+00 0.  1.
         -3    1    6    6    0  502 -0.27799306890E+03  0.97604494200E+02  0.44229331147E+03  0.53144158382E+03  0.00000000000E+00 0.  1.
<mgrwt>
<rscale>  0 0.15507494E+04</rscale>
<asrwt>0</asrwt>
<pdfrwt beam="1">  1        2 0.39030675E+00 0.15507494E+04</pdfrwt>
<pdfrwt beam="2">  1       -2 0.36457801E-01 0.15507494E+04</pdfrwt>
<totfact> 0.22645763E+01</totfact>
</mgrwt>
</event>
<event>
12    1  0.1495204E-007  0.1243240E+04  0.7818608E-02  0.9075828E-01
         -1   -1    0    0    0  501 -0.00000000000E+00  0.00000000000E+00  0.28679029957E+03  0.28679029957E+03  0.00000000000E+00 0.  1.
          1   -1    0    0  501    0  0.00000000000E+00 -0.00000000000E+00 -0.13473659200E+04  0.13473659200E+04  0.00000000000E+00 0. -1.
         23    2    1    2    0    0 -0.25629430679E+03  0.55927379108E+02 -0.11610592373E+03  0.30045244231E+03  0.89310923940E+02 0.  0.
        254    2    1    2    0    0  0.25629430679E+03 -0.55927379108E+02 -0.94446969667E+03  0.13337037772E+04  0.90439378264E+03 0.  0.
        -24    2    4    4    0    0 -0.10406009690E+03  0.16021605134E+03  0.81408592311E+02  0.22241763305E+03  0.79652732014E+02 0.  0.
         24    2    4    4    0    0  0.36035440369E+03 -0.21614343045E+03 -0.10258782890E+04  0.11112861442E+04  0.77183882295E+02 0.  0.
         13    1    3    3    0    0 -0.85154563439E+02  0.42363411058E+02 -0.81654900708E+02  0.12535342469E+03  0.00000000000E+00 0. -1.
        -13    1    3    3    0    0 -0.17113974335E+03  0.13563968050E+02 -0.34451023020E+02  0.17509901762E+03  0.00000000000E+00 0.  1.
          2    1    6    6  502    0  0.31910942338E+03 -0.21350879257E+03 -0.89066005851E+03  0.96989286441E+03  0.00000000000E+00 0. -1.
          1    1    5    5  503    0 -0.10306215639E+03  0.13789209481E+03  0.42136457607E+02  0.17723295108E+03  0.00000000000E+00 0. -1.
         -2    1    5    5    0  503 -0.99794050959E+00  0.22323956532E+02  0.39272134704E+02  0.45184681970E+02  0.00000000000E+00 0.  1.
         -1    1    6    6    0  502  0.41244980307E+02 -0.26346378720E+01 -0.13521823047E+03  0.14139327978E+03  0.00000000000E+00 0.  1.
<mgrwt>
<rscale>  0 0.12432401E+04</rscale>
<asrwt>0</asrwt>
<pdfrwt beam="1">  1        1 0.20728707E+00 0.12432401E+04</pdfrwt>
<pdfrwt beam="2">  1       -1 0.44121584E-01 0.12432401E+04</pdfrwt>
<totfact> 0.41943876E+01</totfact>
</mgrwt>
</event>
<event>
12    1  0.1495204E-007  0.1412727E+04  0.7818608E-02  0.8944657E-01
         -2   -1    0    0    0  501 -0.00000000000E+00  0.00000000000E+00  0.70889857988E+03  0.70889857988E+03  0.00000000000E+00 0.  1.
          2   -1    0    0  501    0  0.00000000000E+00 -0.00000000000E+00 -0.70383785256E+03  0.70383785256E+03  0.00000000000E+00 0. -1.
         23    2    1    2    0    0  0.19706194073E+02 -0.39645768367E+03  0.33894810307E+02  0.40883800486E+03  0.91829336414E+02 0.  0.
        254    2    1    2    0    0 -0.19706194073E+02  0.39645768367E+03 -0.28834082989E+02  0.10038984276E+04  0.92163638140E+03 0.  0.
        -24    2    4    4    0    0  0.43608875001E+03  0.18432532365E+03  0.70813479113E+02  0.48527738425E+03  0.79563609850E+02 0.  0.
         24    2    4    4    0    0 -0.45579494409E+03  0.21213236001E+03 -0.99647562102E+02  0.51862104333E+03  0.79303094063E+02 0.  0.
         11    1    3    3    0    0  0.82011078353E+01 -0.40921315253E+01 -0.10342209079E+02  0.13819008604E+02  0.00000000000E+00 0. -1.
        -11    1    3    3    0    0  0.11505086238E+02 -0.39236555214E+03  0.44237019386E+02  0.39501899625E+03  0.00000000000E+00 0.  1.
          4    1    6    6  502    0 -0.22153198038E+03  0.82712640755E+02 -0.82459978169E+02  0.25043451693E+03  0.00000000000E+00 0. -1.
          3    1    5    5  503    0  0.35229124112E+03  0.16555258815E+03  0.30596938406E+02  0.39045223863E+03  0.00000000000E+00 0. -1.
         -4    1    5    5    0  503  0.83797508896E+02  0.18772735503E+02  0.40216540707E+02  0.94825145620E+02  0.00000000000E+00 0.  1.
         -3    1    6    6    0  502 -0.23426296371E+03  0.12941971926E+03 -0.17187583934E+02  0.26818652639E+03  0.00000000000E+00 0.  1.
<mgrwt>
<rscale>  0 0.14127274E+04</rscale>
<asrwt>0</asrwt>
<pdfrwt beam="1">  1        2 0.10828275E+00 0.14127274E+04</pdfrwt>
<pdfrwt beam="2">  1       -2 0.10906132E+00 0.14127274E+04</pdfrwt>
<totfact> 0.26543694E+01</totfact>
</mgrwt>
</event>
<event>
12    1  0.1495204E-007  0.1640407E+04  0.7818608E-02  0.8796102E-01
          1   -1    0    0  501    0  0.00000000000E+00  0.00000000000E+00  0.14283630896E+04  0.14283630896E+04  0.00000000000E+00 0. -1.
         -1   -1    0    0    0  501 -0.00000000000E+00 -0.00000000000E+00 -0.47098252339E+03  0.47098252339E+03  0.00000000000E+00 0.  1.
         23    2    1    2    0    0 -0.14095000518E+03 -0.46469569508E+03  0.69588665995E+03  0.85341307529E+03  0.90811015877E+02 0.  0.
        254    2    1    2    0    0  0.14095000518E+03  0.46469569508E+03  0.26149390628E+03  0.10459325377E+04  0.88869950907E+03 0.  0.
        -24    2    4    4    0    0 -0.28918206990E+03  0.20985724250E+03 -0.14750059505E+03  0.39471902228E+03  0.79877088235E+02 0.  0.
         24    2    4    4    0    0  0.43013207508E+03  0.25483845258E+03  0.40899450133E+03  0.65121351543E+03  0.82742381118E+02 0.  0.
         13    1    3    3    0    0 -0.52630294361E+02 -0.15641087582E+03  0.31409898315E+03  0.35481330468E+03  0.00000000000E+00 0.  1.
        -13    1    3    3    0    0 -0.88319710816E+02 -0.30828481926E+03  0.38178767679E+03  0.49859977062E+03  0.00000000000E+00 0. -1.
          2    1    6    6  502    0  0.20697628824E+03  0.74990652949E+02  0.17936810529E+03  0.28396425676E+03  0.00000000000E+00 0. -1.
          3    1    5    5  503    0  0.19689390772E+01  0.13463970328E+02  0.48713554424E+00  0.13615892153E+02  0.00000000000E+00 0. -1.
         -4    1    5    5    0  503 -0.29115100898E+03  0.19639327217E+03 -0.14798773060E+03  0.38110313012E+03  0.00000000000E+00 0.  1.
         -1    1    6    6    0  502  0.22315578683E+03  0.17984779963E+03  0.22962639605E+03  0.36724925867E+03  0.00000000000E+00 0.  1.
<mgrwt>
<rscale>  0 0.16404073E+04</rscale>
<asrwt>0</asrwt>
<pdfrwt beam="1">  1        1 0.21974817E+00 0.16404073E+04</pdfrwt>
<pdfrwt beam="2">  1       -1 0.72458851E-01 0.16404073E+04</pdfrwt>
<totfact> 0.13482960E+01</totfact>
</mgrwt>
</event>
<event>
12    1  0.1495204E-007  0.1396574E+04  0.7818608E-02  0.8956302E-01
          2   -1    0    0  501    0  0.00000000000E+00  0.00000000000E+00  0.43199186418E+03  0.43199186418E+03  0.00000000000E+00 0. -1.
         -2   -1    0    0    0  501 -0.00000000000E+00 -0.00000000000E+00 -0.11287361566E+04  0.11287361566E+04  0.00000000000E+00 0.  1.
         23    2    1    2    0    0 -0.16277511567E+03 -0.29014343876E+03 -0.45725183845E+03  0.57257192556E+03  0.89891116566E+02 0.  0.
        254    2    1    2    0    0  0.16277511567E+03  0.29014343876E+03 -0.23949245398E+03  0.98815609523E+03  0.89912005855E+03 0.  0.
        -24    2    4    4    0    0  0.24629609866E+03  0.58295034391E+03 -0.21062477744E+03  0.67210190627E+03  0.82857129186E+02 0.  0.
         24    2    4    4    0    0 -0.83520982995E+02 -0.29280690515E+03 -0.28867676542E+02  0.31605418896E+03  0.79657198687E+02 0.  0.
         13    1    3    3    0    0 -0.15879014143E+03 -0.22567065222E+03 -0.33247539487E+03  0.43206647692E+03  0.00000000000E+00 0.  1.
        -13    1    3    3    0    0 -0.39849742418E+01 -0.64472786540E+02 -0.12477644358E+03  0.14050544864E+03  0.00000000000E+00 0. -1.
          2    1    6    6  502    0 -0.70782730427E+01  0.30815501594E+01 -0.56566439755E+01  0.95705549325E+01  0.00000000000E+00 0. -1.
          1    1    5    5  503    0  0.65345978433E+02  0.14276629130E+03 -0.90600144221E+02  0.18127519676E+03  0.00000000000E+00 0. -1.
         -2    1    5    5    0  503  0.18095012023E+03  0.44018405261E+03 -0.12002463322E+03  0.49082670951E+03  0.00000000000E+00 0.  1.
         -1    1    6    6    0  502 -0.76442709953E+02 -0.29588845531E+03 -0.23211032566E+02  0.30648363402E+03  0.00000000000E+00 0.  1.
<mgrwt>
<rscale>  0 0.13965741E+04</rscale>
<asrwt>0</asrwt>
<pdfrwt beam="1">  1        2 0.66460287E-01 0.13965741E+04</pdfrwt>
<pdfrwt beam="2">  1       -2 0.17365172E+00 0.13965741E+04</pdfrwt>
<totfact> 0.14230185E+01</totfact>
</mgrwt>
</event>
<event>
12    1  0.1495204E-007  0.2064423E+04  0.7818608E-02  0.8577079E-01
          1   -1    0    0  501    0  0.00000000000E+00  0.00000000000E+00  0.92217417557E+03  0.92217417557E+03  0.00000000000E+00 0. -1.
         -1   -1    0    0    0  501 -0.00000000000E+00 -0.00000000000E+00 -0.11553786579E+04  0.11553786579E+04  0.00000000000E+00 0.  1.
         23    2    1    2    0    0  0.38677195890E+03 -0.43355970126E+03 -0.69711528920E+03  0.91161512998E+03  0.86636343582E+02 0.  0.
        254    2    1    2    0    0 -0.38677195890E+03  0.43355970126E+03  0.46391080686E+03  0.11659377035E+04  0.89812634353E+03 0.  0.
        -24    2    4    4    0    0 -0.48630801863E+03  0.52494653928E+03  0.61615522834E+03  0.94740200474E+03  0.76543680893E+02 0.  0.
         24    2    4    4    0    0  0.99536059735E+02 -0.91386838024E+02 -0.15224442148E+03  0.21853569875E+03  0.79501612599E+02 0.  0.
         11    1    3    3    0    0  0.16985404992E+03 -0.15785179539E+03 -0.22197012623E+03  0.32099583256E+03  0.00000000000E+00 0.  1.
        -11    1    3    3    0    0  0.21691790898E+03 -0.27570790587E+03 -0.47514516297E+03  0.59061929742E+03  0.00000000000E+00 0. -1.
          2    1    6    6  502    0  0.30406239025E+02 -0.79666273816E+02 -0.68963073785E+02  0.10966840977E+03  0.00000000000E+00 0. -1.
          1    1    5    5  503    0 -0.14372078479E+03  0.20459648419E+03  0.19587722009E+03  0.31762126924E+03  0.00000000000E+00 0. -1.
         -2    1    5    5    0  503 -0.34258723384E+03  0.32035005510E+03  0.42027800824E+03  0.62978073550E+03  0.00000000000E+00 0.  1.
         -1    1    6    6    0  502  0.69129820710E+02 -0.11720564208E+02 -0.83281347690E+02  0.10886728898E+03  0.00000000000E+00 0.  1.
<mgrwt>
<rscale>  0 0.20644228E+04</rscale>
<asrwt>0</asrwt>
<pdfrwt beam="1">  1        1 0.14187295E+00 0.20644228E+04</pdfrwt>
<pdfrwt beam="2">  1       -1 0.17775056E+00 0.20644228E+04</pdfrwt>
<totfact> 0.34782695E+00</totfact>
</mgrwt>
</event>
<event>
12    1  0.1495204E-007  0.2364630E+04  0.7818608E-02  0.8452866E-01
          1   -1    0    0  501    0  0.00000000000E+00  0.00000000000E+00  0.23654793116E+04  0.23654793116E+04  0.00000000000E+00 0. -1.
         -1   -1    0    0    0  501 -0.00000000000E+00 -0.00000000000E+00 -0.59094512328E+03  0.59094512328E+03  0.00000000000E+00 0.  1.
         23    2    1    2    0    0  0.34887548518E+03  0.92824243716E+03  0.56377121759E+03  0.11437107175E+04  0.82994537525E+02 0.  0.
        254    2    1    2    0    0 -0.34887548518E+03 -0.92824243716E+03  0.12107629707E+04  0.18127137173E+04  0.91467804362E+03 0.  0.
        -24    2    4    4    0    0  0.26659611820E+03 -0.37276559581E+03  0.68349511280E+03  0.82677850474E+03  0.79808815383E+02 0.  0.
         24    2    4    4    0    0 -0.61547160338E+03 -0.55547684135E+03  0.52726785789E+03  0.98593521259E+03  0.81835405676E+02 0.  0.
         11    1    3    3    0    0  0.28343970346E+03  0.82769925942E+03  0.50418464818E+03  0.10097654624E+04  0.00000000000E+00 0.  1.
        -11    1    3    3    0    0  0.65435781724E+02  0.10054317775E+03  0.59586569413E+02  0.13394525514E+03  0.00000000000E+00 0. -1.
          4    1    6    6  502    0 -0.22206487575E+03 -0.19082666241E+03  0.23243463228E+03  0.37383617055E+03  0.00000000000E+00 0. -1.
          1    1    5    5  503    0  0.10294812722E+03 -0.15577697958E+03  0.21151203591E+03  0.28213848656E+03  0.00000000000E+00 0. -1.
         -2    1    5    5    0  503  0.16364799098E+03 -0.21698861624E+03  0.47198307690E+03  0.54464001818E+03  0.00000000000E+00 0.  1.
         -3    1    6    6    0  502 -0.39340672763E+03 -0.36465017894E+03  0.29483322561E+03  0.61209904204E+03  0.00000000000E+00 0.  1.
<mgrwt>
<rscale>  0 0.23646297E+04</rscale>
<asrwt>0</asrwt>
<pdfrwt beam="1">  1        1 0.36391989E+00 0.23646297E+04</pdfrwt>
<pdfrwt beam="2">  1       -1 0.90914635E-01 0.23646297E+04</pdfrwt>
<totfact> 0.17812919E+00</totfact>
</mgrwt>
</event>
<event>
12    1  0.1495204E-007  0.2253227E+04  0.7818608E-02  0.8496595E-01
         -2   -1    0    0    0  501 -0.00000000000E+00  0.00000000000E+00  0.92560514423E+03  0.92560514423E+03  0.00000000000E+00 0.  1.
          2   -1    0    0  501    0  0.00000000000E+00 -0.00000000000E+00 -0.13712735571E+04  0.13712735571E+04  0.00000000000E+00 0. -1.
         23    2    1    2    0    0  0.63492137889E+03  0.55298644164E+03 -0.62782848897E+03  0.10540252365E+04  0.88777393356E+02 0.  0.
        254    2    1    2    0    0 -0.63492137889E+03 -0.55298644164E+03  0.18216007611E+03  0.12428534648E+04  0.89587012438E+03 0.  0.
        -24    2    4    4    0    0 -0.12453537206E+03  0.15369981186E+03 -0.19500746760E+03  0.28963634972E+03  0.82028114693E+02 0.  0.
         24    2    4    4    0    0 -0.51038600683E+03 -0.70668625350E+03  0.37716754370E+03  0.95321711513E+03  0.80424969420E+02 0.  0.
         13    1    3    3    0    0  0.20491442717E+03  0.23516347196E+03 -0.23401476803E+03  0.38994190935E+03  0.00000000000E+00 0.  1.
        -13    1    3    3    0    0  0.43000695171E+03  0.31782296968E+03 -0.39381372094E+03  0.66408332714E+03  0.00000000000E+00 0. -1.
          4    1    6    6  502    0 -0.36524661607E+03 -0.55183505021E+03  0.30860538288E+03  0.73018100190E+03  0.00000000000E+00 0. -1.
          3    1    5    5  503    0 -0.84603432528E+02  0.12615138870E+03 -0.18625749242E+03  0.24034093940E+03  0.00000000000E+00 0. -1.
         -4    1    5    5    0  503 -0.39931939531E+02  0.27548423153E+02 -0.87499751750E+01  0.49295410319E+02  0.00000000000E+00 0.  1.
         -3    1    6    6    0  502 -0.14513939076E+03 -0.15485120329E+03  0.68562160825E+02  0.22303611323E+03  0.00000000000E+00 0.  1.
<mgrwt>
<rscale>  0 0.22532269E+04</rscale>
<asrwt>0</asrwt>
<pdfrwt beam="1">  1        2 0.21096516E+00 0.22532269E+04</pdfrwt>
<pdfrwt beam="2">  1       -2 0.14240079E+00 0.22532269E+04</pdfrwt>
<totfact> 0.47008139E+00</totfact>
</mgrwt>
</event>
<event>
12    1  0.1495204E-007  0.2045990E+04  0.7818608E-02  0.8585416E-01
         -1   -1    0    0    0  501 -0.00000000000E+00  0.00000000000E+00  0.13559193828E+04  0.13559193828E+04  0.00000000000E+00 0. -1.
          1   -1    0    0  501    0  0.00000000000E+00 -0.00000000000E+00 -0.77181457731E+03  0.77181457731E+03  0.00000000000E+00 0.  1.
         23    2    1    2    0    0  0.25383390780E+03 -0.58521536355E+03 -0.29914613208E+03  0.71028171627E+03  0.90016852049E+02 0.  0.
        254    2    1    2    0    0 -0.25383390780E+03  0.58521536355E+03  0.88325093756E+03  0.14174522438E+04  0.90671383045E+03 0.  0.
        -24    2    4    4    0    0 -0.20793448352E+03  0.72105528454E+03  0.30124907986E+03  0.81250143880E+03  0.79057619106E+02 0.  0.
         24    2    4    4    0    0 -0.45899424289E+02 -0.13583992100E+03  0.58200185770E+03  0.60495080502E+03  0.81731712551E+02 0.  0.
         13    1    3    3    0    0  0.19996636476E+02 -0.13391235656E+03 -0.51308706367E+02  0.14479284533E+03  0.00000000000E+00 0. -1.
        -13    1    3    3    0    0  0.23383727133E+03 -0.45130300699E+03 -0.24783742571E+03  0.56548887095E+03  0.00000000000E+00 0.  1.
          4    1    6    6  502    0 -0.55117298237E+02 -0.14278887332E+03  0.55123318210E+03  0.57208793026E+03  0.00000000000E+00 0. -1.
          1    1    5    5  503    0 -0.19224632585E+03  0.64878839305E+03  0.29533825901E+03  0.73831545832E+03  0.00000000000E+00 0. -1.
         -2    1    5    5    0  503 -0.15688157663E+02  0.72266891496E+02  0.59108208478E+01  0.74185980485E+02  0.00000000000E+00 0.  1.
         -3    1    6    6    0  502  0.92178739481E+01  0.69489523260E+01  0.30768675607E+02  0.32862874755E+02  0.00000000000E+00 0.  1.
<mgrwt>
<rscale>  0 0.20459896E+04</rscale>
<asrwt>0</asrwt>
<pdfrwt beam="1">  1        1 0.11874070E+00 0.20459896E+04</pdfrwt>
<pdfrwt beam="2">  1       -1 0.20860298E+00 0.20459896E+04</pdfrwt>
<totfact> 0.28422028E+00</totfact>
</mgrwt>
</event>
<event>
12    1  0.1495204E-007  0.2927335E+04  0.7818608E-02  0.8264791E-01
          2   -1    0    0  501    0  0.00000000000E+00  0.00000000000E+00  0.46904223796E+04  0.46904223796E+04  0.00000000000E+00 0. -1.
         -2   -1    0    0    0  501 -0.00000000000E+00 -0.00000000000E+00 -0.45674401151E+03  0.45674401151E+03  0.00000000000E+00 0.  1.
         23    2    1    2    0    0 -0.27033584377E+03 -0.66581816950E+02  0.41937426469E+04  0.42039318498E+04  0.89727382119E+02 0.  0.
        254    2    1    2    0    0  0.27033584377E+03  0.66581816950E+02  0.39935721197E+02  0.94323454126E+03  0.90032323708E+03 0.  0.
        -24    2    4    4    0    0  0.32100909522E+03  0.38426104586E+03 -0.18872378719E+03  0.54044049939E+03  0.75867482791E+02 0.  0.
         24    2    4    4    0    0 -0.50673251453E+02 -0.31767922891E+03  0.22865950839E+03  0.40279404187E+03  0.80436300877E+02 0.  0.
         11    1    3    3    0    0 -0.21010935775E+03 -0.57746595587E+02  0.26324094491E+04  0.26414125235E+04  0.00000000000E+00 0. -1.
        -11    1    3    3    0    0 -0.60226486019E+02 -0.88352213632E+01  0.15613331978E+04  0.15625193264E+04  0.00000000000E+00 0.  1.
          4    1    6    6  502    0 -0.27720355083E+02 -0.15954293427E+03  0.66269553114E+02  0.17496862470E+03  0.00000000000E+00 0. -1.
          3    1    5    5  503    0  0.29611335207E+02  0.29626033655E+02  0.51015637512E+01  0.42196670433E+02  0.00000000000E+00 0. -1.
         -4    1    5    5    0  503  0.29139776002E+03  0.35463501221E+03 -0.19382535094E+03  0.49824382896E+03  0.00000000000E+00 0.  1.
         -3    1    6    6    0  502 -0.22952896370E+02 -0.15813629464E+03  0.16238995527E+03  0.22782541717E+03  0.00000000000E+00 0.  1.
<mgrwt>
<rscale>  0 0.29273349E+04</rscale>
<asrwt>0</asrwt>
<pdfrwt beam="1">  1        2 0.72160341E+00 0.29273349E+04</pdfrwt>
<pdfrwt beam="2">  1       -2 0.70268313E-01 0.29273349E+04</pdfrwt>
<totfact> 0.12475852E-01</totfact>
</mgrwt>
</event>
<event>
12    1  0.1495204E-007  0.1344639E+04  0.7818608E-02  0.8994896E-01
          2   -1    0    0  501    0  0.00000000000E+00  0.00000000000E+00  0.25339383749E+04  0.25339383749E+04  0.00000000000E+00 0. -1.
         -2   -1    0    0    0  501 -0.00000000000E+00 -0.00000000000E+00 -0.17838371750E+03  0.17838371750E+03  0.00000000000E+00 0.  1.
         23    2    1    2    0    0 -0.33766306723E+03 -0.11712316764E+03  0.58652230339E+03  0.69316688625E+03  0.93475860255E+02 0.  0.
        254    2    1    2    0    0  0.33766306723E+03  0.11712316764E+03  0.17690323540E+04  0.20191552062E+04  0.90541597822E+03 0.  0.
        -24    2    4    4    0    0  0.13275202882E+03 -0.18632871356E+03  0.15812815825E+04  0.15997160839E+04  0.79363815840E+02 0.  0.
         24    2    4    4    0    0  0.20491103840E+03  0.30345188120E+03  0.18775077151E+03  0.41943912225E+03  0.81284975280E+02 0.  0.
         11    1    3    3    0    0 -0.11116749527E+02 -0.45100739181E+01 -0.55601697597E+00  0.12009664512E+02  0.00000000000E+00 0.  1.
        -11    1    3    3    0    0 -0.32654631770E+03 -0.11261309373E+03  0.58707832037E+03  0.68115722174E+03  0.00000000000E+00 0. -1.
          4    1    6    6  502    0  0.22113297573E+02  0.22295674291E+01  0.16483680502E+02  0.27670934631E+02  0.00000000000E+00 0. -1.
          3    1    5    5  503    0 -0.10587883900E+02 -0.11195892035E+02  0.79750147689E+02  0.81225226010E+02  0.00000000000E+00 0. -1.
         -4    1    5    5    0  503  0.14333991272E+03 -0.17513282152E+03  0.15015314348E+04  0.15184908579E+04  0.00000000000E+00 0.  1.
         -3    1    6    6    0  502  0.18279774083E+03  0.30122231377E+03  0.17126709101E+03  0.39176818762E+03  0.00000000000E+00 0.  1.
<mgrwt>
<rscale>  0 0.13446388E+04</rscale>
<asrwt>0</asrwt>
<pdfrwt beam="1">  1        2 0.38983665E+00 0.13446388E+04</pdfrwt>
<pdfrwt beam="2">  1       -2 0.27443651E-01 0.13446388E+04</pdfrwt>
<totfact> 0.39501174E+01</totfact>
</mgrwt>
</event>
<event>
12    1  0.1495204E-007  0.1682780E+04  0.7818608E-02  0.8771247E-01
         -2   -1    0    0    0  501 -0.00000000000E+00  0.00000000000E+00  0.51650916120E+03  0.51650916120E+03  0.00000000000E+00 0.  1.
          2   -1    0    0  501    0  0.00000000000E+00 -0.00000000000E+00 -0.13706190423E+04  0.13706190423E+04  0.00000000000E+00 0. -1.
         23    2    1    2    0    0 -0.96055528206E+01 -0.95193618327E+02 -0.95957827797E+03  0.96857298979E+03  0.90493499122E+02 0.  0.
        254    2    1    2    0    0  0.96055528206E+01  0.95193618327E+02  0.10546839692E+03  0.91855521366E+03  0.90745027752E+03 0.  0.
        -24    2    4    4    0    0 -0.22969842232E+03  0.41358366342E+03 -0.52336864553E+02  0.48269475154E+03  0.80263714746E+02 0.  0.
         24    2    4    4    0    0  0.23930397515E+03 -0.31839004509E+03  0.15780526147E+03  0.43586046212E+03  0.80207409616E+02 0.  0.
         11    1    3    3    0    0 -0.28106754354E+02 -0.10554393277E+03 -0.74744375173E+03  0.75538180636E+03  0.00000000000E+00 0. -1.
        -11    1    3    3    0    0  0.18501201534E+02  0.10350314447E+02 -0.21213452624E+03  0.21319118343E+03  0.00000000000E+00 0.  1.
          4    1    6    6  502    0  0.28621920094E+02 -0.31215645469E+02  0.46065548723E+02  0.62575279552E+02  0.00000000000E+00 0. -1.
          3    1    5    5  503    0 -0.31810677626E+02  0.13131109217E+03 -0.16257156068E+02  0.13608386113E+03  0.00000000000E+00 0. -1.
         -4    1    5    5    0  503 -0.19788774470E+03  0.28227257125E+03 -0.36079708485E+02  0.34661089040E+03  0.00000000000E+00 0.  1.
         -3    1    6    6    0  502  0.21068205505E+03 -0.28717439962E+03  0.11173971275E+03  0.37328518257E+03  0.00000000000E+00 0.  1.
<mgrwt>
<rscale>  0 0.16827802E+04</rscale>
<asrwt>0</asrwt>
<pdfrwt beam="1">  1        2 0.21086447E+00 0.16827802E+04</pdfrwt>
<pdfrwt beam="2">  1       -2 0.79462948E-01 0.16827802E+04</pdfrwt>
<totfact> 0.20117808E+01</totfact>
</mgrwt>
</event>
<event>
12    1  0.1495204E-007  0.2269979E+04  0.7818608E-02  0.8489853E-01
         -1   -1    0    0    0  501 -0.00000000000E+00  0.00000000000E+00  0.84141540112E+03  0.84141540112E+03  0.00000000000E+00 0.  1.
          1   -1    0    0  501    0  0.00000000000E+00 -0.00000000000E+00 -0.15309928488E+04  0.15309928488E+04  0.00000000000E+00 0. -1.
         23    2    1    2    0    0 -0.80272140221E+03 -0.58556270670E+02 -0.83013957955E+03  0.11598756198E+04  0.91592824506E+02 0.  0.
        254    2    1    2    0    0  0.80272140221E+03  0.58556270670E+02  0.14056213183E+03  0.12125326301E+04  0.89592811086E+03 0.  0.
        -24    2    4    4    0    0  0.75231870006E+03  0.13259677119E+03 -0.24696254171E+03  0.80663813673E+03  0.78161732514E+02 0.  0.
         24    2    4    4    0    0  0.50402702153E+02 -0.74040500518E+02  0.38752467354E+03  0.40589449340E+03  0.80947755184E+02 0.  0.
         11    1    3    3    0    0 -0.44079486409E+03 -0.16430646732E+02 -0.39286966119E+03  0.59069167003E+03  0.00000000000E+00 0.  1.
        -11    1    3    3    0    0 -0.36192653813E+03 -0.42125623938E+02 -0.43726991836E+03  0.56918394979E+03  0.00000000000E+00 0. -1.
          2    1    6    6  502    0  0.18501876380E+01 -0.29776852271E+02  0.26668587444E+03  0.26834947318E+03  0.00000000000E+00 0. -1.
          1    1    5    5  503    0  0.22032924728E+03  0.15724486695E+02 -0.43062947924E+02  0.22504811523E+03  0.00000000000E+00 0. -1.
         -4    1    5    5    0  503  0.53198945279E+03  0.11687228449E+03 -0.20389959379E+03  0.58159002150E+03  0.00000000000E+00 0.  1.
         -1    1    6    6    0  502  0.48552514515E+02 -0.44263648247E+02  0.12083879910E+03  0.13754502023E+03  0.00000000000E+00 0.  1.
<mgrwt>
<rscale>  0 0.22699788E+04</rscale>
<asrwt>0</asrwt>
<pdfrwt beam="1">  1        1 0.23553736E+00 0.22699788E+04</pdfrwt>
<pdfrwt beam="2">  1       -1 0.12944853E+00 0.22699788E+04</pdfrwt>
<totfact> 0.28923583E+00</totfact>
</mgrwt>
</event>
<event>
12    1  0.1495204E-007  0.2108718E+04  0.7818608E-02  0.8557413E-01
         -4   -1    0    0    0  501 -0.00000000000E+00  0.00000000000E+00  0.55129028617E+03  0.55129028617E+03  0.00000000000E+00 0.  1.
          4   -1    0    0  501    0  0.00000000000E+00 -0.00000000000E+00 -0.20164932935E+04  0.20164932935E+04  0.00000000000E+00 0. -1.
         23    2    1    2    0    0  0.61765330515E+03 -0.59964440400E+03 -0.53492271538E+03  0.10158851631E+04  0.69363798316E+02 0.  0.
        254    2    1    2    0    0 -0.61765330515E+03  0.59964440400E+03 -0.93028029194E+03  0.15518984166E+04  0.89548772029E+03 0.  0.
        -24    2    4    4    0    0  0.12087212178E+02 -0.11637271081E+03 -0.47014972170E+03  0.49014147321E+03  0.74223947802E+02 0.  0.
         24    2    4    4    0    0 -0.62974051733E+03  0.71601711481E+03 -0.46013057024E+03  0.10617569434E+04  0.79712215159E+02 0.  0.
         11    1    3    3    0    0  0.13964688197E+03 -0.16350670533E+03 -0.10761482829E+03  0.24045092139E+03  0.00000000000E+00 0.  1.
        -11    1    3    3    0    0  0.47800642319E+03 -0.43613769867E+03 -0.42730788709E+03  0.77543424169E+03  0.00000000000E+00 0. -1.
          2    1    6    6  502    0 -0.26539770341E+03  0.26420434297E+03 -0.14737382622E+03  0.40244120126E+03  0.00000000000E+00 0. -1.
          1    1    5    5  503    0  0.78384769276E+01 -0.50250567451E+02 -0.34313182396E+03  0.34688039706E+03  0.00000000000E+00 0. -1.
         -2    1    5    5    0  503  0.42487352502E+01 -0.66122143363E+02 -0.12701789774E+03  0.14326107615E+03  0.00000000000E+00 0.  1.
         -1    1    6    6    0  502 -0.36434281393E+03  0.45181277184E+03 -0.31275674402E+03  0.65931574211E+03  0.00000000000E+00 0.  1.
<mgrwt>
<rscale>  0 0.21087183E+04</rscale>
<asrwt>0</asrwt>
<pdfrwt beam="1">  1        4 0.31022974E+00 0.21087183E+04</pdfrwt>
<pdfrwt beam="2">  1       -4 0.84813890E-01 0.21087183E+04</pdfrwt>
<totfact> 0.59659777E-02</totfact>
</mgrwt>
</event>
<event>
12    1  0.1495204E-007  0.4151058E+04  0.7818608E-02  0.7974748E-01
         -2   -1    0    0    0  501 -0.00000000000E+00  0.00000000000E+00  0.10728582573E+04  0.10728582573E+04  0.00000000000E+00 0.  1.
          2   -1    0    0  501    0  0.00000000000E+00 -0.00000000000E+00 -0.40152756510E+04  0.40152756510E+04  0.00000000000E+00 0. -1.
         23    2    1    2    0    0 -0.13977190722E+04  0.13768009124E+04 -0.11019896353E+04  0.22520712839E+04  0.90799527835E+02 0.  0.
        254    2    1    2    0    0  0.13977190722E+04 -0.13768009124E+04 -0.18404277585E+04  0.28360626243E+04  0.89826361251E+03 0.  0.
        -24    2    4    4    0    0 -0.16952701337E+02 -0.44936002406E+00  0.55608332051E+02  0.98000033161E+02  0.78893116930E+02 0.  0.
         24    2    4    4    0    0  0.14146717736E+04 -0.13763515524E+04 -0.18960360905E+04  0.27380625912E+04  0.79962952602E+02 0.  0.
         11    1    3    3    0    0 -0.30877813088E+03  0.34343394626E+03 -0.28989631001E+03  0.54528036835E+03  0.00000000000E+00 0.  1.
        -11    1    3    3    0    0 -0.10889409414E+04  0.10333669662E+04 -0.81209332528E+03  0.17067909156E+04  0.00000000000E+00 0. -1.
          4    1    6    6  502    0  0.74567563543E+03 -0.78078740731E+03 -0.10413103947E+04  0.14999961556E+04  0.00000000000E+00 0. -1.
          1    1    5    5  503    0  0.29227183400E+02  0.81225837819E+01  0.36068459804E+02  0.47128955106E+02  0.00000000000E+00 0. -1.
         -2    1    5    5    0  503 -0.46179884737E+02 -0.85719438060E+01  0.19539872247E+02  0.50871078054E+02  0.00000000000E+00 0.  1.
         -3    1    6    6    0  502  0.66899613815E+03 -0.59556414510E+03 -0.85472569583E+03  0.12380664356E+04  0.00000000000E+00 0.  1.
<mgrwt>
<rscale>  0 0.41510585E+04</rscale>
<asrwt>0</asrwt>
<pdfrwt beam="1">  1        2 0.61773472E+00 0.41510585E+04</pdfrwt>
<pdfrwt beam="2">  1       -2 0.16505512E+00 0.41510585E+04</pdfrwt>
<totfact> 0.59699432E-02</totfact>
</mgrwt>
</event>
<event>
12    1  0.1495204E-007  0.2248217E+04  0.7818608E-02  0.8498623E-01
          1   -1    0    0  501    0  0.00000000000E+00  0.00000000000E+00  0.16834706119E+04  0.16834706119E+04  0.00000000000E+00 0. -1.
         -1   -1    0    0    0  501 -0.00000000000E+00 -0.00000000000E+00 -0.75060422187E+03  0.75060422187E+03  0.00000000000E+00 0.  1.
         23    2    1    2    0    0  0.25859913125E+03 -0.54411031233E+03  0.11805686193E+04  0.13285495185E+04  0.91498719211E+02 0.  0.
        254    2    1    2    0    0 -0.25859913125E+03  0.54411031233E+03 -0.24770222926E+03  0.11055253153E+04  0.89325264379E+03 0.  0.
        -24    2    4    4    0    0  0.71622751968E+02  0.31914379573E+02 -0.44592325604E+03  0.45983540816E+03  0.80328737703E+02 0.  0.
         24    2    4    4    0    0 -0.33022188322E+03  0.51219593275E+03  0.19822102678E+03  0.64568990710E+03  0.78947545821E+02 0.  0.
         11    1    3    3    0    0  0.26465004443E+03 -0.51930095570E+03  0.11443801809E+04  0.12842582011E+04  0.00000000000E+00 0. -1.
        -11    1    3    3    0    0 -0.60509131772E+01 -0.24809356628E+02  0.36188438394E+02  0.44291317433E+02  0.00000000000E+00 0.  1.
          2    1    6    6  502    0 -0.48263739593E+02  0.37281382496E+02  0.78275647205E+01  0.61486265213E+02  0.00000000000E+00 0. -1.
          3    1    5    5  503    0  0.22703849460E+02  0.30287362261E+02 -0.60840082040E+02  0.71654062521E+02  0.00000000000E+00 0. -1.
         -4    1    5    5    0  503  0.48918902509E+02  0.16270173120E+01 -0.38508317400E+03  0.38818134564E+03  0.00000000000E+00 0.  1.
         -1    1    6    6    0  502 -0.28195814363E+03  0.47491455026E+03  0.19039346205E+03  0.58420364189E+03  0.00000000000E+00 0.  1.
<mgrwt>
<rscale>  0 0.22482172E+04</rscale>
<asrwt>0</asrwt>
<pdfrwt beam="1">  1        1 0.25899548E+00 0.22482172E+04</pdfrwt>
<pdfrwt beam="2">  1       -1 0.11547757E+00 0.22482172E+04</pdfrwt>
<totfact> 0.30179615E+00</totfact>
</mgrwt>
</event>
<event>
12    1  0.1495204E-007  0.1102931E+04  0.7818608E-02  0.9202340E-01
         -1   -1    0    0    0  501 -0.00000000000E+00  0.00000000000E+00  0.12748704147E+04  0.12748704147E+04  0.00000000000E+00 0.  1.
          1   -1    0    0  501    0  0.00000000000E+00 -0.00000000000E+00 -0.23854506513E+03  0.23854506513E+03  0.00000000000E+00 0. -1.
         23    2    1    2    0    0  0.13435387566E+03  0.23390660056E+01  0.25184828079E+02  0.16546966733E+03  0.93217488187E+02 0.  0.
        254    2    1    2    0    0 -0.13435387566E+03 -0.23390660056E+01  0.10111405215E+04  0.13479458125E+04  0.88119028827E+03 0.  0.
        -24    2    4    4    0    0 -0.45018762139E+03  0.13334487476E+03  0.32550195793E+03  0.57685840367E+03  0.79776833746E+02 0.  0.
         24    2    4    4    0    0  0.31583374572E+03 -0.13568394076E+03  0.68563856358E+03  0.77108740885E+03  0.79463611207E+02 0.  0.
         11    1    3    3    0    0  0.13295550406E+03  0.25897204172E+02  0.35011681049E+02  0.13990585782E+03  0.00000000000E+00 0. -1.
        -11    1    3    3    0    0  0.13983716059E+01 -0.23558138166E+02 -0.98268529705E+01  0.25563809503E+02  0.00000000000E+00 0.  1.
          2    1    6    6  502    0  0.10925770856E+02  0.99620214720E+01  0.24955948683E+02  0.29007132145E+02  0.00000000000E+00 0. -1.
          1    1    5    5  503    0  0.47010787286E+00  0.28407895199E+01 -0.29650365854E+01  0.41331015547E+01  0.00000000000E+00 0. -1.
         -2    1    5    5    0  503 -0.45065772926E+03  0.13050408524E+03  0.32846699451E+03  0.57272530212E+03  0.00000000000E+00 0.  1.
         -1    1    6    6    0  502  0.30490797486E+03 -0.14564596224E+03  0.66068261490E+03  0.74208027671E+03  0.00000000000E+00 0.  1.
<mgrwt>
<rscale>  0 0.11029307E+04</rscale>
<asrwt>0</asrwt>
<pdfrwt beam="1">  1        1 0.36699242E-01 0.11029307E+04</pdfrwt>
<pdfrwt beam="2">  1       -1 0.19613391E+00 0.11029307E+04</pdfrwt>
<totfact> 0.18867821E+01</totfact>
</mgrwt>
</event>
<event>
12    1  0.1495204E-007  0.1410736E+04  0.7818608E-02  0.8946084E-01
         -2   -1    0    0    0  501 -0.00000000000E+00  0.00000000000E+00  0.36237190487E+03  0.36237190487E+03  0.00000000000E+00 0.  1.
          2   -1    0    0  501    0  0.00000000000E+00 -0.00000000000E+00 -0.13730199124E+04  0.13730199124E+04  0.00000000000E+00 0. -1.
         23    2    1    2    0    0 -0.34963693903E+03  0.10344932651E+03 -0.64710388220E+03  0.74836298878E+03  0.91411029527E+02 0.  0.
        254    2    1    2    0    0  0.34963693903E+03 -0.10344932651E+03 -0.36354412528E+03  0.98702882845E+03  0.84208896494E+03 0.  0.
        -24    2    4    4    0    0  0.27705889690E+03 -0.15514644241E+03 -0.62175317640E+03  0.70244022007E+03  0.77544822308E+02 0.  0.
         24    2    4    4    0    0  0.72578042136E+02  0.51697115899E+02  0.25820905112E+03  0.28458860838E+03  0.79866125148E+02 0.  0.
         11    1    3    3    0    0 -0.17878428641E+03  0.94535688818E+02 -0.30657495923E+03  0.36727241001E+03  0.00000000000E+00 0.  1.
        -11    1    3    3    0    0 -0.17085265262E+03  0.89136376938E+01 -0.34052892297E+03  0.38109057877E+03  0.00000000000E+00 0. -1.
          4    1    6    6  502    0  0.86691678436E+01 -0.78117077410E+01  0.12350875866E+03  0.12405881957E+03  0.00000000000E+00 0. -1.
          1    1    5    5  503    0  0.79012809176E+02 -0.25218001208E+02 -0.10355771603E+03  0.13267694656E+03  0.00000000000E+00 0. -1.
         -2    1    5    5    0  503  0.19804608772E+03 -0.12992844120E+03 -0.51819546037E+03  0.56976327351E+03  0.00000000000E+00 0.  1.
         -3    1    6    6    0  502  0.63908874292E+02  0.59508823641E+02  0.13470029246E+03  0.16052978880E+03  0.00000000000E+00 0.  1.
<mgrwt>
<rscale>  0 0.14107358E+04</rscale>
<asrwt>0</asrwt>
<pdfrwt beam="1">  1        2 0.21123383E+00 0.14107358E+04</pdfrwt>
<pdfrwt beam="2">  1       -2 0.55749524E-01 0.14107358E+04</pdfrwt>
<totfact> 0.44075432E+01</totfact>
</mgrwt>
</event>
<event>
12    1  0.1495204E-007  0.1433220E+04  0.7818608E-02  0.8930117E-01
          2   -1    0    0  501    0  0.00000000000E+00  0.00000000000E+00  0.12102184002E+04  0.12102184002E+04  0.00000000000E+00 0. -1.
         -2   -1    0    0    0  501 -0.00000000000E+00 -0.00000000000E+00 -0.42432849880E+03  0.42432849880E+03  0.00000000000E+00 0.  1.
         23    2    1    2    0    0 -0.37000854214E+03  0.11656051244E+03  0.45007552572E+03  0.60118930389E+03  0.91476368199E+02 0.  0.
        254    2    1    2    0    0  0.37000854214E+03 -0.11656051244E+03  0.33581437571E+03  0.10333575951E+04  0.89697488827E+03 0.  0.
        -24    2    4    4    0    0  0.97644321435E+02  0.36539611078E+03  0.26606246648E+03  0.46921132144E+03  0.79506583505E+02 0.  0.
         24    2    4    4    0    0  0.27236422070E+03 -0.48195662322E+03  0.69751909231E+02  0.56414627370E+03  0.83254032328E+02 0.  0.
         13    1    3    3    0    0 -0.53587685670E+02  0.39912743726E+02  0.12132621840E+03  0.13850891105E+03  0.00000000000E+00 0.  1.
        -13    1    3    3    0    0 -0.31642085647E+03  0.76647768718E+02  0.32874930732E+03  0.46268039284E+03  0.00000000000E+00 0. -1.
          4    1    6    6  502    0 -0.24205088586E+01 -0.30144995650E+01  0.75514152754E+01  0.84835100886E+01  0.00000000000E+00 0. -1.
          1    1    5    5  503    0  0.32006843120E+02  0.59151652958E+02  0.17855629683E+02  0.69585771287E+02  0.00000000000E+00 0. -1.
         -2    1    5    5    0  503  0.65637478315E+02  0.30624445782E+03  0.24820683680E+03  0.39962555015E+03  0.00000000000E+00 0.  1.
         -3    1    6    6    0  502  0.27478472956E+03 -0.47894212366E+03  0.62200493955E+02  0.55566276361E+03  0.00000000000E+00 0.  1.
<mgrwt>
<rscale>  0 0.14332204E+04</rscale>
<asrwt>0</asrwt>
<pdfrwt beam="1">  1        2 0.18618744E+00 0.14332204E+04</pdfrwt>
<pdfrwt beam="2">  1       -2 0.65281308E-01 0.14332204E+04</pdfrwt>
<totfact> 0.39224762E+01</totfact>
</mgrwt>
</event>
<event>
12    1  0.1495204E-007  0.1802808E+04  0.7818608E-02  0.8704808E-01
         -1   -1    0    0    0  501 -0.00000000000E+00  0.00000000000E+00  0.75410366342E+03  0.75410366342E+03  0.00000000000E+00 0.  1.
          1   -1    0    0  501    0  0.00000000000E+00 -0.00000000000E+00 -0.10774769808E+04  0.10774769808E+04  0.00000000000E+00 0. -1.
         23    2    1    2    0    0 -0.21323740192E+03  0.22201189032E+03 -0.72632790748E+03  0.79400226876E+03  0.90154892173E+02 0.  0.
        254    2    1    2    0    0  0.21323740192E+03 -0.22201189032E+03  0.40295459014E+03  0.10375783754E+04  0.90522760364E+03 0.  0.
        -24    2    4    4    0    0  0.23849355209E+03 -0.42994186457E+03 -0.80383307897E+02  0.50453503484E+03  0.79780598519E+02 0.  0.
         24    2    4    4    0    0 -0.25256150166E+02  0.20792997424E+03  0.48333789804E+03  0.53304334058E+03  0.81528718527E+02 0.  0.
         13    1    3    3    0    0 -0.13931207312E+03  0.84970429848E+02 -0.32876576202E+03  0.36703508544E+03  0.00000000000E+00 0.  1.
        -13    1    3    3    0    0 -0.73925328799E+02  0.13704146048E+03 -0.39756214547E+03  0.42696718332E+03  0.00000000000E+00 0. -1.
          4    1    6    6  502    0  0.40091333848E+01  0.21213501839E+01  0.72173279645E+02  0.72315666158E+02  0.00000000000E+00 0. -1.
          1    1    5    5  503    0  0.23027135505E+03 -0.41984932996E+03 -0.63239470901E+02  0.48300888967E+03  0.00000000000E+00 0. -1.
         -2    1    5    5    0  503  0.82221970359E+01 -0.10092534611E+02 -0.17143836996E+02  0.21526145171E+02  0.00000000000E+00 0.  1.
         -3    1    6    6    0  502 -0.29265283550E+02  0.20580862406E+03  0.41116461839E+03  0.46072767442E+03  0.00000000000E+00 0.  1.
<mgrwt>
<rscale>  0 0.18028082E+04</rscale>
<asrwt>0</asrwt>
<pdfrwt beam="1">  1        1 0.16576569E+00 0.18028082E+04</pdfrwt>
<pdfrwt beam="2">  1       -1 0.11601595E+00 0.18028082E+04</pdfrwt>
<totfact> 0.83612115E+00</totfact>
</mgrwt>
</event>
<event>
12    1  0.1495204E-007  0.1888129E+04  0.7818608E-02  0.8660788E-01
         -2   -1    0    0    0  501 -0.00000000000E+00  0.00000000000E+00  0.39438524346E+03  0.39438524346E+03  0.00000000000E+00 0.  1.
          2   -1    0    0  501    0  0.00000000000E+00 -0.00000000000E+00 -0.22598667778E+04  0.22598667778E+04  0.00000000000E+00 0. -1.
         23    2    1    2    0    0  0.65441013238E+03 -0.13439442264E+03 -0.11076914421E+04  0.12967210949E+04  0.90502955431E+02 0.  0.
        254    2    1    2    0    0 -0.65441013238E+03  0.13439442264E+03 -0.75779009230E+03  0.13575309264E+04  0.90682407881E+03 0.  0.
        -24    2    4    4    0    0 -0.26259421669E+03 -0.25381607387E+03  0.48269391137E+02  0.37746938325E+03  0.82309654190E+02 0.  0.
         24    2    4    4    0    0 -0.39181591569E+03  0.38821049652E+03 -0.80605948343E+03  0.98006154314E+03  0.81003926507E+02 0.  0.
         13    1    3    3    0    0  0.52691299169E+03 -0.72447493518E+02 -0.85271718470E+03  0.10049937996E+04  0.00000000000E+00 0. -1.
        -13    1    3    3    0    0  0.12749714069E+03 -0.61946929126E+02 -0.25497425738E+03  0.29172729533E+03  0.00000000000E+00 0.  1.
          4    1    6    6  502    0 -0.38517308843E+03  0.38543382938E+03 -0.80594077573E+03  0.97286077054E+03  0.00000000000E+00 0. -1.
          1    1    5    5  503    0 -0.21140629215E+03 -0.23388552434E+03  0.60916717844E+02  0.32110108280E+03  0.00000000000E+00 0. -1.
         -2    1    5    5    0  503 -0.51187924537E+02 -0.19930549528E+02 -0.12647326707E+02  0.56368300451E+02  0.00000000000E+00 0.  1.
         -3    1    6    6    0  502 -0.66428272646E+01  0.27766671369E+01 -0.11870770563E+00  0.72007725957E+01  0.00000000000E+00 0.  1.
<mgrwt>
<rscale>  0 0.18881293E+04</rscale>
<asrwt>0</asrwt>
<pdfrwt beam="1">  1        2 0.34767180E+00 0.18881293E+04</pdfrwt>
<pdfrwt beam="2">  1       -2 0.60674654E-01 0.18881293E+04</pdfrwt>
<totfact> 0.11330395E+01</totfact>
</mgrwt>
</event>
<event>
12    1  0.1495204E-007  0.1224657E+04  0.7818608E-02  0.9091544E-01
         -1   -1    0    0    0  501 -0.00000000000E+00  0.00000000000E+00  0.15661580512E+03  0.15661580512E+03  0.00000000000E+00 0.  1.
          1   -1    0    0  501    0  0.00000000000E+00 -0.00000000000E+00 -0.23940494519E+04  0.23940494519E+04  0.00000000000E+00 0. -1.
         23    2    1    2    0    0  0.21047643980E+03 -0.11487801504E+02 -0.88543002399E+03  0.91441307545E+03  0.87935452914E+02 0.  0.
        254    2    1    2    0    0 -0.21047643980E+03  0.11487801504E+02 -0.13520036228E+04  0.16362521815E+04  0.89720404833E+03 0.  0.
        -24    2    4    4    0    0 -0.39092375019E+03 -0.32089333027E+03 -0.94524303976E+03  0.10748885205E+04  0.78147421500E+02 0.  0.
         24    2    4    4    0    0  0.18044731038E+03  0.33238113177E+03 -0.40676058299E+03  0.56136366100E+03  0.81464958314E+02 0.  0.
         13    1    3    3    0    0  0.11556563326E+03 -0.46672353516E+02 -0.41995876049E+03  0.43806287755E+03  0.00000000000E+00 0. -1.
        -13    1    3    3    0    0  0.94910806545E+02  0.35184552011E+02 -0.46547126350E+03  0.47635019790E+03  0.00000000000E+00 0.  1.
          2    1    6    6  502    0  0.64601773362E+02  0.19090051336E+03 -0.18140660324E+03  0.27115447778E+03  0.00000000000E+00 0. -1.
          1    1    5    5  503    0 -0.36696576936E+03 -0.32130282910E+03 -0.89766223121E+03  0.10216148321E+04  0.00000000000E+00 0. -1.
         -2    1    5    5    0  503 -0.23957980825E+02  0.40949883371E+00 -0.47580808555E+02  0.53273688414E+02  0.00000000000E+00 0.  1.
         -1    1    6    6    0  502  0.11584553702E+03  0.14148061841E+03 -0.22535397975E+03  0.29020918322E+03  0.00000000000E+00 0.  1.
<mgrwt>
<rscale>  0 0.12246567E+04</rscale>
<asrwt>0</asrwt>
<pdfrwt beam="1">  1        1 0.36831527E+00 0.12246567E+04</pdfrwt>
<pdfrwt beam="2">  1       -1 0.24094742E-01 0.12246567E+04</pdfrwt>
<totfact> 0.23756721E+01</totfact>
</mgrwt>
</event>
<event>
12    1  0.1495204E-007  0.2042441E+04  0.7818608E-02  0.8587031E-01
         -2   -1    0    0    0  501 -0.00000000000E+00  0.00000000000E+00  0.38359109073E+03  0.38359109073E+03  0.00000000000E+00 0. -1.
          2   -1    0    0  501    0  0.00000000000E+00 -0.00000000000E+00 -0.27187571029E+04  0.27187571029E+04  0.00000000000E+00 0.  1.
         23    2    1    2    0    0  0.14352901772E+03  0.17947844853E+03  0.25246063138E+03  0.35466513712E+03  0.96113977519E+02 0.  0.
        254    2    1    2    0    0 -0.14352901772E+03 -0.17947844853E+03 -0.25876266435E+04  0.27476830565E+04  0.89506281354E+03 0.  0.
        -24    2    4    4    0    0 -0.23325742526E+03  0.12830248563E+03 -0.21285585384E+03  0.34998704679E+03  0.79452905225E+02 0.  0.
         24    2    4    4    0    0  0.89728407536E+02 -0.30778093417E+03 -0.23747707897E+04  0.23976960097E+04  0.81422114967E+02 0.  0.
         11    1    3    3    0    0  0.67458462164E+02  0.83559287167E+02  0.50908569885E+02  0.11884646009E+03  0.00000000000E+00 0.  1.
        -11    1    3    3    0    0  0.76070555556E+02  0.95919161366E+02  0.20155206150E+03  0.23581867703E+03  0.00000000000E+00 0. -1.
          2    1    6    6  502    0  0.69689278570E+02 -0.30156527880E+03 -0.22462899042E+04  0.22675132958E+04  0.00000000000E+00 0. -1.
          3    1    5    5  503    0 -0.68814244264E+02  0.53023123217E+02 -0.27752313001E+02  0.91197821719E+02  0.00000000000E+00 0. -1.
         -4    1    5    5    0  503 -0.16444318099E+03  0.75279362416E+02 -0.18510354084E+03  0.25878922507E+03  0.00000000000E+00 0.  1.
         -1    1    6    6    0  502  0.20039128966E+02 -0.62156553658E+01 -0.12848088545E+03  0.13018271385E+03  0.00000000000E+00 0.  1.
<mgrwt>
<rscale>  0 0.20424407E+04</rscale>
<asrwt>0</asrwt>
<pdfrwt beam="1">  1        2 0.41827032E+00 0.20424407E+04</pdfrwt>
<pdfrwt beam="2">  1       -2 0.59014014E-01 0.20424407E+04</pdfrwt>
<totfact> 0.64335261E+00</totfact>
</mgrwt>
</event>
<event>
12    1  0.1495204E-007  0.1931955E+04  0.7818608E-02  0.8639112E-01
          2   -1    0    0  501    0  0.00000000000E+00  0.00000000000E+00  0.95445914996E+03  0.95445914996E+03  0.00000000000E+00 0. -1.
         -2   -1    0    0    0  501 -0.00000000000E+00 -0.00000000000E+00 -0.97763478978E+03  0.97763478978E+03  0.00000000000E+00 0.  1.
         23    2    1    2    0    0  0.13698217621E+03 -0.49127567407E+03 -0.55490102291E+03  0.75974359176E+03  0.95808535404E+02 0.  0.
        254    2    1    2    0    0 -0.13698217621E+03  0.49127567407E+03  0.53172538308E+03  0.11723503480E+04  0.91189777436E+03 0.  0.
        -24    2    4    4    0    0  0.35243573816E+02  0.65834543047E+03  0.99642049496E+02  0.67161304244E+03  0.80465678560E+02 0.  0.
         24    2    4    4    0    0 -0.17222575002E+03 -0.16706975640E+03  0.43208333358E+03  0.50073730555E+03  0.80422817258E+02 0.  0.
         13    1    3    3    0    0 -0.24752479868E+01 -0.56755717992E+02 -0.10228052039E+03  0.11699847533E+03  0.00000000000E+00 0. -1.
        -13    1    3    3    0    0  0.13945742420E+03 -0.43451995608E+03 -0.45262050252E+03  0.64274511643E+03  0.00000000000E+00 0.  1.
          2    1    6    6  502    0 -0.25184539511E+02 -0.85357539891E+00  0.85982364552E+02  0.89598865145E+02  0.00000000000E+00 0. -1.
          1    1    5    5  503    0  0.34740689943E+02  0.40430515258E+03  0.23797831780E+02  0.40649220010E+03  0.00000000000E+00 0. -1.
         -2    1    5    5    0  503  0.50288387253E+00  0.25404027789E+03  0.75844217716E+02  0.26512084234E+03  0.00000000000E+00 0.  1.
         -1    1    6    6    0  502 -0.14704121051E+03 -0.16621618100E+03  0.34610096903E+03  0.41113844040E+03  0.00000000000E+00 0.  1.
<mgrwt>
<rscale>  0 0.19319549E+04</rscale>
<asrwt>0</asrwt>
<pdfrwt beam="1">  1        2 0.14683987E+00 0.19319549E+04</pdfrwt>
<pdfrwt beam="2">  1       -2 0.15040535E+00 0.19319549E+04</pdfrwt>
<totfact> 0.74927468E+00</totfact>
</mgrwt>
</event>
<event>
12    1  0.1495204E-007  0.1938886E+04  0.7818608E-02  0.8635739E-01
          2   -1    0    0  501    0  0.00000000000E+00  0.00000000000E+00  0.19164711937E+04  0.19164711937E+04  0.00000000000E+00 0. -1.
         -2   -1    0    0    0  501 -0.00000000000E+00 -0.00000000000E+00 -0.49039069057E+03  0.49039069057E+03  0.00000000000E+00 0.  1.
         23    2    1    2    0    0 -0.21871169390E+03 -0.27590064304E+03 -0.26975221594E+03  0.45287246021E+03  0.91494466158E+02 0.  0.
        254    2    1    2    0    0  0.21871169390E+03  0.27590064304E+03  0.16958327190E+04  0.19539894240E+04  0.90458282559E+03 0.  0.
        -24    2    4    4    0    0  0.20778080018E+03  0.16392842759E+03  0.17740478896E+04  0.17954657991E+04  0.80038309400E+02 0.  0.
         24    2    4    4    0    0  0.10930893716E+02  0.11197221545E+03 -0.78215170522E+02  0.15852362493E+03  0.79717408954E+02 0.  0.
         13    1    3    3    0    0 -0.88641278985E+01 -0.16326925572E+02  0.64091124203E+01  0.19652429469E+02  0.00000000000E+00 0. -1.
        -13    1    3    3    0    0 -0.20984756600E+03 -0.25957371747E+03 -0.27616132836E+03  0.43322003074E+03  0.00000000000E+00 0.  1.
          4    1    6    6  502    0  0.92070768850E+01  0.73106171036E+02 -0.28845371488E+01  0.73740104847E+02  0.00000000000E+00 0. -1.
          1    1    5    5  503    0  0.33373561600E+02 -0.48579564488E+01  0.22963293353E+03  0.23209626993E+03  0.00000000000E+00 0. -1.
         -2    1    5    5    0  503  0.17440723858E+03  0.16878638404E+03  0.15444149560E+04  0.15633695292E+04  0.00000000000E+00 0.  1.
         -3    1    6    6    0  502  0.17238168313E+01  0.38866044413E+02 -0.75330633373E+02  0.84783520080E+02  0.00000000000E+00 0.  1.
<mgrwt>
<rscale>  0 0.19388859E+04</rscale>
<asrwt>0</asrwt>
<pdfrwt beam="1">  1        2 0.29484172E+00 0.19388859E+04</pdfrwt>
<pdfrwt beam="2">  1       -2 0.75444723E-01 0.19388859E+04</pdfrwt>
<totfact> 0.10939230E+01</totfact>
</mgrwt>
</event>
<event>
12    1  0.1495204E-007  0.2125975E+04  0.7818608E-02  0.8549887E-01
          2   -1    0    0  501    0  0.00000000000E+00  0.00000000000E+00  0.19796482810E+04  0.19796482810E+04  0.00000000000E+00 0. -1.
         -2   -1    0    0    0  501 -0.00000000000E+00 -0.00000000000E+00 -0.57077936353E+03  0.57077936353E+03  0.00000000000E+00 0.  1.
         23    2    1    2    0    0  0.39315489605E+03  0.22997319367E+03 -0.30539775894E+03  0.55580189712E+03  0.90495942337E+02 0.  0.
        254    2    1    2    0    0 -0.39315489605E+03 -0.22997319367E+03  0.17142666764E+04  0.19946257474E+04  0.91233940633E+03 0.  0.
        -24    2    4    4    0    0 -0.51396661833E+03 -0.30544779173E+03  0.54261726063E+03  0.81169961691E+03  0.83443024436E+02 0.  0.
         24    2    4    4    0    0  0.12081172228E+03  0.75474598064E+02  0.11716494158E+04  0.11829261305E+04  0.79120095763E+02 0.  0.
         13    1    3    3    0    0  0.11679511643E+02 -0.15412642064E+01 -0.27997514311E+02  0.30375109797E+02  0.00000000000E+00 0. -1.
        -13    1    3    3    0    0  0.38147538441E+03  0.23151445788E+03 -0.27740024463E+03  0.52542678732E+03  0.00000000000E+00 0.  1.
          2    1    6    6  502    0  0.71298826828E+02  0.73262555245E+01  0.71404077187E+03  0.71762902716E+03  0.00000000000E+00 0. -1.
          1    1    5    5  503    0 -0.16390662356E+03 -0.54174478696E+02  0.14734252206E+03  0.22695830938E+03  0.00000000000E+00 0. -1.
         -2    1    5    5    0  503 -0.35005999477E+03 -0.25127331304E+03  0.39527473857E+03  0.58474130753E+03  0.00000000000E+00 0.  1.
         -1    1    6    6    0  502  0.49512895452E+02  0.68148342539E+02  0.45760864390E+03  0.46529710335E+03  0.00000000000E+00 0.  1.
<mgrwt>
<rscale>  0 0.21259750E+04</rscale>
<asrwt>0</asrwt>
<pdfrwt beam="1">  1        2 0.30456127E+00 0.21259750E+04</pdfrwt>
<pdfrwt beam="2">  1       -2 0.87812211E-01 0.21259750E+04</pdfrwt>
<totfact> 0.70526385E+00</totfact>
</mgrwt>
</event>
<event>
12    1  0.1495204E-007  0.1598252E+04  0.7818608E-02  0.8821623E-01
          2   -1    0    0  501    0  0.00000000000E+00  0.00000000000E+00  0.25500504814E+04  0.25500504814E+04  0.00000000000E+00 0. -1.
         -2   -1    0    0    0  501 -0.00000000000E+00 -0.00000000000E+00 -0.25042719973E+03  0.25042719973E+03  0.00000000000E+00 0.  1.
         23    2    1    2    0    0  0.23840796526E+03  0.27800914968E+03  0.14478761647E+04  0.14982635636E+04  0.11966984744E+03 0.  0.
        254    2    1    2    0    0 -0.23840796526E+03 -0.27800914968E+03  0.85174711695E+03  0.13022141175E+04  0.91441840067E+03 0.  0.
        -24    2    4    4    0    0 -0.49006794315E+03 -0.32871857117E+03  0.84463050147E+03  0.10334587575E+04  0.80086400208E+02 0.  0.
         24    2    4    4    0    0  0.25165997788E+03  0.50709421491E+02  0.71166154841E+01  0.26875536005E+03  0.79212419752E+02 0.  0.
         13    1    3    3    0    0  0.17869494828E+03  0.18110159519E+03  0.11815617274E+04  0.12086429531E+04  0.00000000000E+00 0. -1.
        -13    1    3    3    0    0  0.59713016982E+02  0.96907554488E+02  0.26631443729E+03  0.28962061049E+03  0.00000000000E+00 0.  1.
          4    1    6    6  502    0  0.65997927708E+01  0.89793742713E+00 -0.16282043933E+02  0.17591717110E+02  0.00000000000E+00 0. -1.
          1    1    5    5  503    0 -0.19044857487E+03 -0.83621422673E+02  0.31385596476E+03  0.37652193643E+03  0.00000000000E+00 0. -1.
         -2    1    5    5    0  503 -0.29961936828E+03 -0.24509714850E+03  0.53077453671E+03  0.65693682106E+03  0.00000000000E+00 0.  1.
         -3    1    6    6    0  502  0.24506018511E+03  0.49811484064E+02  0.23398659417E+02  0.25116364294E+03  0.00000000000E+00 0.  1.
<mgrwt>
<rscale>  0 0.15982515E+04</rscale>
<asrwt>0</asrwt>
<pdfrwt beam="1">  1        2 0.39231544E+00 0.15982515E+04</pdfrwt>
<pdfrwt beam="2">  1       -2 0.38527263E-01 0.15982515E+04</pdfrwt>
<totfact> 0.19917728E+01</totfact>
</mgrwt>
</event>
<event>
12    1  0.1495204E-007  0.2136670E+04  0.7818608E-02  0.8545260E-01
          1   -1    0    0  501    0  0.00000000000E+00  0.00000000000E+00  0.13187525113E+04  0.13187525113E+04  0.00000000000E+00 0. -1.
         -1   -1    0    0    0  501 -0.00000000000E+00 -0.00000000000E+00 -0.86546924872E+03  0.86546924872E+03  0.00000000000E+00 0.  1.
         23    2    1    2    0    0 -0.56995077526E+03  0.48733302051E+03 -0.27663275711E+03  0.80443798189E+03  0.90870376354E+02 0.  0.
        254    2    1    2    0    0  0.56995077526E+03 -0.48733302051E+03  0.72991601970E+03  0.13797837781E+04  0.89927110458E+03 0.  0.
        -24    2    4    4    0    0  0.25084526341E+03 -0.54755444764E+03  0.83180129197E+03  0.10301501819E+04  0.81097402664E+02 0.  0.
         24    2    4    4    0    0  0.31910551184E+03  0.60221427130E+02 -0.10188527227E+03  0.34963359621E+03  0.80050577251E+02 0.  0.
         11    1    3    3    0    0 -0.59170876888E+02  0.61062130014E+02 -0.30068354869E+01  0.85081240313E+02  0.00000000000E+00 0. -1.
        -11    1    3    3    0    0 -0.51077989837E+03  0.42627089049E+03 -0.27362592162E+03  0.71935674157E+03  0.00000000000E+00 0.  1.
          4    1    6    6  502    0  0.26211408083E+03  0.44015370726E+02 -0.49101949901E+02  0.27028160446E+03  0.00000000000E+00 0. -1.
          1    1    5    5  503    0  0.32221011373E+02 -0.11973345630E+03  0.13001546692E+03  0.17966167029E+03  0.00000000000E+00 0. -1.
         -2    1    5    5    0  503  0.21862425204E+03 -0.42782099133E+03  0.70178582505E+03  0.85048851165E+03  0.00000000000E+00 0.  1.
         -3    1    6    6    0  502  0.56991431016E+02  0.16206056405E+02 -0.52783322370E+02  0.79351991745E+02  0.00000000000E+00 0.  1.
<mgrwt>
<rscale>  0 0.21366701E+04</rscale>
<asrwt>0</asrwt>
<pdfrwt beam="1">  1        1 0.20288500E+00 0.21366701E+04</pdfrwt>
<pdfrwt beam="2">  1       -1 0.13314912E+00 0.21366701E+04</pdfrwt>
<totfact> 0.38374187E+00</totfact>
</mgrwt>
</event>
<event>
12    1  0.1495204E-007  0.2007497E+04  0.7818608E-02  0.8603123E-01
          2   -1    0    0  501    0  0.00000000000E+00  0.00000000000E+00  0.61025804821E+03  0.61025804821E+03  0.00000000000E+00 0.  1.
         -2   -1    0    0    0  501 -0.00000000000E+00 -0.00000000000E+00 -0.16509597885E+04  0.16509597885E+04  0.00000000000E+00 0. -1.
         23    2    1    2    0    0 -0.77424039054E+03 -0.11323434800E+03 -0.58575676774E+03  0.98231043624E+03  0.97737414989E+02 0.  0.
        254    2    1    2    0    0  0.77424039054E+03  0.11323434800E+03 -0.45494497258E+03  0.12789074005E+04  0.90352587737E+03 0.  0.
        -24    2    4    4    0    0  0.91341046190E+03  0.16391381582E+03 -0.16810752700E+03  0.94647804579E+03  0.79838208957E+02 0.  0.
         24    2    4    4    0    0 -0.13917007136E+03 -0.50679467815E+02 -0.28683744558E+03  0.33242935471E+03  0.79352621046E+02 0.  0.
         13    1    3    3    0    0 -0.39521075939E+03 -0.90854380179E+02 -0.34761925138E+03  0.53412096632E+03  0.00000000000E+00 0. -1.
        -13    1    3    3    0    0 -0.37902963115E+03 -0.22379967823E+02 -0.23813751636E+03  0.44818946992E+03  0.00000000000E+00 0.  1.
          4    1    6    6  502    0 -0.13161098959E+03 -0.42530424187E+02 -0.19029856772E+03  0.23525270336E+03  0.00000000000E+00 0. -1.
          1    1    5    5  503    0  0.88077847798E+03  0.17239437372E+03 -0.16585017560E+03  0.91268659906E+03  0.00000000000E+00 0. -1.
         -2    1    5    5    0  503  0.32631983917E+02 -0.84805578983E+01 -0.22573514043E+01  0.33791446728E+02  0.00000000000E+00 0.  1.
         -3    1    6    6    0  502 -0.75590817700E+01 -0.81490436276E+01 -0.96538877859E+02  0.97176651350E+02  0.00000000000E+00 0.  1.
<mgrwt>
<rscale>  0 0.20074974E+04</rscale>
<asrwt>0</asrwt>
<pdfrwt beam="1">  1        2 0.93885854E-01 0.20074974E+04</pdfrwt>
<pdfrwt beam="2">  1       -2 0.25399381E+00 0.20074974E+04</pdfrwt>
<totfact> 0.27392641E+00</totfact>
</mgrwt>
</event>
<event>
12    1  0.1495204E-007  0.3771390E+04  0.7818608E-02  0.8052322E-01
         -2   -1    0    0    0  501 -0.00000000000E+00  0.00000000000E+00  0.24103914541E+04  0.24103914541E+04  0.00000000000E+00 0.  1.
          2   -1    0    0  501    0  0.00000000000E+00 -0.00000000000E+00 -0.14752151850E+04  0.14752151850E+04  0.00000000000E+00 0. -1.
         23    2    1    2    0    0  0.76696390815E+02 -0.17740947992E+04  0.38727511723E+03  0.18198990844E+04  0.93573330745E+02 0.  0.
        254    2    1    2    0    0 -0.76696390815E+02  0.17740947992E+04  0.54790115187E+03  0.20657075547E+04  0.90202956526E+03 0.  0.
        -24    2    4    4    0    0 -0.40697157791E+03  0.12466767275E+04  0.58394225078E+03  0.14372376682E+04  0.69532973095E+02 0.  0.
         24    2    4    4    0    0  0.33027518710E+03  0.52741807165E+03 -0.36041098903E+02  0.62846988656E+03  0.80149335602E+02 0.  0.
         11    1    3    3    0    0 -0.21146130333E+02 -0.29731676553E+03  0.56654352687E+02  0.30340424119E+03  0.00000000000E+00 0.  1.
        -11    1    3    3    0    0  0.97842521148E+02 -0.14767780336E+04  0.33062076454E+03  0.15164948432E+04  0.00000000000E+00 0. -1.
          2    1    6    6  502    0  0.29428537971E+03  0.44754407923E+03 -0.56207167847E+02  0.53857110327E+03  0.00000000000E+00 0. -1.
          3    1    5    5  503    0 -0.20252284087E+03  0.63220191609E+03  0.33341319390E+03  0.74287221085E+03  0.00000000000E+00 0. -1.
         -4    1    5    5    0  503 -0.20444873704E+03  0.61447481143E+03  0.25052905687E+03  0.69436545730E+03  0.00000000000E+00 0.  1.
         -1    1    6    6    0  502  0.35989807382E+02  0.79873992419E+02  0.20166068944E+02  0.89898783290E+02  0.00000000000E+00 0.  1.
<mgrwt>
<rscale>  0 0.37713902E+04</rscale>
<asrwt>0</asrwt>
<pdfrwt beam="1">  1        2 0.22695618E+00 0.37713902E+04</pdfrwt>
<pdfrwt beam="2">  1       -2 0.37082945E+00 0.37713902E+04</pdfrwt>
<totfact> 0.12078189E-01</totfact>
</mgrwt>
</event>
<event>
12    1  0.1495204E-007  0.2941829E+04  0.7818608E-02  0.8260540E-01
         -1   -1    0    0    0  501 -0.00000000000E+00  0.00000000000E+00  0.98727254978E+03  0.98727254978E+03  0.00000000000E+00 0.  1.
          1   -1    0    0  501    0  0.00000000000E+00 -0.00000000000E+00 -0.21914810178E+04  0.21914810178E+04  0.00000000000E+00 0. -1.
         23    2    1    2    0    0 -0.64131266186E+03  0.33891029950E+03  0.66088856569E+03  0.98556636562E+03  0.91789124787E+02 0.  0.
        254    2    1    2    0    0  0.64131266186E+03 -0.33891029950E+03 -0.18650970338E+04  0.21931872020E+04  0.89740795422E+03 0.  0.
        -24    2    4    4    0    0 -0.16548365019E+03  0.75209462540E+02 -0.14077906771E+03  0.24331817696E+03  0.79647269873E+02 0.  0.
         24    2    4    4    0    0  0.80679631205E+03 -0.41411976204E+03 -0.17243179660E+04  0.19498690250E+04  0.79380730152E+02 0.  0.
         13    1    3    3    0    0 -0.60199064265E+03  0.29003667667E+03  0.59763538908E+03  0.89648316545E+03  0.00000000000E+00 0.  1.
        -13    1    3    3    0    0 -0.39322019211E+02  0.48873622825E+02  0.63253176605E+02  0.89083200175E+02  0.00000000000E+00 0. -1.
          2    1    6    6  502    0  0.72101579715E+03 -0.38828464299E+03 -0.15885070637E+04  0.17871719098E+04  0.00000000000E+00 0. -1.
          3    1    5    5  503    0 -0.11401878396E+03  0.81764402498E+02 -0.73600269317E+02  0.15843831688E+03  0.00000000000E+00 0. -1.
         -4    1    5    5    0  503 -0.51464866227E+02 -0.65549399578E+01 -0.67178798397E+02  0.84879860083E+02  0.00000000000E+00 0.  1.
         -3    1    6    6    0  502  0.85780514899E+02 -0.25835119046E+02 -0.13581090233E+03  0.16269711523E+03  0.00000000000E+00 0.  1.
<mgrwt>
<rscale>  0 0.29418287E+04</rscale>
<asrwt>0</asrwt>
<pdfrwt beam="1">  1        1 0.33715093E+00 0.29418287E+04</pdfrwt>
<pdfrwt beam="2">  1       -1 0.15188808E+00 0.29418287E+04</pdfrwt>
<totfact> 0.63681597E-01</totfact>
</mgrwt>
</event>
<event>
12    1  0.1495204E-007  0.2775457E+04  0.7818608E-02  0.8310929E-01
         -1   -1    0    0    0  501 -0.00000000000E+00  0.00000000000E+00  0.48379578030E+03  0.48379578030E+03  0.00000000000E+00 0.  1.
          1   -1    0    0  501    0  0.00000000000E+00 -0.00000000000E+00 -0.39805841794E+04  0.39805841794E+04  0.00000000000E+00 0. -1.
         23    2    1    2    0    0  0.89868834957E+03 -0.58229116361E+03 -0.56333784578E+03  0.12134356381E+04  0.91502844506E+02 0.  0.
        254    2    1    2    0    0 -0.89868834957E+03  0.58229116361E+03 -0.29334505533E+04  0.32509443215E+04  0.90377158854E+03 0.  0.
        -24    2    4    4    0    0 -0.42572166888E+03  0.47435682474E+02 -0.31931358010E+03  0.54003346515E+03  0.78650478219E+02 0.  0.
         24    2    4    4    0    0 -0.47296668069E+03  0.53485548114E+03 -0.26141369732E+04  0.27109108564E+04  0.74549915518E+02 0.  0.
         13    1    3    3    0    0  0.78060278849E+02 -0.43876534493E+02 -0.20617277779E+02  0.91889224374E+02  0.00000000000E+00 0. -1.
        -13    1    3    3    0    0  0.82062807072E+03 -0.53841462912E+03 -0.54272056800E+03  0.11215464138E+04  0.00000000000E+00 0.  1.
          4    1    6    6  502    0 -0.40158289333E+03  0.48327394221E+03 -0.23453798422E+04  0.24280916638E+04  0.00000000000E+00 0. -1.
          1    1    5    5  503    0 -0.41967854326E+03  0.48162882607E+02 -0.29568855812E+03  0.51563695206E+03  0.00000000000E+00 0. -1.
         -2    1    5    5    0  503 -0.60431256224E+01 -0.72720013375E+00 -0.23625021980E+02  0.24396513089E+02  0.00000000000E+00 0.  1.
         -3    1    6    6    0  502 -0.71383787353E+02  0.51581538930E+02 -0.26875713096E+03  0.28281919259E+03  0.00000000000E+00 0.  1.
<mgrwt>
<rscale>  0 0.27754566E+04</rscale>
<asrwt>0</asrwt>
<pdfrwt beam="1">  1        1 0.61239756E+00 0.27754566E+04</pdfrwt>
<pdfrwt beam="2">  1       -1 0.74430121E-01 0.27754566E+04</pdfrwt>
<totfact> 0.15735585E-01</totfact>
</mgrwt>
</event>
<event>
12    1  0.1495204E-007  0.1669001E+04  0.7818608E-02  0.8779244E-01
         -1   -1    0    0    0  501 -0.00000000000E+00  0.00000000000E+00  0.40862653322E+03  0.40862653322E+03  0.00000000000E+00 0.  1.
          1   -1    0    0  501    0  0.00000000000E+00 -0.00000000000E+00 -0.17042246583E+04  0.17042246583E+04  0.00000000000E+00 0. -1.
         23    2    1    2    0    0  0.31351255888E+03  0.48548572023E+03 -0.30552592185E+03  0.66007836247E+03  0.91492330555E+02 0.  0.
        254    2    1    2    0    0 -0.31351255888E+03 -0.48548572023E+03 -0.99007220327E+03  0.14527728291E+04  0.89236731009E+03 0.  0.
        -24    2    4    4    0    0  0.20220861134E+03 -0.48016628834E+03 -0.37967489958E+03  0.64975336732E+03  0.81107471938E+02 0.  0.
         24    2    4    4    0    0 -0.51572117022E+03 -0.53194318922E+01 -0.61039730368E+03  0.80301946177E+03  0.79112362268E+02 0.  0.
         13    1    3    3    0    0  0.15149199418E+03  0.31452476047E+03 -0.19533443838E+03  0.40003898819E+03  0.00000000000E+00 0.  1.
        -13    1    3    3    0    0  0.16202056470E+03  0.17096095976E+03 -0.11019148346E+03  0.26003937428E+03  0.00000000000E+00 0. -1.
          2    1    6    6  502    0 -0.16271102703E+02 -0.11422730732E+01 -0.29140861671E+01  0.16569413663E+02  0.00000000000E+00 0. -1.
          3    1    5    5  503    0  0.42214159743E+02 -0.40746156960E+02 -0.55298937539E+02  0.80624171827E+02  0.00000000000E+00 0. -1.
         -4    1    5    5    0  503  0.15999445160E+03 -0.43942013138E+03 -0.32437596205E+03  0.56912919549E+03  0.00000000000E+00 0.  1.
         -1    1    6    6    0  502 -0.49945006752E+03 -0.41771588190E+01 -0.60748321752E+03  0.78645004810E+03  0.00000000000E+00 0.  1.
<mgrwt>
<rscale>  0 0.16690014E+04</rscale>
<asrwt>0</asrwt>
<pdfrwt beam="1">  1        1 0.26218841E+00 0.16690014E+04</pdfrwt>
<pdfrwt beam="2">  1       -1 0.62865619E-01 0.16690014E+04</pdfrwt>
<totfact> 0.11592503E+01</totfact>
</mgrwt>
</event>
<event>
12    1  0.1495204E-007  0.2556893E+04  0.7818608E-02  0.8382993E-01
         -3   -1    0    0    0  501 -0.00000000000E+00  0.00000000000E+00  0.10263733257E+04  0.10263733257E+04  0.00000000000E+00 0.  1.
          3   -1    0    0  501    0  0.00000000000E+00 -0.00000000000E+00 -0.15924277456E+04  0.15924277456E+04  0.00000000000E+00 0. -1.
         23    2    1    2    0    0 -0.53337766837E+03 -0.96211188735E+03 -0.44930155630E+03  0.11916580005E+04  0.89587280602E+02 0.  0.
        254    2    1    2    0    0  0.53337766837E+03  0.96211188735E+03 -0.11675286364E+03  0.14271430708E+04  0.90164022337E+03 0.  0.
        -24    2    4    4    0    0  0.46674513190E+03  0.77253013524E+03  0.30254759678E+03  0.95521917089E+03  0.79087218417E+02 0.  0.
         24    2    4    4    0    0  0.66632536475E+02  0.18958175210E+03 -0.41930046042E+03  0.47192389988E+03  0.80735094748E+02 0.  0.
         11    1    3    3    0    0 -0.38862024602E+03 -0.67745969893E+03 -0.36049596545E+03  0.86019455962E+03  0.00000000000E+00 0. -1.
        -11    1    3    3    0    0 -0.14475742235E+03 -0.28465218842E+03 -0.88805590854E+02  0.33146344091E+03  0.00000000000E+00 0.  1.
          4    1    6    6  502    0 -0.13448300169E+02  0.41173810224E+02 -0.51406651150E+02  0.67221895304E+02  0.00000000000E+00 0. -1.
          1    1    5    5  503    0  0.73818393279E+02  0.73832684893E+02  0.37380631725E+02  0.11089514044E+03  0.00000000000E+00 0. -1.
         -2    1    5    5    0  503  0.39292673862E+03  0.69869745035E+03  0.26516696506E+03  0.84432403045E+03  0.00000000000E+00 0.  1.
         -3    1    6    6    0  502  0.80080836644E+02  0.14840794188E+03 -0.36789380927E+03  0.40470200458E+03  0.00000000000E+00 0.  1.
<mgrwt>
<rscale>  0 0.25568929E+04</rscale>
<asrwt>0</asrwt>
<pdfrwt beam="1">  1        3 0.24498888E+00 0.25568929E+04</pdfrwt>
<pdfrwt beam="2">  1       -3 0.15790359E+00 0.25568929E+04</pdfrwt>
<totfact> 0.51447575E-02</totfact>
</mgrwt>
</event>
<event>
12    1  0.1495204E-007  0.2861593E+04  0.7818608E-02  0.8284397E-01
         -1   -1    0    0    0  501 -0.00000000000E+00  0.00000000000E+00  0.14121447106E+04  0.14121447106E+04  0.00000000000E+00 0.  1.
          1   -1    0    0  501    0  0.00000000000E+00 -0.00000000000E+00 -0.14496950558E+04  0.14496950558E+04  0.00000000000E+00 0. -1.
         23    2    1    2    0    0  0.10650810321E+04  0.53795980070E+03 -0.42218141329E+03  0.12689835876E+04  0.91015645913E+02 0.  0.
        254    2    1    2    0    0 -0.10650810321E+04 -0.53795980070E+03  0.38463106809E+03  0.15928561788E+04  0.98257386260E+03 0.  0.
        -24    2    4    4    0    0 -0.28008186569E+03  0.14326084602E+03  0.44222650459E+03  0.54868316403E+03  0.80742873590E+02 0.  0.
         24    2    4    4    0    0 -0.78499916644E+03 -0.68122064672E+03 -0.57595436497E+02  0.10441730147E+04  0.81821693599E+02 0.  0.
         13    1    3    3    0    0  0.26189211034E+03  0.10287936173E+03 -0.69718945210E+02  0.28988337629E+03  0.00000000000E+00 0.  1.
        -13    1    3    3    0    0  0.80318892180E+03  0.43508043897E+03 -0.35246246808E+03  0.97910021136E+03  0.00000000000E+00 0. -1.
          4    1    6    6  502    0 -0.65944841639E+03 -0.56739905489E+03 -0.17965436042E+02  0.87013599987E+03  0.00000000000E+00 0. -1.
          3    1    5    5  503    0 -0.26827615161E+03  0.15325036815E+03  0.42625406452E+03  0.52645065901E+03  0.00000000000E+00 0. -1.
         -4    1    5    5    0  503 -0.11805714082E+02 -0.99895221280E+01  0.15972440075E+02  0.22232505016E+02  0.00000000000E+00 0.  1.
         -3    1    6    6    0  502 -0.12555075005E+03 -0.11382159183E+03 -0.39630000455E+02  0.17403701486E+03  0.00000000000E+00 0.  1.
<mgrwt>
<rscale>  0 0.28615934E+04</rscale>
<asrwt>0</asrwt>
<pdfrwt beam="1">  1        1 0.22303001E+00 0.28615934E+04</pdfrwt>
<pdfrwt beam="2">  1       -1 0.21725303E+00 0.28615934E+04</pdfrwt>
<totfact> 0.70122388E-01</totfact>
</mgrwt>
</event>
<event>
12    1  0.1495204E-007  0.1381598E+04  0.7818608E-02  0.8967248E-01
          1   -1    0    0  501    0  0.00000000000E+00  0.00000000000E+00  0.57883192097E+03  0.57883192097E+03  0.00000000000E+00 0. -1.
         -1   -1    0    0    0  501 -0.00000000000E+00 -0.00000000000E+00 -0.82442427994E+03  0.82442427994E+03  0.00000000000E+00 0.  1.
         23    2    1    2    0    0 -0.36446377395E+03  0.72635003891E+02  0.62942049028E+02  0.38751560430E+03  0.89983085820E+02 0.  0.
        254    2    1    2    0    0  0.36446377395E+03 -0.72635003891E+02 -0.30853440800E+03  0.10157405966E+04  0.89354674884E+03 0.  0.
        -24    2    4    4    0    0 -0.13825155321E+02  0.27886886653E+03  0.14331786426E+03  0.32413482713E+03  0.81020962124E+02 0.  0.
         24    2    4    4    0    0  0.37828892927E+03 -0.35150387042E+03 -0.45185227226E+03  0.69160576948E+03  0.86548134032E+02 0.  0.
         13    1    3    3    0    0 -0.21907282622E+03  0.18557592898E+02  0.74058570778E+02  0.23199560200E+03  0.00000000000E+00 0.  1.
        -13    1    3    3    0    0 -0.14539094773E+03  0.54077410993E+02 -0.11116521750E+02  0.15552000230E+03  0.00000000000E+00 0. -1.
          2    1    6    6  502    0  0.10770894716E+03 -0.55876529616E+02 -0.12775475214E+03  0.17619500718E+03  0.00000000000E+00 0. -1.
          1    1    5    5  503    0  0.51248306423E+01  0.10419363328E+02 -0.91900999716E+01  0.14808273321E+02  0.00000000000E+00 0. -1.
         -2    1    5    5    0  503 -0.18949985964E+02  0.26844950320E+03  0.15250796423E+03  0.30932655380E+03  0.00000000000E+00 0.  1.
         -1    1    6    6    0  502  0.27057998210E+03 -0.29562734080E+03 -0.32409752012E+03  0.51541076230E+03  0.00000000000E+00 0.  1.
<mgrwt>
<rscale>  0 0.13815978E+04</rscale>
<asrwt>0</asrwt>
<pdfrwt beam="1">  1        1 0.89051065E-01 0.13815978E+04</pdfrwt>
<pdfrwt beam="2">  1       -1 0.12683450E+00 0.13815978E+04</pdfrwt>
<totfact> 0.19010480E+01</totfact>
</mgrwt>
</event>
<event>
12    1  0.1495204E-007  0.2139378E+04  0.7818608E-02  0.8544093E-01
         -2   -1    0    0    0  501 -0.00000000000E+00  0.00000000000E+00  0.10711917586E+04  0.10711917586E+04  0.00000000000E+00 0. -1.
          2   -1    0    0  501    0  0.00000000000E+00 -0.00000000000E+00 -0.10681886926E+04  0.10681886926E+04  0.00000000000E+00 0.  1.
         23    2    1    2    0    0  0.16873358071E+03  0.42978519894E+03 -0.74204615578E+03  0.87887154333E+03  0.92716524385E+02 0.  0.
        254    2    1    2    0    0 -0.16873358071E+03 -0.42978519894E+03  0.74504922173E+03  0.12605089079E+04  0.90586865799E+03 0.  0.
        -24    2    4    4    0    0 -0.99274933536E+02  0.13877413020E+03 -0.11692500974E+03  0.22249441665E+03  0.81966675530E+02 0.  0.
         24    2    4    4    0    0 -0.69458647178E+02 -0.56855932914E+03  0.86197423147E+03  0.10380144912E+04  0.79939313377E+02 0.  0.
         11    1    3    3    0    0 -0.77041441730E+01  0.44363301633E+02 -0.49653850556E+02  0.67029555006E+02  0.00000000000E+00 0. -1.
        -11    1    3    3    0    0  0.17643772489E+03  0.38542189730E+03 -0.69239230522E+03  0.81184198833E+03  0.00000000000E+00 0.  1.
          2    1    6    6  502    0 -0.69020367587E+02 -0.56923799860E+03  0.84596322506E+03  0.10219831155E+04  0.00000000000E+00 0. -1.
          3    1    5    5  503    0 -0.17557343450E+02  0.90420296408E+02 -0.74630976316E+02  0.11854903179E+03  0.00000000000E+00 0. -1.
         -2    1    5    5    0  503 -0.81717590086E+02  0.48353833793E+02 -0.42294033428E+02  0.10394538487E+03  0.00000000000E+00 0.  1.
         -1    1    6    6    0  502 -0.43827959050E+00  0.67866945814E+00  0.16011006413E+02  0.16031375724E+02  0.00000000000E+00 0.  1.
<mgrwt>
<rscale>  0 0.21393783E+04</rscale>
<asrwt>0</asrwt>
<pdfrwt beam="1">  1        2 0.16433672E+00 0.21393783E+04</pdfrwt>
<pdfrwt beam="2">  1       -2 0.16479873E+00 0.21393783E+04</pdfrwt>
<totfact> 0.48650470E+00</totfact>
</mgrwt>
</event>
<event>
12    1  0.1495204E-007  0.1594794E+04  0.7818608E-02  0.8823752E-01
         -2   -1    0    0    0  501 -0.00000000000E+00  0.00000000000E+00  0.52667228984E+03  0.52667228984E+03  0.00000000000E+00 0.  1.
          2   -1    0    0  501    0  0.00000000000E+00 -0.00000000000E+00 -0.12072825680E+04  0.12072825680E+04  0.00000000000E+00 0. -1.
         23    2    1    2    0    0 -0.45381803800E+03  0.28681104271E+03 -0.18252903098E+03  0.57405680410E+03  0.89515257603E+02 0.  0.
        254    2    1    2    0    0  0.45381803800E+03 -0.28681104271E+03 -0.49808124717E+03  0.11598980537E+04  0.89948161763E+03 0.  0.
        -24    2    4    4    0    0  0.33629331398E+03 -0.59291928647E+03 -0.21206373690E+03  0.71840037741E+03  0.80508387469E+02 0.  0.
         24    2    4    4    0    0  0.11752472401E+03  0.30610824376E+03 -0.28601751027E+03  0.44149767633E+03  0.74832241523E+02 0.  0.
         11    1    3    3    0    0 -0.34794941819E+03  0.22825394401E+03 -0.10115718977E+03  0.42825394057E+03  0.00000000000E+00 0. -1.
        -11    1    3    3    0    0 -0.10586861981E+03  0.58557098698E+02 -0.81371841217E+02  0.14580286352E+03  0.00000000000E+00 0.  1.
          2    1    6    6  502    0  0.12314842529E+03  0.24761019186E+03 -0.24837827389E+03  0.37170971026E+03  0.00000000000E+00 0. -1.
          1    1    5    5  503    0  0.29782355614E+03 -0.49152955683E+03 -0.20325535877E+03  0.60960062065E+03  0.00000000000E+00 0. -1.
         -2    1    5    5    0  503  0.38469757847E+02 -0.10138972965E+03 -0.88083781332E+01  0.10879975676E+03  0.00000000000E+00 0.  1.
         -1    1    6    6    0  502 -0.56237012780E+01  0.58498051903E+02 -0.37639236380E+02  0.69787966067E+02  0.00000000000E+00 0.  1.
<mgrwt>
<rscale>  0 0.15947944E+04</rscale>
<asrwt>0</asrwt>
<pdfrwt beam="1">  1        2 0.18573578E+00 0.15947944E+04</pdfrwt>
<pdfrwt beam="2">  1       -2 0.81026506E-01 0.15947944E+04</pdfrwt>
<totfact> 0.24164678E+01</totfact>
</mgrwt>
</event>
<event>
12    1  0.1495204E-007  0.2562627E+04  0.7818608E-02  0.8381008E-01
         -2   -1    0    0    0  501 -0.00000000000E+00  0.00000000000E+00  0.12854025799E+04  0.12854025799E+04  0.00000000000E+00 0.  1.
          2   -1    0    0  501    0  0.00000000000E+00 -0.00000000000E+00 -0.12772372880E+04  0.12772372880E+04  0.00000000000E+00 0. -1.
         23    2    1    2    0    0 -0.10548444697E+03  0.10041994741E+04 -0.43580380513E+03  0.11053141882E+04  0.11068398983E+03 0.  0.
        254    2    1    2    0    0  0.10548444697E+03 -0.10041994741E+04  0.44396909705E+03  0.14573256798E+04  0.95244213759E+03 0.  0.
        -24    2    4    4    0    0 -0.37146093104E+03 -0.37814113996E+03  0.39278077014E+03  0.66454050378E+03  0.79770939304E+02 0.  0.
         24    2    4    4    0    0  0.47694537801E+03 -0.62605833416E+03  0.51188326913E+02  0.79278517601E+03  0.80387555704E+02 0.  0.
         13    1    3    3    0    0 -0.79280612291E+02  0.48492409900E+03 -0.16000316697E+03  0.51675701322E+03  0.00000000000E+00 0. -1.
        -13    1    3    3    0    0 -0.26203834682E+02  0.51927537512E+03 -0.27580063816E+03  0.58855717493E+03  0.00000000000E+00 0.  1.
          2    1    6    6  502    0  0.40751246540E+03 -0.56945811949E+03  0.30865403479E+02  0.70092912084E+03  0.00000000000E+00 0. -1.
          1    1    5    5  503    0 -0.36146372388E+03 -0.34233876022E+03  0.37532097232E+03  0.62347227901E+03  0.00000000000E+00 0. -1.
         -2    1    5    5    0  503 -0.99972071567E+01 -0.35802379742E+02  0.17459797822E+02  0.41068224774E+02  0.00000000000E+00 0.  1.
         -1    1    6    6    0  502  0.69432912613E+02 -0.56600214667E+02  0.20322923435E+02  0.91856055169E+02  0.00000000000E+00 0.  1.
<mgrwt>
<rscale>  0 0.25626269E+04</rscale>
<asrwt>0</asrwt>
<pdfrwt beam="1">  1        2 0.19649804E+00 0.25626269E+04</pdfrwt>
<pdfrwt beam="2">  1       -2 0.19775424E+00 0.25626269E+04</pdfrwt>
<totfact> 0.20814354E+00</totfact>
</mgrwt>
</event>
<event>
12    1  0.1495204E-007  0.2315748E+04  0.7818608E-02  0.8471737E-01
         -2   -1    0    0    0  501 -0.00000000000E+00  0.00000000000E+00  0.15372010519E+04  0.15372010519E+04  0.00000000000E+00 0. -1.
          2   -1    0    0  501    0  0.00000000000E+00 -0.00000000000E+00 -0.87215184125E+03  0.87215184125E+03  0.00000000000E+00 0.  1.
         23    2    1    2    0    0 -0.63523892340E+03  0.73198899244E+03  0.12442317379E+03  0.98136897603E+03  0.90926157283E+02 0.  0.
        254    2    1    2    0    0  0.63523892340E+03 -0.73198899244E+03  0.54062603689E+03  0.14279839172E+04  0.89862404877E+03 0.  0.
        -24    2    4    4    0    0 -0.12554980480E+02 -0.31343059885E+03 -0.17915502026E+03  0.37009023207E+03  0.80460491899E+02 0.  0.
         24    2    4    4    0    0  0.64779390388E+03 -0.41855839359E+03  0.71978105715E+03  0.10578936851E+04  0.78906323973E+02 0.  0.
         11    1    3    3    0    0 -0.63665433867E+03  0.71890715463E+03  0.12253230846E+03  0.96807562233E+03  0.00000000000E+00 0.  1.
        -11    1    3    3    0    0  0.14154152750E+01  0.13081837805E+02  0.18908653255E+01  0.13293353694E+02  0.00000000000E+00 0. -1.
          4    1    6    6  502    0  0.57664103057E+02 -0.21390107456E+02  0.36315834207E+02  0.71424962670E+02  0.00000000000E+00 0. -1.
          3    1    5    5  503    0  0.22732679462E+02 -0.35437565078E+02 -0.11917270268E+02  0.43756337424E+02  0.00000000000E+00 0. -1.
         -4    1    5    5    0  503 -0.35287659942E+02 -0.27799303377E+03 -0.16723775000E+03  0.32633389464E+03  0.00000000000E+00 0.  1.
         -3    1    6    6    0  502  0.59012980082E+03 -0.39716828613E+03  0.68346522295E+03  0.98646872242E+03  0.00000000000E+00 0.  1.
<mgrwt>
<rscale>  0 0.23157485E+04</rscale>
<asrwt>0</asrwt>
<pdfrwt beam="1">  1        2 0.13417721E+00 0.23157485E+04</pdfrwt>
<pdfrwt beam="2">  1       -2 0.23649247E+00 0.23157485E+04</pdfrwt>
<totfact> 0.21598314E+00</totfact>
</mgrwt>
</event>
<event>
12    1  0.1495204E-007  0.1639839E+04  0.7818608E-02  0.8796440E-01
         -2   -1    0    0    0  501 -0.00000000000E+00  0.00000000000E+00  0.57544647781E+03  0.57544647781E+03  0.00000000000E+00 0. -1.
          2   -1    0    0  501    0  0.00000000000E+00 -0.00000000000E+00 -0.11682550967E+04  0.11682550967E+04  0.00000000000E+00 0.  1.
         23    2    1    2    0    0  0.23224073563E+02  0.27518120155E+03  0.31610176742E+03  0.42885404076E+03  0.87928434737E+02 0.  0.
        254    2    1    2    0    0 -0.23224073563E+02 -0.27518120155E+03 -0.90891038632E+03  0.13148475338E+04  0.90908849702E+03 0.  0.
        -24    2    4    4    0    0  0.73497465558E+02 -0.55919391708E+03 -0.80763738932E+03  0.98809532508E+03  0.77165435795E+02 0.  0.
         24    2    4    4    0    0 -0.96721539121E+02  0.28401271553E+03 -0.10127299700E+03  0.32675220869E+03  0.80576096004E+02 0.  0.
         11    1    3    3    0    0  0.25931563495E+02  0.22802755793E+03  0.20341877114E+03  0.30667280547E+03  0.00000000000E+00 0. -1.
        -11    1    3    3    0    0 -0.27074899317E+01  0.47153643620E+02  0.11268299628E+03  0.12218123530E+03  0.00000000000E+00 0.  1.
          4    1    6    6  502    0  0.31887741331E+01 -0.42544931668E+01 -0.35508221731E+01  0.63935381975E+01  0.00000000000E+00 0. -1.
          3    1    5    5  503    0  0.13620793529E+02 -0.13169007593E+02 -0.38975635050E+02  0.43336461610E+02  0.00000000000E+00 0. -1.
         -4    1    5    5    0  503  0.59876672029E+02 -0.54602490949E+03 -0.76866175427E+03  0.94475886347E+03  0.00000000000E+00 0.  1.
         -3    1    6    6    0  502 -0.99910313254E+02  0.28826720870E+03 -0.97722174830E+02  0.32035867049E+03  0.00000000000E+00 0.  1.
<mgrwt>
<rscale>  0 0.16398394E+04</rscale>
<asrwt>0</asrwt>
<pdfrwt beam="1">  1        2 0.17973155E+00 0.16398394E+04</pdfrwt>
<pdfrwt beam="2">  1       -2 0.88530229E-01 0.16398394E+04</pdfrwt>
<totfact> 0.20773155E+01</totfact>
</mgrwt>
</event>
<event>
12    1  0.1495204E-007  0.1703247E+04  0.7818608E-02  0.8759515E-01
          2   -1    0    0  501    0  0.00000000000E+00  0.00000000000E+00  0.31575049352E+04  0.31575049352E+04  0.00000000000E+00 0. -1.
         -2   -1    0    0    0  501 -0.00000000000E+00 -0.00000000000E+00 -0.22969488792E+03  0.22969488792E+03  0.00000000000E+00 0.  1.
         23    2    1    2    0    0  0.22964136436E+03 -0.52720332388E+03  0.65627485220E+03  0.87808341166E+03  0.98261361999E+02 0.  0.
        254    2    1    2    0    0 -0.22964136436E+03  0.52720332388E+03  0.22715351951E+04  0.25091164115E+04  0.89728174106E+03 0.  0.
        -24    2    4    4    0    0 -0.45727982175E+02  0.90715709819E+02 -0.51418928457E+02  0.13706187483E+03  0.76299822848E+02 0.  0.
         24    2    4    4    0    0 -0.18391338219E+03  0.43648761406E+03  0.23229541236E+04  0.23720545367E+04  0.78621214150E+02 0.  0.
         13    1    3    3    0    0  0.21549525817E+03 -0.45692885472E+03  0.61300083975E+03  0.79435018355E+03  0.00000000000E+00 0.  1.
        -13    1    3    3    0    0  0.14146106195E+02 -0.70274469159E+02  0.43274012450E+02  0.83733228109E+02  0.00000000000E+00 0. -1.
          2    1    6    6  502    0 -0.11036044384E+03  0.26194519504E+03  0.11974135941E+04  0.12306884366E+04  0.00000000000E+00 0. -1.
          3    1    5    5  503    0  0.17012293422E+01 -0.26162171288E+01 -0.30049821404E+02  0.30211430614E+02  0.00000000000E+00 0. -1.
         -4    1    5    5    0  503 -0.47429211518E+02  0.93331926948E+02 -0.21369107052E+02  0.10685044422E+03  0.00000000000E+00 0.  1.
         -1    1    6    6    0  502 -0.73552938348E+02  0.17454241902E+03  0.11255405295E+04  0.11413661000E+04  0.00000000000E+00 0.  1.
<mgrwt>
<rscale>  0 0.17032472E+04</rscale>
<asrwt>0</asrwt>
<pdfrwt beam="1">  1        2 0.48576996E+00 0.17032472E+04</pdfrwt>
<pdfrwt beam="2">  1       -2 0.35337677E-01 0.17032472E+04</pdfrwt>
<totfact> 0.99491085E+00</totfact>
</mgrwt>
</event>
<event>
12    1  0.2025984E-007  0.2106906E+04  0.7818608E-02  0.8558208E-01
         -2   -1    0    0    0  501 -0.00000000000E+00  0.00000000000E+00  0.76824511041E+03  0.76824511041E+03  0.00000000000E+00 0.  1.
          2   -1    0    0  501    0  0.00000000000E+00 -0.00000000000E+00 -0.14445425360E+04  0.14445425360E+04  0.00000000000E+00 0. -1.
         23    2    1    2    0    0 -0.55019405811E+03 -0.59256606744E+03 -0.58011537594E+03  0.99989112835E+03  0.96955522230E+02 0.  0.
        254    2    1    2    0    0  0.55019405811E+03  0.59256606744E+03 -0.96182049669E+02  0.12128965181E+04  0.89889873235E+03 0.  0.
        -24    2    4    4    0    0  0.36110014940E+02 -0.12708852406E+03 -0.26742237529E+03  0.30815209948E+03  0.77379347876E+02 0.  0.
         24    2    4    4    0    0  0.51408404317E+03  0.71965459151E+03  0.17124032562E+03  0.90474441860E+03  0.83988566768E+02 0.  0.
         13    1    3    3    0    0 -0.30152725116E+03 -0.31087827799E+03 -0.36857104983E+03  0.56869025461E+03  0.00000000000E+00 0.  1.
        -13    1    3    3    0    0 -0.24866680695E+03 -0.28168778945E+03 -0.21154432612E+03  0.43120087374E+03  0.00000000000E+00 0. -1.
          4    1    6    6  502    0  0.49415200125E+03  0.66111947780E+03  0.14725907068E+03  0.83842137268E+03  0.00000000000E+00 0. -1.
          1    1    5    5  503    0  0.32929373244E+02 -0.12768590316E+03 -0.27215570357E+03  0.30241818807E+03  0.00000000000E+00 0. -1.
         -2    1    5    5    0  503  0.31806416962E+01  0.59737909598E+00  0.47333282827E+01  0.57339114063E+01  0.00000000000E+00 0.  1.
         -3    1    6    6    0  502  0.19932041925E+02  0.58535113707E+02  0.23981254942E+02  0.66323045923E+02  0.00000000000E+00 0.  1.
<mgrwt>
<rscale>  0 0.21069055E+04</rscale>
<asrwt>0</asrwt>
<pdfrwt beam="1">  1        2 0.22223731E+00 0.21069055E+04</pdfrwt>
<pdfrwt beam="2">  1       -2 0.11819156E+00 0.21069055E+04</pdfrwt>
<totfact> 0.69319661E+00</totfact>
</mgrwt>
</event>
<event>
12    1  0.1495204E-007  0.1272862E+04  0.7818608E-02  0.9051367E-01
          2   -1    0    0  501    0  0.00000000000E+00  0.00000000000E+00  0.84538747252E+03  0.84538747252E+03  0.00000000000E+00 0. -1.
         -2   -1    0    0    0  501 -0.00000000000E+00 -0.00000000000E+00 -0.47912299444E+03  0.47912299444E+03  0.00000000000E+00 0.  1.
         23    2    1    2    0    0 -0.12880488870E+03  0.25830271957E+03 -0.77976802401E+01  0.30432801131E+03  0.96144372482E+02 0.  0.
        254    2    1    2    0    0  0.12880488870E+03 -0.25830271957E+03  0.37406215831E+03  0.10201824556E+04  0.90417849468E+03 0.  0.
        -24    2    4    4    0    0 -0.23165465890E+03 -0.44450069016E+03  0.82419930662E+02  0.51427466697E+03  0.80253620310E+02 0.  0.
         24    2    4    4    0    0  0.36045954761E+03  0.18619797058E+03  0.29164222765E+03  0.50590778868E+03  0.79288914666E+02 0.  0.
         11    1    3    3    0    0  0.37215951057E+01 -0.28740162158E+01  0.98558752348E+01  0.10920096885E+02  0.00000000000E+00 0. -1.
        -11    1    3    3    0    0 -0.13252648381E+03  0.26117673579E+03 -0.17653555475E+02  0.29340791443E+03  0.00000000000E+00 0.  1.
          4    1    6    6  502    0  0.66748667975E+02  0.15862682345E+02  0.81815327210E+02  0.10677432807E+03  0.00000000000E+00 0. -1.
          3    1    5    5  503    0 -0.10300667061E+03 -0.11913418458E+03  0.33212450932E+02  0.16095463654E+03  0.00000000000E+00 0. -1.
         -4    1    5    5    0  503 -0.12864798830E+03 -0.32536650557E+03  0.49207479731E+02  0.35332003043E+03  0.00000000000E+00 0.  1.
         -3    1    6    6    0  502  0.29371087963E+03  0.17033528824E+03  0.20982690044E+03  0.39913346062E+03  0.00000000000E+00 0.  1.
<mgrwt>
<rscale>  0 0.12728623E+04</rscale>
<asrwt>0</asrwt>
<pdfrwt beam="1">  1        2 0.13005961E+00 0.12728623E+04</pdfrwt>
<pdfrwt beam="2">  1       -2 0.73711230E-01 0.12728623E+04</pdfrwt>
<totfact> 0.52122662E+01</totfact>
</mgrwt>
</event>
<event>
12    1  0.1495204E-007  0.1391357E+04  0.7818608E-02  0.8960099E-01
          2   -1    0    0  501    0  0.00000000000E+00  0.00000000000E+00  0.11123094797E+04  0.11123094797E+04  0.00000000000E+00 0. -1.
         -2   -1    0    0    0  501 -0.00000000000E+00 -0.00000000000E+00 -0.43510237609E+03  0.43510237609E+03  0.00000000000E+00 0.  1.
         23    2    1    2    0    0  0.60782360735E+02 -0.37793091934E+03  0.97114298618E+02  0.40548550016E+03  0.91983850091E+02 0.  0.
        254    2    1    2    0    0 -0.60782360735E+02  0.37793091934E+03  0.58009280496E+03  0.11419263556E+04  0.90606945875E+03 0.  0.
        -24    2    4    4    0    0 -0.36964106445E+03  0.40059698349E+03  0.91905130047E+02  0.55860579762E+03  0.80507294631E+02 0.  0.
         24    2    4    4    0    0  0.30885870372E+03 -0.22666064154E+02  0.48818767491E+03  0.58332055798E+03  0.77641600326E+02 0.  0.
         11    1    3    3    0    0  0.63934012169E+02 -0.12238858994E+03  0.31278771970E+02  0.14157996481E+03  0.00000000000E+00 0. -1.
        -11    1    3    3    0    0 -0.31516514340E+01 -0.25554232940E+03  0.65835526649E+02  0.26390553535E+03  0.00000000000E+00 0.  1.
          2    1    6    6  502    0  0.28816930975E+03 -0.40053600487E+01  0.46502358785E+03  0.54708731592E+03  0.00000000000E+00 0. -1.
          1    1    5    5  503    0 -0.36968151788E+03  0.38586152041E+03  0.96819639582E+02  0.54307235265E+03  0.00000000000E+00 0. -1.
         -2    1    5    5    0  503  0.40453432036E-01  0.14735463079E+02 -0.49145095351E+01  0.15533444969E+02  0.00000000000E+00 0.  1.
         -1    1    6    6    0  502  0.20689393966E+02 -0.18660704105E+02  0.23164087067E+02  0.36233242058E+02  0.00000000000E+00 0.  1.
<mgrwt>
<rscale>  0 0.13913569E+04</rscale>
<asrwt>0</asrwt>
<pdfrwt beam="1">  1        2 0.17112453E+00 0.13913569E+04</pdfrwt>
<pdfrwt beam="2">  1       -2 0.66938828E-01 0.13913569E+04</pdfrwt>
<totfact> 0.42725470E+01</totfact>
</mgrwt>
</event>
<event>
12    1  0.1495204E-007  0.2453446E+04  0.7818608E-02  0.8419761E-01
         -2   -1    0    0    0  501 -0.00000000000E+00  0.00000000000E+00  0.14256936167E+04  0.14256936167E+04  0.00000000000E+00 0.  1.
          2   -1    0    0  501    0  0.00000000000E+00 -0.00000000000E+00 -0.10555209486E+04  0.10555209486E+04  0.00000000000E+00 0. -1.
         23    2    1    2    0    0  0.39786115943E+03 -0.69236923773E+03  0.86210232169E+03  0.11786080012E+04  0.90706912628E+02 0.  0.
        254    2    1    2    0    0 -0.39786115943E+03  0.69236923773E+03 -0.49192965361E+03  0.13026065641E+04  0.90394712964E+03 0.  0.
        -24    2    4    4    0    0 -0.64299643599E+03  0.28082072531E+03 -0.38839965798E+03  0.80582599773E+03  0.78718154535E+02 0.  0.
         24    2    4    4    0    0  0.24513527655E+03  0.41154851241E+03 -0.10352999564E+03  0.49678056636E+03  0.81295690163E+02 0.  0.
         11    1    3    3    0    0  0.12294268458E+03 -0.27768375882E+03  0.28271853871E+03  0.41491317855E+03  0.00000000000E+00 0. -1.
        -11    1    3    3    0    0  0.27491847485E+03 -0.41468547891E+03  0.57938378297E+03  0.76369482269E+03  0.00000000000E+00 0.  1.
          4    1    6    6  502    0  0.56164583548E+02  0.39790002810E+02 -0.15863637839E+02  0.70635400290E+02  0.00000000000E+00 0. -1.
          1    1    5    5  503    0 -0.14480999192E+03  0.70919507371E+02 -0.53456406116E+02  0.16987376972E+03  0.00000000000E+00 0. -1.
         -2    1    5    5    0  503 -0.49818644407E+03  0.20990121794E+03 -0.33494325186E+03  0.63595222801E+03  0.00000000000E+00 0.  1.
         -3    1    6    6    0  502  0.18897069301E+03  0.37175850960E+03 -0.87666357798E+02  0.42614516607E+03  0.00000000000E+00 0.  1.
<mgrwt>
<rscale>  0 0.24534461E+04</rscale>
<asrwt>0</asrwt>
<pdfrwt beam="1">  1        2 0.16238784E+00 0.24534461E+04</pdfrwt>
<pdfrwt beam="2">  1       -2 0.21933748E+00 0.24534461E+04</pdfrwt>
<totfact> 0.20745033E+00</totfact>
</mgrwt>
</event>
<event>
12    1  0.1495204E-007  0.1782987E+04  0.7818608E-02  0.8715399E-01
         -3   -1    0    0    0  501 -0.00000000000E+00  0.00000000000E+00  0.10774018532E+04  0.10774018532E+04  0.00000000000E+00 0.  1.
          3   -1    0    0  501    0  0.00000000000E+00 -0.00000000000E+00 -0.73766439014E+03  0.73766439014E+03  0.00000000000E+00 0. -1.
         23    2    1    2    0    0 -0.31126000251E+03  0.55707163155E+03  0.28232697850E+03  0.70710095266E+03  0.11433128453E+03 0.  0.
        254    2    1    2    0    0  0.31126000251E+03 -0.55707163155E+03  0.57410484575E+02  0.11079652907E+04  0.90392451555E+03 0.  0.
        -24    2    4    4    0    0  0.26584924000E+03  0.14675753638E+03 -0.17693283989E+03  0.36026748655E+03  0.79207569955E+02 0.  0.
         24    2    4    4    0    0  0.45410762501E+02 -0.70382916793E+03  0.23434332446E+03  0.74769780415E+03  0.81838729478E+02 0.  0.
         13    1    3    3    0    0 -0.31704741107E+03  0.54740702041E+03  0.26374726114E+03  0.68537298212E+03  0.00000000000E+00 0. -1.
        -13    1    3    3    0    0  0.57874085678E+01  0.96646111348E+01  0.18579717359E+02  0.21727970533E+02  0.00000000000E+00 0.  1.
          4    1    6    6  502    0  0.32530942801E+02 -0.86662429288E+02  0.25305179894E+02  0.95963487948E+02  0.00000000000E+00 0. -1.
          3    1    5    5  503    0  0.11044720426E+01 -0.63568003113E+01  0.86202736584E+00  0.65093670868E+01  0.00000000000E+00 0. -1.
         -4    1    5    5    0  503  0.26474476796E+03  0.15311433669E+03 -0.17779486725E+03  0.35375811946E+03  0.00000000000E+00 0.  1.
         -3    1    6    6    0  502  0.12879819700E+02 -0.61716673864E+03  0.20903814457E+03  0.65173431621E+03  0.00000000000E+00 0.  1.
<mgrwt>
<rscale>  0 0.17829874E+04</rscale>
<asrwt>0</asrwt>
<pdfrwt beam="1">  1        3 0.11348683E+00 0.17829874E+04</pdfrwt>
<pdfrwt beam="2">  1       -3 0.16575413E+00 0.17829874E+04</pdfrwt>
<totfact> 0.39696387E-01</totfact>
</mgrwt>
</event>
<event>
12    1  0.1577655E-007  0.1800656E+04  0.7818608E-02  0.8705951E-01
          2   -1    0    0  501    0  0.00000000000E+00  0.00000000000E+00  0.16157234803E+04  0.16157234803E+04  0.00000000000E+00 0.  1.
         -2   -1    0    0    0  501 -0.00000000000E+00 -0.00000000000E+00 -0.50168882356E+03  0.50168882356E+03  0.00000000000E+00 0. -1.
         23    2    1    2    0    0  0.85095287691E+02 -0.53590895993E+03  0.57055792569E+01  0.55012869459E+03  0.90384764556E+02 0.  0.
        254    2    1    2    0    0 -0.85095287691E+02  0.53590895993E+03  0.11083290775E+04  0.15672836093E+04  0.96620129712E+03 0.  0.
        -24    2    4    4    0    0  0.18971036861E+01 -0.67437868341E+02  0.91790858677E+03  0.92365398651E+03  0.77646944782E+02 0.  0.
         24    2    4    4    0    0 -0.86992391377E+02  0.60334682827E+03  0.19042049072E+03  0.64362962276E+03  0.80025350158E+02 0.  0.
         11    1    3    3    0    0  0.76236200054E+02 -0.49091318289E+03  0.30985646322E+02  0.49776281662E+03  0.00000000000E+00 0. -1.
        -11    1    3    3    0    0  0.88590876375E+01 -0.44995777037E+02 -0.25280067065E+02  0.52365877971E+02  0.00000000000E+00 0.  1.
          2    1    6    6  502    0 -0.25288521546E+02  0.41574669248E+03  0.11361472032E+03  0.43173270238E+03  0.00000000000E+00 0. -1.
          3    1    5    5  503    0 -0.32414102743E+02 -0.26487264525E+02  0.58401758968E+03  0.58551583608E+03  0.00000000000E+00 0. -1.
         -4    1    5    5    0  503  0.34311206429E+02 -0.40950603816E+02  0.33389099709E+03  0.33813815043E+03  0.00000000000E+00 0.  1.
         -1    1    6    6    0  502 -0.61703869832E+02  0.18760013579E+03  0.76805770400E+02  0.21189692038E+03  0.00000000000E+00 0.  1.
<mgrwt>
<rscale>  0 0.18006559E+04</rscale>
<asrwt>0</asrwt>
<pdfrwt beam="1">  1        2 0.24857284E+00 0.18006559E+04</pdfrwt>
<pdfrwt beam="2">  1       -2 0.77182896E-01 0.18006559E+04</pdfrwt>
<totfact> 0.15453061E+01</totfact>
</mgrwt>
</event>
<event>
12    1  0.1495204E-007  0.2035385E+04  0.7818608E-02  0.8590253E-01
         -1   -1    0    0    0  501 -0.00000000000E+00  0.00000000000E+00  0.53773828565E+03  0.53773828565E+03  0.00000000000E+00 0.  1.
          1   -1    0    0  501    0  0.00000000000E+00 -0.00000000000E+00 -0.19260259181E+04  0.19260259181E+04  0.00000000000E+00 0. -1.
         23    2    1    2    0    0 -0.34956866709E+03 -0.71772542522E+03 -0.80967615067E+03  0.11408329432E+04  0.92716213428E+02 0.  0.
        254    2    1    2    0    0  0.34956866709E+03  0.71772542522E+03 -0.57861148175E+03  0.13229312605E+04  0.88205886102E+03 0.  0.
        -24    2    4    4    0    0  0.53550936706E+03  0.15735219236E+03 -0.13276964582E+03  0.57897862572E+03  0.77836209684E+02 0.  0.
         24    2    4    4    0    0 -0.18594069997E+03  0.56037323286E+03 -0.44584183593E+03  0.74395263483E+03  0.78092740975E+02 0.  0.
         11    1    3    3    0    0 -0.16948220384E+03 -0.24963333625E+03 -0.32221247258E+03  0.44143164530E+03  0.00000000000E+00 0.  1.
        -11    1    3    3    0    0 -0.18008646325E+03 -0.46809208897E+03 -0.48746367809E+03  0.69940129787E+03  0.00000000000E+00 0. -1.
          2    1    6    6  502    0 -0.13662866245E+03  0.45479906265E+03 -0.39116377673E+03  0.61523871710E+03  0.00000000000E+00 0. -1.
          3    1    5    5  503    0  0.39975411277E+03  0.11701789762E+03 -0.63557321377E+02  0.42135029624E+03  0.00000000000E+00 0. -1.
         -4    1    5    5    0  503  0.13575525429E+03  0.40334294741E+02 -0.69212324444E+02  0.15762832948E+03  0.00000000000E+00 0.  1.
         -1    1    6    6    0  502 -0.49312037522E+02  0.10557417021E+03 -0.54678059199E+02  0.12871391773E+03  0.00000000000E+00 0.  1.
<mgrwt>
<rscale>  0 0.20353849E+04</rscale>
<asrwt>0</asrwt>
<pdfrwt beam="1">  1        1 0.29631168E+00 0.20353849E+04</pdfrwt>
<pdfrwt beam="2">  1       -1 0.82728968E-01 0.20353849E+04</pdfrwt>
<totfact> 0.44906609E+00</totfact>
</mgrwt>
</event>
<event>
12    1  0.1495204E-007  0.1523180E+04  0.7818608E-02  0.8869183E-01
         -2   -1    0    0    0  501 -0.00000000000E+00  0.00000000000E+00  0.59291653553E+03  0.59291653553E+03  0.00000000000E+00 0. -1.
          2   -1    0    0  501    0  0.00000000000E+00 -0.00000000000E+00 -0.97824776232E+03  0.97824776232E+03  0.00000000000E+00 0.  1.
         23    2    1    2    0    0 -0.32497100564E+03 -0.52889013470E+02 -0.52267272337E+03  0.62436532170E+03  0.90784783623E+02 0.  0.
        254    2    1    2    0    0  0.32497100564E+03  0.52889013470E+02  0.13734149659E+03  0.94679897615E+03  0.87701893497E+03 0.  0.
        -24    2    4    4    0    0  0.38561740226E+03  0.14213102498E+02 -0.30016151708E+03  0.49553668581E+03  0.80974548105E+02 0.  0.
         24    2    4    4    0    0 -0.60646396626E+02  0.38675910972E+02  0.43750301367E+03  0.45126229033E+03  0.83993786624E+02 0.  0.
         11    1    3    3    0    0  0.53320580256E+01 -0.12819599133E+01 -0.25013962852E+01  0.60275407409E+01  0.00000000000E+00 0. -1.
        -11    1    3    3    0    0 -0.33030306366E+03 -0.51607053557E+02 -0.52017132709E+03  0.61833778096E+03  0.00000000000E+00 0.  1.
          2    1    6    6  502    0  0.86490292175E+01  0.97033379004E+01  0.80467906290E+01  0.15287619574E+02  0.00000000000E+00 0. -1.
          1    1    5    5  503    0  0.22192459340E+02 -0.11633718792E+02 -0.42339228281E+02  0.49198159680E+02  0.00000000000E+00 0. -1.
         -2    1    5    5    0  503  0.36342494292E+03  0.25846821289E+02 -0.25782228880E+03  0.44633852613E+03  0.00000000000E+00 0.  1.
         -1    1    6    6    0  502 -0.69295425843E+02  0.28972573072E+02  0.42945622304E+03  0.43597467076E+03  0.00000000000E+00 0.  1.
<mgrwt>
<rscale>  0 0.15231799E+04</rscale>
<asrwt>0</asrwt>
<pdfrwt beam="1">  1        2 0.15049965E+00 0.15231799E+04</pdfrwt>
<pdfrwt beam="2">  1       -2 0.91217930E-01 0.15231799E+04</pdfrwt>
<totfact> 0.25714589E+01</totfact>
</mgrwt>
</event>
<event>
12    1  0.1495204E-007  0.2067224E+04  0.7818608E-02  0.8575820E-01
          2   -1    0    0  501    0  0.00000000000E+00  0.00000000000E+00  0.26157243066E+04  0.26157243066E+04  0.00000000000E+00 0. -1.
         -2   -1    0    0    0  501 -0.00000000000E+00 -0.00000000000E+00 -0.40843521443E+03  0.40843521443E+03  0.00000000000E+00 0.  1.
         23    2    1    2    0    0  0.69853536236E+03  0.88292973005E+02  0.15494900750E+04  0.17043590338E+04  0.90404215226E+02 0.  0.
        254    2    1    2    0    0 -0.69853536236E+03 -0.88292973005E+02  0.65779901714E+03  0.13198004872E+04  0.90190158965E+03 0.  0.
        -24    2    4    4    0    0 -0.29452045176E+03  0.39033419480E+03  0.40416893759E+03  0.63939150879E+03  0.79786535648E+02 0.  0.
         24    2    4    4    0    0 -0.40401491059E+03 -0.47862716780E+03  0.25363007955E+03  0.68040897837E+03  0.79474189827E+02 0.  0.
         11    1    3    3    0    0  0.47647350981E+03  0.84307017999E+02  0.97594436501E+03  0.10893126651E+04  0.00000000000E+00 0. -1.
        -11    1    3    3    0    0  0.22206185255E+03  0.39859550055E+01  0.57354571001E+03  0.61504636871E+03  0.00000000000E+00 0.  1.
          4    1    6    6  502    0 -0.37051388168E+03 -0.44535939860E+03  0.25547243684E+03  0.63316008751E+03  0.00000000000E+00 0. -1.
          1    1    5    5  503    0 -0.86401012438E+02  0.14292245894E+03  0.95433727352E+02  0.19235269828E+03  0.00000000000E+00 0. -1.
         -2    1    5    5    0  503 -0.20811943932E+03  0.24741173586E+03  0.30873521024E+03  0.44703881051E+03  0.00000000000E+00 0.  1.
         -3    1    6    6    0  502 -0.33501028916E+02 -0.33267769207E+02 -0.18423572941E+01  0.47248890853E+02  0.00000000000E+00 0.  1.
<mgrwt>
<rscale>  0 0.20672241E+04</rscale>
<asrwt>0</asrwt>
<pdfrwt beam="1">  1        2 0.40241911E+00 0.20672241E+04</pdfrwt>
<pdfrwt beam="2">  1       -2 0.62836188E-01 0.20672241E+04</pdfrwt>
<totfact> 0.64664208E+00</totfact>
</mgrwt>
</event>
<event>
12    1  0.1495204E-007  0.1548958E+04  0.7818608E-02  0.8852534E-01
          2   -1    0    0  501    0  0.00000000000E+00  0.00000000000E+00  0.11919423701E+04  0.11919423701E+04  0.00000000000E+00 0. -1.
         -2   -1    0    0    0  501 -0.00000000000E+00 -0.00000000000E+00 -0.50322696997E+03  0.50322696997E+03  0.00000000000E+00 0.  1.
         23    2    1    2    0    0  0.46392695569E+02  0.22947010651E+03  0.71219465443E+03  0.75507309275E+03  0.90029648497E+02 0.  0.
        254    2    1    2    0    0 -0.46392695569E+02 -0.22947010651E+03 -0.23479254310E+02  0.94009624730E+03  0.91017628338E+03 0.  0.
        -24    2    4    4    0    0  0.16193687551E+03 -0.27988502182E+03  0.36163445065E+03  0.49209517083E+03  0.82577261810E+02 0.  0.
         24    2    4    4    0    0 -0.20832957108E+03  0.50414915310E+02 -0.38511370496E+03  0.44800107647E+03  0.80308934120E+02 0.  0.
         11    1    3    3    0    0  0.65831153760E+02  0.99679607737E+02  0.35164745710E+03  0.37138349329E+03  0.00000000000E+00 0.  1.
        -11    1    3    3    0    0 -0.19438458190E+02  0.12979049878E+03  0.36054719733E+03  0.38368959946E+03  0.00000000000E+00 0. -1.
          2    1    6    6  502    0 -0.11552472757E+03  0.52045667232E+02 -0.15717114827E+03  0.20188482857E+03  0.00000000000E+00 0. -1.
          1    1    5    5  503    0 -0.62830159460E+01 -0.35565134822E+02  0.28271218026E+02  0.45865203291E+02  0.00000000000E+00 0. -1.
         -2    1    5    5    0  503  0.16821989145E+03 -0.24431988700E+03  0.33336323263E+03  0.44622996754E+03  0.00000000000E+00 0.  1.
         -1    1    6    6    0  502 -0.92804843506E+02 -0.16307519223E+01 -0.22794255670E+03  0.24611624791E+03  0.00000000000E+00 0.  1.
<mgrwt>
<rscale>  0 0.15489578E+04</rscale>
<asrwt>0</asrwt>
<pdfrwt beam="1">  1        2 0.18337575E+00 0.15489578E+04</pdfrwt>
<pdfrwt beam="2">  1       -2 0.77419534E-01 0.15489578E+04</pdfrwt>
<totfact> 0.27434223E+01</totfact>
</mgrwt>
</event>
<event>
12    1  0.1495204E-007  0.1285331E+04  0.7818608E-02  0.9041279E-01
         -1   -1    0    0    0  501 -0.00000000000E+00  0.00000000000E+00  0.11777546894E+04  0.11777546894E+04  0.00000000000E+00 0.  1.
          1   -1    0    0  501    0  0.00000000000E+00 -0.00000000000E+00 -0.35068356842E+03  0.35068356842E+03  0.00000000000E+00 0. -1.
         23    2    1    2    0    0 -0.94928241577E+02 -0.18519909588E+03 -0.78328021405E+02  0.24049515402E+03  0.91610938239E+02 0.  0.
        254    2    1    2    0    0  0.94928241577E+02  0.18519909588E+03  0.90539914234E+03  0.12879431038E+04  0.89204246278E+03 0.  0.
        -24    2    4    4    0    0 -0.29193411633E+03  0.35576037537E+03  0.33905693593E+03  0.57702666351E+03  0.78798424124E+02 0.  0.
         24    2    4    4    0    0  0.38686235790E+03 -0.17056127949E+03  0.56634220641E+03  0.71091644025E+03  0.76844363708E+02 0.  0.
         13    1    3    3    0    0  0.78975220860E+01 -0.30712442283E+02  0.12245469451E+02  0.33993771314E+02  0.00000000000E+00 0.  1.
        -13    1    3    3    0    0 -0.10282576366E+03 -0.15448665360E+03 -0.90573490856E+02  0.20650138270E+03  0.00000000000E+00 0. -1.
          4    1    6    6  502    0  0.19048655336E+03 -0.12136001405E+03  0.26979843671E+03  0.35185874506E+03  0.00000000000E+00 0. -1.
          1    1    5    5  503    0 -0.34646947496E+01  0.76751218696E+01 -0.41875818623E+01  0.94046503005E+01  0.00000000000E+00 0. -1.
         -2    1    5    5    0  503 -0.28846942158E+03  0.34808525350E+03  0.34324451780E+03  0.56762201321E+03  0.00000000000E+00 0.  1.
         -3    1    6    6    0  502  0.19637580455E+03 -0.49201265439E+02  0.29654376970E+03  0.35905769520E+03  0.00000000000E+00 0.  1.
<mgrwt>
<rscale>  0 0.12853314E+04</rscale>
<asrwt>0</asrwt>
<pdfrwt beam="1">  1        1 0.53951319E-01 0.12853314E+04</pdfrwt>
<pdfrwt beam="2">  1       -1 0.18119303E+00 0.12853314E+04</pdfrwt>
<totfact> 0.14336080E+01</totfact>
</mgrwt>
</event>
<event>
12    1  0.1495204E-007  0.2071247E+04  0.7818608E-02  0.8574016E-01
         -2   -1    0    0    0  501 -0.00000000000E+00  0.00000000000E+00  0.45258927233E+03  0.45258927233E+03  0.00000000000E+00 0.  1.
          2   -1    0    0  501    0  0.00000000000E+00 -0.00000000000E+00 -0.23697341761E+04  0.23697341761E+04  0.00000000000E+00 0. -1.
         23    2    1    2    0    0  0.62773823980E+03  0.95560344910E+02 -0.37870782131E+02  0.64258666157E+03  0.91084270106E+02 0.  0.
        254    2    1    2    0    0 -0.62773823980E+03 -0.95560344910E+02 -0.18792741216E+04  0.21797367868E+04  0.90354532729E+03 0.  0.
        -24    2    4    4    0    0 -0.49221513839E+03 -0.19312014309E+03 -0.34823817644E+03  0.63755424315E+03  0.75062995569E+02 0.  0.
         24    2    4    4    0    0 -0.13552310142E+03  0.97559798179E+02 -0.15310359452E+04  0.15421825437E+04  0.79821722454E+02 0.  0.
         13    1    3    3    0    0  0.19222269709E+03  0.18944821305E+02  0.29123710753E+02  0.19533730330E+03  0.00000000000E+00 0. -1.
        -13    1    3    3    0    0  0.43551554271E+03  0.76615523605E+02 -0.66994492883E+02  0.44724935828E+03  0.00000000000E+00 0.  1.
          2    1    6    6  502    0 -0.11864583700E+03  0.84112325522E+02 -0.98086565145E+03  0.99158920131E+03  0.00000000000E+00 0. -1.
          3    1    5    5  503    0 -0.33797499026E+01 -0.11242346075E+02 -0.31521055263E+01  0.12155197404E+02  0.00000000000E+00 0. -1.
         -4    1    5    5    0  503 -0.48883538849E+03 -0.18187779701E+03 -0.34508607091E+03  0.62539904575E+03  0.00000000000E+00 0.  1.
         -1    1    6    6    0  502 -0.16877264419E+02  0.13447472657E+02 -0.55017029374E+03  0.55059334239E+03  0.00000000000E+00 0.  1.
<mgrwt>
<rscale>  0 0.20712472E+04</rscale>
<asrwt>0</asrwt>
<pdfrwt beam="1">  1        2 0.36457448E+00 0.20712472E+04</pdfrwt>
<pdfrwt beam="2">  1       -2 0.69629120E-01 0.20712472E+04</pdfrwt>
<totfact> 0.71882154E+00</totfact>
</mgrwt>
</event>
<event>
12    1  0.1495204E-007  0.1459501E+04  0.7818608E-02  0.8911840E-01
         -2   -1    0    0    0  501 -0.00000000000E+00  0.00000000000E+00  0.15863946983E+04  0.15863946983E+04  0.00000000000E+00 0. -1.
          2   -1    0    0  501    0  0.00000000000E+00 -0.00000000000E+00 -0.33568925561E+03  0.33568925561E+03  0.00000000000E+00 0.  1.
         23    2    1    2    0    0  0.22772688866E+03  0.31061392345E+03  0.12290936180E+03  0.41518534520E+03  0.94507218690E+02 0.  0.
        254    2    1    2    0    0 -0.22772688866E+03 -0.31061392345E+03  0.11277960809E+04  0.15068986087E+04  0.92221411375E+03 0.  0.
        -24    2    4    4    0    0 -0.19700447271E+03 -0.17758017198E+03 -0.80298183711E+02  0.28844387377E+03  0.80041178536E+02 0.  0.
         24    2    4    4    0    0 -0.30722415958E+02 -0.13303375147E+03  0.12080942646E+04  0.12184547349E+04  0.80612301052E+02 0.  0.
         13    1    3    3    0    0  0.95192309077E+02  0.61361689933E+02  0.48800311636E+02  0.12332194904E+03  0.00000000000E+00 0. -1.
        -13    1    3    3    0    0  0.13253457959E+03  0.24925223352E+03  0.74109050167E+02  0.29186339616E+03  0.00000000000E+00 0.  1.
          4    1    6    6  502    0  0.83485502329E+01 -0.23460747206E+02  0.67560265531E+02  0.72003433454E+02  0.00000000000E+00 0. -1.
          1    1    5    5  503    0 -0.62478850319E+02 -0.14754447351E+02 -0.57086850702E+01  0.64450675241E+02  0.00000000000E+00 0. -1.
         -2    1    5    5    0  503 -0.13452562239E+03 -0.16282572463E+03 -0.74589498641E+02  0.22399319853E+03  0.00000000000E+00 0.  1.
         -3    1    6    6    0  502 -0.39070966191E+02 -0.10957300426E+03  0.11405339990E+04  0.11464513015E+04  0.00000000000E+00 0.  1.
<mgrwt>
<rscale>  0 0.14595008E+04</rscale>
<asrwt>0</asrwt>
<pdfrwt beam="1">  1        2 0.51644502E-01 0.14595008E+04</pdfrwt>
<pdfrwt beam="2">  1       -2 0.24406072E+00 0.14595008E+04</pdfrwt>
<totfact> 0.65639877E+00</totfact>
</mgrwt>
</event>
<event>
12    1  0.1495204E-007  0.1980814E+04  0.7818608E-02  0.8615644E-01
         -2   -1    0    0    0  501 -0.00000000000E+00  0.00000000000E+00  0.16571430835E+04  0.16571430835E+04  0.00000000000E+00 0.  1.
          2   -1    0    0  501    0  0.00000000000E+00 -0.00000000000E+00 -0.59192582323E+03  0.59192582323E+03  0.00000000000E+00 0. -1.
         23    2    1    2    0    0  0.49565363423E+03 -0.35765769796E+03 -0.13569860029E+03  0.63277376049E+03  0.91634970466E+02 0.  0.
        254    2    1    2    0    0 -0.49565363423E+03  0.35765769796E+03  0.12009158606E+04  0.16162951463E+04  0.89253545677E+03 0.  0.
        -24    2    4    4    0    0 -0.40354275233E+02  0.27308503480E+03  0.10987449073E+04  0.11357280133E+04  0.80211253542E+02 0.  0.
         24    2    4    4    0    0 -0.45529935900E+03  0.84572663156E+02  0.10217095329E+03  0.48056713292E+03  0.77819174348E+02 0.  0.
         11    1    3    3    0    0  0.33475199643E+03 -0.23090683669E+03 -0.13321622616E+03  0.42792923394E+03  0.00000000000E+00 0. -1.
        -11    1    3    3    0    0  0.16090163780E+03 -0.12675086127E+03 -0.24823741292E+01  0.20484452656E+03  0.00000000000E+00 0.  1.
          4    1    6    6  502    0 -0.20150867408E+03  0.14874468612E+02  0.12194635302E+02  0.20242456540E+03  0.00000000000E+00 0. -1.
          1    1    5    5  503    0 -0.10365507651E+02  0.20627962053E+03  0.68165108032E+03  0.71225481458E+03  0.00000000000E+00 0. -1.
         -2    1    5    5    0  503 -0.29988767582E+02  0.66805414274E+02  0.41709382698E+03  0.42347319876E+03  0.00000000000E+00 0.  1.
         -3    1    6    6    0  502 -0.25379068492E+03  0.69698194544E+02  0.89976317984E+02  0.27814256753E+03  0.00000000000E+00 0.  1.
<mgrwt>
<rscale>  0 0.19808138E+04</rscale>
<asrwt>0</asrwt>
<pdfrwt beam="1">  1        2 0.91065512E-01 0.19808138E+04</pdfrwt>
<pdfrwt beam="2">  1       -2 0.25494509E+00 0.19808138E+04</pdfrwt>
<totfact> 0.28106612E+00</totfact>
</mgrwt>
</event>
<event>
12    1  0.1687123E-007  0.2586243E+04  0.7818608E-02  0.8372889E-01
         -2   -1    0    0    0  501 -0.00000000000E+00  0.00000000000E+00  0.90343474163E+03  0.90343474163E+03  0.00000000000E+00 0. -1.
          2   -1    0    0  501    0  0.00000000000E+00 -0.00000000000E+00 -0.18508957629E+04  0.18508957629E+04  0.00000000000E+00 0.  1.
         23    2    1    2    0    0 -0.18606202080E+03  0.71488834090E+02 -0.16134042156E+04  0.16282846245E+04  0.92238420370E+02 0.  0.
        254    2    1    2    0    0  0.18606202080E+03 -0.71488834090E+02  0.66594319439E+03  0.11260458801E+04  0.88587203187E+03 0.  0.
        -24    2    4    4    0    0 -0.19975670763E+03 -0.16149144296E+03  0.66927594251E+03  0.72187962988E+03  0.84839167902E+02 0.  0.
         24    2    4    4    0    0  0.38581872843E+03  0.90002608873E+02 -0.33327481234E+01  0.40416625018E+03  0.79891737742E+02 0.  0.
         13    1    3    3    0    0 -0.57261206931E+02 -0.21048496121E+02 -0.43684381763E+03  0.44108321892E+03  0.00000000000E+00 0. -1.
        -13    1    3    3    0    0 -0.12880081387E+03  0.92537330211E+02 -0.11765603980E+04  0.11872014055E+04  0.00000000000E+00 0.  1.
          2    1    6    6  502    0  0.32075128575E+03  0.51533505501E+02  0.18787253245E+02  0.32540751433E+03  0.00000000000E+00 0. -1.
          3    1    5    5  503    0 -0.20339333871E+03 -0.16651438377E+03  0.66223963097E+03  0.71250068004E+03  0.00000000000E+00 0. -1.
         -4    1    5    5    0  503  0.36366310768E+01  0.50229408026E+01  0.70363115446E+01  0.93789498372E+01  0.00000000000E+00 0.  1.
         -1    1    6    6    0  502  0.65067442687E+02  0.38469103373E+02 -0.22120001369E+02  0.78758735849E+02  0.00000000000E+00 0.  1.
<mgrwt>
<rscale>  0 0.25862432E+04</rscale>
<asrwt>0</asrwt>
<pdfrwt beam="1">  1        2 0.28475319E+00 0.25862432E+04</pdfrwt>
<pdfrwt beam="2">  1       -2 0.13898996E+00 0.25862432E+04</pdfrwt>
<totfact> 0.26207501E+00</totfact>
</mgrwt>
</event>
<event>
12    1  0.1495204E-007  0.1941262E+04  0.7818608E-02  0.8634586E-01
          2   -1    0    0  501    0  0.00000000000E+00  0.00000000000E+00  0.13804388264E+04  0.13804388264E+04  0.00000000000E+00 0.  1.
         -2   -1    0    0    0  501 -0.00000000000E+00 -0.00000000000E+00 -0.68248163296E+03  0.68248163296E+03  0.00000000000E+00 0. -1.
         23    2    1    2    0    0 -0.48819726156E+03 -0.57853261171E+03  0.23112082668E+03  0.79826805032E+03  0.10381952917E+03 0.  0.
        254    2    1    2    0    0  0.48819726156E+03  0.57853261171E+03  0.46683636680E+03  0.12646524091E+04  0.89909564197E+03 0.  0.
        -24    2    4    4    0    0  0.55994851100E+03  0.28164418338E+03  0.64440973633E+03  0.90220076142E+03  0.76397150708E+02 0.  0.
         24    2    4    4    0    0 -0.71751249439E+02  0.29688842834E+03 -0.17757336953E+03  0.36245164766E+03  0.80919185920E+02 0.  0.
         11    1    3    3    0    0 -0.48193108859E+01 -0.18704428147E+02 -0.80468831323E+01  0.20924476525E+02  0.00000000000E+00 0.  1.
        -11    1    3    3    0    0 -0.48337795067E+03 -0.55982818357E+03  0.23916770981E+03  0.77734357380E+03  0.00000000000E+00 0. -1.
          2    1    6    6  502    0 -0.59676401242E+02  0.88195203531E+02 -0.69081656629E+02  0.12693282504E+03  0.00000000000E+00 0. -1.
          1    1    5    5  503    0  0.34642037472E+03  0.19802087336E+03  0.36546582419E+03  0.54109575027E+03  0.00000000000E+00 0. -1.
         -2    1    5    5    0  503  0.21352813628E+03  0.83623310012E+02  0.27894391214E+03  0.36110501115E+03  0.00000000000E+00 0.  1.
         -1    1    6    6    0  502 -0.12074848196E+02  0.20869322481E+03 -0.10849171290E+03  0.23551882262E+03  0.00000000000E+00 0.  1.
<mgrwt>
<rscale>  0 0.19412616E+04</rscale>
<asrwt>0</asrwt>
<pdfrwt beam="1">  1        2 0.21237520E+00 0.19412616E+04</pdfrwt>
<pdfrwt beam="2">  1       -2 0.10499717E+00 0.19412616E+04</pdfrwt>
<totfact> 0.10191743E+01</totfact>
</mgrwt>
</event>
<event>
12    1  0.1495204E-007  0.1093892E+04  0.7818608E-02  0.9211166E-01
          2   -1    0    0  501    0  0.00000000000E+00  0.00000000000E+00  0.11157122456E+04  0.11157122456E+04  0.00000000000E+00 0. -1.
         -2   -1    0    0    0  501 -0.00000000000E+00 -0.00000000000E+00 -0.26812459309E+03  0.26812459309E+03  0.00000000000E+00 0.  1.
         23    2    1    2    0    0 -0.38510921349E+02  0.13777946849E+03  0.23750511924E+03  0.29246460231E+03  0.93062285258E+02 0.  0.
        254    2    1    2    0    0  0.38510921349E+02 -0.13777946849E+03  0.61008253329E+03  0.10913722364E+04  0.89354708212E+03 0.  0.
        -24    2    4    4    0    0 -0.99661694511E+02  0.99866366584E+02  0.75404690546E+03  0.77095738836E+03  0.76699507891E+02 0.  0.
         24    2    4    4    0    0  0.13817261586E+03 -0.23764583508E+03 -0.14396437217E+03  0.32041484804E+03  0.79829315953E+02 0.  0.
         11    1    3    3    0    0 -0.49424611607E+02  0.12137184987E+03  0.13524031677E+03  0.18831851065E+03  0.00000000000E+00 0. -1.
        -11    1    3    3    0    0  0.10913690258E+02  0.16407618626E+02  0.10226480247E+03  0.10414609166E+03  0.00000000000E+00 0.  1.
          2    1    6    6  502    0 -0.85795047679E+01 -0.22771428706E+01 -0.41695883271E+01  0.98070764519E+01  0.00000000000E+00 0. -1.
          1    1    5    5  503    0 -0.13728440860E+02  0.16510854329E+02  0.28952681205E+02  0.36046305609E+02  0.00000000000E+00 0. -1.
         -2    1    5    5    0  503 -0.85933253650E+02  0.83355512255E+02  0.72509422426E+03  0.73491108276E+03  0.00000000000E+00 0.  1.
         -1    1    6    6    0  502  0.14675212063E+03 -0.23536869221E+03 -0.13979478384E+03  0.31060777159E+03  0.00000000000E+00 0.  1.
<mgrwt>
<rscale>  0 0.10938919E+04</rscale>
<asrwt>0</asrwt>
<pdfrwt beam="1">  1        2 0.17164803E+00 0.10938919E+04</pdfrwt>
<pdfrwt beam="2">  1       -2 0.41249938E-01 0.10938919E+04</pdfrwt>
<totfact> 0.11772203E+02</totfact>
</mgrwt>
</event>
<event>
12    1  0.1495204E-007  0.1622271E+04  0.7818608E-02  0.8806982E-01
          2   -1    0    0  501    0  0.00000000000E+00  0.00000000000E+00  0.32602888737E+04  0.32602888737E+04  0.00000000000E+00 0. -1.
         -2   -1    0    0    0  501 -0.00000000000E+00 -0.00000000000E+00 -0.20180441557E+03  0.20180441557E+03  0.00000000000E+00 0.  1.
         23    2    1    2    0    0 -0.49156858921E+03  0.27552820149E+02  0.16399952403E+04  0.17147144376E+04  0.90897625770E+02 0.  0.
        254    2    1    2    0    0  0.49156858921E+03 -0.27552820149E+02  0.14184892177E+04  0.17473788516E+04  0.89376862467E+03 0.  0.
        -24    2    4    4    0    0  0.16182285496E+03 -0.26973634036E+03  0.12602501364E+04  0.13014102627E+04  0.80584961188E+02 0.  0.
         24    2    4    4    0    0  0.32974573425E+03  0.24218352021E+03  0.15823908135E+03  0.44596858889E+03  0.80394456841E+02 0.  0.
         11    1    3    3    0    0 -0.92563290172E+02 -0.24913934495E+02  0.38601678995E+03  0.39774065538E+03  0.00000000000E+00 0. -1.
        -11    1    3    3    0    0 -0.39900529904E+03  0.52466754644E+02  0.12539784504E+04  0.13169737822E+04  0.00000000000E+00 0.  1.
          2    1    6    6  502    0  0.66898467049E+02  0.36410415332E+02  0.62975340285E+02  0.98828218249E+02  0.00000000000E+00 0. -1.
          3    1    5    5  503    0  0.29190752699E+02 -0.10975861763E+02  0.18146768493E+03  0.18412791820E+03  0.00000000000E+00 0. -1.
         -4    1    5    5    0  503  0.13263210226E+03 -0.25876047859E+03  0.10787824515E+04  0.11172823445E+04  0.00000000000E+00 0.  1.
         -1    1    6    6    0  502  0.26284726720E+03  0.20577310488E+03  0.95263741067E+02  0.34714037064E+03  0.00000000000E+00 0.  1.
<mgrwt>
<rscale>  0 0.16222709E+04</rscale>
<asrwt>0</asrwt>
<pdfrwt beam="1">  1        2 0.50158287E+00 0.16222709E+04</pdfrwt>
<pdfrwt beam="2">  1       -2 0.31046836E-01 0.16222709E+04</pdfrwt>
<totfact> 0.10988444E+01</totfact>
</mgrwt>
</event>
<event>
12    1  0.1495204E-007  0.1539540E+04  0.7818608E-02  0.8858577E-01
         -2   -1    0    0    0  501 -0.00000000000E+00  0.00000000000E+00  0.22721881323E+03  0.22721881323E+03  0.00000000000E+00 0.  1.
          2   -1    0    0  501    0  0.00000000000E+00 -0.00000000000E+00 -0.26078187110E+04  0.26078187110E+04  0.00000000000E+00 0. -1.
         23    2    1    2    0    0  0.30297097918E+03 -0.21048316034E+03 -0.13773568537E+04  0.14288792462E+04  0.92138063575E+02 0.  0.
        254    2    1    2    0    0 -0.30297097918E+03  0.21048316034E+03 -0.10032430440E+04  0.14061582780E+04  0.91361366143E+03 0.  0.
        -24    2    4    4    0    0  0.11583126392E+03 -0.10250394856E+03  0.86970075018E+02  0.19439801932E+03  0.79390520811E+02 0.  0.
         24    2    4    4    0    0 -0.41880224310E+03  0.31298710889E+03 -0.10902131191E+04  0.12117602587E+04  0.80262260048E+02 0.  0.
         11    1    3    3    0    0  0.21742607333E+03 -0.18266546693E+03 -0.11457549796E+04  0.11804216380E+04  0.00000000000E+00 0. -1.
        -11    1    3    3    0    0  0.85544905852E+02 -0.27817693412E+02 -0.23160187404E+03  0.24845760814E+03  0.00000000000E+00 0.  1.
          2    1    6    6  502    0 -0.20119739524E+03  0.18588429408E+03 -0.50284475544E+03  0.57261349156E+03  0.00000000000E+00 0. -1.
          1    1    5    5  503    0  0.22063956090E+01  0.76976000955E+01 -0.67263551470E+01  0.10457776168E+02  0.00000000000E+00 0. -1.
         -2    1    5    5    0  503  0.11362486831E+03 -0.11020154865E+03  0.93696430165E+02  0.18394024315E+03  0.00000000000E+00 0.  1.
         -1    1    6    6    0  502 -0.21760484786E+03  0.12710281481E+03 -0.58736836362E+03  0.63914676713E+03  0.00000000000E+00 0.  1.
<mgrwt>
<rscale>  0 0.15395395E+04</rscale>
<asrwt>0</asrwt>
<pdfrwt beam="1">  1        2 0.40120285E+00 0.15395395E+04</pdfrwt>
<pdfrwt beam="2">  1       -2 0.34956743E-01 0.15395395E+04</pdfrwt>
<totfact> 0.22347399E+01</totfact>
</mgrwt>
</event>
<event>
12    1  0.1495204E-007  0.2788210E+04  0.7818608E-02  0.8306938E-01
          2   -1    0    0  501    0  0.00000000000E+00  0.00000000000E+00  0.29714212185E+04  0.29714212185E+04  0.00000000000E+00 0. -1.
         -2   -1    0    0    0  501 -0.00000000000E+00 -0.00000000000E+00 -0.65407386712E+03  0.65407386712E+03  0.00000000000E+00 0.  1.
         23    2    1    2    0    0 -0.78386875553E+03  0.23817261553E+03 -0.18564677744E+03  0.84377256744E+03  0.79441795740E+02 0.  0.
        254    2    1    2    0    0  0.78386875553E+03 -0.23817261553E+03  0.25029941289E+04  0.27817225182E+04  0.89544633482E+03 0.  0.
        -24    2    4    4    0    0  0.59863631519E+03  0.27029101802E+03  0.14914626461E+04  0.16317364940E+04  0.81734257095E+02 0.  0.
         24    2    4    4    0    0  0.18523244033E+03 -0.50846363355E+03  0.10115314828E+04  0.11499860242E+04  0.80159788699E+02 0.  0.
         13    1    3    3    0    0 -0.48381374520E+02  0.25848980707E+02  0.43490409049E+01  0.55025824490E+02  0.00000000000E+00 0. -1.
        -13    1    3    3    0    0 -0.73548738101E+03  0.21232363482E+03 -0.18999581835E+03  0.78874674295E+03  0.00000000000E+00 0.  1.
          2    1    6    6  502    0  0.40322241391E+02 -0.22371586785E+03  0.40390446885E+03  0.46347976508E+03  0.00000000000E+00 0. -1.
          1    1    5    5  503    0  0.37629639578E+03  0.12668644193E+03  0.87722226771E+03  0.96289528975E+03  0.00000000000E+00 0. -1.
         -2    1    5    5    0  503  0.22233991941E+03  0.14360457608E+03  0.61424037837E+03  0.66884120422E+03  0.00000000000E+00 0.  1.
         -1    1    6    6    0  502  0.14491019894E+03 -0.28474776570E+03  0.60762701392E+03  0.68650625917E+03  0.00000000000E+00 0.  1.
<mgrwt>
<rscale>  0 0.27882102E+04</rscale>
<asrwt>0</asrwt>
<pdfrwt beam="1">  1        2 0.45714172E+00 0.27882102E+04</pdfrwt>
<pdfrwt beam="2">  1       -2 0.10062675E+00 0.27882102E+04</pdfrwt>
<totfact> 0.12855662E+00</totfact>
</mgrwt>
</event>
<event>
12    1  0.1495204E-007  0.1416753E+04  0.7818608E-02  0.8941780E-01
          1   -1    0    0  501    0  0.00000000000E+00  0.00000000000E+00  0.92717538691E+03  0.92717538691E+03  0.00000000000E+00 0. -1.
         -1   -1    0    0    0  501 -0.00000000000E+00 -0.00000000000E+00 -0.54121083730E+03  0.54121083730E+03  0.00000000000E+00 0.  1.
         23    2    1    2    0    0  0.48065332973E+02  0.65227357014E+02 -0.30389813016E+03  0.32747536108E+03  0.91220361012E+02 0.  0.
        254    2    1    2    0    0 -0.48065332973E+02 -0.65227357014E+02  0.68986267976E+03  0.11409108631E+04  0.90509789323E+03 0.  0.
        -24    2    4    4    0    0  0.49374297158E+02  0.35238882308E+02 -0.20698463519E+03  0.22974213182E+03  0.79115155829E+02 0.  0.
         24    2    4    4    0    0 -0.97439630131E+02 -0.10046623932E+03  0.89684731495E+03  0.91116873131E+03  0.79406572920E+02 0.  0.
         13    1    3    3    0    0  0.32329986513E+02  0.10441279312E+02 -0.23421445855E+02  0.41265148340E+02  0.00000000000E+00 0. -1.
        -13    1    3    3    0    0  0.15735346460E+02  0.54786077702E+02 -0.28047668430E+03  0.28621021274E+03  0.00000000000E+00 0.  1.
          2    1    6    6  502    0 -0.64853844960E+02 -0.95904991032E+02  0.51243233029E+03  0.52534815279E+03  0.00000000000E+00 0. -1.
          1    1    5    5  503    0  0.61289204796E+02  0.37964775592E+02 -0.10705440805E+03  0.12906718054E+03  0.00000000000E+00 0. -1.
         -2    1    5    5    0  503 -0.11914907638E+02 -0.27258932838E+01 -0.99930227140E+02  0.10067495128E+03  0.00000000000E+00 0.  1.
         -1    1    6    6    0  502 -0.32585785171E+02 -0.45612482896E+01  0.38441498466E+03  0.38582057852E+03  0.00000000000E+00 0.  1.
<mgrwt>
<rscale>  0 0.14167531E+04</rscale>
<asrwt>0</asrwt>
<pdfrwt beam="1">  1        1 0.14264237E+00 0.14167531E+04</pdfrwt>
<pdfrwt beam="2">  1       -1 0.83263206E-01 0.14167531E+04</pdfrwt>
<totfact> 0.24113788E+01</totfact>
</mgrwt>
</event>
<event>
12    1  0.1495204E-007  0.1185136E+04  0.7818608E-02  0.9125967E-01
          1   -1    0    0  501    0  0.00000000000E+00  0.00000000000E+00  0.13573176607E+04  0.13573176607E+04  0.00000000000E+00 0. -1.
         -1   -1    0    0    0  501 -0.00000000000E+00 -0.00000000000E+00 -0.25869911428E+03  0.25869911428E+03  0.00000000000E+00 0.  1.
         23    2    1    2    0    0  0.23135490112E+03 -0.38962788673E+02  0.19293361818E+03  0.31724328278E+03  0.91524479083E+02 0.  0.
        254    2    1    2    0    0 -0.23135490112E+03  0.38962788673E+02  0.90568492826E+03  0.12987734922E+04  0.90083528220E+03 0.  0.
        -24    2    4    4    0    0  0.14097911726E+03 -0.20048777532E+03 -0.31658769315E+02  0.25916448794E+03  0.78060838976E+02 0.  0.
         24    2    4    4    0    0 -0.37233401838E+03  0.23945056399E+03  0.93734369758E+03  0.10396090043E+04  0.78768525188E+02 0.  0.
         13    1    3    3    0    0 -0.94704347360E+00 -0.17597904660E+02  0.21184137890E+02  0.27556321197E+02  0.00000000000E+00 0.  1.
        -13    1    3    3    0    0  0.23230194460E+03 -0.21364884013E+02  0.17174948029E+03  0.28968696158E+03  0.00000000000E+00 0. -1.
          4    1    6    6  502    0 -0.35164616140E+03  0.20738534945E+03  0.81631280606E+03  0.91270493772E+03  0.00000000000E+00 0. -1.
          1    1    5    5  503    0  0.10437902533E+03 -0.15958854306E+03  0.89314662703E+01  0.19090116578E+03  0.00000000000E+00 0. -1.
         -2    1    5    5    0  503  0.36600091933E+02 -0.40899232256E+02 -0.40590235585E+02  0.68263322169E+02  0.00000000000E+00 0.  1.
         -3    1    6    6    0  502 -0.20687856982E+02  0.32065214544E+02  0.12103089151E+03  0.12690406656E+03  0.00000000000E+00 0.  1.
<mgrwt>
<rscale>  0 0.11851361E+04</rscale>
<asrwt>0</asrwt>
<pdfrwt beam="1">  1        1 0.20881810E+00 0.11851361E+04</pdfrwt>
<pdfrwt beam="2">  1       -1 0.39799864E-01 0.11851361E+04</pdfrwt>
<totfact> 0.50129975E+01</totfact>
</mgrwt>
</event>
<event>
12    1  0.1495204E-007  0.2027947E+04  0.7818608E-02  0.8593665E-01
         -2   -1    0    0    0  501 -0.00000000000E+00  0.00000000000E+00  0.91887991745E+03  0.91887991745E+03  0.00000000000E+00 0. -1.
          2   -1    0    0  501    0  0.00000000000E+00 -0.00000000000E+00 -0.11189085911E+04  0.11189085911E+04  0.00000000000E+00 0.  1.
         23    2    1    2    0    0  0.78193580887E+03  0.16590711914E+02  0.13663559810E+03  0.79939422140E+03  0.93075096645E+02 0.  0.
        254    2    1    2    0    0 -0.78193580887E+03 -0.16590711914E+02 -0.33666427174E+03  0.12383942871E+04  0.89921005202E+03 0.  0.
        -24    2    4    4    0    0 -0.26318668206E+03 -0.37459721058E+03  0.89535136698E+02  0.47352195155E+03  0.81340015384E+02 0.  0.
         24    2    4    4    0    0 -0.51874912681E+03  0.35800649867E+03 -0.42619940844E+03  0.76487233560E+03  0.78194912631E+02 0.  0.
         13    1    3    3    0    0  0.58455847327E+03  0.29141842627E+02  0.64303304248E+02  0.58880622500E+03  0.00000000000E+00 0. -1.
        -13    1    3    3    0    0  0.19737733560E+03 -0.12551130713E+02  0.72332293854E+02  0.21058799640E+03  0.00000000000E+00 0.  1.
          4    1    6    6  502    0 -0.21930782723E+03  0.17783988419E+03 -0.15193338864E+03  0.32063484227E+03  0.00000000000E+00 0. -1.
          3    1    5    5  503    0  0.46104583876E+01 -0.20058005616E+02  0.58628583790E+01  0.21399837014E+02  0.00000000000E+00 0. -1.
         -4    1    5    5    0  503 -0.26779714045E+03 -0.35453920496E+03  0.83672278319E+02  0.45212211453E+03  0.00000000000E+00 0.  1.
         -3    1    6    6    0  502 -0.29944129958E+03  0.18016661448E+03 -0.27426601980E+03  0.44423749333E+03  0.00000000000E+00 0.  1.
<mgrwt>
<rscale>  0 0.20279474E+04</rscale>
<asrwt>0</asrwt>
<pdfrwt beam="1">  1        2 0.17213978E+00 0.20279474E+04</pdfrwt>
<pdfrwt beam="2">  1       -2 0.14136614E+00 0.20279474E+04</pdfrwt>
<totfact> 0.68852771E+00</totfact>
</mgrwt>
</event>
<event>
12    1  0.1495204E-007  0.1641316E+04  0.7818608E-02  0.8795560E-01
          2   -1    0    0  501    0  0.00000000000E+00  0.00000000000E+00  0.22626937467E+04  0.22626937467E+04  0.00000000000E+00 0. -1.
         -2   -1    0    0    0  501 -0.00000000000E+00 -0.00000000000E+00 -0.29764518399E+03  0.29764518399E+03  0.00000000000E+00 0.  1.
         23    2    1    2    0    0 -0.30684392831E+03 -0.43041265616E+03  0.36273823895E+03  0.64764148992E+03  0.91935948086E+02 0.  0.
        254    2    1    2    0    0  0.30684392831E+03  0.43041265616E+03  0.16023103237E+04  0.19126974407E+04  0.90089115620E+03 0.  0.
        -24    2    4    4    0    0  0.42174691631E+03 -0.12503115253E+03  0.91159312400E+03  0.10153111964E+04  0.79696620299E+02 0.  0.
         24    2    4    4    0    0 -0.11490298800E+03  0.55544380870E+03  0.69071719972E+03  0.89738624432E+03  0.80568605793E+02 0.  0.
         11    1    3    3    0    0 -0.36156084580E+02 -0.10616205500E+03  0.54152746065E+02  0.12453981003E+03  0.00000000000E+00 0. -1.
        -11    1    3    3    0    0 -0.27068784373E+03 -0.32425060116E+03  0.30858549288E+03  0.52310167990E+03  0.00000000000E+00 0.  1.
          4    1    6    6  502    0 -0.25615277400E+02  0.12401854669E+03  0.10520872957E+03  0.16463784236E+03  0.00000000000E+00 0. -1.
          3    1    5    5  503    0  0.18309661142E+03 -0.58180501048E+02  0.48928221598E+03  0.52564857718E+03  0.00000000000E+00 0. -1.
         -2    1    5    5    0  503  0.23865030489E+03 -0.66850651486E+02  0.42231090803E+03  0.48966261923E+03  0.00000000000E+00 0.  1.
         -3    1    6    6    0  502 -0.89287710597E+02  0.43142526201E+03  0.58550847014E+03  0.73274840196E+03  0.00000000000E+00 0.  1.
<mgrwt>
<rscale>  0 0.16413164E+04</rscale>
<asrwt>0</asrwt>
<pdfrwt beam="1">  1        2 0.34810672E+00 0.16413164E+04</pdfrwt>
<pdfrwt beam="2">  1       -2 0.45791568E-01 0.16413164E+04</pdfrwt>
<totfact> 0.20593327E+01</totfact>
</mgrwt>
</event>
<event>
12    1  0.1495204E-007  0.3072339E+04  0.7818608E-02  0.8223371E-01
         -2   -1    0    0    0  501 -0.00000000000E+00  0.00000000000E+00  0.14740722077E+04  0.14740722077E+04  0.00000000000E+00 0. -1.
          2   -1    0    0  501    0  0.00000000000E+00 -0.00000000000E+00 -0.16008822770E+04  0.16008822770E+04  0.00000000000E+00 0.  1.
         23    2    1    2    0    0 -0.50731015312E+03 -0.55041124743E+03  0.11306822380E+04  0.13587517711E+04  0.86301328655E+02 0.  0.
        254    2    1    2    0    0  0.50731015312E+03  0.55041124743E+03 -0.12574923073E+04  0.17162027136E+04  0.89652033915E+03 0.  0.
        -24    2    4    4    0    0 -0.17840450165E+03  0.40892067160E+03 -0.38361860819E+03  0.59374604817E+03  0.79541506751E+02 0.  0.
         24    2    4    4    0    0  0.68571465478E+03  0.14149057583E+03 -0.87387369909E+03  0.11224566654E+04  0.77650196146E+02 0.  0.
         13    1    3    3    0    0 -0.21226025905E+03 -0.19846865503E+03  0.50450263852E+03  0.58220884301E+03  0.00000000000E+00 0. -1.
        -13    1    3    3    0    0 -0.29504989408E+03 -0.35194259240E+03  0.62617959949E+03  0.77654292808E+03  0.00000000000E+00 0.  1.
          4    1    6    6  502    0  0.38395788027E+03  0.11207802512E+03 -0.53041985855E+03  0.66432700072E+03  0.00000000000E+00 0. -1.
          3    1    5    5  503    0 -0.15164353102E+03  0.38667013485E+03 -0.33317435929E+03  0.53246099141E+03  0.00000000000E+00 0. -1.
         -4    1    5    5    0  503 -0.26760970639E+02  0.22250536749E+02 -0.50444248899E+02  0.61285056760E+02  0.00000000000E+00 0.  1.
         -1    1    6    6    0  502  0.30175677451E+03  0.29412550709E+02 -0.34345384053E+03  0.45812966470E+03  0.00000000000E+00 0.  1.
<mgrwt>
<rscale>  0 0.30723386E+04</rscale>
<asrwt>0</asrwt>
<pdfrwt beam="1">  1        2 0.24628958E+00 0.30723386E+04</pdfrwt>
<pdfrwt beam="2">  1       -2 0.22678034E+00 0.30723386E+04</pdfrwt>
<totfact> 0.84905215E-01</totfact>
</mgrwt>
</event>
<event>
12    1  0.1495204E-007  0.1312759E+04  0.7818608E-02  0.9019508E-01
          2   -1    0    0  501    0  0.00000000000E+00  0.00000000000E+00  0.46827684367E+03  0.46827684367E+03  0.00000000000E+00 0.  1.
         -2   -1    0    0    0  501 -0.00000000000E+00 -0.00000000000E+00 -0.92004192559E+03  0.92004192559E+03  0.00000000000E+00 0. -1.
         23    2    1    2    0    0 -0.19514800424E+03 -0.27577254266E+03 -0.30239291111E+02  0.35112999488E+03  0.90799888366E+02 0.  0.
        254    2    1    2    0    0  0.19514800424E+03  0.27577254266E+03 -0.42152579081E+03  0.10371887744E+04  0.88540573893E+03 0.  0.
        -24    2    4    4    0    0  0.32530060972E+03  0.29672014161E+03  0.12902577523E+03  0.46553433742E+03  0.78811417404E+02 0.  0.
         24    2    4    4    0    0 -0.13015260548E+03 -0.20947598950E+02 -0.55055156604E+03  0.57165443697E+03  0.79393109353E+02 0.  0.
         13    1    3    3    0    0 -0.13893694734E+03 -0.16602767094E+03  0.21200573895E+02  0.21752730216E+03  0.00000000000E+00 0. -1.
        -13    1    3    3    0    0 -0.56211056908E+02 -0.10974487172E+03 -0.51439865006E+02  0.13360269271E+03  0.00000000000E+00 0.  1.
          2    1    6    6  502    0  0.70395649650E+01  0.84946490263E+00 -0.49524220640E+01  0.86489045443E+01  0.00000000000E+00 0. -1.
          1    1    5    5  503    0  0.42535281408E+01 -0.33807688766E+01  0.80636262944E+01  0.97233825831E+01  0.00000000000E+00 0. -1.
         -2    1    5    5    0  503  0.32104708158E+03  0.30010091049E+03  0.12096214894E+03  0.45581095483E+03  0.00000000000E+00 0.  1.
         -3    1    6    6    0  502 -0.13719217044E+03 -0.21797063853E+02 -0.54559914398E+03  0.56300553242E+03  0.00000000000E+00 0.  1.
<mgrwt>
<rscale>  0 0.13127594E+04</rscale>
<asrwt>0</asrwt>
<pdfrwt beam="1">  1        2 0.72042591E-01 0.13127594E+04</pdfrwt>
<pdfrwt beam="2">  1       -2 0.14154491E+00 0.13127594E+04</pdfrwt>
<totfact> 0.22691380E+01</totfact>
</mgrwt>
</event>
<event>
12    1  0.1495204E-007  0.1247713E+04  0.7818608E-02  0.9072089E-01
          2   -1    0    0  501    0  0.00000000000E+00  0.00000000000E+00  0.33656100613E+03  0.33656100613E+03  0.00000000000E+00 0. -1.
         -2   -1    0    0    0  501 -0.00000000000E+00 -0.00000000000E+00 -0.11563932863E+04  0.11563932863E+04  0.00000000000E+00 0.  1.
         23    2    1    2    0    0  0.69490676857E+02 -0.25182919112E+02 -0.52417419801E+03  0.53703893505E+03  0.90493614760E+02 0.  0.
        254    2    1    2    0    0 -0.69490676857E+02  0.25182919112E+02 -0.29565808220E+03  0.95591535742E+03  0.90603384892E+03 0.  0.
        -24    2    4    4    0    0 -0.10686777546E+03  0.35484172728E+03 -0.44407795034E+03  0.58395184538E+03  0.80381334257E+02 0.  0.
         24    2    4    4    0    0  0.37377098608E+02 -0.32965880817E+03  0.14841986814E+03  0.37196351204E+03  0.79097532997E+02 0.  0.
         13    1    3    3    0    0  0.34478856999E+02 -0.17267020233E+02 -0.47278256807E+03  0.47435250420E+03  0.00000000000E+00 0.  1.
        -13    1    3    3    0    0  0.35011819858E+02 -0.79158988791E+01 -0.51391629942E+02  0.62686430852E+02  0.00000000000E+00 0. -1.
          4    1    6    6  502    0  0.55707446035E+02 -0.27045017735E+03  0.13943028667E+03  0.30933383716E+03  0.00000000000E+00 0. -1.
          1    1    5    5  503    0 -0.90287278454E+02  0.26498640991E+03 -0.27877332719E+03  0.39507487650E+03  0.00000000000E+00 0. -1.
         -2    1    5    5    0  503 -0.16580497010E+02  0.89855317371E+02 -0.16530462315E+03  0.18887696888E+03  0.00000000000E+00 0.  1.
         -3    1    6    6    0  502 -0.18330347427E+02 -0.59208630819E+02  0.89895814696E+01  0.62629674877E+02  0.00000000000E+00 0.  1.
<mgrwt>
<rscale>  0 0.12477129E+04</rscale>
<asrwt>0</asrwt>
<pdfrwt beam="1">  1        2 0.51778617E-01 0.12477129E+04</pdfrwt>
<pdfrwt beam="2">  1       -2 0.17790666E+00 0.12477129E+04</pdfrwt>
<totfact> 0.17786207E+01</totfact>
</mgrwt>
</event>
<event>
12    1  0.1495204E-007  0.1319174E+04  0.7818608E-02  0.9014496E-01
         -2   -1    0    0    0  501 -0.00000000000E+00  0.00000000000E+00  0.26264581224E+03  0.26264581224E+03  0.00000000000E+00 0. -1.
          2   -1    0    0  501    0  0.00000000000E+00 -0.00000000000E+00 -0.16564334300E+04  0.16564334300E+04  0.00000000000E+00 0.  1.
         23    2    1    2    0    0 -0.15217231969E+03 -0.86223412539E+02 -0.81325227889E+03  0.83675638129E+03  0.90504589698E+02 0.  0.
        254    2    1    2    0    0  0.15217231969E+03  0.86223412539E+02 -0.58053533888E+03  0.10823228610E+04  0.89655485270E+03 0.  0.
        -24    2    4    4    0    0  0.27270067584E+02 -0.35249470364E+02 -0.79178300046E+03  0.79731088206E+03  0.82450840397E+02 0.  0.
         24    2    4    4    0    0  0.12490225210E+03  0.12147288290E+03  0.21124766158E+03  0.28501197889E+03  0.79057066273E+02 0.  0.
         13    1    3    3    0    0 -0.50384288711E+02 -0.18588080391E+02 -0.10395068767E+03  0.11700358434E+03  0.00000000000E+00 0. -1.
        -13    1    3    3    0    0 -0.10178803098E+03 -0.67635332149E+02 -0.70930159122E+03  0.71975279695E+03  0.00000000000E+00 0.  1.
          2    1    6    6  502    0  0.13411547040E+03  0.10608070271E+03  0.17558755753E+03  0.24509399268E+03  0.00000000000E+00 0. -1.
          1    1    5    5  503    0  0.16144509734E+02 -0.48302024014E+02 -0.75511130573E+03  0.75682680631E+03  0.00000000000E+00 0. -1.
         -4    1    5    5    0  503  0.11125557850E+02  0.13052553649E+02 -0.36671694739E+02  0.40484075749E+02  0.00000000000E+00 0.  1.
         -1    1    6    6    0  502 -0.92132182956E+01  0.15392180190E+02  0.35660104051E+02  0.39917986212E+02  0.00000000000E+00 0.  1.
<mgrwt>
<rscale>  0 0.13191744E+04</rscale>
<asrwt>0</asrwt>
<pdfrwt beam="1">  1        2 0.25483591E+00 0.13191744E+04</pdfrwt>
<pdfrwt beam="2">  1       -2 0.40407048E-01 0.13191744E+04</pdfrwt>
<totfact> 0.58845929E+01</totfact>
</mgrwt>
</event>
<event>
12    1  0.1495204E-007  0.2393377E+04  0.7818608E-02  0.8441987E-01
         -2   -1    0    0    0  501 -0.00000000000E+00  0.00000000000E+00  0.76640604604E+03  0.76640604604E+03  0.00000000000E+00 0. -1.
          2   -1    0    0  501    0  0.00000000000E+00 -0.00000000000E+00 -0.18685439679E+04  0.18685439679E+04  0.00000000000E+00 0.  1.
         23    2    1    2    0    0 -0.23367026444E+03 -0.54898243679E+03 -0.13821839633E+04  0.15082059320E+04  0.90934682461E+02 0.  0.
        254    2    1    2    0    0  0.23367026444E+03  0.54898243679E+03  0.28004604144E+03  0.11267440820E+04  0.91386154998E+03 0.  0.
        -24    2    4    4    0    0  0.50128911451E+03  0.76439073230E+02  0.26342994825E+03  0.57776217059E+03  0.85323384151E+02 0.  0.
         24    2    4    4    0    0 -0.26761885007E+03  0.47254336356E+03  0.16616093193E+02  0.54898191138E+03  0.78663619986E+02 0.  0.
         11    1    3    3    0    0 -0.73023276277E+02 -0.10260573819E+03 -0.23094874663E+03  0.26305448096E+03  0.00000000000E+00 0. -1.
        -11    1    3    3    0    0 -0.16064698816E+03 -0.44637669860E+03 -0.11512352167E+04  0.12451514510E+04  0.00000000000E+00 0.  1.
          4    1    6    6  502    0 -0.26495660022E+03  0.47209215262E+03  0.23206965772E+02  0.54185935798E+03  0.00000000000E+00 0. -1.
          1    1    5    5  503    0  0.34217731628E+03  0.51553638940E+02  0.22316341082E+03  0.41175842601E+03  0.00000000000E+00 0. -1.
         -2    1    5    5    0  503  0.15911179824E+03  0.24885434291E+02  0.40266537436E+02  0.16600374458E+03  0.00000000000E+00 0.  1.
         -3    1    6    6    0  502 -0.26622498490E+01  0.45121093763E+00 -0.65908725793E+01  0.71225533992E+01  0.00000000000E+00 0.  1.
<mgrwt>
<rscale>  0 0.23933770E+04</rscale>
<asrwt>0</asrwt>
<pdfrwt beam="1">  1        2 0.28746830E+00 0.23933770E+04</pdfrwt>
<pdfrwt beam="2">  1       -2 0.11790862E+00 0.23933770E+04</pdfrwt>
<totfact> 0.39450009E+00</totfact>
</mgrwt>
</event>
<event>
12    1  0.1495204E-007  0.1157545E+04  0.7818608E-02  0.9150851E-01
          1   -1    0    0  501    0  0.00000000000E+00  0.00000000000E+00  0.85205217494E+03  0.85205217494E+03  0.00000000000E+00 0. -1.
         -1   -1    0    0    0  501 -0.00000000000E+00 -0.00000000000E+00 -0.39314193765E+03  0.39314193765E+03  0.00000000000E+00 0.  1.
         23    2    1    2    0    0 -0.12181714950E+02  0.21835032962E+03  0.66483424315E+02  0.24640636563E+03  0.92036898526E+02 0.  0.
        254    2    1    2    0    0  0.12181714950E+02 -0.21835032962E+03  0.39242681298E+03  0.99878774696E+03  0.89204983007E+03 0.  0.
        -24    2    4    4    0    0  0.11856541412E+03  0.32709825619E+03  0.15059626576E+03  0.38760984395E+03  0.80691568532E+02 0.  0.
         24    2    4    4    0    0 -0.10638369917E+03 -0.54544858581E+03  0.24183054721E+03  0.61117790302E+03  0.78897175856E+02 0.  0.
         13    1    3    3    0    0  0.77701590682E+01  0.17419722995E+03  0.13929882871E+02  0.17492596128E+03  0.00000000000E+00 0.  1.
        -13    1    3    3    0    0 -0.19951874018E+02  0.44153099669E+02  0.52553541444E+02  0.71480404347E+02  0.00000000000E+00 0. -1.
          2    1    6    6  502    0 -0.60600362751E+02 -0.35734082272E+03  0.19673944237E+03  0.41239698803E+03  0.00000000000E+00 0. -1.
          3    1    5    5  503    0  0.11476745572E+03  0.32511560274E+03  0.15784296373E+03  0.37919140976E+03  0.00000000000E+00 0. -1.
         -4    1    5    5    0  503  0.37979584070E+01  0.19826534533E+01 -0.72466979655E+01  0.84184341881E+01  0.00000000000E+00 0.  1.
         -3    1    6    6    0  502 -0.45783336423E+02 -0.18810776309E+03  0.45091104839E+02  0.19878091499E+03  0.00000000000E+00 0.  1.
<mgrwt>
<rscale>  0 0.11575447E+04</rscale>
<asrwt>0</asrwt>
<pdfrwt beam="1">  1        1 0.13108495E+00 0.11575447E+04</pdfrwt>
<pdfrwt beam="2">  1       -1 0.60483375E-01 0.11575447E+04</pdfrwt>
<totfact> 0.54894441E+01</totfact>
</mgrwt>
</event>
<event>
12    1  0.1495204E-007  0.3340110E+04  0.7818608E-02  0.8152764E-01
          1   -1    0    0  501    0  0.00000000000E+00  0.00000000000E+00  0.23988499851E+04  0.23988499851E+04  0.00000000000E+00 0. -1.
         -1   -1    0    0    0  501 -0.00000000000E+00 -0.00000000000E+00 -0.11626754487E+04  0.11626754487E+04  0.00000000000E+00 0.  1.
         23    2    1    2    0    0  0.54934794644E+03  0.68950460499E+02  0.21208638935E+04  0.21938711377E+04  0.92030331746E+02 0.  0.
        254    2    1    2    0    0 -0.54934794644E+03 -0.68950460499E+02 -0.88468935705E+03  0.13676542961E+04  0.88389234798E+03 0.  0.
        -24    2    4    4    0    0  0.16701469762E+03  0.10061278941E+03  0.48404218481E+01  0.21031801254E+03  0.78698120044E+02 0.  0.
         24    2    4    4    0    0 -0.71636264406E+03 -0.16956324991E+03 -0.88952977890E+03  0.11573362835E+04  0.78974123032E+02 0.  0.
         13    1    3    3    0    0  0.97291504100E+02 -0.15641828275E+02  0.46498966831E+03  0.47531641587E+03  0.00000000000E+00 0.  1.
        -13    1    3    3    0    0  0.45205644234E+03  0.84592288774E+02  0.16558742252E+04  0.17185547219E+04  0.00000000000E+00 0. -1.
          4    1    6    6  502    0 -0.27017384693E+03 -0.26716837509E+02 -0.34463749521E+03  0.43872850383E+03  0.00000000000E+00 0. -1.
          3    1    5    5  503    0  0.17015289452E+03  0.10398360949E+03  0.14170158286E+02  0.19991346114E+03  0.00000000000E+00 0. -1.
         -4    1    5    5    0  503 -0.31381969034E+01 -0.33708200793E+01 -0.93297364375E+01  0.10404551399E+02  0.00000000000E+00 0.  1.
         -3    1    6    6    0  502 -0.44618879713E+03 -0.14284641240E+03 -0.54489228369E+03  0.71860777970E+03  0.00000000000E+00 0.  1.
<mgrwt>
<rscale>  0 0.33401102E+04</rscale>
<asrwt>0</asrwt>
<pdfrwt beam="1">  1        1 0.36905384E+00 0.33401102E+04</pdfrwt>
<pdfrwt beam="2">  1       -1 0.17887315E+00 0.33401102E+04</pdfrwt>
<totfact> 0.27899209E-01</totfact>
</mgrwt>
</event>
<event>
12    1  0.1495204E-007  0.1233874E+04  0.7818608E-02  0.9083713E-01
          2   -1    0    0  501    0  0.00000000000E+00  0.00000000000E+00  0.14337658504E+04  0.14337658504E+04  0.00000000000E+00 0. -1.
         -2   -1    0    0    0  501 -0.00000000000E+00 -0.00000000000E+00 -0.26546254001E+03  0.26546254001E+03  0.00000000000E+00 0.  1.
         23    2    1    2    0    0  0.17632922812E+03 -0.14166644918E+03  0.50053235495E+02  0.24941015401E+03  0.92405189368E+02 0.  0.
        254    2    1    2    0    0 -0.17632922812E+03  0.14166644918E+03  0.11182500749E+04  0.14498182364E+04  0.89461070255E+03 0.  0.
        -24    2    4    4    0    0 -0.61427008900E+02 -0.24435036172E+03  0.72141402775E+01  0.26533551580E+03  0.82888572390E+02 0.  0.
         24    2    4    4    0    0 -0.11490221922E+03  0.38601681090E+03  0.11110359346E+04  0.11844827206E+04  0.79918515527E+02 0.  0.
         13    1    3    3    0    0  0.30299257448E+02 -0.52459786745E+02  0.49587638621E+02  0.78287982035E+02  0.00000000000E+00 0. -1.
        -13    1    3    3    0    0  0.14602997068E+03 -0.89206662440E+02  0.46559687400E+00  0.17112217197E+03  0.00000000000E+00 0.  1.
          2    1    6    6  502    0 -0.54176076510E+02  0.76878746800E+02  0.30041761926E+03  0.31479538583E+03  0.00000000000E+00 0. -1.
          3    1    5    5  503    0 -0.22338252085E+02 -0.23846571944E+02  0.24333718142E+02  0.40740475431E+02  0.00000000000E+00 0. -1.
         -4    1    5    5    0  503 -0.39088756815E+02 -0.22050378977E+03 -0.17119577865E+02  0.22459504037E+03  0.00000000000E+00 0.  1.
         -1    1    6    6    0  502 -0.60726142714E+02  0.30913806410E+03  0.81061831537E+03  0.86968733479E+03  0.00000000000E+00 0.  1.
<mgrwt>
<rscale>  0 0.12338738E+04</rscale>
<asrwt>0</asrwt>
<pdfrwt beam="1">  1        2 0.22057936E+00 0.12338738E+04</pdfrwt>
<pdfrwt beam="2">  1       -2 0.40840392E-01 0.12338738E+04</pdfrwt>
<totfact> 0.77333223E+01</totfact>
</mgrwt>
</event>
<event>
12    1  0.1495204E-007  0.1542463E+04  0.7818608E-02  0.8856696E-01
         -1   -1    0    0    0  501 -0.00000000000E+00  0.00000000000E+00  0.19654776906E+03  0.19654776906E+03  0.00000000000E+00 0. -1.
          1   -1    0    0  501    0  0.00000000000E+00 -0.00000000000E+00 -0.30262275123E+04  0.30262275123E+04  0.00000000000E+00 0.  1.
         23    2    1    2    0    0  0.28135376370E+03  0.10346738713E+03 -0.97247485762E+02  0.32765132255E+03  0.89626308281E+02 0.  0.
        254    2    1    2    0    0 -0.28135376370E+03 -0.10346738713E+03 -0.27324322574E+04  0.28951239588E+04  0.90867554968E+03 0.  0.
        -24    2    4    4    0    0 -0.31312849172E+03 -0.44937964862E+03 -0.11974632680E+04  0.13193147567E+04  0.81741225556E+02 0.  0.
         24    2    4    4    0    0  0.31774728020E+02  0.34591226149E+03 -0.15349689894E+04  0.15758092021E+04  0.79874382557E+02 0.  0.
         13    1    3    3    0    0  0.24022038663E+03  0.74490337712E+02 -0.45708958692E+02  0.25562463392E+03  0.00000000000E+00 0. -1.
        -13    1    3    3    0    0  0.41133377071E+02  0.28977049416E+02 -0.51538527070E+02  0.72026688627E+02  0.00000000000E+00 0.  1.
          4    1    6    6  502    0  0.15177360367E+02  0.28471788391E+03 -0.13635179941E+04  0.13930096719E+04  0.00000000000E+00 0. -1.
          3    1    5    5  503    0 -0.14203586839E+03 -0.16279267995E+03 -0.39539394444E+03  0.45056854734E+03  0.00000000000E+00 0. -1.
         -4    1    5    5    0  503 -0.17109262333E+03 -0.28658696868E+03 -0.80206932360E+03  0.86874620934E+03  0.00000000000E+00 0.  1.
         -3    1    6    6    0  502  0.16597367653E+02  0.61194377581E+02 -0.17145099530E+03  0.18279953022E+03  0.00000000000E+00 0.  1.
<mgrwt>
<rscale>  0 0.15424633E+04</rscale>
<asrwt>0</asrwt>
<pdfrwt beam="1">  1        1 0.46557348E+00 0.15424633E+04</pdfrwt>
<pdfrwt beam="2">  1       -1 0.30238117E-01 0.15424633E+04</pdfrwt>
<totfact> 0.55807788E+00</totfact>
</mgrwt>
</event>
<event>
12    1  0.1495204E-007  0.1837468E+04  0.7818608E-02  0.8686624E-01
         -2   -1    0    0    0  501 -0.00000000000E+00  0.00000000000E+00  0.32966700729E+03  0.32966700729E+03  0.00000000000E+00 0.  1.
          2   -1    0    0  501    0  0.00000000000E+00 -0.00000000000E+00 -0.25603776319E+04  0.25603776319E+04  0.00000000000E+00 0. -1.
         23    2    1    2    0    0  0.63474483354E+03 -0.22973765773E+03 -0.10146897939E+04  0.12225226947E+04  0.96363718001E+02 0.  0.
        254    2    1    2    0    0 -0.63474483354E+03  0.22973765773E+03 -0.12160208307E+04  0.16675219445E+04  0.91991433271E+03 0.  0.
        -24    2    4    4    0    0  0.67537072147E+02  0.37946898637E+03 -0.60248177506E+03  0.71970344633E+03  0.80192229391E+02 0.  0.
         24    2    4    4    0    0 -0.70228190568E+03 -0.14973132864E+03 -0.61353905566E+03  0.94781849816E+03  0.79437943082E+02 0.  0.
         11    1    3    3    0    0  0.56321775266E+03 -0.19945024803E+03 -0.94569247109E+03  0.11186281278E+04  0.00000000000E+00 0. -1.
        -11    1    3    3    0    0  0.71527080881E+02 -0.30287409698E+02 -0.68997322815E+02  0.10389456695E+03  0.00000000000E+00 0.  1.
          4    1    6    6  502    0 -0.10828583525E+03 -0.39496259802E+02 -0.68054926503E+02  0.13385533115E+03  0.00000000000E+00 0. -1.
          3    1    5    5  503    0  0.68951145945E+02  0.16256386618E+03 -0.28164020027E+03  0.33241912329E+03  0.00000000000E+00 0. -1.
         -4    1    5    5    0  503 -0.14140737985E+01  0.21690512018E+03 -0.32084157478E+03  0.38728432304E+03  0.00000000000E+00 0.  1.
         -3    1    6    6    0  502 -0.59399607043E+03 -0.11023506884E+03 -0.54548412916E+03  0.81396316701E+03  0.00000000000E+00 0.  1.
<mgrwt>
<rscale>  0 0.18374679E+04</rscale>
<asrwt>0</asrwt>
<pdfrwt beam="1">  1        2 0.39390426E+00 0.18374679E+04</pdfrwt>
<pdfrwt beam="2">  1       -2 0.50717999E-01 0.18374679E+04</pdfrwt>
<totfact> 0.11120257E+01</totfact>
</mgrwt>
</event>
<event>
12    1  0.1495204E-007  0.2945414E+04  0.7818608E-02  0.8259492E-01
         -1   -1    0    0    0  501 -0.00000000000E+00  0.00000000000E+00  0.12909791817E+04  0.12909791817E+04  0.00000000000E+00 0.  1.
          1   -1    0    0  501    0  0.00000000000E+00 -0.00000000000E+00 -0.16800159522E+04  0.16800159522E+04  0.00000000000E+00 0. -1.
         23    2    1    2    0    0  0.10091494055E+03  0.80908690917E+03  0.88993968079E+03  0.12097222306E+04  0.81423509158E+02 0.  0.
        254    2    1    2    0    0 -0.10091494055E+03 -0.80908690917E+03 -0.12789764513E+04  0.17612729033E+04  0.89526310395E+03 0.  0.
        -24    2    4    4    0    0  0.28543219887E+03 -0.70632076473E+03 -0.62005534636E+03  0.98552052194E+03  0.80134285863E+02 0.  0.
         24    2    4    4    0    0 -0.38634713942E+03 -0.10276614443E+03 -0.65892110491E+03  0.77575238139E+03  0.88259515951E+02 0.  0.
         13    1    3    3    0    0  0.18741757253E+02  0.33771620916E+03  0.32076066244E+03  0.46614471354E+03  0.00000000000E+00 0. -1.
        -13    1    3    3    0    0  0.82173183294E+02  0.47137070001E+03  0.56917901835E+03  0.74357751702E+03  0.00000000000E+00 0.  1.
          4    1    6    6  502    0 -0.87575055119E+02  0.12017307793E+02 -0.12169636938E+03  0.15041214142E+03  0.00000000000E+00 0. -1.
          3    1    5    5  503    0  0.19518465548E+03 -0.56796686201E+03 -0.49677674871E+03  0.77940396723E+03  0.00000000000E+00 0. -1.
         -4    1    5    5    0  503  0.90247543392E+02 -0.13835390273E+03 -0.12327859765E+03  0.20611655471E+03  0.00000000000E+00 0.  1.
         -3    1    6    6    0  502 -0.29877208430E+03 -0.11478345223E+03 -0.53722473553E+03  0.62534023997E+03  0.00000000000E+00 0.  1.
<mgrwt>
<rscale>  0 0.29454138E+04</rscale>
<asrwt>0</asrwt>
<pdfrwt beam="1">  1        1 0.25846399E+00 0.29454138E+04</pdfrwt>
<pdfrwt beam="2">  1       -1 0.19861218E+00 0.29454138E+04</pdfrwt>
<totfact> 0.64707946E-01</totfact>
</mgrwt>
</event>
<event>
12    1  0.1495204E-007  0.2044158E+04  0.7818608E-02  0.8586249E-01
         -2   -1    0    0    0  501 -0.00000000000E+00  0.00000000000E+00  0.33564329198E+03  0.33564329198E+03  0.00000000000E+00 0.  1.
          2   -1    0    0  501    0  0.00000000000E+00 -0.00000000000E+00 -0.31123684671E+04  0.31123684671E+04  0.00000000000E+00 0. -1.
         23    2    1    2    0    0 -0.13242108891E+03  0.67671980390E+03 -0.37273409283E+03  0.78927925215E+03  0.92444557112E+02 0.  0.
        254    2    1    2    0    0  0.13242108891E+03 -0.67671980390E+03 -0.24039910823E+04  0.26587325070E+04  0.90233052811E+03 0.  0.
        -24    2    4    4    0    0  0.37781151960E+03 -0.30627757341E+03 -0.50073219044E+03  0.70267878312E+03  0.80481360454E+02 0.  0.
         24    2    4    4    0    0 -0.24539043069E+03 -0.37044223048E+03 -0.19032588919E+04  0.19560537238E+04  0.79421983539E+02 0.  0.
         11    1    3    3    0    0 -0.83218489342E+02  0.53161350027E+03 -0.32578574140E+03  0.62902669255E+03  0.00000000000E+00 0.  1.
        -11    1    3    3    0    0 -0.49202599572E+02  0.14510630363E+03 -0.46948351432E+02  0.16025255960E+03  0.00000000000E+00 0. -1.
          2    1    6    6  502    0 -0.16235997998E+03 -0.17794730373E+03 -0.10777253795E+04  0.11043178888E+04  0.00000000000E+00 0. -1.
          1    1    5    5  503    0  0.76422891424E+02 -0.10760103422E+03 -0.13650981878E+03  0.18987725383E+03  0.00000000000E+00 0. -1.
         -2    1    5    5    0  503  0.30138862818E+03 -0.19867653919E+03 -0.36422237166E+03  0.51280152929E+03  0.00000000000E+00 0.  1.
         -1    1    6    6    0  502 -0.83030450709E+02 -0.19249492675E+03 -0.82553351241E+03  0.85173583504E+03  0.00000000000E+00 0.  1.
<mgrwt>
<rscale>  0 0.20441581E+04</rscale>
<asrwt>0</asrwt>
<pdfrwt beam="1">  1        2 0.47882593E+00 0.20441581E+04</pdfrwt>
<pdfrwt beam="2">  1       -2 0.51637428E-01 0.20441581E+04</pdfrwt>
<totfact> 0.48587182E+00</totfact>
</mgrwt>
</event>
<event>
12    1  0.1495204E-007  0.2027346E+04  0.7818608E-02  0.8593941E-01
          1   -1    0    0  501    0  0.00000000000E+00  0.00000000000E+00  0.36864437259E+04  0.36864437259E+04  0.00000000000E+00 0. -1.
         -1   -1    0    0    0  501 -0.00000000000E+00 -0.00000000000E+00 -0.27873274727E+03  0.27873274727E+03  0.00000000000E+00 0.  1.
         23    2    1    2    0    0 -0.26919622854E+03  0.76689084324E+03  0.10542531287E+04  0.13350639417E+04  0.10177373998E+03 0.  0.
        254    2    1    2    0    0  0.26919622854E+03 -0.76689084324E+03  0.23534578499E+04  0.26301125314E+04  0.84743135529E+03 0.  0.
        -24    2    4    4    0    0 -0.14603768669E+02 -0.26828862305E+03  0.94332021393E+02  0.29779611022E+03  0.87131726050E+02 0.  0.
         24    2    4    4    0    0  0.28379999721E+03 -0.49860222019E+03  0.22591258285E+04  0.23323164212E+04  0.83088912160E+02 0.  0.
         13    1    3    3    0    0 -0.26378650384E+03  0.70103541288E+03  0.10009120164E+04  0.12501435255E+04  0.00000000000E+00 0.  1.
        -13    1    3    3    0    0 -0.54097246984E+01  0.65855430363E+02  0.53341112281E+02  0.84920416209E+02  0.00000000000E+00 0. -1.
          4    1    6    6  502    0  0.23780188194E+03 -0.46645174527E+03  0.20370214507E+04  0.21032316459E+04  0.00000000000E+00 0. -1.
          1    1    5    5  503    0  0.20420155545E+02 -0.20731006567E+03  0.48584515993E+02  0.21390395339E+03  0.00000000000E+00 0. -1.
         -2    1    5    5    0  503 -0.35023924214E+02 -0.60978557375E+02  0.45747505399E+02  0.83892156828E+02  0.00000000000E+00 0.  1.
         -3    1    6    6    0  502  0.45998115268E+02 -0.32150474920E+02  0.22210437781E+03  0.22908477533E+03  0.00000000000E+00 0.  1.
<mgrwt>
<rscale>  0 0.20273456E+04</rscale>
<asrwt>0</asrwt>
<pdfrwt beam="1">  1        1 0.56714515E+00 0.20273456E+04</pdfrwt>
<pdfrwt beam="2">  1       -1 0.42881964E-01 0.20273456E+04</pdfrwt>
<totfact> 0.88236102E-01</totfact>
</mgrwt>
</event>
<event>
12    1  0.1495204E-007  0.1447339E+04  0.7818608E-02  0.8920247E-01
          2   -1    0    0  501    0  0.00000000000E+00  0.00000000000E+00  0.89922722190E+03  0.89922722190E+03  0.00000000000E+00 0. -1.
         -2   -1    0    0    0  501 -0.00000000000E+00 -0.00000000000E+00 -0.58238652829E+03  0.58238652829E+03  0.00000000000E+00 0.  1.
         23    2    1    2    0    0 -0.14616588468E+03  0.41462708976E+03  0.74473728343E+02  0.45510860044E+03  0.91090134337E+02 0.  0.
        254    2    1    2    0    0  0.14616588468E+03 -0.41462708976E+03  0.24236696527E+03  0.10265051497E+04  0.89537198257E+03 0.  0.
        -24    2    4    4    0    0 -0.35080376091E+03 -0.25280097937E+03  0.22944382571E+03  0.49741455448E+03  0.88346794012E+02 0.  0.
         24    2    4    4    0    0  0.49696964559E+03 -0.16182611039E+03  0.12923139557E+02  0.52909059526E+03  0.81260887369E+02 0.  0.
         13    1    3    3    0    0 -0.13322901086E+03  0.24684060117E+03  0.52938078292E+02  0.28545173297E+03  0.00000000000E+00 0.  1.
        -13    1    3    3    0    0 -0.12936873822E+02  0.16778648859E+03  0.21535650051E+02  0.16965686748E+03  0.00000000000E+00 0. -1.
          2    1    6    6  502    0  0.21235575150E+03 -0.84550858073E+02 -0.31905578922E+02  0.23078513549E+03  0.00000000000E+00 0. -1.
          3    1    5    5  503    0 -0.57385648903E+02 -0.95173964612E+01  0.14995661119E+02  0.60071319178E+02  0.00000000000E+00 0. -1.
         -2    1    5    5    0  503 -0.29341811200E+03 -0.24328358291E+03  0.21444816459E+03  0.43734323530E+03  0.00000000000E+00 0.  1.
         -1    1    6    6    0  502  0.28461389409E+03 -0.77275252319E+02  0.44828718479E+02  0.29830545978E+03  0.00000000000E+00 0.  1.
<mgrwt>
<rscale>  0 0.14473394E+04</rscale>
<asrwt>0</asrwt>
<pdfrwt beam="1">  1        2 0.13834265E+00 0.14473394E+04</pdfrwt>
<pdfrwt beam="2">  1       -2 0.89597927E-01 0.14473394E+04</pdfrwt>
<totfact> 0.30414316E+01</totfact>
</mgrwt>
</event>
<event>
12    1  0.1495204E-007  0.1763771E+04  0.7818608E-02  0.8725806E-01
          1   -1    0    0  501    0  0.00000000000E+00  0.00000000000E+00  0.20392811903E+04  0.20392811903E+04  0.00000000000E+00 0. -1.
         -1   -1    0    0    0  501 -0.00000000000E+00 -0.00000000000E+00 -0.38137065556E+03  0.38137065556E+03  0.00000000000E+00 0.  1.
         23    2    1    2    0    0 -0.52740747202E+03 -0.15405656674E+03  0.13986646087E+03  0.57434519459E+03  0.91748070113E+02 0.  0.
        254    2    1    2    0    0  0.52740747202E+03  0.15405656674E+03  0.15180440739E+04  0.18463066513E+04  0.89582273529E+03 0.  0.
        -24    2    4    4    0    0  0.61474352859E+02 -0.25825888491E+03  0.97978296070E+02  0.29383444989E+03  0.79133998662E+02 0.  0.
         24    2    4    4    0    0  0.46593311916E+03  0.41231545166E+03  0.14200657778E+04  0.15524722014E+04  0.80532102938E+02 0.  0.
         13    1    3    3    0    0 -0.39773376285E+03 -0.12608729166E+03  0.65753809130E+02  0.42239047651E+03  0.00000000000E+00 0.  1.
        -13    1    3    3    0    0 -0.12967370917E+03 -0.27969275086E+02  0.74112651743E+02  0.15195471808E+03  0.00000000000E+00 0. -1.
          4    1    6    6  502    0  0.45308249162E+03  0.41319619355E+03  0.14024711629E+04  0.15306665872E+04  0.00000000000E+00 0. -1.
          1    1    5    5  503    0  0.25043479753E+01 -0.91176909519E+02 -0.31753482706E+00  0.91211849102E+02  0.00000000000E+00 0. -1.
         -2    1    5    5    0  503  0.58970004883E+02 -0.16708197540E+03  0.98295830897E+02  0.20262260079E+03  0.00000000000E+00 0.  1.
         -3    1    6    6    0  502  0.12850627545E+02 -0.88074188909E+00  0.17594614946E+02  0.21805614178E+02  0.00000000000E+00 0.  1.
<mgrwt>
<rscale>  0 0.17637710E+04</rscale>
<asrwt>0</asrwt>
<pdfrwt beam="1">  1        1 0.31373556E+00 0.17637710E+04</pdfrwt>
<pdfrwt beam="2">  1       -1 0.58672410E-01 0.17637710E+04</pdfrwt>
<totfact> 0.78108226E+00</totfact>
</mgrwt>
</event>
<event>
12    1  0.1495204E-007  0.1664852E+04  0.7818608E-02  0.8781669E-01
          2   -1    0    0  501    0  0.00000000000E+00  0.00000000000E+00  0.13278749091E+04  0.13278749091E+04  0.00000000000E+00 0. -1.
         -2   -1    0    0    0  501 -0.00000000000E+00 -0.00000000000E+00 -0.52183589882E+03  0.52183589882E+03  0.00000000000E+00 0.  1.
         23    2    1    2    0    0  0.11893769748E+02  0.54343595773E+03  0.50379274583E+02  0.55471205909E+03  0.98505305829E+02 0.  0.
        254    2    1    2    0    0 -0.11893769748E+02 -0.54343595773E+03  0.75565973570E+03  0.12949987488E+04  0.90029774041E+03 0.  0.
        -24    2    4    4    0    0  0.19943232517E+03 -0.72277068289E+03  0.62014277057E+03  0.97627272415E+03  0.79753768992E+02 0.  0.
         24    2    4    4    0    0 -0.21132609492E+03  0.17933472515E+03  0.13551696514E+03  0.31872602467E+03  0.80011055019E+02 0.  0.
         11    1    3    3    0    0  0.11524593534E+02  0.93972210275E+02  0.45923124625E+02  0.10522607061E+03  0.00000000000E+00 0. -1.
        -11    1    3    3    0    0  0.36917621360E+00  0.44946374746E+03  0.44561499580E+01  0.44948598848E+03  0.00000000000E+00 0.  1.
          4    1    6    6  502    0 -0.35652107203E+02  0.53438773417E+02  0.64993269885E+02  0.91383260954E+02  0.00000000000E+00 0. -1.
          1    1    5    5  503    0  0.61434502379E+02 -0.23814194851E+03  0.15635931493E+03  0.29143441987E+03  0.00000000000E+00 0. -1.
         -2    1    5    5    0  503  0.13799782279E+03 -0.48462873438E+03  0.46378345564E+03  0.68483830428E+03  0.00000000000E+00 0.  1.
         -3    1    6    6    0  502 -0.17567398772E+03  0.12589595174E+03  0.70523695250E+02  0.22734276372E+03  0.00000000000E+00 0.  1.
<mgrwt>
<rscale>  0 0.16648517E+04</rscale>
<asrwt>0</asrwt>
<pdfrwt beam="1">  1        2 0.20428845E+00 0.16648517E+04</pdfrwt>
<pdfrwt beam="2">  1       -2 0.80282447E-01 0.16648517E+04</pdfrwt>
<totfact> 0.20839346E+01</totfact>
</mgrwt>
</event>
<event>
12    1  0.1495204E-007  0.1548476E+04  0.7818608E-02  0.8852842E-01
         -2   -1    0    0    0  501 -0.00000000000E+00  0.00000000000E+00  0.25610706139E+03  0.25610706139E+03  0.00000000000E+00 0. -1.
          2   -1    0    0  501    0  0.00000000000E+00 -0.00000000000E+00 -0.23406013539E+04  0.23406013539E+04  0.00000000000E+00 0.  1.
         23    2    1    2    0    0 -0.93227788011E+02  0.34029593496E+03 -0.13825890698E+04  0.14298252165E+04  0.91404977907E+02 0.  0.
        254    2    1    2    0    0  0.93227788011E+02 -0.34029593496E+03 -0.70190522274E+03  0.11668831988E+04  0.86281673266E+03 0.  0.
        -24    2    4    4    0    0 -0.13124926645E+03 -0.49949852680E+02 -0.76857409657E+03  0.78539124854E+03  0.80074425657E+02 0.  0.
         24    2    4    4    0    0  0.22447705446E+03 -0.29034608228E+03  0.66668873830E+02  0.38149195027E+03  0.80003586865E+02 0.  0.
         13    1    3    3    0    0 -0.45037072012E+02  0.25042228762E+03 -0.83822099153E+03  0.87598749457E+03  0.00000000000E+00 0. -1.
        -13    1    3    3    0    0 -0.48190715999E+02  0.89873647346E+02 -0.54436807823E+03  0.55383772189E+03  0.00000000000E+00 0.  1.
          2    1    6    6  502    0  0.12189974677E+03 -0.10800035716E+03  0.55195690645E+02  0.17195984902E+03  0.00000000000E+00 0. -1.
          3    1    5    5  503    0 -0.40261989142E+02 -0.48145000396E+02 -0.43975550658E+03  0.44421151988E+03  0.00000000000E+00 0. -1.
         -4    1    5    5    0  503 -0.90987277304E+02 -0.18048522842E+01 -0.32881858999E+03  0.34117972866E+03  0.00000000000E+00 0.  1.
         -1    1    6    6    0  502  0.10257730768E+03 -0.18234572513E+03  0.11473183186E+02  0.20953210125E+03  0.00000000000E+00 0.  1.
<mgrwt>
<rscale>  0 0.15484761E+04</rscale>
<asrwt>0</asrwt>
<pdfrwt beam="1">  1        2 0.36009252E+00 0.15484761E+04</pdfrwt>
<pdfrwt beam="2">  1       -2 0.39401086E-01 0.15484761E+04</pdfrwt>
<totfact> 0.25248306E+01</totfact>
</mgrwt>
</event>
<event>
12    1  0.1495204E-007  0.2736802E+04  0.7818608E-02  0.8323162E-01
         -2   -1    0    0    0  501 -0.00000000000E+00  0.00000000000E+00  0.73682248700E+03  0.73682248700E+03  0.00000000000E+00 0.  1.
          2   -1    0    0  501    0  0.00000000000E+00 -0.00000000000E+00 -0.25413458215E+04  0.25413458215E+04  0.00000000000E+00 0. -1.
         23    2    1    2    0    0 -0.11583635616E+03 -0.93005086055E+03  0.12637107352E+03  0.94996762379E+03  0.89756188678E+02 0.  0.
        254    2    1    2    0    0  0.11583635616E+03  0.93005086055E+03 -0.19308944080E+04  0.23282006847E+04  0.90208234035E+03 0.  0.
        -24    2    4    4    0    0 -0.57018171019E+02  0.59000851680E+03 -0.33536666723E+03  0.68581005874E+03  0.80644364128E+02 0.  0.
         24    2    4    4    0    0  0.17285452718E+03  0.34004234375E+03 -0.15955277407E+04  0.16423906259E+04  0.78934869037E+02 0.  0.
         11    1    3    3    0    0 -0.98884950003E+01 -0.12102661768E+03 -0.13340710671E+02  0.12216054634E+03  0.00000000000E+00 0. -1.
        -11    1    3    3    0    0 -0.10594786116E+03 -0.80902424287E+03  0.13971178419E+03  0.82780707745E+03  0.00000000000E+00 0.  1.
          4    1    6    6  502    0  0.75036985503E+02  0.87999813944E+02 -0.58500855939E+03  0.59633005208E+03  0.00000000000E+00 0. -1.
          3    1    5    5  503    0 -0.71353867149E+02  0.55851105613E+03 -0.32262784814E+03  0.64893351167E+03  0.00000000000E+00 0. -1.
         -4    1    5    5    0  503  0.14335696129E+02  0.31497460671E+02 -0.12738819083E+02  0.36876547071E+02  0.00000000000E+00 0.  1.
         -3    1    6    6    0  502  0.97817541680E+02  0.25204252981E+03 -0.10105191814E+04  0.10460605739E+04  0.00000000000E+00 0.  1.
<mgrwt>
<rscale>  0 0.27368016E+04</rscale>
<asrwt>0</asrwt>
<pdfrwt beam="1">  1        2 0.39097628E+00 0.27368016E+04</pdfrwt>
<pdfrwt beam="2">  1       -2 0.11335731E+00 0.27368016E+04</pdfrwt>
<totfact> 0.17589066E+00</totfact>
</mgrwt>
</event>
<event>
12    1  0.1495204E-007  0.1639832E+04  0.7818608E-02  0.8796445E-01
         -1   -1    0    0    0  501 -0.00000000000E+00  0.00000000000E+00  0.91157134044E+03  0.91157134044E+03  0.00000000000E+00 0.  1.
          1   -1    0    0  501    0  0.00000000000E+00 -0.00000000000E+00 -0.73747606458E+03  0.73747606458E+03  0.00000000000E+00 0. -1.
         23    2    1    2    0    0 -0.28248929636E+03 -0.40475553924E+03 -0.21820400283E+03  0.54796924048E+03  0.95026588653E+02 0.  0.
        254    2    1    2    0    0  0.28248929636E+03  0.40475553924E+03  0.39229927869E+03  0.11010781645E+04  0.90268884520E+03 0.  0.
        -24    2    4    4    0    0  0.41936924976E+03  0.58362362680E+03  0.45444753698E+03  0.85424837357E+03  0.82040322233E+02 0.  0.
         24    2    4    4    0    0 -0.13687995340E+03 -0.17886808756E+03 -0.62148258284E+02  0.24682979097E+03  0.79577794108E+02 0.  0.
         11    1    3    3    0    0 -0.17352677445E+03 -0.28082530724E+03 -0.18898986575E+03  0.38038344338E+03  0.00000000000E+00 0. -1.
        -11    1    3    3    0    0 -0.10896252191E+03 -0.12393023200E+03 -0.29214137084E+02  0.16758579710E+03  0.00000000000E+00 0.  1.
          4    1    6    6  502    0 -0.83945310220E+02 -0.69747653128E+02 -0.62053730190E+02  0.12554766288E+03  0.00000000000E+00 0. -1.
          1    1    5    5  503    0  0.18792603945E+03  0.21200925805E+03  0.21162262343E+03  0.35362162907E+03  0.00000000000E+00 0. -1.
         -2    1    5    5    0  503  0.23144321031E+03  0.37161436875E+03  0.24282491355E+03  0.50062674450E+03  0.00000000000E+00 0.  1.
         -3    1    6    6    0  502 -0.52934643178E+02 -0.10912043443E+03 -0.94528093648E-01  0.12128212809E+03  0.00000000000E+00 0.  1.
<mgrwt>
<rscale>  0 0.16398318E+04</rscale>
<asrwt>0</asrwt>
<pdfrwt beam="1">  1        1 0.11345785E+00 0.16398318E+04</pdfrwt>
<pdfrwt beam="2">  1       -1 0.14024175E+00 0.16398318E+04</pdfrwt>
<totfact> 0.10035682E+01</totfact>
</mgrwt>
</event>
<event>
12    1  0.1495204E-007  0.1631129E+04  0.7818608E-02  0.8801649E-01
          2   -1    0    0  501    0  0.00000000000E+00  0.00000000000E+00  0.39464275092E+04  0.39464275092E+04  0.00000000000E+00 0. -1.
         -2   -1    0    0    0  501 -0.00000000000E+00 -0.00000000000E+00 -0.16854371316E+03  0.16854371316E+03  0.00000000000E+00 0.  1.
         23    2    1    2    0    0  0.45787409420E+03 -0.23595311336E+03  0.74483083076E+03  0.91046248443E+03  0.94055362730E+02 0.  0.
        254    2    1    2    0    0 -0.45787409420E+03  0.23595311336E+03  0.30330529653E+04  0.32045087380E+04  0.89674043258E+03 0.  0.
        -24    2    4    4    0    0 -0.33815292588E+03  0.48775966068E+03  0.26867143304E+04  0.27526834055E+04  0.81087297623E+02 0.  0.
         24    2    4    4    0    0 -0.11972116831E+03 -0.25180654733E+03  0.34633863494E+03  0.45182533249E+03  0.80349148158E+02 0.  0.
         11    1    3    3    0    0  0.29090249333E+03 -0.13429747923E+03  0.38430764725E+03  0.50035231716E+03  0.00000000000E+00 0.  1.
        -11    1    3    3    0    0  0.16697160086E+03 -0.10165563413E+03  0.36052318351E+03  0.41011016727E+03  0.00000000000E+00 0. -1.
          2    1    6    6  502    0 -0.89524578546E+02 -0.19784050685E+03  0.20984997247E+03  0.30198100480E+03  0.00000000000E+00 0. -1.
          1    1    5    5  503    0 -0.26308239453E+03  0.31344146629E+03  0.18441610314E+04  0.18890176836E+04  0.00000000000E+00 0. -1.
         -2    1    5    5    0  503 -0.75070531357E+02  0.17431819439E+03  0.84255329892E+03  0.86366572185E+03  0.00000000000E+00 0.  1.
         -1    1    6    6    0  502 -0.30196589764E+02 -0.53966040476E+02  0.13648866247E+03  0.14984432769E+03  0.00000000000E+00 0.  1.
<mgrwt>
<rscale>  0 0.16311291E+04</rscale>
<asrwt>0</asrwt>
<pdfrwt beam="1">  1        2 0.60714262E+00 0.16311291E+04</pdfrwt>
<pdfrwt beam="2">  1       -2 0.25929805E-01 0.16311291E+04</pdfrwt>
<totfact> 0.49404927E+00</totfact>
</mgrwt>
</event>
<event>
12    1  0.1495204E-007  0.1819706E+04  0.7818608E-02  0.8695890E-01
         -2   -1    0    0    0  501 -0.00000000000E+00  0.00000000000E+00  0.96877685586E+03  0.96877685586E+03  0.00000000000E+00 0.  1.
          2   -1    0    0  501    0  0.00000000000E+00 -0.00000000000E+00 -0.85451326093E+03  0.85451326093E+03  0.00000000000E+00 0. -1.
         23    2    1    2    0    0 -0.21878753038E+03  0.32586515650E+03  0.60656579606E+03  0.72847439843E+03  0.93256638125E+02 0.  0.
        254    2    1    2    0    0  0.21878753038E+03 -0.32586515650E+03 -0.49230220113E+03  0.10948157184E+04  0.89565837029E+03 0.  0.
        -24    2    4    4    0    0  0.35869084014E+03 -0.36888551996E+03  0.53628082475E+02  0.52390223033E+03  0.82836767655E+02 0.  0.
         24    2    4    4    0    0 -0.13990330976E+03  0.43020363467E+02 -0.54593028361E+03  0.57091348803E+03  0.80490052205E+02 0.  0.
         11    1    3    3    0    0 -0.17296897837E+03  0.17802831354E+03  0.38988347433E+03  0.46219202877E+03  0.00000000000E+00 0.  1.
        -11    1    3    3    0    0 -0.45818552004E+02  0.14783684296E+03  0.21668232173E+03  0.26628236966E+03  0.00000000000E+00 0. -1.
          4    1    6    6  502    0 -0.12241394577E+03  0.96246044661E+01 -0.47467886470E+03  0.49030381573E+03  0.00000000000E+00 0. -1.
          3    1    5    5  503    0  0.28849111256E+03 -0.24938956229E+03  0.55107892532E+02  0.38530397821E+03  0.00000000000E+00 0. -1.
         -2    1    5    5    0  503  0.70199727580E+02 -0.11949595768E+03 -0.14798100565E+01  0.13859825212E+03  0.00000000000E+00 0.  1.
         -3    1    6    6    0  502 -0.17489363992E+02  0.33395759001E+02 -0.71251418913E+02  0.80609672305E+02  0.00000000000E+00 0.  1.
<mgrwt>
<rscale>  0 0.18197062E+04</rscale>
<asrwt>0</asrwt>
<pdfrwt beam="1">  1        2 0.13146358E+00 0.18197062E+04</pdfrwt>
<pdfrwt beam="2">  1       -2 0.14904259E+00 0.18197062E+04</pdfrwt>
<totfact> 0.90484352E+00</totfact>
</mgrwt>
</event>
<event>
12    1  0.1495204E-007  0.1654876E+04  0.7818608E-02  0.8787527E-01
         -2   -1    0    0    0  501 -0.00000000000E+00  0.00000000000E+00  0.37632143495E+03  0.37632143495E+03  0.00000000000E+00 0.  1.
          2   -1    0    0  501    0  0.00000000000E+00 -0.00000000000E+00 -0.18193315312E+04  0.18193315312E+04  0.00000000000E+00 0. -1.
         23    2    1    2    0    0 -0.49161125317E+02  0.56907883332E+03 -0.37387953800E+03  0.68813511820E+03  0.86466740359E+02 0.  0.
        254    2    1    2    0    0  0.49161125317E+02 -0.56907883332E+03 -0.10691305583E+04  0.15075178480E+04  0.89627137439E+03 0.  0.
        -24    2    4    4    0    0  0.30185769288E+03 -0.68411908425E+03 -0.62692205352E+03  0.97923837328E+03  0.82094715522E+02 0.  0.
         24    2    4    4    0    0 -0.25269656757E+03  0.11504025093E+03 -0.44220850473E+03  0.52827947468E+03  0.80256009856E+02 0.  0.
         13    1    3    3    0    0 -0.31329965695E+02  0.52209968942E+03 -0.31435456281E+03  0.61023638338E+03  0.00000000000E+00 0.  1.
        -13    1    3    3    0    0 -0.17831159622E+02  0.46979143906E+02 -0.59524975190E+02  0.77898734823E+02  0.00000000000E+00 0. -1.
          2    1    6    6  502    0 -0.16007693046E+03  0.31141276946E+02 -0.22873298043E+03  0.28091489660E+03  0.00000000000E+00 0. -1.
          1    1    5    5  503    0  0.25550298039E+03 -0.57355718159E+03 -0.48458852582E+03  0.79314289563E+03  0.00000000000E+00 0. -1.
         -2    1    5    5    0  503  0.46354712498E+02 -0.11056190266E+03 -0.14233352771E+03  0.18609547765E+03  0.00000000000E+00 0.  1.
         -1    1    6    6    0  502 -0.92619637108E+02  0.83898973983E+02 -0.21347552431E+03  0.24736457809E+03  0.00000000000E+00 0.  1.
<mgrwt>
<rscale>  0 0.16548758E+04</rscale>
<asrwt>0</asrwt>
<pdfrwt beam="1">  1        2 0.27989715E+00 0.16548758E+04</pdfrwt>
<pdfrwt beam="2">  1       -2 0.57895607E-01 0.16548758E+04</pdfrwt>
<totfact> 0.22446407E+01</totfact>
</mgrwt>
</event>
<event>
12    1  0.1495204E-007  0.2569289E+04  0.7818608E-02  0.8378708E-01
          1   -1    0    0  501    0  0.00000000000E+00  0.00000000000E+00  0.10676917773E+04  0.10676917773E+04  0.00000000000E+00 0. -1.
         -1   -1    0    0    0  501 -0.00000000000E+00 -0.00000000000E+00 -0.15456821559E+04  0.15456821559E+04  0.00000000000E+00 0.  1.
         23    2    1    2    0    0 -0.10211819354E+03  0.45598720941E+03 -0.12506368457E+04  0.13382289811E+04  0.91716003947E+02 0.  0.
        254    2    1    2    0    0  0.10211819354E+03 -0.45598720941E+03  0.77264646714E+03  0.12751449522E+04  0.90036638391E+03 0.  0.
        -24    2    4    4    0    0 -0.11590945425E+02 -0.72418740769E+02 -0.19582227164E+03  0.22418467529E+03  0.80830579206E+02 0.  0.
         24    2    4    4    0    0  0.11370913897E+03 -0.38356846864E+03  0.96846873879E+03  0.10509602769E+04  0.80816255477E+02 0.  0.
         13    1    3    3    0    0 -0.11139911741E+03  0.44446834825E+03 -0.12318846787E+04  0.13143446038E+04  0.00000000000E+00 0.  1.
        -13    1    3    3    0    0  0.92809238630E+01  0.11518861161E+02 -0.18752166993E+02  0.23884377260E+02  0.00000000000E+00 0. -1.
          2    1    6    6  502    0  0.34596095849E+02 -0.41145669781E+02  0.17674308557E+03  0.18473758223E+03  0.00000000000E+00 0. -1.
          1    1    5    5  503    0  0.13715696349E+01 -0.65396530232E+02 -0.63905560857E+02  0.91446749959E+02  0.00000000000E+00 0. -1.
         -2    1    5    5    0  503 -0.12962515060E+02 -0.70222105368E+01 -0.13191671079E+03  0.13273792534E+03  0.00000000000E+00 0.  1.
         -1    1    6    6    0  502  0.79113043119E+02 -0.34242279886E+03  0.79172565321E+03  0.86622269465E+03  0.00000000000E+00 0.  1.
<mgrwt>
<rscale>  0 0.25692895E+04</rscale>
<asrwt>0</asrwt>
<pdfrwt beam="1">  1        1 0.16426027E+00 0.25692895E+04</pdfrwt>
<pdfrwt beam="2">  1       -1 0.23779725E+00 0.25692895E+04</pdfrwt>
<totfact> 0.99298312E-01</totfact>
</mgrwt>
</event>
<event>
12    1  0.1495204E-007  0.1277968E+04  0.7818608E-02  0.9047222E-01
         -1   -1    0    0    0  501 -0.00000000000E+00  0.00000000000E+00  0.16702836796E+04  0.16702836796E+04  0.00000000000E+00 0.  1.
          1   -1    0    0  501    0  0.00000000000E+00 -0.00000000000E+00 -0.24444977556E+03  0.24444977556E+03  0.00000000000E+00 0. -1.
         23    2    1    2    0    0 -0.12687666958E+03 -0.17633173347E+03  0.71146988640E+03  0.74935116964E+03  0.90261878319E+02 0.  0.
        254    2    1    2    0    0  0.12687666958E+03  0.17633173347E+03  0.71436401762E+03  0.11653822855E+04  0.89476776438E+03 0.  0.
        -24    2    4    4    0    0  0.39192008102E+03 -0.77489750241E+02  0.67367536124E+03  0.78735386356E+03  0.80508402200E+02 0.  0.
         24    2    4    4    0    0 -0.26504341144E+03  0.25382148371E+03  0.40688656380E+02  0.37802842194E+03  0.81096026376E+02 0.  0.
         13    1    3    3    0    0 -0.49344328794E+02 -0.13628016149E+02  0.21995668313E+03  0.22583517897E+03  0.00000000000E+00 0. -1.
        -13    1    3    3    0    0 -0.77532340789E+02 -0.16270371732E+03  0.49151320327E+03  0.52351599067E+03  0.00000000000E+00 0.  1.
          4    1    6    6  502    0 -0.12143902392E+03  0.13481319362E+03  0.58575092206E+02  0.19066482405E+03  0.00000000000E+00 0. -1.
          3    1    5    5  503    0  0.22228986141E+02 -0.22343463728E+02  0.33132508999E+02  0.45728780311E+02  0.00000000000E+00 0. -1.
         -4    1    5    5    0  503  0.36969109488E+03 -0.55146286514E+02  0.64054285224E+03  0.74162508325E+03  0.00000000000E+00 0.  1.
         -3    1    6    6    0  502 -0.14360438752E+03  0.11900829009E+03 -0.17886435827E+02  0.18736359788E+03  0.00000000000E+00 0.  1.
<mgrwt>
<rscale>  0 0.12779679E+04</rscale>
<asrwt>0</asrwt>
<pdfrwt beam="1">  1        1 0.37607659E-01 0.12779679E+04</pdfrwt>
<pdfrwt beam="2">  1       -1 0.25696671E+00 0.12779679E+04</pdfrwt>
<totfact> 0.70911732E+00</totfact>
</mgrwt>
</event>
<event>
12    1  0.1495204E-007  0.1542789E+04  0.7818608E-02  0.8856487E-01
         -2   -1    0    0    0  501 -0.00000000000E+00  0.00000000000E+00  0.58606283915E+03  0.58606283915E+03  0.00000000000E+00 0.  1.
          2   -1    0    0  501    0  0.00000000000E+00 -0.00000000000E+00 -0.10153339444E+04  0.10153339444E+04  0.00000000000E+00 0. -1.
         23    2    1    2    0    0 -0.38196805954E+03  0.18243106726E+03  0.13961578032E+03  0.45565126462E+03  0.94577037549E+02 0.  0.
        254    2    1    2    0    0  0.38196805954E+03 -0.18243106726E+03 -0.56888688555E+03  0.11457455189E+04  0.89995545042E+03 0.  0.
        -24    2    4    4    0    0 -0.26800910833E+03  0.20030798417E+02 -0.29704720724E+03  0.40832123863E+03  0.79114319527E+02 0.  0.
         24    2    4    4    0    0  0.64997716786E+03 -0.20246186567E+03 -0.27183967831E+03  0.73742428028E+03  0.80228627362E+02 0.  0.
         11    1    3    3    0    0 -0.40012596972E+02  0.21829379757E+02 -0.14209691960E+02  0.47743534459E+02  0.00000000000E+00 0. -1.
        -11    1    3    3    0    0 -0.34195546256E+03  0.16060168750E+03  0.15382547228E+03  0.40790773016E+03  0.00000000000E+00 0.  1.
          2    1    6    6  502    0  0.39860943034E+03 -0.16245680504E+03 -0.15694821334E+03  0.45816419888E+03  0.00000000000E+00 0. -1.
          3    1    5    5  503    0 -0.18387963542E+03  0.47732674659E+02 -0.18158234300E+03  0.26279702404E+03  0.00000000000E+00 0. -1.
         -4    1    5    5    0  503 -0.84129472905E+02 -0.27701876242E+02 -0.11546486424E+03  0.14552421459E+03  0.00000000000E+00 0.  1.
         -1    1    6    6    0  502  0.25136773752E+03 -0.40005060632E+02 -0.11489146497E+03  0.27926008140E+03  0.00000000000E+00 0.  1.
<mgrwt>
<rscale>  0 0.15427890E+04</rscale>
<asrwt>0</asrwt>
<pdfrwt beam="1">  1        2 0.15620522E+00 0.15427890E+04</pdfrwt>
<pdfrwt beam="2">  1       -2 0.90163515E-01 0.15427890E+04</pdfrwt>
<totfact> 0.24963850E+01</totfact>
</mgrwt>
</event>
<event>
12    1  0.1495204E-007  0.1064510E+04  0.7818608E-02  0.9240491E-01
          1   -1    0    0  501    0  0.00000000000E+00  0.00000000000E+00  0.61464121637E+03  0.61464121637E+03  0.00000000000E+00 0. -1.
         -1   -1    0    0    0  501 -0.00000000000E+00 -0.00000000000E+00 -0.46091146691E+03  0.46091146691E+03  0.00000000000E+00 0.  1.
         23    2    1    2    0    0  0.61341740599E+02 -0.57230640757E+02 -0.75436889898E+02  0.14481198222E+03  0.90783426104E+02 0.  0.
        254    2    1    2    0    0 -0.61341740599E+02  0.57230640757E+02  0.22916663935E+03  0.93074070106E+03  0.89817745943E+03 0.  0.
        -24    2    4    4    0    0 -0.27110364530E+03 -0.25158500690E+03 -0.13670267644E+03  0.40222645709E+03  0.79412208387E+02 0.  0.
         24    2    4    4    0    0  0.20976190470E+03  0.30881564766E+03  0.36586931580E+03  0.52851424397E+03  0.78101145541E+02 0.  0.
         11    1    3    3    0    0 -0.10892681084E+02 -0.30520096900E+02 -0.57083885435E+02  0.65640664167E+02  0.00000000000E+00 0.  1.
        -11    1    3    3    0    0  0.72234421683E+02 -0.26710543857E+02 -0.18353004463E+02  0.79171318051E+02  0.00000000000E+00 0. -1.
          2    1    6    6  502    0  0.10217756956E+03  0.13623770525E+03  0.22015996103E+03  0.27833680406E+03  0.00000000000E+00 0. -1.
          3    1    5    5  503    0 -0.90501954199E+02 -0.38097796320E+02 -0.44290868139E+02  0.10772059598E+03  0.00000000000E+00 0. -1.
         -4    1    5    5    0  503 -0.18060169110E+03 -0.21348721058E+03 -0.92411808304E+02  0.29450586110E+03  0.00000000000E+00 0.  1.
         -1    1    6    6    0  502  0.10758433513E+03  0.17257794241E+03  0.14570935477E+03  0.25017743991E+03  0.00000000000E+00 0.  1.
<mgrwt>
<rscale>  0 0.10645096E+04</rscale>
<asrwt>0</asrwt>
<pdfrwt beam="1">  1        1 0.94560187E-01 0.10645096E+04</pdfrwt>
<pdfrwt beam="2">  1       -1 0.70909456E-01 0.10645096E+04</pdfrwt>
<totfact> 0.66383213E+01</totfact>
</mgrwt>
</event>
<event>
12    1  0.1495204E-007  0.2320572E+04  0.7818608E-02  0.8469854E-01
         -1   -1    0    0    0  501 -0.00000000000E+00  0.00000000000E+00  0.16224185624E+04  0.16224185624E+04  0.00000000000E+00 0.  1.
          1   -1    0    0  501    0  0.00000000000E+00 -0.00000000000E+00 -0.82978814285E+03  0.82978814285E+03  0.00000000000E+00 0. -1.
         23    2    1    2    0    0  0.74765621223E+03 -0.27959904861E+03 -0.27747585809E+03  0.84988448495E+03  0.90251572063E+02 0.  0.
        254    2    1    2    0    0 -0.74765621223E+03  0.27959904861E+03  0.10701062777E+04  0.16023222203E+04  0.88608329886E+03 0.  0.
        -24    2    4    4    0    0 -0.84648672541E+03  0.39232170901E+03  0.10825894310E+04  0.14314526432E+04  0.81244654953E+02 0.  0.
         24    2    4    4    0    0  0.98830513177E+02 -0.11272266040E+03 -0.12483153365E+02  0.17086957709E+03  0.81035268576E+02 0.  0.
         11    1    3    3    0    0  0.52860141219E+03 -0.21560749795E+03 -0.15826389581E+03  0.59241329059E+03  0.00000000000E+00 0.  1.
        -11    1    3    3    0    0  0.21905480004E+03 -0.63991550662E+02 -0.11921196228E+03  0.25747119437E+03  0.00000000000E+00 0. -1.
          4    1    6    6  502    0 -0.15032899627E+01 -0.49871335461E+02 -0.16079158491E+02  0.52420886287E+02  0.00000000000E+00 0. -1.
          1    1    5    5  503    0 -0.58290596243E+02  0.38810972216E+02  0.11227871694E+03  0.13232760654E+03  0.00000000000E+00 0. -1.
         -2    1    5    5    0  503 -0.78819612917E+03  0.35351073680E+03  0.97031071408E+03  0.12991250367E+04  0.00000000000E+00 0.  1.
         -3    1    6    6    0  502  0.10033380314E+03 -0.62851324937E+02  0.35960051259E+01  0.11844869080E+03  0.00000000000E+00 0.  1.
<mgrwt>
<rscale>  0 0.23205721E+04</rscale>
<asrwt>0</asrwt>
<pdfrwt beam="1">  1        1 0.12765971E+00 0.23205721E+04</pdfrwt>
<pdfrwt beam="2">  1       -1 0.24960286E+00 0.23205721E+04</pdfrwt>
<totfact> 0.13185422E+00</totfact>
</mgrwt>
</event>
<event>
12    1  0.1495204E-007  0.1593211E+04  0.7818608E-02  0.8824730E-01
          2   -1    0    0  501    0  0.00000000000E+00  0.00000000000E+00  0.11550560325E+04  0.11550560325E+04  0.00000000000E+00 0. -1.
         -2   -1    0    0    0  501 -0.00000000000E+00 -0.00000000000E+00 -0.54939320018E+03  0.54939320018E+03  0.00000000000E+00 0.  1.
         23    2    1    2    0    0  0.22166651646E+02 -0.17762271869E+03  0.74703582656E+03  0.77349978904E+03  0.90543949776E+02 0.  0.
        254    2    1    2    0    0 -0.22166651646E+02  0.17762271869E+03 -0.14137299419E+03  0.93094944369E+03  0.90257373803E+03 0.  0.
        -24    2    4    4    0    0  0.21521962881E+03 -0.28186845426E+03  0.63848645756E+02  0.36888900596E+03  0.78950205981E+02 0.  0.
         24    2    4    4    0    0 -0.23738628045E+03  0.45949117295E+03 -0.20522163994E+03  0.56206043772E+03  0.79445767593E+02 0.  0.
         11    1    3    3    0    0 -0.14279517112E+02 -0.12180689276E+03  0.59474799624E+03  0.60726106640E+03  0.00000000000E+00 0. -1.
        -11    1    3    3    0    0  0.36446168759E+02 -0.55815825934E+02  0.15228783031E+03  0.16623872263E+03  0.00000000000E+00 0.  1.
          2    1    6    6  502    0 -0.69455003319E+02  0.67706497524E+02 -0.37575852604E+02  0.10401976731E+03  0.00000000000E+00 0. -1.
          3    1    5    5  503    0  0.75421775718E+02 -0.45412320487E+02  0.65159757346E+01  0.88278995488E+02  0.00000000000E+00 0. -1.
         -4    1    5    5    0  503  0.13979785309E+03 -0.23645613377E+03  0.57332670021E+02  0.28061001047E+03  0.00000000000E+00 0.  1.
         -1    1    6    6    0  502 -0.16793127713E+03  0.39178467543E+03 -0.16764578734E+03  0.45804067041E+03  0.00000000000E+00 0.  1.
<mgrwt>
<rscale>  0 0.15932105E+04</rscale>
<asrwt>0</asrwt>
<pdfrwt beam="1">  1        2 0.17770093E+00 0.15932105E+04</pdfrwt>
<pdfrwt beam="2">  1       -2 0.84522031E-01 0.15932105E+04</pdfrwt>
<totfact> 0.23610031E+01</totfact>
</mgrwt>
</event>
<event>
12    1  0.1495204E-007  0.1467045E+04  0.7818608E-02  0.8906668E-01
          1   -1    0    0  501    0  0.00000000000E+00  0.00000000000E+00  0.12393450566E+04  0.12393450566E+04  0.00000000000E+00 0. -1.
         -1   -1    0    0    0  501 -0.00000000000E+00 -0.00000000000E+00 -0.43414504163E+03  0.43414504163E+03  0.00000000000E+00 0.  1.
         23    2    1    2    0    0 -0.35218707148E+03 -0.19142164325E+03  0.46683220750E+03  0.62201549055E+03  0.91065809727E+02 0.  0.
        254    2    1    2    0    0  0.35218707148E+03  0.19142164325E+03  0.33836780752E+03  0.10514746077E+04  0.91127827731E+03 0.  0.
        -24    2    4    4    0    0 -0.14744019534E+03 -0.51735040084E+01  0.46462840613E+03  0.49395903521E+03  0.79690628883E+02 0.  0.
         24    2    4    4    0    0  0.49962726683E+03  0.19659514726E+03 -0.12626059861E+03  0.55751557252E+03  0.81270026152E+02 0.  0.
         11    1    3    3    0    0 -0.17358177753E+03 -0.50691295434E+02  0.24343426088E+03  0.30324986445E+03  0.00000000000E+00 0.  1.
        -11    1    3    3    0    0 -0.17860529396E+03 -0.14073034782E+03  0.22339794662E+03  0.31876562610E+03  0.00000000000E+00 0. -1.
          2    1    6    6  502    0  0.49164540673E+03  0.20337124310E+03 -0.12034127119E+03  0.54548793756E+03  0.00000000000E+00 0. -1.
          1    1    5    5  503    0 -0.14337927431E+03  0.62371464959E+01  0.45839816034E+03  0.48033883010E+03  0.00000000000E+00 0. -1.
         -2    1    5    5    0  503 -0.40609210299E+01 -0.11410650504E+02  0.62302457925E+01  0.13620205108E+02  0.00000000000E+00 0.  1.
         -1    1    6    6    0  502  0.79818600997E+01 -0.67760958342E+01 -0.59193274241E+01  0.12027634953E+02  0.00000000000E+00 0.  1.
<mgrwt>
<rscale>  0 0.14670453E+04</rscale>
<asrwt>0</asrwt>
<pdfrwt beam="1">  1        1 0.19066847E+00 0.14670453E+04</pdfrwt>
<pdfrwt beam="2">  1       -1 0.66791546E-01 0.14670453E+04</pdfrwt>
<totfact> 0.22034021E+01</totfact>
</mgrwt>
</event>
<event>
12    1  0.1495204E-007  0.3707611E+04  0.7818608E-02  0.8066277E-01
         -2   -1    0    0    0  501 -0.00000000000E+00  0.00000000000E+00  0.27007767499E+04  0.27007767499E+04  0.00000000000E+00 0.  1.
          2   -1    0    0  501    0  0.00000000000E+00 -0.00000000000E+00 -0.12724469695E+04  0.12724469695E+04  0.00000000000E+00 0. -1.
         23    2    1    2    0    0 -0.54486725561E+03  0.78731931252E+03  0.21802609900E+04  0.23824960987E+04  0.77444496035E+02 0.  0.
        254    2    1    2    0    0  0.54486725561E+03 -0.78731931252E+03 -0.75193120958E+03  0.15907276207E+04  0.10238465673E+04 0.  0.
        -24    2    4    4    0    0 -0.24654050120E+03 -0.16792951575E+03  0.35583930574E+02  0.31143726584E+03  0.82124377934E+02 0.  0.
         24    2    4    4    0    0  0.79140775681E+03 -0.61938979677E+03 -0.78751514016E+03  0.12792903549E+04  0.80210711596E+02 0.  0.
         13    1    3    3    0    0 -0.20483111099E+02  0.49723768431E+02  0.91982295995E+02  0.10654930203E+03  0.00000000000E+00 0. -1.
        -13    1    3    3    0    0 -0.52438414451E+03  0.73759554409E+03  0.20882786940E+04  0.22759467967E+04  0.00000000000E+00 0.  1.
          4    1    6    6  502    0  0.21109289239E+03 -0.16559069777E+03 -0.16633663893E+03  0.31567129400E+03  0.00000000000E+00 0. -1.
          3    1    5    5  503    0 -0.21766359412E+03 -0.14811970275E+03  0.25455258824E+01  0.26329330841E+03  0.00000000000E+00 0. -1.
         -4    1    5    5    0  503 -0.28876907078E+02 -0.19809812994E+02  0.33038404692E+02  0.48143957439E+02  0.00000000000E+00 0.  1.
         -3    1    6    6    0  502  0.58031486442E+03 -0.45379909900E+03 -0.62117850123E+03  0.96361906089E+03  0.00000000000E+00 0.  1.
<mgrwt>
<rscale>  0 0.37076112E+04</rscale>
<asrwt>0</asrwt>
<pdfrwt beam="1">  1        2 0.19576107E+00 0.37076112E+04</pdfrwt>
<pdfrwt beam="2">  1       -2 0.41550411E+00 0.37076112E+04</pdfrwt>
<totfact> 0.81311721E-02</totfact>
</mgrwt>
</event>
<event>
12    1  0.1495204E-007  0.1427783E+04  0.7818608E-02  0.8933949E-01
         -2   -1    0    0    0  501 -0.00000000000E+00  0.00000000000E+00  0.19651470585E+03  0.19651470585E+03  0.00000000000E+00 0.  1.
          2   -1    0    0  501    0  0.00000000000E+00 -0.00000000000E+00 -0.25934007314E+04  0.25934007314E+04  0.00000000000E+00 0. -1.
         23    2    1    2    0    0 -0.19364535324E+03  0.12630539962E+03 -0.14209007771E+04  0.14425033858E+04  0.91681092799E+02 0.  0.
        254    2    1    2    0    0  0.19364535324E+03 -0.12630539962E+03 -0.97598524838E+03  0.13474120514E+04  0.89973354635E+03 0.  0.
        -24    2    4    4    0    0  0.49957972578E+03  0.11682323632E+03 -0.44988278394E+03  0.68711365544E+03  0.80641709145E+02 0.  0.
         24    2    4    4    0    0 -0.30593437254E+03 -0.24312863594E+03 -0.52610246444E+03  0.66029839597E+03  0.80639907721E+02 0.  0.
         11    1    3    3    0    0 -0.19237191920E+03  0.90130816370E+02 -0.12261756698E+04  0.12444425629E+04  0.00000000000E+00 0. -1.
        -11    1    3    3    0    0 -0.12734340337E+01  0.36174583252E+02 -0.19472510736E+03  0.19806082284E+03  0.00000000000E+00 0.  1.
          4    1    6    6  502    0 -0.24668206258E+03 -0.22364170753E+03 -0.47262969146E+03  0.57814053533E+03  0.00000000000E+00 0. -1.
          1    1    5    5  503    0  0.47517372074E+03  0.94959259824E+02 -0.40493521956E+03  0.63149018832E+03  0.00000000000E+00 0. -1.
         -2    1    5    5    0  503  0.24406005034E+02  0.21863976497E+02 -0.44947564387E+02  0.55623467118E+02  0.00000000000E+00 0.  1.
         -3    1    6    6    0  502 -0.59252309962E+02 -0.19486928414E+02 -0.53472772978E+02  0.82157860639E+02  0.00000000000E+00 0.  1.
<mgrwt>
<rscale>  0 0.14277834E+04</rscale>
<asrwt>0</asrwt>
<pdfrwt beam="1">  1        2 0.39898473E+00 0.14277834E+04</pdfrwt>
<pdfrwt beam="2">  1       -2 0.30233031E-01 0.14277834E+04</pdfrwt>
<totfact> 0.30272416E+01</totfact>
</mgrwt>
</event>
<event>
12    1  0.1495204E-007  0.2433363E+04  0.7818608E-02  0.8427118E-01
         -2   -1    0    0    0  501 -0.00000000000E+00  0.00000000000E+00  0.93742200149E+03  0.93742200149E+03  0.00000000000E+00 0.  1.
          2   -1    0    0  501    0  0.00000000000E+00 -0.00000000000E+00 -0.15791327410E+04  0.15791327410E+04  0.00000000000E+00 0. -1.
         23    2    1    2    0    0 -0.74908268666E+03  0.50352106039E+03  0.27693016829E+03  0.94868567657E+03  0.93036901949E+02 0.  0.
        254    2    1    2    0    0  0.74908268666E+03 -0.50352106039E+03 -0.91864090783E+03  0.15678690659E+04  0.89423372822E+03 0.  0.
        -24    2    4    4    0    0  0.63386192556E+03 -0.66724923498E+03 -0.40098468674E+03  0.10071426459E+04  0.80901841484E+02 0.  0.
         24    2    4    4    0    0  0.11522076110E+03  0.16372817459E+03 -0.51765622108E+03  0.56072642003E+03  0.79771021998E+02 0.  0.
         11    1    3    3    0    0 -0.80419834541E+02  0.53747939954E+02  0.47944468021E+00  0.96728593002E+02  0.00000000000E+00 0. -1.
        -11    1    3    3    0    0 -0.66866285211E+03  0.44977312044E+03  0.27645072361E+03  0.85195708357E+03  0.00000000000E+00 0.  1.
          4    1    6    6  502    0  0.91377715813E+02  0.16754909538E+03 -0.47087849593E+03  0.50808379647E+03  0.00000000000E+00 0. -1.
          1    1    5    5  503    0  0.62353557717E+03 -0.63511122035E+03 -0.38885999948E+03  0.97127492369E+03  0.00000000000E+00 0. -1.
         -2    1    5    5    0  503  0.10326348390E+02 -0.32138014635E+02 -0.12124687268E+02  0.35867722218E+02  0.00000000000E+00 0.  1.
         -3    1    6    6    0  502  0.23843045287E+02 -0.38209207942E+01 -0.46777725158E+02  0.52642623559E+02  0.00000000000E+00 0.  1.
<mgrwt>
<rscale>  0 0.24333629E+04</rscale>
<asrwt>0</asrwt>
<pdfrwt beam="1">  1        2 0.24294349E+00 0.24333629E+04</pdfrwt>
<pdfrwt beam="2">  1       -2 0.14421877E+00 0.24333629E+04</pdfrwt>
<totfact> 0.34151295E+00</totfact>
</mgrwt>
</event>
<event>
12    1  0.1495204E-007  0.1759788E+04  0.7818608E-02  0.8727981E-01
         -2   -1    0    0    0  501 -0.00000000000E+00  0.00000000000E+00  0.14153554238E+04  0.14153554238E+04  0.00000000000E+00 0.  1.
          2   -1    0    0  501    0  0.00000000000E+00 -0.00000000000E+00 -0.54700998030E+03  0.54700998030E+03  0.00000000000E+00 0. -1.
         23    2    1    2    0    0  0.33522287697E+03  0.52224408872E+03  0.12485617250E+03  0.63938342213E+03  0.90049049071E+02 0.  0.
        254    2    1    2    0    0 -0.33522287697E+03 -0.52224408872E+03  0.74348927099E+03  0.13229819820E+04  0.90132777781E+03 0.  0.
        -24    2    4    4    0    0 -0.38948886586E+03 -0.72768255085E+03  0.71388126549E+03  0.10942587878E+04  0.80946661748E+02 0.  0.
         24    2    4    4    0    0  0.54265988892E+02  0.20543846213E+03  0.29608005501E+02  0.22872319414E+03  0.79296319434E+02 0.  0.
         13    1    3    3    0    0  0.11990379102E+02  0.33631973183E+02  0.28449109547E+02  0.45653374960E+02  0.00000000000E+00 0.  1.
        -13    1    3    3    0    0  0.32323249787E+03  0.48861211554E+03  0.96407062948E+02  0.59373004717E+03  0.00000000000E+00 0. -1.
          2    1    6    6  502    0  0.33005868605E+02  0.18177114858E+03 -0.75560113476E+00  0.18474498302E+03  0.00000000000E+00 0. -1.
          1    1    5    5  503    0 -0.16048599012E+03 -0.38472602647E+03  0.36647650032E+03  0.55504494751E+03  0.00000000000E+00 0. -1.
         -2    1    5    5    0  503 -0.22900287574E+03 -0.34295652438E+03  0.34740476517E+03  0.53921384030E+03  0.00000000000E+00 0.  1.
         -1    1    6    6    0  502  0.21260120287E+02  0.23667313547E+02  0.30363606636E+02  0.43978211118E+02  0.00000000000E+00 0.  1.
<mgrwt>
<rscale>  0 0.17597881E+04</rscale>
<asrwt>0</asrwt>
<pdfrwt beam="1">  1        2 0.84155382E-01 0.17597881E+04</pdfrwt>
<pdfrwt beam="2">  1       -2 0.21774699E+00 0.17597881E+04</pdfrwt>
<totfact> 0.53564541E+00</totfact>
</mgrwt>
</event>
<event>
12    1  0.1495204E-007  0.2691403E+04  0.7818608E-02  0.8337800E-01
         -2   -1    0    0    0  501 -0.00000000000E+00  0.00000000000E+00  0.81746808579E+03  0.81746808579E+03  0.00000000000E+00 0.  1.
          2   -1    0    0  501    0  0.00000000000E+00 -0.00000000000E+00 -0.22152703775E+04  0.22152703775E+04  0.00000000000E+00 0. -1.
         23    2    1    2    0    0  0.86145799482E+03  0.73192362648E+03 -0.18730534218E+03  0.11494337500E+04  0.91063618688E+02 0.  0.
        254    2    1    2    0    0 -0.86145799482E+03 -0.73192362648E+03 -0.12104969495E+04  0.18833047132E+04  0.89649969680E+03 0.  0.
        -24    2    4    4    0    0 -0.12578849293E+03 -0.68474651867E+03 -0.55810628046E+03  0.89562636314E+03  0.77223197819E+02 0.  0.
         24    2    4    4    0    0 -0.73566950189E+03 -0.47177107809E+02 -0.65239066903E+03  0.98767835010E+03  0.80371902474E+02 0.  0.
         11    1    3    3    0    0  0.57130145107E+03  0.46381201361E+03 -0.80985648992E+02  0.74031453269E+03  0.00000000000E+00 0. -1.
        -11    1    3    3    0    0  0.29015654374E+03  0.26811161286E+03 -0.10631969318E+03  0.40911921733E+03  0.00000000000E+00 0.  1.
          4    1    6    6  502    0 -0.51852930994E+03 -0.81936589539E+01 -0.49277951008E+03  0.71538201464E+03  0.00000000000E+00 0. -1.
          1    1    5    5  503    0 -0.11513257518E+03 -0.41958232440E+03 -0.34517203800E+03  0.55538146587E+03  0.00000000000E+00 0. -1.
         -2    1    5    5    0  503 -0.10655917744E+02 -0.26516419427E+03 -0.21293424246E+03  0.34024489727E+03  0.00000000000E+00 0.  1.
         -3    1    6    6    0  502 -0.21714019195E+03 -0.38983448855E+02 -0.15961115895E+03  0.27229633546E+03  0.00000000000E+00 0.  1.
<mgrwt>
<rscale>  0 0.26914032E+04</rscale>
<asrwt>0</asrwt>
<pdfrwt beam="1">  1        2 0.34081083E+00 0.26914032E+04</pdfrwt>
<pdfrwt beam="2">  1       -2 0.12576432E+00 0.26914032E+04</pdfrwt>
<totfact> 0.20984519E+00</totfact>
</mgrwt>
</event>
<event>
12    1  0.1495204E-007  0.1909869E+04  0.7818608E-02  0.8649959E-01
          1   -1    0    0  501    0  0.00000000000E+00  0.00000000000E+00  0.96981232439E+03  0.96981232439E+03  0.00000000000E+00 0. -1.
         -1   -1    0    0    0  501 -0.00000000000E+00 -0.00000000000E+00 -0.94028523777E+03  0.94028523777E+03  0.00000000000E+00 0.  1.
         23    2    1    2    0    0 -0.26461460155E+03  0.59458313450E+03 -0.33780656921E+03  0.73881164393E+03  0.90439901721E+02 0.  0.
        254    2    1    2    0    0  0.26461460155E+03 -0.59458313450E+03  0.36733365582E+03  0.11712859182E+04  0.90190171103E+03 0.  0.
        -24    2    4    4    0    0  0.20320650277E+03 -0.43953999906E+03 -0.23162418173E+03  0.54423358378E+03  0.89733709472E+02 0.  0.
         24    2    4    4    0    0  0.61408098777E+02 -0.15504313544E+03  0.59895783755E+03  0.62705233444E+03  0.81454346238E+02 0.  0.
         13    1    3    3    0    0 -0.13786775137E+03  0.32514063490E+03 -0.23318717434E+03  0.42320232467E+03  0.00000000000E+00 0.  1.
        -13    1    3    3    0    0 -0.12674685018E+03  0.26944249960E+03 -0.10461939487E+03  0.31560931926E+03  0.00000000000E+00 0. -1.
          4    1    6    6  502    0  0.21485433317E+02 -0.36756275449E+02  0.30101910115E+03  0.30401504385E+03  0.00000000000E+00 0. -1.
          1    1    5    5  503    0  0.14522330494E+03 -0.34963205486E+03 -0.21667256582E+03  0.43621025075E+03  0.00000000000E+00 0. -1.
         -2    1    5    5    0  503  0.57983197833E+02 -0.89907944199E+02 -0.14951615911E+02  0.10802333303E+03  0.00000000000E+00 0.  1.
         -3    1    6    6    0  502  0.39922665460E+02 -0.11828685999E+03  0.29793873641E+03  0.32303729060E+03  0.00000000000E+00 0.  1.
<mgrwt>
<rscale>  0 0.19098693E+04</rscale>
<asrwt>0</asrwt>
<pdfrwt beam="1">  1        1 0.14920190E+00 0.19098693E+04</pdfrwt>
<pdfrwt beam="2">  1       -1 0.14465927E+00 0.19098693E+04</pdfrwt>
<totfact> 0.57451916E+00</totfact>
</mgrwt>
</event>
<event>
12    1  0.1495204E-007  0.2760736E+04  0.7818608E-02  0.8315563E-01
         -2   -1    0    0    0  501 -0.00000000000E+00  0.00000000000E+00  0.10433639310E+04  0.10433639310E+04  0.00000000000E+00 0.  1.
          2   -1    0    0  501    0  0.00000000000E+00 -0.00000000000E+00 -0.18262233545E+04  0.18262233545E+04  0.00000000000E+00 0. -1.
         23    2    1    2    0    0 -0.22788333143E+03  0.76970959793E+03 -0.13126809072E+04  0.15411277552E+04  0.86947776190E+02 0.  0.
        254    2    1    2    0    0  0.22788333143E+03 -0.76970959793E+03  0.52982148374E+03  0.13284595303E+04  0.91635704896E+03 0.  0.
        -24    2    4    4    0    0 -0.10299675949E+03 -0.18262686490E+03 -0.22140517825E+03  0.31591957965E+03  0.82607648561E+02 0.  0.
         24    2    4    4    0    0  0.33088009092E+03 -0.58708273304E+03  0.75122666200E+03  0.10125399507E+04  0.82145505181E+02 0.  0.
         11    1    3    3    0    0 -0.13295863554E+03  0.42660640025E+03 -0.64822694962E+03  0.78731772348E+03  0.00000000000E+00 0.  1.
        -11    1    3    3    0    0 -0.94924695890E+02  0.34310319769E+03 -0.66445395761E+03  0.75381003173E+03  0.00000000000E+00 0. -1.
          2    1    6    6  502    0  0.83996420937E+01 -0.28793815441E+02  0.13817856682E+02  0.33023793820E+02  0.00000000000E+00 0. -1.
          3    1    5    5  503    0 -0.46239781844E+00 -0.52546301105E+02 -0.22719645824E+02  0.57249540417E+02  0.00000000000E+00 0. -1.
         -4    1    5    5    0  503 -0.10253436167E+03 -0.13008056379E+03 -0.19868553243E+03  0.25867003923E+03  0.00000000000E+00 0.  1.
         -1    1    6    6    0  502  0.32248044883E+03 -0.55828891760E+03  0.73740880531E+03  0.97951615686E+03  0.00000000000E+00 0.  1.
<mgrwt>
<rscale>  0 0.27607358E+04</rscale>
<asrwt>0</asrwt>
<pdfrwt beam="1">  1        2 0.28095744E+00 0.27607358E+04</pdfrwt>
<pdfrwt beam="2">  1       -2 0.16051753E+00 0.27607358E+04</pdfrwt>
<totfact> 0.18190009E+00</totfact>
</mgrwt>
</event>
<event>
12    1  0.1495204E-007  0.3926533E+04  0.7818608E-02  0.8019533E-01
         -2   -1    0    0    0  501 -0.00000000000E+00  0.00000000000E+00  0.15141483453E+04  0.15141483453E+04  0.00000000000E+00 0.  1.
          2   -1    0    0  501    0  0.00000000000E+00 -0.00000000000E+00 -0.25455996273E+04  0.25455996273E+04  0.00000000000E+00 0. -1.
         23    2    1    2    0    0  0.55505844801E+03 -0.16634479420E+04  0.15272297888E+03  0.17626363122E+04  0.91725264279E+02 0.  0.
        254    2    1    2    0    0 -0.55505844801E+03  0.16634479420E+04 -0.11841742608E+04  0.22971116604E+04  0.89403823389E+03 0.  0.
        -24    2    4    4    0    0 -0.65302574441E+03  0.88733220148E+03 -0.36846943622E+03  0.11644289015E+04  0.79522843148E+02 0.  0.
         24    2    4    4    0    0  0.97967296406E+02  0.77611574056E+03 -0.81570482463E+03  0.11326827589E+04  0.75117490908E+02 0.  0.
         13    1    3    3    0    0  0.55316244534E+03 -0.16377022189E+04  0.14117317285E+03  0.17343549560E+04  0.00000000000E+00 0. -1.
        -13    1    3    3    0    0  0.18960026630E+01 -0.25745723116E+02  0.11549806038E+02  0.28281356127E+02  0.00000000000E+00 0.  1.
          4    1    6    6  502    0  0.56539018807E+02  0.63319845794E+03 -0.68620384776E+03  0.93542111825E+03  0.00000000000E+00 0. -1.
          3    1    5    5  503    0 -0.34790689234E+03  0.42639786610E+03 -0.15351889944E+03  0.57133387650E+03  0.00000000000E+00 0. -1.
         -4    1    5    5    0  503 -0.30511885207E+03  0.46093433538E+03 -0.21495053677E+03  0.59309502500E+03  0.00000000000E+00 0.  1.
         -3    1    6    6    0  502  0.41428277598E+02  0.14291728262E+03 -0.12950097687E+03  0.19726164063E+03  0.00000000000E+00 0.  1.
<mgrwt>
<rscale>  0 0.39265331E+04</rscale>
<asrwt>0</asrwt>
<pdfrwt beam="1">  1        2 0.39163071E+00 0.39265331E+04</pdfrwt>
<pdfrwt beam="2">  1       -2 0.23294590E+00 0.39265331E+04</pdfrwt>
<totfact> 0.21295985E-01</totfact>
</mgrwt>
</event>
<event>
12    1  0.1495204E-007  0.1276426E+04  0.7818608E-02  0.9048471E-01
          2   -1    0    0  501    0  0.00000000000E+00  0.00000000000E+00  0.11659403887E+04  0.11659403887E+04  0.00000000000E+00 0. -1.
         -2   -1    0    0    0  501 -0.00000000000E+00 -0.00000000000E+00 -0.34934557073E+03  0.34934557073E+03  0.00000000000E+00 0.  1.
         23    2    1    2    0    0  0.17742465016E+03 -0.16136455855E+03  0.43969683026E+03  0.51262682566E+03  0.10924711718E+03 0.  0.
        254    2    1    2    0    0 -0.17742465016E+03  0.16136455855E+03  0.37689798769E+03  0.10026591338E+04  0.89763869019E+03 0.  0.
        -24    2    4    4    0    0 -0.39285626034E+03 -0.13314147420E+03 -0.62748247077E+02  0.42616935745E+03  0.74968561942E+02 0.  0.
         24    2    4    4    0    0  0.21543161018E+03  0.29450603275E+03  0.43964623477E+03  0.57648977630E+03  0.76857455357E+02 0.  0.
         13    1    3    3    0    0  0.14617712517E+03 -0.16375748338E+03  0.42428110528E+03  0.47770149841E+03  0.00000000000E+00 0. -1.
        -13    1    3    3    0    0  0.31247524990E+02  0.23929248318E+01  0.15415724981E+02  0.34925327256E+02  0.00000000000E+00 0.  1.
          4    1    6    6  502    0  0.16347388074E+03  0.16719521165E+03  0.30179998543E+03  0.38178682493E+03  0.00000000000E+00 0. -1.
          3    1    5    5  503    0 -0.77121797672E+02  0.38598023478E+01 -0.15598806316E+02  0.78778122019E+02  0.00000000000E+00 0. -1.
         -4    1    5    5    0  503 -0.31573446266E+03 -0.13700127655E+03 -0.47149440762E+02  0.34739123543E+03  0.00000000000E+00 0.  1.
         -3    1    6    6    0  502  0.51957729441E+02  0.12731082110E+03  0.13784624934E+03  0.19470295137E+03  0.00000000000E+00 0.  1.
<mgrwt>
<rscale>  0 0.12764264E+04</rscale>
<asrwt>0</asrwt>
<pdfrwt beam="1">  1        2 0.17937544E+00 0.12764264E+04</pdfrwt>
<pdfrwt beam="2">  1       -2 0.53745473E-01 0.12764264E+04</pdfrwt>
<totfact> 0.63571091E+01</totfact>
</mgrwt>
</event>
<event>
12    1  0.1495204E-007  0.1508077E+04  0.7818608E-02  0.8879099E-01
         -1   -1    0    0    0  501 -0.00000000000E+00  0.00000000000E+00  0.24379757063E+03  0.24379757063E+03  0.00000000000E+00 0.  1.
          1   -1    0    0  501    0  0.00000000000E+00 -0.00000000000E+00 -0.23321578105E+04  0.23321578105E+04  0.00000000000E+00 0. -1.
         23    2    1    2    0    0 -0.96720759644E+02 -0.17661793208E+03  0.66275089103E+02  0.23142832591E+03  0.92832555281E+02 0.  0.
        254    2    1    2    0    0  0.96720759644E+02  0.17661793208E+03 -0.21546353290E+04  0.23445270553E+04  0.90211136370E+03 0.  0.
        -24    2    4    4    0    0  0.32671973533E+03  0.31680949372E+03 -0.19300289563E+04  0.19845147906E+04  0.78569340940E+02 0.  0.
         24    2    4    4    0    0 -0.22999897569E+03 -0.14019156165E+03 -0.22460637276E+03  0.36001226467E+03  0.81287177645E+02 0.  0.
         13    1    3    3    0    0 -0.35142934967E+02 -0.10899636471E+03 -0.62685957795E+01  0.11469319375E+03  0.00000000000E+00 0. -1.
        -13    1    3    3    0    0 -0.61577824677E+02 -0.67621567367E+02  0.72543684883E+02  0.11673513216E+03  0.00000000000E+00 0.  1.
          2    1    6    6  502    0 -0.40963265152E+02 -0.64105214037E+02 -0.45029429415E+02  0.88403150804E+02  0.00000000000E+00 0. -1.
          3    1    5    5  503    0  0.24564454030E+03  0.27941164901E+03 -0.15184157403E+04  0.15633292904E+04  0.00000000000E+00 0. -1.
         -4    1    5    5    0  503  0.81075195033E+02  0.37397844718E+02 -0.41161321599E+03  0.42118550024E+03  0.00000000000E+00 0.  1.
         -3    1    6    6    0  502 -0.18903571054E+03 -0.76086347610E+02 -0.17957694335E+03  0.27160911386E+03  0.00000000000E+00 0.  1.
<mgrwt>
<rscale>  0 0.15080775E+04</rscale>
<asrwt>0</asrwt>
<pdfrwt beam="1">  1        1 0.35879349E+00 0.15080775E+04</pdfrwt>
<pdfrwt beam="2">  1       -1 0.37507321E-01 0.15080775E+04</pdfrwt>
<totfact> 0.11733173E+01</totfact>
</mgrwt>
</event>
<event>
12    1  0.1495204E-007  0.1875351E+04  0.7818608E-02  0.8667224E-01
         -2   -1    0    0    0  501 -0.00000000000E+00  0.00000000000E+00  0.39451238746E+03  0.39451238746E+03  0.00000000000E+00 0.  1.
          2   -1    0    0  501    0  0.00000000000E+00 -0.00000000000E+00 -0.22286626955E+04  0.22286626955E+04  0.00000000000E+00 0. -1.
         23    2    1    2    0    0 -0.29713528802E+03 -0.49517471153E+03 -0.13149268684E+04  0.14387460667E+04  0.86430324132E+02 0.  0.
        254    2    1    2    0    0  0.29713528802E+03  0.49517471153E+03 -0.51922343966E+03  0.11844290163E+04  0.89431076251E+03 0.  0.
        -24    2    4    4    0    0 -0.24702326202E+03  0.42999253560E+03 -0.17380437985E+03  0.53180200559E+03  0.81800599293E+02 0.  0.
         24    2    4    4    0    0  0.54415855005E+03  0.65182175921E+02 -0.34541905981E+03  0.65262701066E+03  0.79059752845E+02 0.  0.
         11    1    3    3    0    0 -0.42468462877E+02 -0.27865486159E+02 -0.93377231504E+02  0.10629846199E+03  0.00000000000E+00 0.  1.
        -11    1    3    3    0    0 -0.25466682515E+03 -0.46730922537E+03 -0.12215496369E+04  0.13324476047E+04  0.00000000000E+00 0. -1.
          4    1    6    6  502    0  0.67952326052E+02  0.28547499982E+02 -0.26501878180E+02  0.78325142312E+02  0.00000000000E+00 0. -1.
          3    1    5    5  503    0 -0.15400952973E+02  0.38744901176E+02 -0.40182375665E+02  0.57904922362E+02  0.00000000000E+00 0. -1.
         -4    1    5    5    0  503 -0.23162230905E+03  0.39124763443E+03 -0.13362200418E+03  0.47389708323E+03  0.00000000000E+00 0.  1.
         -3    1    6    6    0  502  0.47620622399E+03  0.36634675939E+02 -0.31891718163E+03  0.57430186835E+03  0.00000000000E+00 0.  1.
<mgrwt>
<rscale>  0 0.18753507E+04</rscale>
<asrwt>0</asrwt>
<pdfrwt beam="1">  1        2 0.34287119E+00 0.18753507E+04</pdfrwt>
<pdfrwt beam="2">  1       -2 0.60694212E-01 0.18753507E+04</pdfrwt>
<totfact> 0.11803291E+01</totfact>
</mgrwt>
</event>
<event>
12    1  0.1931900E-007  0.2712361E+04  0.7818608E-02  0.8331005E-01
         -2   -1    0    0    0  501 -0.00000000000E+00  0.00000000000E+00  0.13421828165E+04  0.13421828165E+04  0.00000000000E+00 0. -1.
          2   -1    0    0  501    0  0.00000000000E+00 -0.00000000000E+00 -0.13703239122E+04  0.13703239122E+04  0.00000000000E+00 0.  1.
         23    2    1    2    0    0 -0.11464139966E+04  0.10531231278E+03  0.32420428311E+03  0.11995055586E+04  0.91375233071E+02 0.  0.
        254    2    1    2    0    0  0.11464139966E+04 -0.10531231278E+03 -0.35234537886E+03  0.15130011700E+04  0.91633484043E+03 0.  0.
        -24    2    4    4    0    0  0.49675804371E+03 -0.46247371893E+03 -0.34822598160E+03  0.76719859449E+03  0.81742610801E+02 0.  0.
         24    2    4    4    0    0  0.64965595285E+03  0.35716140615E+03 -0.41193972534E+01  0.74580257555E+03  0.81162707844E+02 0.  0.
         11    1    3    3    0    0 -0.89213023505E+01  0.96327189188E+01  0.62547137642E+01  0.14543051732E+02  0.00000000000E+00 0. -1.
        -11    1    3    3    0    0 -0.11374926942E+04  0.95679593861E+02  0.31794956935E+03  0.11849625069E+04  0.00000000000E+00 0.  1.
          2    1    6    6  502    0  0.49760703845E+03  0.29595187525E+03  0.24184870048E+02  0.57946974478E+03  0.00000000000E+00 0. -1.
          3    1    5    5  503    0  0.48548334783E+03 -0.46470691042E+03 -0.34085178691E+03  0.75354265590E+03  0.00000000000E+00 0. -1.
         -4    1    5    5    0  503  0.11274695879E+02  0.22331914867E+01 -0.73741946939E+01  0.13655938590E+02  0.00000000000E+00 0.  1.
         -1    1    6    6    0  502  0.15204891440E+03  0.61209530902E+02 -0.28304267301E+02  0.16633283077E+03  0.00000000000E+00 0.  1.
<mgrwt>
<rscale>  0 0.27123607E+04</rscale>
<asrwt>0</asrwt>
<pdfrwt beam="1">  1        2 0.21081906E+00 0.27123607E+04</pdfrwt>
<pdfrwt beam="2">  1       -2 0.20648966E+00 0.27123607E+04</pdfrwt>
<totfact> 0.15913993E+00</totfact>
</mgrwt>
</event>
<event>
12    1  0.1495204E-007  0.2387323E+04  0.7818608E-02  0.8444265E-01
         -1   -1    0    0    0  501 -0.00000000000E+00  0.00000000000E+00  0.57012465166E+03  0.57012465166E+03  0.00000000000E+00 0.  1.
          1   -1    0    0  501    0  0.00000000000E+00 -0.00000000000E+00 -0.24991503456E+04  0.24991503456E+04  0.00000000000E+00 0. -1.
         23    2    1    2    0    0  0.27440054880E+03  0.11368403815E+02  0.43668253245E+03  0.52395084095E+03  0.91694862411E+02 0.  0.
        254    2    1    2    0    0 -0.27440054880E+03 -0.11368403815E+02 -0.23657082264E+04  0.25453241563E+04  0.89815073705E+03 0.  0.
        -24    2    4    4    0    0 -0.56078728243E+03  0.65670099457E+02 -0.19279643489E+04  0.20105909953E+04  0.81453556610E+02 0.  0.
         24    2    4    4    0    0  0.28638673362E+03 -0.77038503273E+02 -0.43774387749E+03  0.53473316095E+03  0.79796985871E+02 0.  0.
         13    1    3    3    0    0  0.18362634785E+03  0.28589463613E+02  0.35467337279E+03  0.40041128158E+03  0.00000000000E+00 0.  1.
        -13    1    3    3    0    0  0.90774200952E+02 -0.17221059798E+02  0.82009159664E+02  0.12353955936E+03  0.00000000000E+00 0. -1.
          2    1    6    6  502    0  0.26387739144E+03 -0.91296596358E+02 -0.38446244847E+03  0.47516073123E+03  0.00000000000E+00 0. -1.
          1    1    5    5  503    0 -0.29524655341E+03 -0.50313303038E+01 -0.96178337387E+03  0.10060929877E+04  0.00000000000E+00 0. -1.
         -2    1    5    5    0  503 -0.26554072902E+03  0.70701429761E+02 -0.96618097500E+03  0.10044980077E+04  0.00000000000E+00 0.  1.
         -1    1    6    6    0  502  0.22509342187E+02  0.14258093086E+02 -0.53281429020E+02  0.59572429718E+02  0.00000000000E+00 0.  1.
<mgrwt>
<rscale>  0 0.23873225E+04</rscale>
<asrwt>0</asrwt>
<pdfrwt beam="1">  1        1 0.38448467E+00 0.23873225E+04</pdfrwt>
<pdfrwt beam="2">  1       -1 0.87711485E-01 0.23873225E+04</pdfrwt>
<totfact> 0.15554945E+00</totfact>
</mgrwt>
</event>
<event>
12    1  0.1495204E-007  0.1077313E+04  0.7818608E-02  0.9227590E-01
          2   -1    0    0  501    0  0.00000000000E+00  0.00000000000E+00  0.21708073883E+04  0.21708073883E+04  0.00000000000E+00 0. -1.
         -2   -1    0    0    0  501 -0.00000000000E+00 -0.00000000000E+00 -0.13366038421E+03  0.13366038421E+03  0.00000000000E+00 0.  1.
         23    2    1    2    0    0 -0.74316619425E+02 -0.88458443215E+02  0.42883304448E+03  0.45432511129E+03  0.95737508898E+02 0.  0.
        254    2    1    2    0    0  0.74316619425E+02  0.88458443215E+02  0.16083139596E+04  0.18501426612E+04  0.90719690151E+03 0.  0.
        -24    2    4    4    0    0  0.31601893056E+03 -0.12285484224E+03  0.19569745247E+03  0.39927496003E+03  0.78496650027E+02 0.  0.
         24    2    4    4    0    0 -0.24170231114E+03  0.21131328546E+03  0.14126165072E+04  0.14508677012E+04  0.80364036201E+02 0.  0.
         11    1    3    3    0    0 -0.38962334814E+02 -0.85846078104E+02  0.18207886973E+03  0.20503738064E+03  0.00000000000E+00 0.  1.
        -11    1    3    3    0    0 -0.35354284611E+02 -0.26123651102E+01  0.24675417475E+03  0.24928773064E+03  0.00000000000E+00 0. -1.
          4    1    6    6  502    0 -0.14327354357E+03  0.97507221850E+02  0.90396042067E+03  0.92042349424E+03  0.00000000000E+00 0. -1.
          3    1    5    5  503    0  0.23404181270E+03 -0.56225985745E+02  0.11754282789E+03  0.26786796739E+03  0.00000000000E+00 0. -1.
         -4    1    5    5    0  503  0.81977117864E+02 -0.66628856495E+02  0.78154624581E+02  0.13140699264E+03  0.00000000000E+00 0.  1.
         -3    1    6    6    0  502 -0.98428767571E+02  0.11380606361E+03  0.50865608648E+03  0.53044420697E+03  0.00000000000E+00 0.  1.
<mgrwt>
<rscale>  0 0.10773132E+04</rscale>
<asrwt>0</asrwt>
<pdfrwt beam="1">  1        2 0.33397034E+00 0.10773132E+04</pdfrwt>
<pdfrwt beam="2">  1       -2 0.20563138E-01 0.10773132E+04</pdfrwt>
<totfact> 0.10899974E+02</totfact>
</mgrwt>
</event>
<event>
12    1  0.1495204E-007  0.1801908E+04  0.7818608E-02  0.8705285E-01
         -2   -1    0    0    0  501 -0.00000000000E+00  0.00000000000E+00  0.42278862027E+03  0.42278862027E+03  0.00000000000E+00 0.  1.
          2   -1    0    0  501    0  0.00000000000E+00 -0.00000000000E+00 -0.19199148132E+04  0.19199148132E+04  0.00000000000E+00 0. -1.
         23    2    1    2    0    0 -0.39732535260E+03  0.55416010509E+03 -0.59628379238E+03  0.91014639853E+03  0.88607267225E+02 0.  0.
        254    2    1    2    0    0  0.39732535260E+03 -0.55416010509E+03 -0.90084240052E+03  0.14325570349E+04  0.88076203927E+03 0.  0.
        -24    2    4    4    0    0 -0.27517633713E+03 -0.15414363106E+03 -0.22824341660E+03  0.39754896045E+03  0.80422902328E+02 0.  0.
         24    2    4    4    0    0  0.67250168973E+03 -0.40001647403E+03 -0.67259898392E+03  0.10350080745E+04  0.81121013644E+02 0.  0.
         11    1    3    3    0    0 -0.17352742009E+03  0.21516901150E+03 -0.18854719989E+03  0.33460352003E+03  0.00000000000E+00 0.  1.
        -11    1    3    3    0    0 -0.22379793252E+03  0.33899109359E+03 -0.40773659249E+03  0.57554287850E+03  0.00000000000E+00 0. -1.
          2    1    6    6  502    0  0.35910281051E+03 -0.21521418993E+03 -0.41281668682E+03  0.58795373371E+03  0.00000000000E+00 0. -1.
          3    1    5    5  503    0 -0.25797908849E+03 -0.16389856409E+03 -0.21210782830E+03  0.37202913896E+03  0.00000000000E+00 0. -1.
         -4    1    5    5    0  503 -0.17197248641E+02  0.97549330245E+01 -0.16135588300E+02  0.25519821491E+02  0.00000000000E+00 0.  1.
         -1    1    6    6    0  502  0.31339887922E+03 -0.18480228409E+03 -0.25978229710E+03  0.44705434076E+03  0.00000000000E+00 0.  1.
<mgrwt>
<rscale>  0 0.18019080E+04</rscale>
<asrwt>0</asrwt>
<pdfrwt beam="1">  1        2 0.29537151E+00 0.18019080E+04</pdfrwt>
<pdfrwt beam="2">  1       -2 0.65044404E-01 0.18019080E+04</pdfrwt>
<totfact> 0.15231182E+01</totfact>
</mgrwt>
</event>
<event>
12    1  0.1495204E-007  0.1767158E+04  0.7818608E-02  0.8723962E-01
          1   -1    0    0  501    0  0.00000000000E+00  0.00000000000E+00  0.19653455234E+04  0.19653455234E+04  0.00000000000E+00 0. -1.
         -1   -1    0    0    0  501 -0.00000000000E+00 -0.00000000000E+00 -0.39723905229E+03  0.39723905229E+03  0.00000000000E+00 0.  1.
         23    2    1    2    0    0 -0.53908516405E+03 -0.19935089840E+03  0.99165773723E+03  0.11497564858E+04  0.90561106837E+02 0.  0.
        254    2    1    2    0    0  0.53908516405E+03  0.19935089840E+03  0.57644873389E+03  0.12128280899E+04  0.89905797255E+03 0.  0.
        -24    2    4    4    0    0  0.52841130680E+03  0.47644986238E+03  0.20969506182E+03  0.74590098975E+03  0.78570268199E+02 0.  0.
         24    2    4    4    0    0  0.10673857247E+02 -0.27709896398E+03  0.36675367208E+03  0.46692710013E+03  0.81331997337E+02 0.  0.
         11    1    3    3    0    0 -0.44679112127E+03 -0.18657599572E+03  0.77361897204E+03  0.91264408294E+03  0.00000000000E+00 0. -1.
        -11    1    3    3    0    0 -0.92294042775E+02 -0.12774902682E+02  0.21803876519E+03  0.23711240287E+03  0.00000000000E+00 0.  1.
          4    1    6    6  502    0  0.29258870752E+02 -0.35576892514E+02  0.70999906556E+02  0.84633229464E+02  0.00000000000E+00 0. -1.
          3    1    5    5  503    0  0.12686205784E+03  0.99876416356E+02  0.15705584489E+02  0.16222190249E+03  0.00000000000E+00 0. -1.
         -4    1    5    5    0  503  0.40154924896E+03  0.37657344602E+03  0.19398947733E+03  0.58367908725E+03  0.00000000000E+00 0.  1.
         -3    1    6    6    0  502 -0.18585013504E+02 -0.24152207146E+03  0.29575376552E+03  0.38229387067E+03  0.00000000000E+00 0.  1.
<mgrwt>
<rscale>  0 0.17671582E+04</rscale>
<asrwt>0</asrwt>
<pdfrwt beam="1">  1        1 0.30236084E+00 0.17671582E+04</pdfrwt>
<pdfrwt beam="2">  1       -1 0.61113702E-01 0.17671582E+04</pdfrwt>
<totfact> 0.80842625E+00</totfact>
</mgrwt>
</event>
<event>
12    1  0.1495204E-007  0.1172843E+04  0.7818608E-02  0.9136965E-01
          2   -1    0    0  501    0  0.00000000000E+00  0.00000000000E+00  0.15045911809E+04  0.15045911809E+04  0.00000000000E+00 0. -1.
         -2   -1    0    0    0  501 -0.00000000000E+00 -0.00000000000E+00 -0.22856062583E+03  0.22856062583E+03  0.00000000000E+00 0.  1.
         23    2    1    2    0    0 -0.22078211178E+03 -0.79484736541E+02  0.25375425290E+03  0.35746135274E+03  0.91240526139E+02 0.  0.
        254    2    1    2    0    0  0.22078211178E+03  0.79484736541E+02  0.10222763021E+04  0.13756904540E+04  0.89017572589E+03 0.  0.
        -24    2    4    4    0    0  0.16546675499E+03  0.66141764818E+02  0.11763574787E+04  0.11925775054E+04  0.81671345581E+02 0.  0.
         24    2    4    4    0    0  0.55315356785E+02  0.13342971723E+02 -0.15408117658E+03  0.18311294852E+03  0.80941456300E+02 0.  0.
         13    1    3    3    0    0 -0.21987946245E+03 -0.88938789169E+02  0.25455565925E+03  0.34793055324E+03  0.00000000000E+00 0.  1.
        -13    1    3    3    0    0 -0.90264932917E+00  0.94540526280E+01 -0.80140634102E+00  0.95307994957E+01  0.00000000000E+00 0. -1.
          2    1    6    6  502    0  0.73847719264E+02  0.82095060702E+00 -0.13424188169E+03  0.15321567283E+03  0.00000000000E+00 0. -1.
          3    1    5    5  503    0  0.37909008327E+02 -0.38417124427E+01  0.46112554533E+03  0.46269711499E+03  0.00000000000E+00 0. -1.
         -2    1    5    5    0  503  0.12755774667E+03  0.69983477260E+02  0.71523193338E+03  0.72988039045E+03  0.00000000000E+00 0.  1.
         -1    1    6    6    0  502 -0.18532362479E+02  0.12522021116E+02 -0.19839294885E+02  0.29897275686E+02  0.00000000000E+00 0.  1.
<mgrwt>
<rscale>  0 0.11728432E+04</rscale>
<asrwt>0</asrwt>
<pdfrwt beam="1">  1        2 0.23147556E+00 0.11728432E+04</pdfrwt>
<pdfrwt beam="2">  1       -2 0.35163174E-01 0.11728432E+04</pdfrwt>
<totfact> 0.94643524E+01</totfact>
</mgrwt>
</event>
<event>
12    1  0.1495204E-007  0.1523338E+04  0.7818608E-02  0.8869080E-01
         -2   -1    0    0    0  501 -0.00000000000E+00  0.00000000000E+00  0.38245082548E+03  0.38245082548E+03  0.00000000000E+00 0.  1.
          2   -1    0    0  501    0  0.00000000000E+00 -0.00000000000E+00 -0.15168995982E+04  0.15168995982E+04  0.00000000000E+00 0. -1.
         23    2    1    2    0    0  0.77276150208E+02 -0.30600792266E+03 -0.84276713500E+03  0.90458090205E+03  0.91639033219E+02 0.  0.
        254    2    1    2    0    0 -0.77276150208E+02  0.30600792266E+03 -0.29168163775E+03  0.99476952166E+03  0.89714868963E+03 0.  0.
        -24    2    4    4    0    0  0.19728120019E+03  0.50659967174E+03 -0.16137876437E+02  0.54979460243E+03  0.80315468323E+02 0.  0.
         24    2    4    4    0    0 -0.27455735039E+03 -0.20059174909E+03 -0.27554376131E+03  0.44497491922E+03  0.80371175684E+02 0.  0.
         11    1    3    3    0    0  0.14353386096E+02 -0.37996578336E+02 -0.44858532392E+02  0.60514854259E+02  0.00000000000E+00 0.  1.
        -11    1    3    3    0    0  0.62922764113E+02 -0.26801134432E+03 -0.79790860260E+03  0.84406604779E+03  0.00000000000E+00 0. -1.
          4    1    6    6  502    0 -0.43915181791E+02 -0.55531444817E+02 -0.93537267265E+02  0.11730944089E+03  0.00000000000E+00 0. -1.
          3    1    5    5  503    0  0.15073329590E+03  0.33542708070E+03  0.21836986751E+02  0.36838662700E+03  0.00000000000E+00 0. -1.
         -4    1    5    5    0  503  0.46547904286E+02  0.17117259104E+03 -0.37974863187E+02  0.18140797544E+03  0.00000000000E+00 0.  1.
         -3    1    6    6    0  502 -0.23064216860E+03 -0.14506030427E+03 -0.18200649405E+03  0.32766547833E+03  0.00000000000E+00 0.  1.
<mgrwt>
<rscale>  0 0.15233378E+04</rscale>
<asrwt>0</asrwt>
<pdfrwt beam="1">  1        2 0.23336917E+00 0.15233378E+04</pdfrwt>
<pdfrwt beam="2">  1       -2 0.58838587E-01 0.15233378E+04</pdfrwt>
<totfact> 0.32323390E+01</totfact>
</mgrwt>
</event>
<event>
12    1  0.1495204E-007  0.2817887E+04  0.7818608E-02  0.8297737E-01
         -2   -1    0    0    0  501 -0.00000000000E+00  0.00000000000E+00  0.47812057698E+03  0.47812057698E+03  0.00000000000E+00 0.  1.
          2   -1    0    0  501    0  0.00000000000E+00 -0.00000000000E+00 -0.41519267550E+04  0.41519267550E+04  0.00000000000E+00 0. -1.
         23    2    1    2    0    0 -0.95481577583E+03  0.36861269482E+01 -0.28427270802E+03  0.10005876476E+04  0.93155325381E+02 0.  0.
        254    2    1    2    0    0  0.95481577583E+03 -0.36861269482E+01 -0.33895334700E+04  0.36294596844E+04  0.87883656226E+03 0.  0.
        -24    2    4    4    0    0  0.13144050595E+03 -0.34700631742E+03 -0.13391513998E+04  0.13920043652E+04  0.81606925246E+02 0.  0.
         24    2    4    4    0    0  0.82337526988E+03  0.34332019047E+03 -0.20503820702E+04  0.22374553192E+04  0.79524105486E+02 0.  0.
         13    1    3    3    0    0 -0.24298791283E+03 -0.38026742082E+02 -0.84959940495E+02  0.26020636115E+03  0.00000000000E+00 0. -1.
        -13    1    3    3    0    0 -0.71182786300E+03  0.41712869030E+02 -0.19931276753E+03  0.74038128642E+03  0.00000000000E+00 0.  1.
          2    1    6    6  502    0  0.25936581390E+03  0.10882532621E+03 -0.55711056988E+03  0.62408794582E+03  0.00000000000E+00 0. -1.
          3    1    5    5  503    0  0.91171702765E+02 -0.18543845178E+03 -0.86924146603E+03  0.89346540226E+03  0.00000000000E+00 0. -1.
         -4    1    5    5    0  503  0.40268803180E+02 -0.16156786564E+03 -0.46990993378E+03  0.49853896296E+03  0.00000000000E+00 0.  1.
         -1    1    6    6    0  502  0.56400945598E+03  0.23449486425E+03 -0.14932715003E+04  0.16133673734E+04  0.00000000000E+00 0.  1.
<mgrwt>
<rscale>  0 0.28178869E+04</rscale>
<asrwt>0</asrwt>
<pdfrwt beam="1">  1        2 0.63875797E+00 0.28178869E+04</pdfrwt>
<pdfrwt beam="2">  1       -2 0.73557011E-01 0.28178869E+04</pdfrwt>
<totfact> 0.37079173E-01</totfact>
</mgrwt>
</event>
<event>
12    1  0.1495204E-007  0.1415933E+04  0.7818608E-02  0.8942365E-01
         -2   -1    0    0    0  501 -0.00000000000E+00  0.00000000000E+00  0.20195250392E+03  0.20195250392E+03  0.00000000000E+00 0.  1.
          2   -1    0    0  501    0  0.00000000000E+00 -0.00000000000E+00 -0.24818542730E+04  0.24818542730E+04  0.00000000000E+00 0. -1.
         23    2    1    2    0    0  0.20229546339E+03 -0.29491745980E+03 -0.24773622232E+03  0.44441804945E+03  0.90743618095E+02 0.  0.
        254    2    1    2    0    0 -0.20229546339E+03  0.29491745980E+03 -0.20321655467E+04  0.22393887274E+04  0.87020991758E+03 0.  0.
        -24    2    4    4    0    0 -0.19964336130E+03  0.22842689096E+03 -0.13839178776E+03  0.34283223231E+03  0.79657619653E+02 0.  0.
         24    2    4    4    0    0 -0.26521020977E+01  0.66490568838E+02 -0.18937737590E+04  0.18965564951E+04  0.78226975190E+02 0.  0.
         11    1    3    3    0    0  0.17014637196E+03 -0.19829421059E+03 -0.21208268383E+03  0.33652555122E+03  0.00000000000E+00 0. -1.
        -11    1    3    3    0    0  0.32149091432E+02 -0.96623249208E+02 -0.35653538497E+02  0.10789249823E+03  0.00000000000E+00 0.  1.
          4    1    6    6  502    0 -0.25512404064E+02 -0.50007471694E+01 -0.65035880125E+03  0.65087822255E+03  0.00000000000E+00 0. -1.
          3    1    5    5  503    0 -0.13796973429E+02  0.22885405266E+02 -0.41340051977E+02  0.49224974835E+02  0.00000000000E+00 0. -1.
         -4    1    5    5    0  503 -0.18584638787E+03  0.20554148569E+03 -0.97051735781E+02  0.29360725748E+03  0.00000000000E+00 0.  1.
         -3    1    6    6    0  502  0.22860301966E+02  0.71491316007E+02 -0.12434149577E+04  0.12456782726E+04  0.00000000000E+00 0.  1.
<mgrwt>
<rscale>  0 0.14159332E+04</rscale>
<asrwt>0</asrwt>
<pdfrwt beam="1">  1        2 0.38182371E+00 0.14159332E+04</pdfrwt>
<pdfrwt beam="2">  1       -2 0.31069618E-01 0.14159332E+04</pdfrwt>
<totfact> 0.33408746E+01</totfact>
</mgrwt>
</event>
<event>
12    1  0.1495204E-007  0.2160250E+04  0.7818608E-02  0.8535157E-01
         -1   -1    0    0    0  501 -0.00000000000E+00  0.00000000000E+00  0.41151941292E+03  0.41151941292E+03  0.00000000000E+00 0.  1.
          1   -1    0    0  501    0  0.00000000000E+00 -0.00000000000E+00 -0.28350308496E+04  0.28350308496E+04  0.00000000000E+00 0. -1.
         23    2    1    2    0    0 -0.29098777095E+03 -0.64402935947E+03 -0.19121796487E+03  0.73776629148E+03  0.91033466731E+02 0.  0.
        254    2    1    2    0    0  0.29098777095E+03  0.64402935947E+03 -0.22322934718E+04  0.25087839711E+04  0.90078586267E+03 0.  0.
        -24    2    4    4    0    0  0.50924838011E+03  0.53274139719E+03 -0.20830272703E+04  0.22109899129E+04  0.79539155873E+02 0.  0.
         24    2    4    4    0    0 -0.21826060916E+03  0.11128796228E+03 -0.14926620153E+03  0.29779405813E+03  0.79863621756E+02 0.  0.
         13    1    3    3    0    0 -0.24142862427E+03 -0.59074110694E+03 -0.18639264721E+03  0.66483460723E+03  0.00000000000E+00 0.  1.
        -13    1    3    3    0    0 -0.49559146676E+02 -0.53288252529E+02 -0.48253176593E+01  0.72931684249E+02  0.00000000000E+00 0. -1.
          4    1    6    6  502    0 -0.84918881534E+02  0.66325823616E+02 -0.10456326223E+03  0.15014595275E+03  0.00000000000E+00 0. -1.
          3    1    5    5  503    0  0.10184087943E+03  0.96676348834E+02 -0.31262169370E+03  0.34271008815E+03  0.00000000000E+00 0. -1.
         -4    1    5    5    0  503  0.40740750068E+03  0.43606504836E+03 -0.17704055766E+04  0.18682798248E+04  0.00000000000E+00 0.  1.
         -1    1    6    6    0  502 -0.13334172763E+03  0.44962138660E+02 -0.44702939292E+02  0.14764810538E+03  0.00000000000E+00 0.  1.
<mgrwt>
<rscale>  0 0.21602502E+04</rscale>
<asrwt>0</asrwt>
<pdfrwt beam="1">  1        1 0.43615860E+00 0.21602502E+04</pdfrwt>
<pdfrwt beam="2">  1       -1 0.63310678E-01 0.21602502E+04</pdfrwt>
<totfact> 0.18224225E+00</totfact>
</mgrwt>
</event>
<event>
12    1  0.1495204E-007  0.1858849E+04  0.7818608E-02  0.8675615E-01
         -1   -1    0    0    0  501 -0.00000000000E+00  0.00000000000E+00  0.36134079391E+03  0.36134079391E+03  0.00000000000E+00 0.  1.
          1   -1    0    0  501    0  0.00000000000E+00 -0.00000000000E+00 -0.23906248470E+04  0.23906248470E+04  0.00000000000E+00 0. -1.
         23    2    1    2    0    0 -0.40810568158E+02 -0.39970324549E+03 -0.16922422979E+04  0.17425619645E+04  0.10681768712E+03 0.  0.
        254    2    1    2    0    0  0.40810568158E+02  0.39970324549E+03 -0.33704175514E+03  0.10094036764E+04  0.86247924629E+03 0.  0.
        -24    2    4    4    0    0  0.21187502515E+03 -0.32035358411E+02 -0.46774052333E+03  0.52048103220E+03  0.78752887203E+02 0.  0.
         24    2    4    4    0    0 -0.17106445699E+03  0.43173860390E+03  0.13069876819E+03  0.48892264419E+03  0.79384592026E+02 0.  0.
         13    1    3    3    0    0 -0.73290179518E+02 -0.23874537532E+03 -0.10985966791E+04  0.11266257000E+04  0.00000000000E+00 0. -1.
        -13    1    3    3    0    0  0.32479611360E+02 -0.16095787017E+03 -0.59364561882E+03  0.61593626446E+03  0.00000000000E+00 0.  1.
          4    1    6    6  502    0 -0.67725993197E+02  0.10592537530E+03  0.88199652563E+01  0.12603486452E+03  0.00000000000E+00 0. -1.
          3    1    5    5  503    0  0.18739418117E+03 -0.33709044516E+02 -0.33357493838E+03  0.38408998728E+03  0.00000000000E+00 0. -1.
         -4    1    5    5    0  503  0.24480843980E+02  0.16736861047E+01 -0.13416558495E+03  0.13639104491E+03  0.00000000000E+00 0.  1.
         -3    1    6    6    0  502 -0.10333846380E+03  0.32581322860E+03  0.12187880293E+03  0.36288777967E+03  0.00000000000E+00 0.  1.
<mgrwt>
<rscale>  0 0.18588494E+04</rscale>
<asrwt>0</asrwt>
<pdfrwt beam="1">  1        1 0.36778845E+00 0.18588494E+04</pdfrwt>
<pdfrwt beam="2">  1       -1 0.55590890E-01 0.18588494E+04</pdfrwt>
<totfact> 0.49572779E+00</totfact>
</mgrwt>
</event>
<event>
12    1  0.1495204E-007  0.1252593E+04  0.7818608E-02  0.9068028E-01
          2   -1    0    0  501    0  0.00000000000E+00  0.00000000000E+00  0.24599858859E+04  0.24599858859E+04  0.00000000000E+00 0. -1.
         -2   -1    0    0    0  501 -0.00000000000E+00 -0.00000000000E+00 -0.15945114532E+03  0.15945114532E+03  0.00000000000E+00 0.  1.
         23    2    1    2    0    0 -0.84564025466E+02  0.27719001746E+03  0.54841033356E+03  0.62776586832E+03  0.96699075957E+02 0.  0.
        254    2    1    2    0    0  0.84564025466E+02 -0.27719001746E+03  0.17521244070E+04  0.19916711629E+04  0.90157013217E+03 0.  0.
        -24    2    4    4    0    0  0.39453778321E+02  0.32525719399E+03  0.58502593946E+03  0.67530297887E+03  0.80186785437E+02 0.  0.
         24    2    4    4    0    0  0.45110247145E+02 -0.60244721145E+03  0.11670984675E+04  0.13163681840E+04  0.75688743769E+02 0.  0.
         11    1    3    3    0    0 -0.80967856205E+02  0.17680819261E+03  0.43364109766E+03  0.47524891614E+03  0.00000000000E+00 0. -1.
        -11    1    3    3    0    0 -0.35961692610E+01  0.10038182485E+03  0.11476923590E+03  0.15251695218E+03  0.00000000000E+00 0.  1.
          2    1    6    6  502    0  0.41430234919E+02 -0.60347990129E+03  0.11573158362E+04  0.13058653837E+04  0.00000000000E+00 0. -1.
          3    1    5    5  503    0  0.38800745462E+02  0.63021540320E+02  0.15206179199E+03  0.16911534814E+03  0.00000000000E+00 0. -1.
         -4    1    5    5    0  503  0.65303285954E+00  0.26223565367E+03  0.43296414747E+03  0.50618763073E+03  0.00000000000E+00 0.  1.
         -1    1    6    6    0  502  0.36800122257E+01  0.10326898370E+01  0.97826313059E+01  0.10502800272E+02  0.00000000000E+00 0.  1.
<mgrwt>
<rscale>  0 0.12525934E+04</rscale>
<asrwt>0</asrwt>
<pdfrwt beam="1">  1        2 0.37845934E+00 0.12525934E+04</pdfrwt>
<pdfrwt beam="2">  1       -2 0.24530947E-01 0.12525934E+04</pdfrwt>
<totfact> 0.53875765E+01</totfact>
</mgrwt>
</event>
<event>
12    1  0.1495204E-007  0.2053953E+04  0.7818608E-02  0.8581803E-01
          1   -1    0    0  501    0  0.00000000000E+00  0.00000000000E+00  0.13131879542E+04  0.13131879542E+04  0.00000000000E+00 0. -1.
         -1   -1    0    0    0  501 -0.00000000000E+00 -0.00000000000E+00 -0.80314552928E+03  0.80314552928E+03  0.00000000000E+00 0.  1.
         23    2    1    2    0    0  0.80409998431E+03  0.18213416480E+03  0.27836182238E+03  0.87500919212E+03  0.91685022679E+02 0.  0.
        254    2    1    2    0    0 -0.80409998431E+03 -0.18213416480E+03  0.23168060252E+03  0.12413242913E+04  0.89858803459E+03 0.  0.
        -24    2    4    4    0    0 -0.82532219379E+03 -0.21048029723E+03 -0.13351715948E+03  0.86587820379E+03  0.80371343366E+02 0.  0.
         24    2    4    4    0    0  0.21222209479E+02  0.28346132438E+02  0.36519776200E+03  0.37544608754E+03  0.79601971582E+02 0.  0.
         11    1    3    3    0    0  0.13766624591E+03  0.30182388374E+02  0.85262994685E+02  0.16472021762E+03  0.00000000000E+00 0. -1.
        -11    1    3    3    0    0  0.66643373841E+03  0.15195177642E+03  0.19309882769E+03  0.71028897450E+03  0.00000000000E+00 0.  1.
          4    1    6    6  502    0 -0.20572265013E+02  0.33640576651E+02  0.11134194790E+03  0.11811831292E+03  0.00000000000E+00 0. -1.
          1    1    5    5  503    0 -0.21961583931E+03 -0.86448523409E+02 -0.16217951650E+02  0.23657448305E+03  0.00000000000E+00 0. -1.
         -2    1    5    5    0  503 -0.60570635448E+03 -0.12403177382E+03 -0.11729920783E+03  0.62930372074E+03  0.00000000000E+00 0.  1.
         -3    1    6    6    0  502  0.41794474492E+02 -0.52944442128E+01  0.25385581411E+03  0.25732777462E+03  0.00000000000E+00 0.  1.
<mgrwt>
<rscale>  0 0.20539533E+04</rscale>
<asrwt>0</asrwt>
<pdfrwt beam="1">  1        1 0.20202892E+00 0.20539533E+04</pdfrwt>
<pdfrwt beam="2">  1       -1 0.12356085E+00 0.20539533E+04</pdfrwt>
<totfact> 0.47077240E+00</totfact>
</mgrwt>
</event>
<event>
12    1  0.1495204E-007  0.3146628E+04  0.7818608E-02  0.8203057E-01
          1   -1    0    0  501    0  0.00000000000E+00  0.00000000000E+00  0.19447936006E+04  0.19447936006E+04  0.00000000000E+00 0. -1.
         -1   -1    0    0    0  501 -0.00000000000E+00 -0.00000000000E+00 -0.12727913859E+04  0.12727913859E+04  0.00000000000E+00 0.  1.
         23    2    1    2    0    0  0.57518118877E+03 -0.11208839242E+04 -0.30750685511E+03  0.12999638076E+04  0.90173519659E+02 0.  0.
        254    2    1    2    0    0 -0.57518118877E+03  0.11208839242E+04  0.97950906972E+03  0.19176211789E+04  0.10633055989E+04 0.  0.
        -24    2    4    4    0    0  0.16682219796E+03  0.72993335945E+03  0.70489311283E+03  0.10315385593E+04  0.81025575325E+02 0.  0.
         24    2    4    4    0    0 -0.74200338673E+03  0.39095056477E+03  0.27461595689E+03  0.88608261959E+03  0.79480280252E+02 0.  0.
         13    1    3    3    0    0  0.33941201012E+01 -0.17198004952E+02  0.50906030154E+01  0.18253921898E+02  0.00000000000E+00 0. -1.
        -13    1    3    3    0    0  0.57178706867E+03 -0.11036859193E+04 -0.31259745813E+03  0.12817098857E+04  0.00000000000E+00 0.  1.
          4    1    6    6  502    0 -0.59854380675E+03  0.32368565266E+03  0.25390541996E+03  0.72628854639E+03  0.00000000000E+00 0. -1.
          1    1    5    5  503    0  0.10294357189E+03  0.58951766986E+03  0.57416700306E+03  0.82933479938E+03  0.00000000000E+00 0. -1.
         -2    1    5    5    0  503  0.63878626067E+02  0.14041568959E+03  0.13072610978E+03  0.20220375992E+03  0.00000000000E+00 0.  1.
         -3    1    6    6    0  502 -0.14345957998E+03  0.67264912106E+02  0.20710536931E+02  0.15979407319E+03  0.00000000000E+00 0.  1.
<mgrwt>
<rscale>  0 0.31466277E+04</rscale>
<asrwt>0</asrwt>
<pdfrwt beam="1">  1        1 0.29919902E+00 0.31466277E+04</pdfrwt>
<pdfrwt beam="2">  1       -1 0.19581406E+00 0.31466277E+04</pdfrwt>
<totfact> 0.43933348E-01</totfact>
</mgrwt>
</event>
<event>
12    1  0.1495204E-007  0.3197787E+04  0.7818608E-02  0.8189402E-01
          1   -1    0    0  501    0  0.00000000000E+00  0.00000000000E+00  0.23533288101E+04  0.23533288101E+04  0.00000000000E+00 0. -1.
         -1   -1    0    0    0  501 -0.00000000000E+00 -0.00000000000E+00 -0.10863165639E+04  0.10863165639E+04  0.00000000000E+00 0.  1.
         23    2    1    2    0    0  0.47898257830E+03  0.60811597879E+03  0.19252121077E+04  0.20770181541E+04  0.91287452856E+02 0.  0.
        254    2    1    2    0    0 -0.47898257830E+03 -0.60811597879E+03 -0.65819986143E+03  0.13626272199E+04  0.90790777553E+03 0.  0.
        -24    2    4    4    0    0 -0.69528433835E+03 -0.65182745606E+03 -0.49496246930E+03  0.10769065979E+04  0.80253541163E+02 0.  0.
         24    2    4    4    0    0  0.21630176005E+03  0.43711477272E+02 -0.16323739214E+03  0.28572062205E+03  0.79326433338E+02 0.  0.
         13    1    3    3    0    0  0.33658428485E+03  0.37976250360E+03  0.11707014079E+04  0.12759507539E+04  0.00000000000E+00 0. -1.
        -13    1    3    3    0    0  0.14239829344E+03  0.22835347519E+03  0.75451069974E+03  0.80106740018E+03  0.00000000000E+00 0.  1.
          2    1    6    6  502    0  0.91860472440E+02  0.29522939696E+02 -0.26015717413E+02  0.99933817688E+02  0.00000000000E+00 0. -1.
          1    1    5    5  503    0 -0.66761558882E+02 -0.36461774270E+02 -0.28235958514E+02  0.81140841014E+02  0.00000000000E+00 0. -1.
         -2    1    5    5    0  503 -0.62852277946E+03 -0.61536568179E+03 -0.46672651078E+03  0.99576575684E+03  0.00000000000E+00 0.  1.
         -1    1    6    6    0  502  0.12444128761E+03  0.14188537577E+02 -0.13722167472E+03  0.18578680436E+03  0.00000000000E+00 0.  1.
<mgrwt>
<rscale>  0 0.31977868E+04</rscale>
<asrwt>0</asrwt>
<pdfrwt beam="1">  1        1 0.36205058E+00 0.31977868E+04</pdfrwt>
<pdfrwt beam="2">  1       -1 0.16712563E+00 0.31977868E+04</pdfrwt>
<totfact> 0.36983407E-01</totfact>
</mgrwt>
</event>
<event>
12    1  0.1495204E-007  0.1945970E+04  0.7818608E-02  0.8632306E-01
         -2   -1    0    0    0  501 -0.00000000000E+00  0.00000000000E+00  0.47100900225E+03  0.47100900225E+03  0.00000000000E+00 0.  1.
          2   -1    0    0  501    0  0.00000000000E+00 -0.00000000000E+00 -0.20099401582E+04  0.20099401582E+04  0.00000000000E+00 0. -1.
         23    2    1    2    0    0 -0.58333001500E+03  0.30848166798E+03 -0.83967632137E+02  0.67249015650E+03  0.98780572246E+02 0.  0.
        254    2    1    2    0    0  0.58333001500E+03 -0.30848166798E+03 -0.14549635239E+04  0.18084590040E+04  0.84744927136E+03 0.  0.
        -24    2    4    4    0    0  0.69512341228E+03 -0.21912477230E+03 -0.62683495052E+03  0.96452119660E+03  0.78529353397E+02 0.  0.
         24    2    4    4    0    0 -0.11179339728E+03 -0.89356895679E+02 -0.82812857333E+03  0.84393780741E+03  0.77147069420E+02 0.  0.
         11    1    3    3    0    0 -0.48504822176E+03  0.22026113603E+03 -0.44117203571E+02  0.53454005756E+03  0.00000000000E+00 0.  1.
        -11    1    3    3    0    0 -0.98281793238E+02  0.88220531958E+02 -0.39850428566E+02  0.13795009894E+03  0.00000000000E+00 0. -1.
          2    1    6    6  502    0 -0.22807430444E+02 -0.66894857439E+02 -0.37725438840E+03  0.38381763169E+03  0.00000000000E+00 0. -1.
          1    1    5    5  503    0  0.75881782757E+02 -0.71713864881E+01 -0.43342586011E+02  0.87681545952E+02  0.00000000000E+00 0. -1.
         -2    1    5    5    0  503  0.61924162953E+03 -0.21195338582E+03 -0.58349236451E+03  0.87683965064E+03  0.00000000000E+00 0.  1.
         -1    1    6    6    0  502 -0.88985966837E+02 -0.22462038240E+02 -0.45087418494E+03  0.46012017571E+03  0.00000000000E+00 0.  1.
<mgrwt>
<rscale>  0 0.19459701E+04</rscale>
<asrwt>0</asrwt>
<pdfrwt beam="1">  1        2 0.30922157E+00 0.19459701E+04</pdfrwt>
<pdfrwt beam="2">  1       -2 0.72462922E-01 0.19459701E+04</pdfrwt>
<totfact> 0.10605415E+01</totfact>
</mgrwt>
</event>
<event>
12    1  0.1495204E-007  0.1748421E+04  0.7818608E-02  0.8734220E-01
          2   -1    0    0  501    0  0.00000000000E+00  0.00000000000E+00  0.44042875624E+04  0.44042875624E+04  0.00000000000E+00 0. -1.
         -2   -1    0    0    0  501 -0.00000000000E+00 -0.00000000000E+00 -0.17352270181E+03  0.17352270181E+03  0.00000000000E+00 0.  1.
         23    2    1    2    0    0 -0.53230287281E+03  0.33580612959E+03  0.15904018280E+04  0.17128197792E+04  0.90892884086E+02 0.  0.
        254    2    1    2    0    0  0.53230287281E+03 -0.33580612959E+03  0.26403630326E+04  0.28649904850E+04  0.91681046586E+03 0.  0.
        -24    2    4    4    0    0  0.36823919677E+03  0.23319685385E+03  0.16478317234E+04  0.17064735378E+04  0.81985780309E+02 0.  0.
         24    2    4    4    0    0  0.16406367604E+03 -0.56900298344E+03  0.99253130919E+03  0.11585169471E+04  0.79761094040E+02 0.  0.
         13    1    3    3    0    0 -0.14510347683E+03  0.66052895821E+02  0.31797422390E+03  0.35570438724E+03  0.00000000000E+00 0. -1.
        -13    1    3    3    0    0 -0.38719939598E+03  0.26975323377E+03  0.12724276041E+04  0.13571153920E+04  0.00000000000E+00 0.  1.
          4    1    6    6  502    0  0.55923109812E+02 -0.27457440046E+03  0.40474682259E+03  0.49227887015E+03  0.00000000000E+00 0. -1.
          3    1    5    5  503    0 -0.39738425074E+00  0.15217368788E+02  0.60115811712E+02  0.62013200570E+02  0.00000000000E+00 0. -1.
         -4    1    5    5    0  503  0.36863658102E+03  0.21797948506E+03  0.15877159116E+04  0.16444603373E+04  0.00000000000E+00 0.  1.
         -3    1    6    6    0  502  0.10814056623E+03 -0.29442858298E+03  0.58778448660E+03  0.66623807699E+03  0.00000000000E+00 0.  1.
<mgrwt>
<rscale>  0 0.17484209E+04</rscale>
<asrwt>0</asrwt>
<pdfrwt beam="1">  1        2 0.67758262E+00 0.17484209E+04</pdfrwt>
<pdfrwt beam="2">  1       -2 0.26695804E-01 0.17484209E+04</pdfrwt>
<totfact> 0.18766715E+00</totfact>
</mgrwt>
</event>
<event>
12    1  0.1495204E-007  0.2365185E+04  0.7818608E-02  0.8452654E-01
         -1   -1    0    0    0  501 -0.00000000000E+00  0.00000000000E+00  0.59723205904E+03  0.59723205904E+03  0.00000000000E+00 0.  1.
          1   -1    0    0  501    0  0.00000000000E+00 -0.00000000000E+00 -0.23416769238E+04  0.23416769238E+04  0.00000000000E+00 0. -1.
         23    2    1    2    0    0  0.47104035343E+03 -0.84482596733E+03 -0.10712219295E+04  0.14462736812E+04  0.92634815543E+02 0.  0.
        254    2    1    2    0    0 -0.47104035343E+03  0.84482596733E+03 -0.67322293523E+03  0.14926353016E+04  0.91603553069E+03 0.  0.
        -24    2    4    4    0    0 -0.20055663775E+03  0.87608070195E+03 -0.77669083199E+03  0.11907204432E+04  0.82620602816E+02 0.  0.
         24    2    4    4    0    0 -0.27048371567E+03 -0.31254734620E+02  0.10346789677E+03  0.30191485844E+03  0.79427181789E+02 0.  0.
         13    1    3    3    0    0  0.33226394898E+03 -0.59290249549E+03 -0.81376524597E+03  0.10602577878E+04  0.00000000000E+00 0.  1.
        -13    1    3    3    0    0  0.13877640445E+03 -0.25192347184E+03 -0.25745668354E+03  0.38601589345E+03  0.00000000000E+00 0. -1.
          4    1    6    6  502    0 -0.93824038048E+01 -0.17074876986E+02  0.18770232457E+02  0.27053697561E+02  0.00000000000E+00 0. -1.
          3    1    5    5  503    0 -0.86994813208E+01  0.18782345844E+03 -0.15945983450E+03  0.24653756577E+03  0.00000000000E+00 0. -1.
         -4    1    5    5    0  503 -0.19185715643E+03  0.68825724351E+03 -0.61723099749E+03  0.94418287740E+03  0.00000000000E+00 0.  1.
         -3    1    6    6    0  502 -0.26110131187E+03 -0.14179857634E+02  0.84697664309E+02  0.27486116088E+03  0.00000000000E+00 0.  1.
<mgrwt>
<rscale>  0 0.23651846E+04</rscale>
<asrwt>0</asrwt>
<pdfrwt beam="1">  1        1 0.36025798E+00 0.23651846E+04</pdfrwt>
<pdfrwt beam="2">  1       -1 0.91881856E-01 0.23651846E+04</pdfrwt>
<totfact> 0.18066282E+00</totfact>
</mgrwt>
</event>
<event>
12    1  0.1495204E-007  0.1317379E+04  0.7818608E-02  0.9015896E-01
          2   -1    0    0  501    0  0.00000000000E+00  0.00000000000E+00  0.56034382854E+03  0.56034382854E+03  0.00000000000E+00 0. -1.
         -2   -1    0    0    0  501 -0.00000000000E+00 -0.00000000000E+00 -0.77429540140E+03  0.77429540140E+03  0.00000000000E+00 0.  1.
         23    2    1    2    0    0  0.19907314758E+03  0.26672524284E+03  0.36284860266E+02  0.35222896633E+03  0.10943573631E+03 0.  0.
        254    2    1    2    0    0 -0.19907314758E+03 -0.26672524284E+03 -0.25023643313E+03  0.98241026360E+03  0.88979726922E+03 0.  0.
        -24    2    4    4    0    0 -0.68233723412E+02 -0.32222274349E+03  0.27236798787E+03  0.43446201688E+03  0.78035798579E+02 0.  0.
         24    2    4    4    0    0 -0.13083942417E+03  0.55497500653E+02 -0.52260442100E+03  0.54794824672E+03  0.83264474690E+02 0.  0.
         11    1    3    3    0    0  0.43406688217E+02  0.32928210151E+02  0.45818476819E+02  0.71188063772E+02  0.00000000000E+00 0. -1.
        -11    1    3    3    0    0  0.15566645937E+03  0.23379703269E+03 -0.95336165527E+01  0.28104090256E+03  0.00000000000E+00 0.  1.
          4    1    6    6  502    0 -0.85596302944E+02  0.62348977333E+02 -0.44868000998E+03  0.46100745483E+03  0.00000000000E+00 0. -1.
          3    1    5    5  503    0 -0.34218146654E+02 -0.14948853209E+03  0.17716204031E+03  0.23431622077E+03  0.00000000000E+00 0. -1.
         -4    1    5    5    0  503 -0.34015576758E+02 -0.17273421140E+03  0.95205947559E+02  0.20014579611E+03  0.00000000000E+00 0.  1.
         -3    1    6    6    0  502 -0.45243121228E+02 -0.68514766802E+01 -0.73924411021E+02  0.86940791899E+02  0.00000000000E+00 0.  1.
<mgrwt>
<rscale>  0 0.13173787E+04</rscale>
<asrwt>0</asrwt>
<pdfrwt beam="1">  1        2 0.86206744E-01 0.13173787E+04</pdfrwt>
<pdfrwt beam="2">  1       -2 0.11912237E+00 0.13173787E+04</pdfrwt>
<totfact> 0.28500317E+01</totfact>
</mgrwt>
</event>
<event>
12    1  0.1495204E-007  0.2141776E+04  0.7818608E-02  0.8543061E-01
          1   -1    0    0  501    0  0.00000000000E+00  0.00000000000E+00  0.11078520069E+04  0.11078520069E+04  0.00000000000E+00 0. -1.
         -1   -1    0    0    0  501 -0.00000000000E+00 -0.00000000000E+00 -0.10351577050E+04  0.10351577050E+04  0.00000000000E+00 0.  1.
         23    2    1    2    0    0  0.60773515757E+03 -0.58749612653E+03 -0.22388042290E+03  0.87903060075E+03  0.89881215258E+02 0.  0.
        254    2    1    2    0    0 -0.60773515757E+03  0.58749612653E+03  0.29657472477E+03  0.12639791112E+04  0.89173589458E+03 0.  0.
        -24    2    4    4    0    0 -0.62861219090E+03  0.69707182173E+03  0.46258381207E+01  0.94169002277E+03  0.75473766355E+02 0.  0.
         24    2    4    4    0    0  0.20877033333E+02 -0.10957569520E+03  0.29194888665E+03  0.32228908841E+03  0.78698288372E+02 0.  0.
         13    1    3    3    0    0  0.51396296123E+03 -0.45915941487E+03 -0.20460047275E+03  0.71892047351E+03  0.00000000000E+00 0.  1.
        -13    1    3    3    0    0  0.93772196339E+02 -0.12833671167E+03 -0.19279950150E+02  0.16011012724E+03  0.00000000000E+00 0. -1.
          2    1    6    6  502    0  0.50429525730E+02 -0.60951861407E+02  0.15597452165E+03  0.17488944473E+03  0.00000000000E+00 0. -1.
          1    1    5    5  503    0 -0.58324031365E+03  0.61305742425E+03  0.21878497661E+01  0.84617578291E+03  0.00000000000E+00 0. -1.
         -2    1    5    5    0  503 -0.45371877252E+02  0.84014397479E+02  0.24379883546E+01  0.95514239861E+02  0.00000000000E+00 0.  1.
         -1    1    6    6    0  502 -0.29552492397E+02 -0.48623833790E+02  0.13597436500E+03  0.14739964367E+03  0.00000000000E+00 0.  1.
<mgrwt>
<rscale>  0 0.21417764E+04</rscale>
<asrwt>0</asrwt>
<pdfrwt beam="1">  1        1 0.17043877E+00 0.21417764E+04</pdfrwt>
<pdfrwt beam="2">  1       -1 0.15925503E+00 0.21417764E+04</pdfrwt>
<totfact> 0.33935277E+00</totfact>
</mgrwt>
</event>
<event>
12    1  0.1495204E-007  0.2192508E+04  0.7818608E-02  0.8521553E-01
         -1   -1    0    0    0  501 -0.00000000000E+00  0.00000000000E+00  0.68396937972E+03  0.68396937972E+03  0.00000000000E+00 0.  1.
          1   -1    0    0  501    0  0.00000000000E+00 -0.00000000000E+00 -0.17570561622E+04  0.17570561622E+04  0.00000000000E+00 0. -1.
         23    2    1    2    0    0  0.59594110699E+03  0.68633889425E+03 -0.46113313965E+03  0.10232231983E+04  0.90194569307E+02 0.  0.
        254    2    1    2    0    0 -0.59594110699E+03 -0.68633889425E+03 -0.61195364287E+03  0.14178023436E+04  0.89970514271E+03 0.  0.
        -24    2    4    4    0    0 -0.23478216862E+03 -0.83717928908E+03 -0.48818503717E+03  0.10005923699E+04  0.82877207113E+02 0.  0.
         24    2    4    4    0    0 -0.36115893837E+03  0.15084039483E+03 -0.12376860571E+03  0.41720997372E+03  0.74544556684E+02 0.  0.
         13    1    3    3    0    0  0.81208522938E+02  0.10590871136E+03 -0.10390626030E+03  0.16913896733E+03  0.00000000000E+00 0.  1.
        -13    1    3    3    0    0  0.51473258405E+03  0.58043018289E+03 -0.35722687936E+03  0.85408423100E+03  0.00000000000E+00 0. -1.
          2    1    6    6  502    0 -0.42652687755E+02  0.30355457224E+02 -0.41693043493E+02  0.66925446818E+02  0.00000000000E+00 0. -1.
          1    1    5    5  503    0 -0.85021924217E+02 -0.30381717188E+03 -0.22340809028E+03  0.38658087941E+03  0.00000000000E+00 0. -1.
         -2    1    5    5    0  503 -0.14976024440E+03 -0.53336211720E+03 -0.26477694689E+03  0.61401149051E+03  0.00000000000E+00 0.  1.
         -1    1    6    6    0  502 -0.31850625062E+03  0.12048493760E+03 -0.82075562214E+02  0.35028452690E+03  0.00000000000E+00 0.  1.
<mgrwt>
<rscale>  0 0.21925078E+04</rscale>
<asrwt>0</asrwt>
<pdfrwt beam="1">  1        1 0.27031632E+00 0.21925078E+04</pdfrwt>
<pdfrwt beam="2">  1       -1 0.10522606E+00 0.21925078E+04</pdfrwt>
<totfact> 0.33672583E+00</totfact>
</mgrwt>
</event>
<event>
12    1  0.1495204E-007  0.1862761E+04  0.7818608E-02  0.8673618E-01
          1   -1    0    0  501    0  0.00000000000E+00  0.00000000000E+00  0.23015732199E+04  0.23015732199E+04  0.00000000000E+00 0. -1.
         -1   -1    0    0    0  501 -0.00000000000E+00 -0.00000000000E+00 -0.37690281858E+03  0.37690281858E+03  0.00000000000E+00 0.  1.
         23    2    1    2    0    0  0.51034707121E+03  0.38723364415E+03  0.11811334302E+04  0.13466234704E+04  0.88963830069E+02 0.  0.
        254    2    1    2    0    0 -0.51034707121E+03 -0.38723364415E+03  0.74353697113E+03  0.13318525680E+04  0.90032216857E+03 0.  0.
        -24    2    4    4    0    0 -0.37167258353E+03  0.24410359898E+03  0.27201575724E+03  0.52769082059E+03  0.82085038639E+02 0.  0.
         24    2    4    4    0    0 -0.13867448768E+03 -0.63133724313E+03  0.47152121389E+03  0.80416174741E+03  0.80786959059E+02 0.  0.
         11    1    3    3    0    0  0.22241408853E+03  0.13201024275E+03  0.40867630883E+03  0.48364352199E+03  0.00000000000E+00 0.  1.
        -11    1    3    3    0    0  0.28793298268E+03  0.25522340140E+03  0.77245712133E+03  0.86297994845E+03  0.00000000000E+00 0. -1.
          2    1    6    6  502    0 -0.57381044715E+02 -0.18814330984E+03  0.18608526021E+03  0.27077336169E+03  0.00000000000E+00 0. -1.
          3    1    5    5  503    0 -0.11592662614E+03  0.12281066952E+03  0.11007202087E+03  0.20158693652E+03  0.00000000000E+00 0. -1.
         -4    1    5    5    0  503 -0.25574595739E+03  0.12129292946E+03  0.16194373637E+03  0.32610388408E+03  0.00000000000E+00 0.  1.
         -1    1    6    6    0  502 -0.81293442963E+02 -0.44319393329E+03  0.28543595367E+03  0.53338838573E+03  0.00000000000E+00 0.  1.
<mgrwt>
<rscale>  0 0.18627608E+04</rscale>
<asrwt>0</asrwt>
<pdfrwt beam="1">  1        1 0.35408818E+00 0.18627608E+04</pdfrwt>
<pdfrwt beam="2">  1       -1 0.57985050E-01 0.18627608E+04</pdfrwt>
<totfact> 0.52526339E+00</totfact>
</mgrwt>
</event>
<event>
12    1  0.1495204E-007  0.2184915E+04  0.7818608E-02  0.8524733E-01
          1   -1    0    0  501    0  0.00000000000E+00  0.00000000000E+00  0.10055395454E+04  0.10055395454E+04  0.00000000000E+00 0. -1.
         -1   -1    0    0    0  501 -0.00000000000E+00 -0.00000000000E+00 -0.11868885827E+04  0.11868885827E+04  0.00000000000E+00 0.  1.
         23    2    1    2    0    0  0.42611872350E+03  0.79862409007E+03 -0.17210546986E+03  0.92626319828E+03  0.94686936678E+02 0.  0.
        254    2    1    2    0    0 -0.42611872350E+03 -0.79862409007E+03 -0.92435675202E+01  0.12661649298E+04  0.88527429774E+03 0.  0.
        -24    2    4    4    0    0 -0.40276620123E+03 -0.94077636180E+03 -0.16516075861E+03  0.10396764645E+04  0.79801621551E+02 0.  0.
         24    2    4    4    0    0 -0.23352522270E+02  0.14215227173E+03  0.15591719109E+03  0.22648846537E+03  0.78957240432E+02 0.  0.
         13    1    3    3    0    0  0.41844631335E+03  0.78635779804E+03 -0.18143013770E+03  0.90905049286E+03  0.00000000000E+00 0.  1.
        -13    1    3    3    0    0  0.76724101574E+01  0.12266292027E+02  0.93246678431E+01  0.17212705427E+02  0.00000000000E+00 0. -1.
          4    1    6    6  502    0  0.19391668931E+02  0.98896476508E+02  0.11639278062E+03  0.15396047957E+03  0.00000000000E+00 0. -1.
          3    1    5    5  503    0 -0.23042462154E+03 -0.43934151283E+03 -0.71017661336E+02  0.50115863689E+03  0.00000000000E+00 0. -1.
         -4    1    5    5    0  503 -0.17234157969E+03 -0.50143484897E+03 -0.94143097269E+02  0.53851782757E+03  0.00000000000E+00 0.  1.
         -3    1    6    6    0  502 -0.42744191200E+02  0.43255795220E+02  0.39524410464E+02  0.72527985799E+02  0.00000000000E+00 0.  1.
<mgrwt>
<rscale>  0 0.21849150E+04</rscale>
<asrwt>0</asrwt>
<pdfrwt beam="1">  1        1 0.15469839E+00 0.21849150E+04</pdfrwt>
<pdfrwt beam="2">  1       -1 0.18259824E+00 0.21849150E+04</pdfrwt>
<totfact> 0.27267385E+00</totfact>
</mgrwt>
</event>
<event>
12    1  0.1495204E-007  0.1584175E+04  0.7818608E-02  0.8830330E-01
          2   -1    0    0  501    0  0.00000000000E+00  0.00000000000E+00  0.10780325058E+04  0.10780325058E+04  0.00000000000E+00 0. -1.
         -2   -1    0    0    0  501 -0.00000000000E+00 -0.00000000000E+00 -0.58198831501E+03  0.58198831501E+03  0.00000000000E+00 0.  1.
         23    2    1    2    0    0  0.24054794804E+03  0.41974835485E+02  0.66179663334E+03  0.71188394140E+03  0.95805845389E+02 0.  0.
        254    2    1    2    0    0 -0.24054794804E+03 -0.41974835485E+02 -0.16575244259E+03  0.94813687937E+03  0.90103522000E+03 0.  0.
        -24    2    4    4    0    0 -0.33349592289E+03 -0.39691710316E+03 -0.22063595895E+03  0.56879668256E+03  0.78017448979E+02 0.  0.
         24    2    4    4    0    0  0.92947974849E+02  0.35494226767E+03  0.54883516364E+02  0.37934019681E+03  0.79141930331E+02 0.  0.
         11    1    3    3    0    0  0.20188394501E+03  0.63012714357E+02  0.59865705243E+03  0.63491573917E+03  0.00000000000E+00 0. -1.
        -11    1    3    3    0    0  0.38664003028E+02 -0.21037878872E+02  0.63139580910E+02  0.76968202233E+02  0.00000000000E+00 0.  1.
          4    1    6    6  502    0  0.12435959287E+02  0.16477441050E+03 -0.15820051803E+01  0.16525060417E+03  0.00000000000E+00 0. -1.
          3    1    5    5  503    0 -0.22601557804E+02 -0.67517756480E+02 -0.25914941619E+02  0.75769796452E+02  0.00000000000E+00 0. -1.
         -4    1    5    5    0  503 -0.31089436509E+03 -0.32939934668E+03 -0.19472101733E+03  0.49302688611E+03  0.00000000000E+00 0.  1.
         -3    1    6    6    0  502  0.80512015563E+02  0.19016785718E+03  0.56465521544E+02  0.21408959264E+03  0.00000000000E+00 0.  1.
<mgrwt>
<rscale>  0 0.15841746E+04</rscale>
<asrwt>0</asrwt>
<pdfrwt beam="1">  1        2 0.16585115E+00 0.15841746E+04</pdfrwt>
<pdfrwt beam="2">  1       -2 0.89536664E-01 0.15841746E+04</pdfrwt>
<totfact> 0.23087783E+01</totfact>
</mgrwt>
</event>
<event>
12    1  0.1495204E-007  0.1992584E+04  0.7818608E-02  0.8610096E-01
          3   -1    0    0  501    0  0.00000000000E+00  0.00000000000E+00  0.19583095933E+04  0.19583095933E+04  0.00000000000E+00 0. -1.
         -3   -1    0    0    0  501 -0.00000000000E+00 -0.00000000000E+00 -0.50686444717E+03  0.50686444717E+03  0.00000000000E+00 0.  1.
         23    2    1    2    0    0 -0.26103932611E+02  0.84654998266E+02  0.15339828415E+04  0.15391306893E+04  0.89286263629E+02 0.  0.
        254    2    1    2    0    0  0.26103932611E+02 -0.84654998266E+02 -0.82537695315E+02  0.92604335117E+03  0.91809364068E+03 0.  0.
        -24    2    4    4    0    0  0.26847825232E+03 -0.40066485548E+03 -0.15835101498E+03  0.51356162323E+03  0.77830575808E+02 0.  0.
         24    2    4    4    0    0 -0.24237431971E+03  0.31600985721E+03  0.75813319663E+02  0.41248172793E+03  0.76065601489E+02 0.  0.
         13    1    3    3    0    0 -0.82441950084E+01  0.78452582213E+02  0.14767619095E+04  0.14788673070E+04  0.00000000000E+00 0. -1.
        -13    1    3    3    0    0 -0.17859737602E+02  0.62024160527E+01  0.57220931969E+02  0.60263382311E+02  0.00000000000E+00 0.  1.
          2    1    6    6  502    0 -0.10496985691E+03  0.80234378450E+02  0.15745297801E+02  0.13305690793E+03  0.00000000000E+00 0. -1.
          3    1    5    5  503    0  0.15007674253E+03 -0.18244920374E+03 -0.44345854600E+02  0.24036908165E+03  0.00000000000E+00 0. -1.
         -4    1    5    5    0  503  0.11840150979E+03 -0.21821565174E+03 -0.11400516038E+03  0.27319254159E+03  0.00000000000E+00 0.  1.
         -1    1    6    6    0  502 -0.13740446280E+03  0.23577547877E+03  0.60068021862E+02  0.27942482000E+03  0.00000000000E+00 0.  1.
<mgrwt>
<rscale>  0 0.19925838E+04</rscale>
<asrwt>0</asrwt>
<pdfrwt beam="1">  1        3 0.30127839E+00 0.19925838E+04</pdfrwt>
<pdfrwt beam="2">  1       -3 0.77979147E-01 0.19925838E+04</pdfrwt>
<totfact> 0.14250990E-01</totfact>
</mgrwt>
</event>
<event>
12    1  0.1495204E-007  0.2085425E+04  0.7818608E-02  0.8567691E-01
          2   -1    0    0  501    0  0.00000000000E+00  0.00000000000E+00  0.11202023306E+04  0.11202023306E+04  0.00000000000E+00 0. -1.
         -2   -1    0    0    0  501 -0.00000000000E+00 -0.00000000000E+00 -0.97058288167E+03  0.97058288167E+03  0.00000000000E+00 0.  1.
         23    2    1    2    0    0  0.23815117604E+02  0.83772891092E+03 -0.73461026076E+02  0.84692073472E+03  0.97577254103E+02 0.  0.
        254    2    1    2    0    0 -0.23815117604E+02 -0.83772891092E+03  0.22308047503E+03  0.12438644776E+04  0.89167093270E+03 0.  0.
        -24    2    4    4    0    0  0.29181097710E+03 -0.73457320928E+03 -0.64078258644E+02  0.79712409055E+03  0.80928031954E+02 0.  0.
         24    2    4    4    0    0 -0.31562609470E+03 -0.10315570164E+03  0.28715873367E+03  0.44674038703E+03  0.82800390330E+02 0.  0.
         11    1    3    3    0    0  0.22243948052E+02  0.84036133133E+03 -0.73407445985E+02  0.84385461636E+03  0.00000000000E+00 0. -1.
        -11    1    3    3    0    0  0.15711695521E+01 -0.26324204082E+01 -0.53580090094E-01  0.30661183593E+01  0.00000000000E+00 0.  1.
          4    1    6    6  502    0 -0.58959344939E+02 -0.10060840394E+01  0.19540468801E+02  0.62121224084E+02  0.00000000000E+00 0. -1.
          1    1    5    5  503    0  0.50355883637E+02 -0.79172526655E+02 -0.27180314499E+02  0.97687120390E+02  0.00000000000E+00 0. -1.
         -2    1    5    5    0  503  0.24145509346E+03 -0.65540068262E+03 -0.36897944145E+02  0.69943697016E+03  0.00000000000E+00 0.  1.
         -3    1    6    6    0  502 -0.25666674977E+03 -0.10214961760E+03  0.26761826487E+03  0.38461916295E+03  0.00000000000E+00 0.  1.
<mgrwt>
<rscale>  0 0.20854249E+04</rscale>
<asrwt>0</asrwt>
<pdfrwt beam="1">  1        2 0.17233882E+00 0.20854249E+04</pdfrwt>
<pdfrwt beam="2">  1       -2 0.14932044E+00 0.20854249E+04</pdfrwt>
<totfact> 0.59235462E+00</totfact>
</mgrwt>
</event>
<event>
12    1  0.1495204E-007  0.2417132E+04  0.7818608E-02  0.8433117E-01
          1   -1    0    0  501    0  0.00000000000E+00  0.00000000000E+00  0.42120350177E+04  0.42120350177E+04  0.00000000000E+00 0. -1.
         -1   -1    0    0    0  501 -0.00000000000E+00 -0.00000000000E+00 -0.34677581759E+03  0.34677581759E+03  0.00000000000E+00 0.  1.
         23    2    1    2    0    0 -0.67166992837E+03 -0.52433741841E+03  0.54168618301E+03  0.10141188365E+04  0.94566763046E+02 0.  0.
        254    2    1    2    0    0  0.67166992837E+03  0.52433741841E+03  0.33235730171E+04  0.35446919988E+04  0.89029969405E+03 0.  0.
        -24    2    4    4    0    0  0.38983785994E+03  0.25731656935E+03  0.29879966828E+04  0.30254553905E+04  0.84087865420E+02 0.  0.
         24    2    4    4    0    0  0.28183206843E+03  0.26702084905E+03  0.33557633432E+03  0.51923660838E+03  0.79156368661E+02 0.  0.
         13    1    3    3    0    0 -0.45818915433E+03 -0.34907517978E+03  0.31321179708E+03  0.65566181231E+03  0.00000000000E+00 0.  1.
        -13    1    3    3    0    0 -0.21348077404E+03 -0.17526223862E+03  0.22847438593E+03  0.35845702420E+03  0.00000000000E+00 0. -1.
          4    1    6    6  502    0  0.28032049030E+03  0.24339965402E+03  0.32462020025E+03  0.49315438077E+03  0.00000000000E+00 0. -1.
          1    1    5    5  503    0  0.25258897670E+03  0.21079695907E+03  0.19968818666E+04  0.20238018031E+04  0.00000000000E+00 0. -1.
         -2    1    5    5    0  503  0.13724888324E+03  0.46519610277E+02  0.99111481624E+03  0.10016535874E+04  0.00000000000E+00 0.  1.
         -3    1    6    6    0  502  0.15115781248E+01  0.23621195033E+02  0.10956134068E+02  0.26082227607E+02  0.00000000000E+00 0.  1.
<mgrwt>
<rscale>  0 0.24171321E+04</rscale>
<asrwt>0</asrwt>
<pdfrwt beam="1">  1        1 0.64800535E+00 0.24171321E+04</pdfrwt>
<pdfrwt beam="2">  1       -1 0.53350129E-01 0.24171321E+04</pdfrwt>
<totfact> 0.19633362E-01</totfact>
</mgrwt>
</event>
<event>
12    1  0.1495204E-007  0.2284532E+04  0.7818608E-02  0.8484045E-01
         -1   -1    0    0    0  501 -0.00000000000E+00  0.00000000000E+00  0.12172775132E+04  0.12172775132E+04  0.00000000000E+00 0.  1.
          1   -1    0    0  501    0  0.00000000000E+00 -0.00000000000E+00 -0.10718770555E+04  0.10718770555E+04  0.00000000000E+00 0. -1.
         23    2    1    2    0    0 -0.48319511358E+03 -0.73808204809E+03  0.44082493638E+03  0.99031402450E+03  0.90291832827E+02 0.  0.
        254    2    1    2    0    0  0.48319511358E+03  0.73808204809E+03 -0.29542447865E+03  0.12988405442E+04  0.90634899971E+03 0.  0.
        -24    2    4    4    0    0  0.69173848303E+03  0.60557665598E+03 -0.23798550635E+02  0.92309251436E+03  0.79424202156E+02 0.  0.
         24    2    4    4    0    0 -0.20854336945E+03  0.13250539211E+03 -0.27162592801E+03  0.37574802988E+03  0.79736574462E+02 0.  0.
         13    1    3    3    0    0 -0.21825949457E+03 -0.40382106140E+03  0.25460636110E+03  0.52491242671E+03  0.00000000000E+00 0.  1.
        -13    1    3    3    0    0 -0.26493561901E+03 -0.33426098669E+03  0.18621857528E+03  0.46540159779E+03  0.00000000000E+00 0. -1.
          4    1    6    6  502    0 -0.15382483677E+02  0.44572507836E+02 -0.43300674785E+02  0.64017792024E+02  0.00000000000E+00 0. -1.
          3    1    5    5  503    0  0.59214249663E+02  0.69211329554E+02 -0.22274341471E+02  0.93769300892E+02  0.00000000000E+00 0. -1.
         -4    1    5    5    0  503  0.63252423337E+03  0.53636532643E+03 -0.15242091636E+01  0.82932321347E+03  0.00000000000E+00 0.  1.
         -3    1    6    6    0  502 -0.19316088577E+03  0.87932884274E+02 -0.22832525323E+03  0.31173023785E+03  0.00000000000E+00 0.  1.
<mgrwt>
<rscale>  0 0.22845322E+04</rscale>
<asrwt>0</asrwt>
<pdfrwt beam="1">  1        1 0.16490416E+00 0.22845322E+04</pdfrwt>
<pdfrwt beam="2">  1       -1 0.18727346E+00 0.22845322E+04</pdfrwt>
<totfact> 0.22260449E+00</totfact>
</mgrwt>
</event>
<event>
12    1  0.1495204E-007  0.1752564E+04  0.7818608E-02  0.8731940E-01
          1   -1    0    0  501    0  0.00000000000E+00  0.00000000000E+00  0.18924549871E+04  0.18924549871E+04  0.00000000000E+00 0. -1.
         -1   -1    0    0    0  501 -0.00000000000E+00 -0.00000000000E+00 -0.40575341355E+03  0.40575341355E+03  0.00000000000E+00 0.  1.
         23    2    1    2    0    0  0.43459544506E+02  0.67336008805E+03  0.75110852012E+03  0.10138356689E+04  0.91630859420E+02 0.  0.
        254    2    1    2    0    0 -0.43459544506E+02 -0.67336008805E+03  0.73559305346E+03  0.12843727318E+04  0.80821632847E+03 0.  0.
        -24    2    4    4    0    0  0.26684932988E+03 -0.67595590029E+03  0.54612767111E+03  0.91277900245E+03  0.82371901561E+02 0.  0.
         24    2    4    4    0    0 -0.31030887439E+03  0.25958122373E+01  0.18946538235E+03  0.37159372931E+03  0.76723091641E+02 0.  0.
         11    1    3    3    0    0  0.31217605897E+02  0.57196761821E+03  0.58430760653E+03  0.81825232921E+03  0.00000000000E+00 0. -1.
        -11    1    3    3    0    0  0.12241938609E+02  0.10139246983E+03  0.16680091359E+03  0.19558333972E+03  0.00000000000E+00 0.  1.
          2    1    6    6  502    0 -0.19719163512E+03 -0.24879785927E+02  0.88768528498E+02  0.21767727571E+03  0.00000000000E+00 0. -1.
          1    1    5    5  503    0  0.23890211350E+03 -0.62946935697E+03  0.47804699392E+03  0.82573289846E+03  0.00000000000E+00 0. -1.
         -2    1    5    5    0  503  0.27947216379E+02 -0.46486543313E+02  0.68080677193E+02  0.87046103989E+02  0.00000000000E+00 0.  1.
         -1    1    6    6    0  502 -0.11311723927E+03  0.27475598164E+02  0.10069685385E+03  0.15391645360E+03  0.00000000000E+00 0.  1.
<mgrwt>
<rscale>  0 0.17525639E+04</rscale>
<asrwt>0</asrwt>
<pdfrwt beam="1">  1        1 0.29114692E+00 0.17525639E+04</pdfrwt>
<pdfrwt beam="2">  1       -1 0.62423603E-01 0.17525639E+04</pdfrwt>
<totfact> 0.86945072E+00</totfact>
</mgrwt>
</event>
<event>
12    1  0.1495204E-007  0.1397900E+04  0.7818608E-02  0.8955340E-01
         -2   -1    0    0    0  501 -0.00000000000E+00  0.00000000000E+00  0.23705478633E+03  0.23705478633E+03  0.00000000000E+00 0.  1.
          2   -1    0    0  501    0  0.00000000000E+00 -0.00000000000E+00 -0.20608349283E+04  0.20608349283E+04  0.00000000000E+00 0. -1.
         23    2    1    2    0    0  0.13657832852E+03 -0.21278389196E+03 -0.24307257246E+02  0.26942950292E+03  0.89837574480E+02 0.  0.
        254    2    1    2    0    0 -0.13657832852E+03  0.21278389196E+03 -0.17994728847E+04  0.20284602117E+04  0.90145301772E+03 0.  0.
        -24    2    4    4    0    0 -0.16296890267E+03 -0.24038184392E+03 -0.13552562659E+04  0.13882840722E+04  0.79188538153E+02 0.  0.
         24    2    4    4    0    0  0.26390574153E+02  0.45316573588E+03 -0.44421661879E+03  0.64017613954E+03  0.80258573665E+02 0.  0.
         11    1    3    3    0    0  0.10650294600E+03 -0.20307305248E+03  0.41084002202E+00  0.22930702332E+03  0.00000000000E+00 0.  1.
        -11    1    3    3    0    0  0.30075382512E+02 -0.97108394752E+01 -0.24718097268E+02  0.40122479598E+02  0.00000000000E+00 0. -1.
          2    1    6    6  502    0  0.96832009839E+01  0.67204740550E+02 -0.11040298072E+03  0.12961118657E+03  0.00000000000E+00 0. -1.
          1    1    5    5  503    0 -0.60578251083E+02 -0.63294808781E+02 -0.57607123856E+03  0.58269548584E+03  0.00000000000E+00 0. -1.
         -2    1    5    5    0  503 -0.10239065159E+03 -0.17708703514E+03 -0.77918502737E+03  0.80558858633E+03  0.00000000000E+00 0.  1.
         -1    1    6    6    0  502  0.16707373169E+02  0.38596099533E+03 -0.33381363808E+03  0.51056495297E+03  0.00000000000E+00 0.  1.
<mgrwt>
<rscale>  0 0.13978995E+04</rscale>
<asrwt>0</asrwt>
<pdfrwt beam="1">  1        2 0.31705151E+00 0.13978995E+04</pdfrwt>
<pdfrwt beam="2">  1       -2 0.36469969E-01 0.13978995E+04</pdfrwt>
<totfact> 0.42615523E+01</totfact>
</mgrwt>
</event>
<event>
12    1  0.1495204E-007  0.3011834E+04  0.7818608E-02  0.8240360E-01
         -2   -1    0    0    0  501 -0.00000000000E+00  0.00000000000E+00  0.68587178520E+03  0.68587178520E+03  0.00000000000E+00 0.  1.
          2   -1    0    0  501    0  0.00000000000E+00 -0.00000000000E+00 -0.33064276844E+04  0.33064276844E+04  0.00000000000E+00 0. -1.
         23    2    1    2    0    0  0.26475649453E+03  0.13448831808E+04 -0.10885474174E+04  0.17527718929E+04  0.92016613375E+02 0.  0.
        254    2    1    2    0    0 -0.26475649453E+03 -0.13448831808E+04 -0.15320084818E+04  0.22395275767E+04  0.88860959207E+03 0.  0.
        -24    2    4    4    0    0 -0.57236712021E+03 -0.10420392567E+04 -0.10570495080E+04  0.15928746974E+04  0.80288271300E+02 0.  0.
         24    2    4    4    0    0  0.30761062568E+03 -0.30284392414E+03 -0.47495897381E+03  0.64665287932E+03  0.78963156667E+02 0.  0.
         13    1    3    3    0    0  0.43849561244E+02  0.27839876505E+03 -0.27056102813E+03  0.39068136166E+03  0.00000000000E+00 0. -1.
        -13    1    3    3    0    0  0.22090693329E+03  0.10664844158E+04 -0.81798638928E+03  0.13620905312E+04  0.00000000000E+00 0.  1.
          2    1    6    6  502    0  0.27203162706E+03 -0.29702901042E+03 -0.43691630264E+03  0.59424178132E+03  0.00000000000E+00 0. -1.
          3    1    5    5  503    0 -0.23385809884E+03 -0.50882037035E+03 -0.50018921840E+03  0.75085087326E+03  0.00000000000E+00 0. -1.
         -4    1    5    5    0  503 -0.33850902137E+03 -0.53321888633E+03 -0.55686028957E+03  0.84202382412E+03  0.00000000000E+00 0.  1.
         -1    1    6    6    0  502  0.35578998614E+02 -0.58149137262E+01 -0.38042671169E+02  0.52411098001E+02  0.00000000000E+00 0.  1.
<mgrwt>
<rscale>  0 0.30118336E+04</rscale>
<asrwt>0</asrwt>
<pdfrwt beam="1">  1        2 0.50868118E+00 0.30118336E+04</pdfrwt>
<pdfrwt beam="2">  1       -2 0.10551874E+00 0.30118336E+04</pdfrwt>
<totfact> 0.68461116E-01</totfact>
</mgrwt>
</event>
<event>
12    1  0.1495204E-007  0.1723709E+04  0.7818608E-02  0.8747957E-01
          2   -1    0    0  501    0  0.00000000000E+00  0.00000000000E+00  0.31243461352E+04  0.31243461352E+04  0.00000000000E+00 0. -1.
         -2   -1    0    0    0  501 -0.00000000000E+00 -0.00000000000E+00 -0.23774346884E+03  0.23774346884E+03  0.00000000000E+00 0.  1.
         23    2    1    2    0    0 -0.60505150852E+03 -0.47064375399E+02  0.13081965221E+04  0.14449256221E+04  0.90163904061E+02 0.  0.
        254    2    1    2    0    0  0.60505150852E+03  0.47064375399E+02  0.15784061442E+04  0.19171639819E+04  0.90324381757E+03 0.  0.
        -24    2    4    4    0    0  0.13210682088E+03 -0.21048637438E+03  0.14021220519E+02  0.26076582054E+03  0.77752765931E+02 0.  0.
         24    2    4    4    0    0  0.47294468764E+03  0.25755074978E+03  0.15643849237E+04  0.16563981614E+04  0.79659357101E+02 0.  0.
         13    1    3    3    0    0 -0.21349065048E+03 -0.15334258100E+02  0.56706072290E+03  0.60611159102E+03  0.00000000000E+00 0. -1.
        -13    1    3    3    0    0 -0.39156085804E+03 -0.31730117299E+02  0.74113579921E+03  0.83881403110E+03  0.00000000000E+00 0.  1.
          2    1    6    6  502    0  0.31376072432E+03  0.18861325017E+03  0.11594160963E+04  0.12158398064E+04  0.00000000000E+00 0. -1.
          3    1    5    5  503    0  0.10265486175E+03 -0.15731048923E+03 -0.23538066421E+02  0.18931099079E+03  0.00000000000E+00 0. -1.
         -4    1    5    5    0  503  0.29451959132E+02 -0.53175885157E+02  0.37559286941E+02  0.71454829749E+02  0.00000000000E+00 0.  1.
         -1    1    6    6    0  502  0.15918396331E+03  0.68937499612E+02  0.40496882736E+03  0.44055835500E+03  0.00000000000E+00 0.  1.
<mgrwt>
<rscale>  0 0.17237087E+04</rscale>
<asrwt>0</asrwt>
<pdfrwt beam="1">  1        2 0.48066861E+00 0.17237087E+04</pdfrwt>
<pdfrwt beam="2">  1       -2 0.36575921E-01 0.17237087E+04</pdfrwt>
<totfact> 0.97600958E+00</totfact>
</mgrwt>
</event>
<event>
12    1  0.1495204E-007  0.1935602E+04  0.7818608E-02  0.8637335E-01
          2   -1    0    0  501    0  0.00000000000E+00  0.00000000000E+00  0.24243452865E+04  0.24243452865E+04  0.00000000000E+00 0. -1.
         -2   -1    0    0    0  501 -0.00000000000E+00 -0.00000000000E+00 -0.38634714673E+03  0.38634714673E+03  0.00000000000E+00 0.  1.
         23    2    1    2    0    0 -0.60520683046E+03 -0.13300638892E+02  0.14645556421E+04  0.15872625822E+04  0.89593868845E+02 0.  0.
        254    2    1    2    0    0  0.60520683046E+03  0.13300638892E+02  0.57344249772E+03  0.12234298511E+04  0.89526090484E+03 0.  0.
        -24    2    4    4    0    0  0.65013417966E+03  0.33999499188E+03  0.35096935832E+03  0.81788782158E+03  0.86544509672E+02 0.  0.
         24    2    4    4    0    0 -0.44927349194E+02 -0.32669435298E+03  0.22247313940E+03  0.40554202951E+03  0.78882019310E+02 0.  0.
         11    1    3    3    0    0 -0.19932652729E+03 -0.15469261932E+02  0.59384748268E+03  0.62659811301E+03  0.00000000000E+00 0. -1.
        -11    1    3    3    0    0 -0.40588030318E+03  0.21686230392E+01  0.87070815940E+03  0.96066446915E+03  0.00000000000E+00 0.  1.
          2    1    6    6  502    0  0.13284054754E+02 -0.55716784965E+02  0.65520807468E+02  0.87027595903E+02  0.00000000000E+00 0. -1.
          3    1    5    5  503    0  0.34616412981E+02  0.13927463352E+02  0.41133605688E+02  0.55535968525E+02  0.00000000000E+00 0. -1.
         -4    1    5    5    0  503  0.61551776667E+03  0.32606752852E+03  0.30983575264E+03  0.76235185306E+03  0.00000000000E+00 0.  1.
         -1    1    6    6    0  502 -0.58211403948E+02 -0.27097756802E+03  0.15695233193E+03  0.31851443361E+03  0.00000000000E+00 0.  1.
<mgrwt>
<rscale>  0 0.19356021E+04</rscale>
<asrwt>0</asrwt>
<pdfrwt beam="1">  1        2 0.37297619E+00 0.19356021E+04</pdfrwt>
<pdfrwt beam="2">  1       -2 0.59438024E-01 0.19356021E+04</pdfrwt>
<totfact> 0.95032254E+00</totfact>
</mgrwt>
</event>
<event>
12    1  0.1495204E-007  0.1132033E+04  0.7818608E-02  0.9174520E-01
          2   -1    0    0  501    0  0.00000000000E+00  0.00000000000E+00  0.95037475071E+03  0.95037475071E+03  0.00000000000E+00 0. -1.
         -2   -1    0    0    0  501 -0.00000000000E+00 -0.00000000000E+00 -0.33710382101E+03  0.33710382101E+03  0.00000000000E+00 0.  1.
         23    2    1    2    0    0 -0.51031268983E+01 -0.13884048701E+03 -0.37480603885E+02  0.17012460357E+03  0.90746142259E+02 0.  0.
        254    2    1    2    0    0  0.51031268983E+01  0.13884048701E+03  0.65075153358E+03  0.11173539682E+04  0.89760771440E+03 0.  0.
        -24    2    4    4    0    0  0.22557076083E+03  0.18117985877E+03 -0.11104189223E+03  0.31917302179E+03  0.76372813528E+02 0.  0.
         24    2    4    4    0    0 -0.22046763393E+03 -0.42339371766E+02  0.76179342581E+03  0.79818094636E+03  0.79780947013E+02 0.  0.
         11    1    3    3    0    0 -0.21563689682E+02 -0.68958590218E+02 -0.61018459475E+02  0.94570250471E+02  0.00000000000E+00 0.  1.
        -11    1    3    3    0    0  0.16460562783E+02 -0.69881896790E+02  0.23537855590E+02  0.75554353097E+02  0.00000000000E+00 0. -1.
          2    1    6    6  502    0 -0.15306550061E+03 -0.49081667701E+02  0.62762826357E+03  0.64788524818E+03  0.00000000000E+00 0. -1.
          3    1    5    5  503    0  0.18542048737E+03  0.17956025279E+03 -0.10448047692E+03  0.27845791706E+03  0.00000000000E+00 0. -1.
         -4    1    5    5    0  503  0.40150273460E+02  0.16196059830E+01 -0.65614153116E+01  0.40715104732E+02  0.00000000000E+00 0.  1.
         -3    1    6    6    0  502 -0.67402133319E+02  0.67422959354E+01  0.13416516225E+03  0.15029569818E+03  0.00000000000E+00 0.  1.
<mgrwt>
<rscale>  0 0.11320335E+04</rscale>
<asrwt>0</asrwt>
<pdfrwt beam="1">  1        2 0.14621150E+00 0.11320335E+04</pdfrwt>
<pdfrwt beam="2">  1       -2 0.51862127E-01 0.11320335E+04</pdfrwt>
<totfact> 0.94398199E+01</totfact>
</mgrwt>
</event>
<event>
12    1  0.1495204E-007  0.1334649E+04  0.7818608E-02  0.9002531E-01
          1   -1    0    0  501    0  0.00000000000E+00  0.00000000000E+00  0.16444914773E+04  0.16444914773E+04  0.00000000000E+00 0. -1.
         -1   -1    0    0    0  501 -0.00000000000E+00 -0.00000000000E+00 -0.27079615831E+03  0.27079615831E+03  0.00000000000E+00 0.  1.
         23    2    1    2    0    0 -0.33908124953E+03  0.82075775468E+02  0.29379428547E+03  0.46484856690E+03  0.89758460720E+02 0.  0.
        254    2    1    2    0    0  0.33908124953E+03 -0.82075775468E+02  0.10799010336E+04  0.14504390687E+04  0.90325783869E+03 0.  0.
        -24    2    4    4    0    0  0.30293133929E+03  0.37265235571E+03  0.68966197194E+03  0.84416678172E+03  0.79666462709E+02 0.  0.
         24    2    4    4    0    0  0.36149910239E+02 -0.45472813118E+03  0.39023906162E+03  0.60627228702E+03  0.84823767288E+02 0.  0.
         13    1    3    3    0    0 -0.14345938267E+03 -0.28818405036E+01  0.87129256506E+02  0.16787020825E+03  0.00000000000E+00 0.  1.
        -13    1    3    3    0    0 -0.19562186687E+03  0.84957615971E+02  0.20666502896E+03  0.29697835865E+03  0.00000000000E+00 0. -1.
          4    1    6    6  502    0  0.24690627330E+02 -0.44300017211E+03  0.35801781303E+03  0.57011887709E+03  0.00000000000E+00 0. -1.
          1    1    5    5  503    0  0.30659418244E+03  0.35911983838E+03  0.67603939548E+03  0.82461889093E+03  0.00000000000E+00 0. -1.
         -2    1    5    5    0  503 -0.36628431496E+01  0.13532517332E+02  0.13622576452E+02  0.19547890794E+02  0.00000000000E+00 0.  1.
         -3    1    6    6    0  502  0.11459282909E+02 -0.11727959069E+02  0.32221248594E+02  0.36153409932E+02  0.00000000000E+00 0.  1.
<mgrwt>
<rscale>  0 0.13346490E+04</rscale>
<asrwt>0</asrwt>
<pdfrwt beam="1">  1        1 0.25299868E+00 0.13346490E+04</pdfrwt>
<pdfrwt beam="2">  1       -1 0.41660948E-01 0.13346490E+04</pdfrwt>
<totfact> 0.28809492E+01</totfact>
</mgrwt>
</event>
<event>
12    1  0.1495204E-007  0.1449537E+04  0.7818608E-02  0.8918722E-01
          1   -1    0    0  501    0  0.00000000000E+00  0.00000000000E+00  0.55396500052E+03  0.55396500052E+03  0.00000000000E+00 0. -1.
         -1   -1    0    0    0  501 -0.00000000000E+00 -0.00000000000E+00 -0.94823547027E+03  0.94823547027E+03  0.00000000000E+00 0.  1.
         23    2    1    2    0    0  0.45403700640E+02 -0.19727288554E+03  0.28620029614E+03  0.36158342837E+03  0.88622112159E+02 0.  0.
        254    2    1    2    0    0 -0.45403700640E+02  0.19727288554E+03 -0.68047076589E+03  0.11406170424E+04  0.89274222865E+03 0.  0.
        -24    2    4    4    0    0  0.35516576810E+03  0.15555538355E+03 -0.60567587095E+03  0.72364886493E+03  0.80524647674E+02 0.  0.
         24    2    4    4    0    0 -0.40056946874E+03  0.41717501988E+02 -0.74794894944E+02  0.41696817749E+03  0.77922624873E+02 0.  0.
         11    1    3    3    0    0 -0.25501829149E+02 -0.47444832163E+02  0.88331700547E+02  0.10345938677E+03  0.00000000000E+00 0.  1.
        -11    1    3    3    0    0  0.70905529789E+02 -0.14982805337E+03  0.19786859559E+03  0.25812404160E+03  0.00000000000E+00 0. -1.
          2    1    6    6  502    0 -0.88415615786E+02 -0.22544890032E+02 -0.22854767122E+02  0.94063454974E+02  0.00000000000E+00 0. -1.
          3    1    5    5  503    0  0.20117085308E+03  0.47384775388E+02 -0.34439779130E+03  0.40165267050E+03  0.00000000000E+00 0. -1.
         -4    1    5    5    0  503  0.15399491502E+03  0.10817060816E+03 -0.26127807965E+03  0.32199619443E+03  0.00000000000E+00 0.  1.
         -1    1    6    6    0  502 -0.31215385296E+03  0.64262392020E+02 -0.51940127822E+02  0.32290472251E+03  0.00000000000E+00 0.  1.
<mgrwt>
<rscale>  0 0.14495368E+04</rscale>
<asrwt>0</asrwt>
<pdfrwt beam="1">  1        1 0.85225385E-01 0.14495368E+04</pdfrwt>
<pdfrwt beam="2">  1       -1 0.14588238E+00 0.14495368E+04</pdfrwt>
<totfact> 0.14022859E+01</totfact>
</mgrwt>
</event>
<event>
12    1  0.1495204E-007  0.1981753E+04  0.7818608E-02  0.8615200E-01
         -1   -1    0    0    0  501 -0.00000000000E+00  0.00000000000E+00  0.41685056687E+03  0.41685056687E+03  0.00000000000E+00 0.  1.
          1   -1    0    0  501    0  0.00000000000E+00 -0.00000000000E+00 -0.23553666579E+04  0.23553666579E+04  0.00000000000E+00 0. -1.
         23    2    1    2    0    0 -0.49567531813E+03 -0.42048451000E+03 -0.13884663799E+04  0.15357737997E+04  0.90890218081E+02 0.  0.
        254    2    1    2    0    0  0.49567531813E+03  0.42048451000E+03 -0.55004971112E+03  0.12364434250E+04  0.89651347697E+03 0.  0.
        -24    2    4    4    0    0  0.29605602347E+03 -0.11493258690E+03 -0.57269909865E+03  0.65979818850E+03  0.80565025812E+02 0.  0.
         24    2    4    4    0    0  0.19961929466E+03  0.53541709690E+03  0.22649387532E+02  0.57664523651E+03  0.74077011155E+02 0.  0.
         13    1    3    3    0    0 -0.14684468841E+03 -0.10223895010E+03 -0.30015350871E+03  0.34943997227E+03  0.00000000000E+00 0.  1.
        -13    1    3    3    0    0 -0.34883062973E+03 -0.31824555991E+03 -0.10883128712E+04  0.11863338275E+04  0.00000000000E+00 0. -1.
          4    1    6    6  502    0  0.18043676963E+03  0.45350799668E+03  0.43362752495E+02  0.49000740728E+03  0.00000000000E+00 0. -1.
          1    1    5    5  503    0  0.12267877298E+03 -0.27706746985E+02 -0.29800816992E+03  0.32346037548E+03  0.00000000000E+00 0. -1.
         -2    1    5    5    0  503  0.17337725049E+03 -0.87225839910E+02 -0.27469092873E+03  0.33633781302E+03  0.00000000000E+00 0.  1.
         -3    1    6    6    0  502  0.19182525030E+02  0.81909100225E+02 -0.20713364963E+02  0.86637829233E+02  0.00000000000E+00 0.  1.
<mgrwt>
<rscale>  0 0.19817527E+04</rscale>
<asrwt>0</asrwt>
<pdfrwt beam="1">  1        1 0.36236410E+00 0.19817527E+04</pdfrwt>
<pdfrwt beam="2">  1       -1 0.64130856E-01 0.19817527E+04</pdfrwt>
<totfact> 0.39075426E+00</totfact>
</mgrwt>
</event>
<event>
12    1  0.1495204E-007  0.1712113E+04  0.7818608E-02  0.8754486E-01
          2   -1    0    0  501    0  0.00000000000E+00  0.00000000000E+00  0.50519254879E+04  0.50519254879E+04  0.00000000000E+00 0.  1.
         -2   -1    0    0    0  501 -0.00000000000E+00 -0.00000000000E+00 -0.14506012917E+03  0.14506012917E+03  0.00000000000E+00 0. -1.
         23    2    1    2    0    0 -0.25204821854E+03  0.53302929232E+03  0.23399937833E+04  0.24148198500E+04  0.90196847982E+02 0.  0.
        254    2    1    2    0    0  0.25204821854E+03 -0.53302929232E+03  0.25668715754E+04  0.27821657670E+04  0.89664270447E+03 0.  0.
        -24    2    4    4    0    0  0.40327399904E+02 -0.61475460281E+03  0.87671014356E+03  0.10749219125E+04  0.85363465993E+02 0.  0.
         24    2    4    4    0    0  0.21172081864E+03  0.81725310488E+02  0.16901614319E+04  0.17072438545E+04  0.80815725802E+02 0.  0.
         13    1    3    3    0    0 -0.12956603652E+03  0.30838982104E+03  0.14935909514E+04  0.15305899417E+04  0.00000000000E+00 0.  1.
        -13    1    3    3    0    0 -0.12248218202E+03  0.22463947128E+03  0.84640283185E+03  0.88422990830E+03  0.00000000000E+00 0. -1.
          4    1    6    6  502    0  0.72277853035E+02  0.37443073486E+02  0.36149337855E+03  0.37054491567E+03  0.00000000000E+00 0. -1.
          3    1    5    5  503    0 -0.10456551125E+02 -0.34145569823E+02  0.81665079240E+02  0.89131613737E+02  0.00000000000E+00 0. -1.
         -4    1    5    5    0  503  0.50783951029E+02 -0.58060903299E+03  0.79504506432E+03  0.98579029878E+03  0.00000000000E+00 0.  1.
         -3    1    6    6    0  502  0.13944296560E+03  0.44282237002E+02  0.13286680533E+04  0.13366989388E+04  0.00000000000E+00 0.  1.
<mgrwt>
<rscale>  0 0.17121133E+04</rscale>
<asrwt>0</asrwt>
<pdfrwt beam="1">  1        2 0.77721917E+00 0.17121133E+04</pdfrwt>
<pdfrwt beam="2">  1       -2 0.22316947E-01 0.17121133E+04</pdfrwt>
<totfact> 0.51269191E-01</totfact>
</mgrwt>
</event>
<event>
12    1  0.1495204E-007  0.2948957E+04  0.7818608E-02  0.8258459E-01
         -1   -1    0    0    0  501 -0.00000000000E+00  0.00000000000E+00  0.12837442379E+04  0.12837442379E+04  0.00000000000E+00 0.  1.
          1   -1    0    0  501    0  0.00000000000E+00 -0.00000000000E+00 -0.16935514761E+04  0.16935514761E+04  0.00000000000E+00 0. -1.
         23    2    1    2    0    0 -0.13169836483E+04 -0.62350237139E+02 -0.41052316541E+03  0.13838430588E+04  0.90326409165E+02 0.  0.
        254    2    1    2    0    0  0.13169836483E+04  0.62350237139E+02  0.71592721144E+00  0.15934526551E+04  0.89485047335E+03 0.  0.
        -24    2    4    4    0    0 -0.38109281938E+02  0.12512361236E+03  0.16451567995E+03  0.22480803053E+03  0.79780987105E+02 0.  0.
         24    2    4    4    0    0  0.13550929302E+04 -0.62773375219E+02 -0.16379975273E+03  0.13686446246E+04  0.78360725302E+02 0.  0.
         11    1    3    3    0    0 -0.14117196567E+03 -0.26203156154E+02 -0.66273711119E+02  0.15814023545E+03  0.00000000000E+00 0.  1.
        -11    1    3    3    0    0 -0.11758116826E+04 -0.36147080986E+02 -0.34424945429E+03  0.12257028234E+04  0.00000000000E+00 0. -1.
          2    1    6    6  502    0  0.12562512533E+04 -0.76509878108E+02 -0.16078339970E+03  0.12688074222E+04  0.00000000000E+00 0. -1.
          1    1    5    5  503    0 -0.55336002229E+02  0.55109587182E+02  0.10756991738E+03  0.13293015785E+03  0.00000000000E+00 0. -1.
         -2    1    5    5    0  503  0.17226720292E+02  0.70014025176E+02  0.56945762570E+02  0.91877872680E+02  0.00000000000E+00 0.  1.
         -1    1    6    6    0  502  0.98841676902E+02  0.13736502889E+02 -0.30163530370E+01  0.99837202436E+02  0.00000000000E+00 0.  1.
<mgrwt>
<rscale>  0 0.29489571E+04</rscale>
<asrwt>0</asrwt>
<pdfrwt beam="1">  1        1 0.26054638E+00 0.29489571E+04</pdfrwt>
<pdfrwt beam="2">  1       -1 0.19749911E+00 0.29489571E+04</pdfrwt>
<totfact> 0.64460059E-01</totfact>
</mgrwt>
</event>
<event>
12    1  0.1495204E-007  0.2465835E+04  0.7818608E-02  0.8415259E-01
         -2   -1    0    0    0  501 -0.00000000000E+00  0.00000000000E+00  0.59139436575E+03  0.59139436575E+03  0.00000000000E+00 0.  1.
          2   -1    0    0  501    0  0.00000000000E+00 -0.00000000000E+00 -0.25703419462E+04  0.25703419462E+04  0.00000000000E+00 0. -1.
         23    2    1    2    0    0  0.16216514816E+03 -0.86214031018E+03 -0.82691810989E+02  0.88561211581E+03  0.88811228724E+02 0.  0.
        254    2    1    2    0    0 -0.16216514816E+03  0.86214031018E+03 -0.18962557694E+04  0.22761241961E+04  0.90297949216E+03 0.  0.
        -24    2    4    4    0    0  0.26375897436E+03  0.65521293813E+03 -0.75053067561E+03  0.10338195288E+04  0.81324856602E+02 0.  0.
         24    2    4    4    0    0 -0.42592412252E+03  0.20692737205E+03 -0.11457250938E+04  0.12423046673E+04  0.80028746540E+02 0.  0.
         13    1    3    3    0    0  0.16723118929E+03 -0.85215745414E+03 -0.74228332095E+02  0.87157813339E+03  0.00000000000E+00 0.  1.
        -13    1    3    3    0    0 -0.50660411359E+01 -0.99828560391E+01 -0.84634788941E+01  0.14033982417E+02  0.00000000000E+00 0. -1.
          4    1    6    6  502    0 -0.13183814864E+02  0.38269796843E+00 -0.10544474991E+02  0.16886248397E+02  0.00000000000E+00 0. -1.
          1    1    5    5  503    0  0.84060631876E+02  0.29966097061E+03 -0.29757650449E+03  0.43059802967E+03  0.00000000000E+00 0. -1.
         -2    1    5    5    0  503  0.17969834249E+03  0.35555196753E+03 -0.45295417113E+03  0.60322149916E+03  0.00000000000E+00 0.  1.
         -3    1    6    6    0  502 -0.41274030765E+03  0.20654467408E+03 -0.11351806188E+04  0.12254184189E+04  0.00000000000E+00 0.  1.
<mgrwt>
<rscale>  0 0.24658351E+04</rscale>
<asrwt>0</asrwt>
<pdfrwt beam="1">  1        2 0.39543722E+00 0.24658351E+04</pdfrwt>
<pdfrwt beam="2">  1       -2 0.90983749E-01 0.24658351E+04</pdfrwt>
<totfact> 0.29192757E+00</totfact>
</mgrwt>
</event>
<event>
12    1  0.1495204E-007  0.1755886E+04  0.7818608E-02  0.8730117E-01
         -2   -1    0    0    0  501 -0.00000000000E+00  0.00000000000E+00  0.29657863224E+03  0.29657863224E+03  0.00000000000E+00 0.  1.
          2   -1    0    0  501    0  0.00000000000E+00 -0.00000000000E+00 -0.25989190008E+04  0.25989190008E+04  0.00000000000E+00 0. -1.
         23    2    1    2    0    0  0.62808488579E+03 -0.99659711661E+02 -0.98079035841E+03  0.11725153436E+04  0.91759587245E+02 0.  0.
        254    2    1    2    0    0 -0.62808488579E+03  0.99659711661E+02 -0.13215500101E+04  0.17229822894E+04  0.90429578050E+03 0.  0.
        -24    2    4    4    0    0 -0.76001129757E+02  0.41660674013E+03 -0.74332123983E+03  0.85921321172E+03  0.79896995917E+02 0.  0.
         24    2    4    4    0    0 -0.55208375603E+03 -0.31694702847E+03 -0.57822877028E+03  0.86376907772E+03  0.80601590078E+02 0.  0.
         13    1    3    3    0    0  0.19529121633E+03 -0.21832437421E+02 -0.38228255617E+03  0.42983167316E+03  0.00000000000E+00 0. -1.
        -13    1    3    3    0    0  0.43279366946E+03 -0.77827274240E+02 -0.59850780224E+03  0.74268367041E+03  0.00000000000E+00 0.  1.
          4    1    6    6  502    0 -0.14712658443E+03 -0.59139254664E+02 -0.18135932078E+03  0.24090430988E+03  0.00000000000E+00 0. -1.
          1    1    5    5  503    0 -0.36910543632E+01 -0.21788053840E+01 -0.20336049653E+01  0.47441147086E+01  0.00000000000E+00 0. -1.
         -2    1    5    5    0  503 -0.72310075393E+02  0.41878554552E+03 -0.74128763487E+03  0.85446909701E+03  0.00000000000E+00 0.  1.
         -3    1    6    6    0  502 -0.40495717161E+03 -0.25780777381E+03 -0.39686944950E+03  0.62286476784E+03  0.00000000000E+00 0.  1.
<mgrwt>
<rscale>  0 0.17558859E+04</rscale>
<asrwt>0</asrwt>
<pdfrwt beam="1">  1        2 0.39983369E+00 0.17558859E+04</pdfrwt>
<pdfrwt beam="2">  1       -2 0.45627482E-01 0.17558859E+04</pdfrwt>
<totfact> 0.13175429E+01</totfact>
</mgrwt>
</event>
<event>
12    1  0.1495204E-007  0.1893711E+04  0.7818608E-02  0.8657993E-01
         -3   -1    0    0    0  501 -0.00000000000E+00  0.00000000000E+00  0.17216473869E+04  0.17216473869E+04  0.00000000000E+00 0.  1.
          3   -1    0    0  501    0  0.00000000000E+00 -0.00000000000E+00 -0.52074245169E+03  0.52074245169E+03  0.00000000000E+00 0. -1.
         23    2    1    2    0    0 -0.34549526731E+03  0.25637230639E+03 -0.23021505762E+03  0.49651145571E+03  0.91820006950E+02 0.  0.
        254    2    1    2    0    0  0.34549526731E+03 -0.25637230639E+03  0.14311199928E+04  0.17458783829E+04  0.90271432621E+03 0.  0.
        -24    2    4    4    0    0  0.27831039613E+03  0.28912965634E+03  0.38593473610E+03  0.56238767508E+03  0.79256809098E+02 0.  0.
         24    2    4    4    0    0  0.67184871184E+02 -0.54550196273E+03  0.10451852567E+04  0.11834907078E+04  0.78433642819E+02 0.  0.
         13    1    3    3    0    0 -0.18552891068E+03  0.11903954489E+03 -0.68596469366E+02  0.23086113912E+03  0.00000000000E+00 0.  1.
        -13    1    3    3    0    0 -0.15996635663E+03  0.13733276150E+03 -0.16161858825E+03  0.26565031659E+03  0.00000000000E+00 0. -1.
          2    1    6    6  502    0  0.58936063604E+02 -0.54290460430E+03  0.10220999254E+04  0.11588386974E+04  0.00000000000E+00 0. -1.
          3    1    5    5  503    0  0.20981471143E+03  0.19061442147E+03  0.31155994201E+03  0.42121926389E+03  0.00000000000E+00 0. -1.
         -4    1    5    5    0  503  0.68495684695E+02  0.98515234870E+02  0.74374794096E+02  0.14116841120E+03  0.00000000000E+00 0.  1.
         -1    1    6    6    0  502  0.82488075798E+01 -0.25973584298E+01  0.23085331312E+02  0.24652010447E+02  0.00000000000E+00 0.  1.
<mgrwt>
<rscale>  0 0.18937105E+04</rscale>
<asrwt>0</asrwt>
<pdfrwt beam="1">  1        3 0.80114224E-01 0.18937105E+04</pdfrwt>
<pdfrwt beam="2">  1       -3 0.26486883E+00 0.18937105E+04</pdfrwt>
<totfact> 0.21349346E-01</totfact>
</mgrwt>
</event>
<event>
12    1  0.1495204E-007  0.1636906E+04  0.7818608E-02  0.8798191E-01
          1   -1    0    0  501    0  0.00000000000E+00  0.00000000000E+00  0.31362692421E+04  0.31362692421E+04  0.00000000000E+00 0. -1.
         -1   -1    0    0    0  501 -0.00000000000E+00 -0.00000000000E+00 -0.21358655121E+03  0.21358655121E+03  0.00000000000E+00 0.  1.
         23    2    1    2    0    0 -0.47659661677E+02  0.33027795557E+03  0.19397885956E+04  0.19702460641E+04  0.87947633185E+02 0.  0.
        254    2    1    2    0    0  0.47659661677E+02 -0.33027795557E+03  0.98289409533E+03  0.13796097292E+04  0.90878337964E+03 0.  0.
        -24    2    4    4    0    0 -0.35408168473E+03 -0.40241760911E+03  0.65306593824E+03  0.84875178074E+03  0.81059817638E+02 0.  0.
         24    2    4    4    0    0  0.40174134641E+03  0.72139653537E+02  0.32982815708E+03  0.53085794850E+03  0.80145550454E+02 0.  0.
         11    1    3    3    0    0 -0.69895530689E+01  0.26664869633E+03  0.13979781522E+04  0.14231982627E+04  0.00000000000E+00 0. -1.
        -11    1    3    3    0    0 -0.40670108608E+02  0.63629259242E+02  0.54181044341E+03  0.54704780134E+03  0.00000000000E+00 0.  1.
          4    1    6    6  502    0  0.98553889920E+02 -0.14905929174E+02  0.65041252534E+02  0.11901857197E+03  0.00000000000E+00 0. -1.
          3    1    5    5  503    0 -0.55126472583E+02 -0.27777931571E+02  0.58434930691E+02  0.85001074032E+02  0.00000000000E+00 0. -1.
         -4    1    5    5    0  503 -0.29895521215E+03 -0.37463967754E+03  0.59463100755E+03  0.76375070671E+03  0.00000000000E+00 0.  1.
         -3    1    6    6    0  502  0.30318745649E+03  0.87045582710E+02  0.26478690455E+03  0.41183937653E+03  0.00000000000E+00 0.  1.
<mgrwt>
<rscale>  0 0.16369055E+04</rscale>
<asrwt>0</asrwt>
<pdfrwt beam="1">  1        1 0.48250293E+00 0.16369055E+04</pdfrwt>
<pdfrwt beam="2">  1       -1 0.32859472E-01 0.16369055E+04</pdfrwt>
<totfact> 0.39638438E+00</totfact>
</mgrwt>
</event>
<event>
12    1  0.1495204E-007  0.1432871E+04  0.7818608E-02  0.8930362E-01
          1   -1    0    0  501    0  0.00000000000E+00  0.00000000000E+00  0.39729724721E+03  0.39729724721E+03  0.00000000000E+00 0. -1.
         -1   -1    0    0    0  501 -0.00000000000E+00 -0.00000000000E+00 -0.12919297004E+04  0.12919297004E+04  0.00000000000E+00 0.  1.
         23    2    1    2    0    0  0.18881248789E+03 -0.33052609902E+03 -0.52798117331E+03  0.65691936749E+03  0.88776563936E+02 0.  0.
        254    2    1    2    0    0 -0.18881248789E+03  0.33052609902E+03 -0.36665127991E+03  0.10323075801E+04  0.88675144275E+03 0.  0.
        -24    2    4    4    0    0 -0.49106616069E+03  0.13240082085E+03 -0.45428160844E+01  0.51483227520E+03  0.79722536830E+02 0.  0.
         24    2    4    4    0    0  0.30225367279E+03  0.19812527818E+03 -0.36210846382E+03  0.51747530493E+03  0.77764021687E+02 0.  0.
         11    1    3    3    0    0  0.16736218455E+03 -0.30386069304E+03 -0.51364288860E+03  0.61981484219E+03  0.00000000000E+00 0.  1.
        -11    1    3    3    0    0  0.21450303342E+02 -0.26665405980E+02 -0.14338284708E+02  0.37104525302E+02  0.00000000000E+00 0. -1.
          4    1    6    6  502    0  0.55767690712E+02  0.40748429858E+01 -0.57911486134E+02  0.80500806822E+02  0.00000000000E+00 0. -1.
          1    1    5    5  503    0 -0.22261209311E+03  0.67312358234E+02 -0.41171046354E+02  0.23618245623E+03  0.00000000000E+00 0. -1.
         -2    1    5    5    0  503 -0.26845406757E+03  0.65088462613E+02  0.36628230270E+02  0.27864981897E+03  0.00000000000E+00 0.  1.
         -3    1    6    6    0  502  0.24648598208E+03  0.19405043519E+03 -0.30419697769E+03  0.43697449811E+03  0.00000000000E+00 0.  1.
<mgrwt>
<rscale>  0 0.14328714E+04</rscale>
<asrwt>0</asrwt>
<pdfrwt beam="1">  1        1 0.61122654E-01 0.14328714E+04</pdfrwt>
<pdfrwt beam="2">  1       -1 0.19875841E+00 0.14328714E+04</pdfrwt>
<totfact> 0.90375346E+00</totfact>
</mgrwt>
</event>
<event>
12    1  0.1495204E-007  0.1244162E+04  0.7818608E-02  0.9075056E-01
         -1   -1    0    0    0  501 -0.00000000000E+00  0.00000000000E+00  0.14104066500E+03  0.14104066500E+03  0.00000000000E+00 0.  1.
          1   -1    0    0  501    0  0.00000000000E+00 -0.00000000000E+00 -0.27437827554E+04  0.27437827554E+04  0.00000000000E+00 0. -1.
         23    2    1    2    0    0 -0.20996225818E+03 -0.61578918059E+01 -0.17254041284E+03  0.28670912565E+03  0.91158428987E+02 0.  0.
        254    2    1    2    0    0  0.20996225818E+03  0.61578918059E+01 -0.24302016776E+04  0.25981142948E+04  0.89453654226E+03 0.  0.
        -24    2    4    4    0    0  0.45350237550E+02  0.39408842217E+03 -0.17316796168E+04  0.17783206399E+04  0.79672295539E+02 0.  0.
         24    2    4    4    0    0  0.16461202063E+03 -0.38793053036E+03 -0.69852206079E+03  0.81979365483E+03  0.80878633500E+02 0.  0.
         13    1    3    3    0    0 -0.10506491168E+03 -0.27180028331E+02 -0.13526405972E+03  0.17341786372E+03  0.00000000000E+00 0.  1.
        -13    1    3    3    0    0 -0.10489734650E+03  0.21022136526E+02 -0.37276353124E+02  0.11329126193E+03  0.00000000000E+00 0. -1.
          2    1    6    6  502    0  0.17170549208E+02 -0.21382014439E+02 -0.17706155766E+02  0.32642399630E+02  0.00000000000E+00 0. -1.
          1    1    5    5  503    0 -0.17976683183E+02  0.16096316464E+03 -0.63246528105E+03  0.65287413277E+03  0.00000000000E+00 0. -1.
         -2    1    5    5    0  503  0.63326920733E+02  0.23312525753E+03 -0.10992143357E+04  0.11254465072E+04  0.00000000000E+00 0.  1.
         -1    1    6    6    0  502  0.14744147142E+03 -0.36654851593E+03 -0.68081590502E+03  0.78715125520E+03  0.00000000000E+00 0.  1.
<mgrwt>
<rscale>  0 0.12441623E+04</rscale>
<asrwt>0</asrwt>
<pdfrwt beam="1">  1        1 0.42212041E+00 0.12441623E+04</pdfrwt>
<pdfrwt beam="2">  1       -1 0.21698564E-01 0.12441623E+04</pdfrwt>
<totfact> 0.16208138E+01</totfact>
</mgrwt>
</event>
<event>
12    1  0.1495204E-007  0.2162638E+04  0.7818608E-02  0.8534142E-01
          2   -1    0    0  501    0  0.00000000000E+00  0.00000000000E+00  0.18071027069E+04  0.18071027069E+04  0.00000000000E+00 0.  1.
         -2   -1    0    0    0  501 -0.00000000000E+00 -0.00000000000E+00 -0.64703068182E+03  0.64703068182E+03  0.00000000000E+00 0. -1.
         23    2    1    2    0    0  0.15775569526E+03 -0.79234378696E+03  0.89558938522E+03  0.12095830920E+04  0.91188669826E+02 0.  0.
        254    2    1    2    0    0 -0.15775569526E+03  0.79234378696E+03  0.26448263988E+03  0.12445502967E+04  0.90898780965E+03 0.  0.
        -24    2    4    4    0    0 -0.11914443877E+03  0.28802609724E+03 -0.32950319434E+03  0.46033605463E+03  0.78628863189E+02 0.  0.
         24    2    4    4    0    0 -0.38611256488E+02  0.50431768972E+03  0.59398583423E+03  0.78421424207E+03  0.79659556347E+02 0.  0.
         13    1    3    3    0    0  0.26890382206E+02 -0.35659312707E+02  0.40507405499E+02  0.60295349225E+02  0.00000000000E+00 0. -1.
        -13    1    3    3    0    0  0.13086531305E+03 -0.75668447425E+03  0.85508197972E+03  0.11492877428E+04  0.00000000000E+00 0.  1.
          2    1    6    6  502    0 -0.21052037701E+02  0.16660067948E+03  0.25550221355E+03  0.30574557368E+03  0.00000000000E+00 0. -1.
          1    1    5    5  503    0 -0.17588640158E+02  0.21952167126E+02 -0.68420980381E+02  0.73977621348E+02  0.00000000000E+00 0. -1.
         -2    1    5    5    0  503 -0.10155579861E+03  0.26607393011E+03 -0.26108221396E+03  0.38635843328E+03  0.00000000000E+00 0.  1.
         -1    1    6    6    0  502 -0.17559218787E+02  0.33771701024E+03  0.33848362068E+03  0.47846866840E+03  0.00000000000E+00 0.  1.
<mgrwt>
<rscale>  0 0.21626381E+04</rscale>
<asrwt>0</asrwt>
<pdfrwt beam="1">  1        2 0.27801580E+00 0.21626381E+04</pdfrwt>
<pdfrwt beam="2">  1       -2 0.99543183E-01 0.21626381E+04</pdfrwt>
<totfact> 0.65463656E+00</totfact>
</mgrwt>
</event>
<event>
12    1  0.1495204E-007  0.1771303E+04  0.7818608E-02  0.8721711E-01
         -1   -1    0    0    0  501 -0.00000000000E+00  0.00000000000E+00  0.49170512938E+03  0.49170512938E+03  0.00000000000E+00 0.  1.
          1   -1    0    0  501    0  0.00000000000E+00 -0.00000000000E+00 -0.15952208542E+04  0.15952208542E+04  0.00000000000E+00 0. -1.
         23    2    1    2    0    0  0.57207561307E+03 -0.25789507076E+03 -0.19748845019E+03  0.66427695736E+03  0.92096761828E+02 0.  0.
        254    2    1    2    0    0 -0.57207561307E+03  0.25789507076E+03 -0.90602727463E+03  0.14226490262E+04  0.89959127097E+03 0.  0.
        -24    2    4    4    0    0 -0.58499245218E+03  0.47664097204E+03 -0.38222410175E+03  0.84925887777E+03  0.75779893009E+02 0.  0.
         24    2    4    4    0    0  0.12916839111E+02 -0.21874590127E+03 -0.52380317287E+03  0.57339014843E+03  0.79936752174E+02 0.  0.
         13    1    3    3    0    0  0.14009499079E+03 -0.63754077103E+02 -0.91151430998E+02  0.17888480138E+03  0.00000000000E+00 0. -1.
        -13    1    3    3    0    0  0.43198062228E+03 -0.19414099366E+03 -0.10633701919E+03  0.48539215598E+03  0.00000000000E+00 0.  1.
          2    1    6    6  502    0  0.40546343703E+02 -0.12268997071E+03 -0.34718554133E+03  0.37045193347E+03  0.00000000000E+00 0. -1.
          3    1    5    5  503    0 -0.37970633431E+03  0.35094117737E+03 -0.27673088880E+03  0.58644402555E+03  0.00000000000E+00 0. -1.
         -4    1    5    5    0  503 -0.20528611787E+03  0.12569979467E+03 -0.10549321295E+03  0.26281485222E+03  0.00000000000E+00 0.  1.
         -1    1    6    6    0  502 -0.27629504592E+02 -0.96055930568E+02 -0.17661763154E+03  0.20293821497E+03  0.00000000000E+00 0.  1.
<mgrwt>
<rscale>  0 0.17713027E+04</rscale>
<asrwt>0</asrwt>
<pdfrwt beam="1">  1        1 0.24541859E+00 0.17713027E+04</pdfrwt>
<pdfrwt beam="2">  1       -1 0.75646944E-01 0.17713027E+04</pdfrwt>
<totfact> 0.93384137E+00</totfact>
</mgrwt>
</event>
<event>
12    1  0.1495204E-007  0.1532954E+04  0.7818608E-02  0.8862830E-01
          2   -1    0    0  501    0  0.00000000000E+00  0.00000000000E+00  0.82541171821E+03  0.82541171821E+03  0.00000000000E+00 0. -1.
         -2   -1    0    0    0  501 -0.00000000000E+00 -0.00000000000E+00 -0.71175016523E+03  0.71175016523E+03  0.00000000000E+00 0.  1.
         23    2    1    2    0    0 -0.36299418244E+03 -0.69935417046E+02 -0.31259692796E+03  0.49265458602E+03  0.91301493521E+02 0.  0.
        254    2    1    2    0    0  0.36299418244E+03  0.69935417046E+02  0.42625848094E+03  0.10445072974E+04  0.87900140088E+03 0.  0.
        -24    2    4    4    0    0  0.35846064815E+02 -0.26384602407E+03  0.49242477309E+03  0.56558959061E+03  0.80683102718E+02 0.  0.
         24    2    4    4    0    0  0.32714811762E+03  0.33378144112E+03 -0.66166292158E+02  0.47891770681E+03  0.80921260367E+02 0.  0.
         13    1    3    3    0    0 -0.14622079605E+03 -0.60205777489E+02 -0.17428546080E+03  0.23533099814E+03  0.00000000000E+00 0. -1.
        -13    1    3    3    0    0 -0.21677338639E+03 -0.97296395568E+01 -0.13831146716E+03  0.25732358788E+03  0.00000000000E+00 0.  1.
          2    1    6    6  502    0  0.14616913997E+03  0.19256218459E+03 -0.60867188447E+02  0.24929987373E+03  0.00000000000E+00 0. -1.
          3    1    5    5  503    0 -0.13632660343E+02 -0.17956610174E+03  0.30428364661E+03  0.35357937145E+03  0.00000000000E+00 0. -1.
         -4    1    5    5    0  503  0.49478725157E+02 -0.84279922338E+02  0.18814112648E+03  0.21201021916E+03  0.00000000000E+00 0.  1.
         -1    1    6    6    0  502  0.18097897766E+03  0.14121925652E+03 -0.52991037114E+01  0.22961783308E+03  0.00000000000E+00 0.  1.
<mgrwt>
<rscale>  0 0.15329539E+04</rscale>
<asrwt>0</asrwt>
<pdfrwt beam="1">  1        2 0.12698642E+00 0.15329539E+04</pdfrwt>
<pdfrwt beam="2">  1       -2 0.10950003E+00 0.15329539E+04</pdfrwt>
<totfact> 0.21150723E+01</totfact>
</mgrwt>
</event>
<event>
12    1  0.1495204E-007  0.1639684E+04  0.7818608E-02  0.8796533E-01
          1   -1    0    0  501    0  0.00000000000E+00  0.00000000000E+00  0.41110168575E+03  0.41110168575E+03  0.00000000000E+00 0. -1.
         -1   -1    0    0    0  501 -0.00000000000E+00 -0.00000000000E+00 -0.16349738601E+04  0.16349738601E+04  0.00000000000E+00 0.  1.
         23    2    1    2    0    0 -0.47095358578E+03 -0.18830019515E+03 -0.74154151991E+03  0.90290514343E+03  0.89997937872E+02 0.  0.
        254    2    1    2    0    0  0.47095358578E+03  0.18830019515E+03 -0.48233065448E+03  0.11431704025E+04  0.90384814287E+03 0.  0.
        -24    2    4    4    0    0  0.23899639887E+03 -0.35629890909E+03 -0.16171157612E+03  0.46529724292E+03  0.79263479145E+02 0.  0.
         24    2    4    4    0    0  0.23195718691E+03  0.54459910424E+03 -0.32061907836E+03  0.67787315955E+03  0.79517960992E+02 0.  0.
         11    1    3    3    0    0 -0.44217979754E+03 -0.16167201590E+03 -0.64371064795E+03  0.79751126159E+03  0.00000000000E+00 0. -1.
        -11    1    3    3    0    0 -0.28773788237E+02 -0.26628179249E+02 -0.97830871962E+02  0.10539388184E+03  0.00000000000E+00 0.  1.
          4    1    6    6  502    0  0.17435707712E+03  0.31336797855E+03 -0.18120268830E+03  0.40178886815E+03  0.00000000000E+00 0. -1.
          3    1    5    5  503    0  0.10855290771E+03 -0.23177785330E+03 -0.96921043919E+02  0.27367571286E+03  0.00000000000E+00 0. -1.
         -4    1    5    5    0  503  0.13044349116E+03 -0.12452105579E+03 -0.64790532200E+02  0.19162153006E+03  0.00000000000E+00 0.  1.
         -3    1    6    6    0  502  0.57600109789E+02  0.23123112569E+03 -0.13941639006E+03  0.27608429139E+03  0.00000000000E+00 0.  1.
<mgrwt>
<rscale>  0 0.16396835E+04</rscale>
<asrwt>0</asrwt>
<pdfrwt beam="1">  1        1 0.63246414E-01 0.16396835E+04</pdfrwt>
<pdfrwt beam="2">  1       -1 0.25153444E+00 0.16396835E+04</pdfrwt>
<totfact> 0.37700604E+00</totfact>
</mgrwt>
</event>
<event>
12    1  0.1495204E-007  0.2199851E+04  0.7818608E-02  0.8518490E-01
          1   -1    0    0  501    0  0.00000000000E+00  0.00000000000E+00  0.16364727377E+04  0.16364727377E+04  0.00000000000E+00 0. -1.
         -1   -1    0    0    0  501 -0.00000000000E+00 -0.00000000000E+00 -0.73929490346E+03  0.73929490346E+03  0.00000000000E+00 0.  1.
         23    2    1    2    0    0  0.27938238899E+03  0.27017766828E+03  0.12657287695E+04  0.13271815129E+04  0.91054701778E+02 0.  0.
        254    2    1    2    0    0 -0.27938238899E+03 -0.27017766828E+03 -0.36855093523E+03  0.10485861282E+04  0.90147245366E+03 0.  0.
        -24    2    4    4    0    0  0.61878373618E+02 -0.28561038488E+03 -0.56804511681E+03  0.64378397228E+03  0.79876925048E+02 0.  0.
         24    2    4    4    0    0 -0.34126076261E+03  0.15432716593E+02  0.19949418158E+03  0.40480215594E+03  0.85847423564E+02 0.  0.
         13    1    3    3    0    0  0.22046645686E+03  0.19570939544E+03  0.81817556407E+03  0.86966595869E+03  0.00000000000E+00 0. -1.
        -13    1    3    3    0    0  0.58915932132E+02  0.74468272844E+02  0.44755320539E+03  0.45751555425E+03  0.00000000000E+00 0.  1.
          4    1    6    6  502    0 -0.33656861609E+02  0.16147888657E+02  0.51075549224E+02  0.63263341438E+02  0.00000000000E+00 0. -1.
          1    1    5    5  503    0  0.35833815647E+01 -0.11068391720E+02 -0.79598331757E+02  0.80444044759E+02  0.00000000000E+00 0. -1.
         -2    1    5    5    0  503  0.58294992053E+02 -0.27454199316E+03 -0.48844678505E+03  0.56333992752E+03  0.00000000000E+00 0.  1.
         -3    1    6    6    0  502 -0.30760390100E+03 -0.71517206407E+00  0.14841863236E+03  0.34153881450E+03  0.00000000000E+00 0.  1.
<mgrwt>
<rscale>  0 0.21998509E+04</rscale>
<asrwt>0</asrwt>
<pdfrwt beam="1">  1        1 0.25176504E+00 0.21998509E+04</pdfrwt>
<pdfrwt beam="2">  1       -1 0.11373768E+00 0.21998509E+04</pdfrwt>
<totfact> 0.33847478E+00</totfact>
</mgrwt>
</event>
<event>
12    1  0.1495204E-007  0.1624947E+04  0.7818608E-02  0.8805367E-01
          2   -1    0    0  501    0  0.00000000000E+00  0.00000000000E+00  0.89208447394E+03  0.89208447394E+03  0.00000000000E+00 0. -1.
         -2   -1    0    0    0  501 -0.00000000000E+00 -0.00000000000E+00 -0.73996701843E+03  0.73996701843E+03  0.00000000000E+00 0.  1.
         23    2    1    2    0    0  0.42319448812E+03 -0.40480345881E+02 -0.31344911240E+03  0.53597680772E+03  0.91041524441E+02 0.  0.
        254    2    1    2    0    0 -0.42319448812E+03  0.40480345881E+02  0.46556656791E+03  0.10960746847E+04  0.89660205889E+03 0.  0.
        -24    2    4    4    0    0 -0.13483752719E+02 -0.80966629292E+02 -0.24059064783E+03  0.26670131716E+03  0.80674197278E+02 0.  0.
         24    2    4    4    0    0 -0.40971073540E+03  0.12144697517E+03  0.70615721574E+03  0.82937336749E+03  0.81178290663E+02 0.  0.
         13    1    3    3    0    0  0.24051021420E+03 -0.28705900939E+02 -0.23273697212E+03  0.33591024110E+03  0.00000000000E+00 0.  1.
        -13    1    3    3    0    0  0.18268427392E+03 -0.11774444942E+02 -0.80712140275E+02  0.20006656662E+03  0.00000000000E+00 0. -1.
          2    1    6    6  502    0 -0.20748957682E+03  0.33990355804E+02  0.28619830546E+03  0.35512918610E+03  0.00000000000E+00 0. -1.
          3    1    5    5  503    0  0.91057667337E+01 -0.75608277331E+02 -0.22780510763E+03  0.24019719743E+03  0.00000000000E+00 0. -1.
         -4    1    5    5    0  503 -0.22589519453E+02 -0.53583519606E+01 -0.12785540202E+02  0.26504119738E+02  0.00000000000E+00 0.  1.
         -1    1    6    6    0  502 -0.20222115858E+03  0.87456619369E+02  0.41995891028E+03  0.47424418138E+03  0.00000000000E+00 0.  1.
<mgrwt>
<rscale>  0 0.16249469E+04</rscale>
<asrwt>0</asrwt>
<pdfrwt beam="1">  1        2 0.13724377E+00 0.16249469E+04</pdfrwt>
<pdfrwt beam="2">  1       -2 0.11384108E+00 0.16249469E+04</pdfrwt>
<totfact> 0.17174521E+01</totfact>
</mgrwt>
</event>
<event>
12    1  0.1495204E-007  0.1718263E+04  0.7818608E-02  0.8751016E-01
         -1   -1    0    0    0  501 -0.00000000000E+00  0.00000000000E+00  0.15852542391E+04  0.15852542391E+04  0.00000000000E+00 0.  1.
          1   -1    0    0  501    0  0.00000000000E+00 -0.00000000000E+00 -0.46560817201E+03  0.46560817201E+03  0.00000000000E+00 0. -1.
         23    2    1    2    0    0 -0.88618996394E+02 -0.16784155330E+03 -0.31889737100E+03  0.38223377902E+03  0.91558806556E+02 0.  0.
        254    2    1    2    0    0  0.88618996394E+02  0.16784155330E+03  0.14385434381E+04  0.16686286321E+04  0.82394792008E+03 0.  0.
        -24    2    4    4    0    0 -0.17768424189E+03 -0.10019465442E+03  0.11878624398E+04  0.12078837066E+04  0.79719598058E+02 0.  0.
         24    2    4    4    0    0  0.26630323829E+03  0.26803620771E+03  0.25068099839E+03  0.46074492552E+03  0.81756345768E+02 0.  0.
         13    1    3    3    0    0 -0.47554819446E+02 -0.19239494839E+02 -0.46521441331E+02  0.69252173380E+02  0.00000000000E+00 0.  1.
        -13    1    3    3    0    0 -0.41064176948E+02 -0.14860205846E+03 -0.27237592967E+03  0.31298160564E+03  0.00000000000E+00 0. -1.
          4    1    6    6  502    0  0.21394130883E+03  0.23024419182E+03  0.16975260632E+03  0.35721032858E+03  0.00000000000E+00 0. -1.
          3    1    5    5  503    0 -0.16931364546E+03 -0.10909560834E+03  0.10274394929E+04  0.10469961193E+04  0.00000000000E+00 0. -1.
         -4    1    5    5    0  503 -0.83705964303E+01  0.89009539268E+01  0.16042294686E+03  0.16088758729E+03  0.00000000000E+00 0.  1.
         -3    1    6    6    0  502  0.52361929456E+02  0.37792015895E+02  0.80928392064E+02  0.10353459694E+03  0.00000000000E+00 0.  1.
<mgrwt>
<rscale>  0 0.17182635E+04</rscale>
<asrwt>0</asrwt>
<pdfrwt beam="1">  1        1 0.71632027E-01 0.17182635E+04</pdfrwt>
<pdfrwt beam="2">  1       -1 0.24388527E+00 0.17182635E+04</pdfrwt>
<totfact> 0.35511402E+00</totfact>
</mgrwt>
</event>
<event>
12    1  0.1495204E-007  0.1777962E+04  0.7818608E-02  0.8718108E-01
         -2   -1    0    0    0  501 -0.00000000000E+00  0.00000000000E+00  0.98332164305E+03  0.98332164305E+03  0.00000000000E+00 0.  1.
          2   -1    0    0  501    0  0.00000000000E+00 -0.00000000000E+00 -0.80369144503E+03  0.80369144503E+03  0.00000000000E+00 0. -1.
         23    2    1    2    0    0 -0.65652357416E+03  0.66865345435E+02  0.44064697014E+02  0.66743484527E+03  0.89629221356E+02 0.  0.
        254    2    1    2    0    0  0.65652357416E+03 -0.66865345435E+02  0.13556550100E+03  0.11195782428E+04  0.89419419527E+03 0.  0.
        -24    2    4    4    0    0  0.42745714266E+03  0.41258074333E+02 -0.35456415413E+03  0.56237420764E+03  0.78276257662E+02 0.  0.
         24    2    4    4    0    0  0.22906643149E+03 -0.10812341977E+03  0.49012965513E+03  0.55720403517E+03  0.78020215498E+02 0.  0.
         11    1    3    3    0    0 -0.19147855688E+03 -0.10346910891E+02 -0.14970664101E+02  0.19234140764E+03  0.00000000000E+00 0. -1.
        -11    1    3    3    0    0 -0.46504501728E+03  0.77212256326E+02  0.59035361115E+02  0.47509343764E+03  0.00000000000E+00 0.  1.
          4    1    6    6  502    0  0.11363983156E+03 -0.53449663098E+02  0.16116807277E+03  0.20431844137E+03  0.00000000000E+00 0. -1.
          1    1    5    5  503    0  0.54252126984E+02 -0.17544427236E+02 -0.30732749649E+02  0.64773467642E+02  0.00000000000E+00 0. -1.
         -2    1    5    5    0  503  0.37320501568E+03  0.58802501569E+02 -0.32383140448E+03  0.49760074000E+03  0.00000000000E+00 0.  1.
         -3    1    6    6    0  502  0.11542659993E+03 -0.54673756670E+02  0.32896158236E+03  0.35288559379E+03  0.00000000000E+00 0.  1.
<mgrwt>
<rscale>  0 0.17779620E+04</rscale>
<asrwt>0</asrwt>
<pdfrwt beam="1">  1        2 0.12364484E+00 0.17779620E+04</pdfrwt>
<pdfrwt beam="2">  1       -2 0.15128025E+00 0.17779620E+04</pdfrwt>
<totfact> 0.94803931E+00</totfact>
</mgrwt>
</event>
<event>
12    1  0.1495204E-007  0.1537912E+04  0.7818608E-02  0.8859626E-01
          2   -1    0    0  501    0  0.00000000000E+00  0.00000000000E+00  0.12912604397E+04  0.12912604397E+04  0.00000000000E+00 0. -1.
         -2   -1    0    0    0  501 -0.00000000000E+00 -0.00000000000E+00 -0.45791965365E+03  0.45791965365E+03  0.00000000000E+00 0.  1.
         23    2    1    2    0    0 -0.11572277448E+02 -0.10262257991E+02  0.84422900099E+03  0.84988369803E+03  0.96646068358E+02 0.  0.
        254    2    1    2    0    0  0.11572277448E+02  0.10262257991E+02 -0.10888214898E+02  0.89929639535E+03  0.89909744851E+03 0.  0.
        -24    2    4    4    0    0  0.20495199358E+03 -0.38682121284E+03  0.44647734073E+02  0.44687871321E+03  0.77917865609E+02 0.  0.
         24    2    4    4    0    0 -0.19337971613E+03  0.39708347083E+03 -0.55535948970E+02  0.45241768214E+03  0.80786880546E+02 0.  0.
         11    1    3    3    0    0 -0.46720133801E+02 -0.22599612944E+02  0.65308121550E+03  0.65514012810E+03  0.00000000000E+00 0. -1.
        -11    1    3    3    0    0  0.35147856353E+02  0.12337354953E+02  0.19114778549E+03  0.19474356993E+03  0.00000000000E+00 0.  1.
          2    1    6    6  502    0 -0.18997188789E+03  0.35302027311E+03 -0.67731109027E+02  0.40657119247E+03  0.00000000000E+00 0. -1.
          3    1    5    5  503    0  0.67209642187E+02 -0.19795743339E+03  0.41307082243E+02  0.21309752810E+03  0.00000000000E+00 0. -1.
         -4    1    5    5    0  503  0.13774235140E+03 -0.18886377945E+03  0.33406518302E+01  0.23378118511E+03  0.00000000000E+00 0.  1.
         -1    1    6    6    0  502 -0.34078282453E+01  0.44063197720E+02  0.12195160056E+02  0.45846489674E+02  0.00000000000E+00 0.  1.
<mgrwt>
<rscale>  0 0.15379123E+04</rscale>
<asrwt>0</asrwt>
<pdfrwt beam="1">  1        2 0.19865545E+00 0.15379123E+04</pdfrwt>
<pdfrwt beam="2">  1       -2 0.70449178E-01 0.15379123E+04</pdfrwt>
<totfact> 0.29542191E+01</totfact>
</mgrwt>
</event>
<event>
12    1  0.1495204E-007  0.1841468E+04  0.7818608E-02  0.8684553E-01
         -2   -1    0    0    0  501 -0.00000000000E+00  0.00000000000E+00  0.61282597730E+03  0.61282597730E+03  0.00000000000E+00 0.  1.
          2   -1    0    0  501    0  0.00000000000E+00 -0.00000000000E+00 -0.13833473238E+04  0.13833473238E+04  0.00000000000E+00 0. -1.
         23    2    1    2    0    0  0.30385540208E+03 -0.24879811726E+03 -0.97399277833E+03  0.10542148217E+04  0.92077953754E+02 0.  0.
        254    2    1    2    0    0 -0.30385540208E+03  0.24879811726E+03  0.20347143179E+03  0.94195847942E+03  0.83165891138E+03 0.  0.
        -24    2    4    4    0    0  0.19163292112E+01  0.16091393659E+03 -0.29422252909E+03  0.34484520743E+03  0.80338989025E+02 0.  0.
         24    2    4    4    0    0 -0.30577173129E+03  0.87884180663E+02  0.49769396088E+03  0.59711327199E+03  0.87321246104E+02 0.  0.
         13    1    3    3    0    0  0.12178575562E+03 -0.12793364679E+03 -0.33224690970E+03  0.37628021109E+03  0.00000000000E+00 0.  1.
        -13    1    3    3    0    0  0.18206964647E+03 -0.12086447047E+03 -0.64174586863E+03  0.67793461063E+03  0.00000000000E+00 0. -1.
          4    1    6    6  502    0 -0.29994104879E+03  0.10024445735E+03  0.47735113266E+03  0.57260604942E+03  0.00000000000E+00 0. -1.
          3    1    5    5  503    0 -0.30708764152E+02  0.12455966651E+03 -0.23794356129E+03  0.27032439231E+03  0.00000000000E+00 0. -1.
         -4    1    5    5    0  503  0.32625093363E+02  0.36354270081E+02 -0.56278967793E+02  0.74520815119E+02  0.00000000000E+00 0.  1.
         -3    1    6    6    0  502 -0.58306825051E+01 -0.12360276686E+02  0.20342828224E+02  0.24507222576E+02  0.00000000000E+00 0.  1.
<mgrwt>
<rscale>  0 0.18414681E+04</rscale>
<asrwt>0</asrwt>
<pdfrwt beam="1">  1        2 0.21282266E+00 0.18414681E+04</pdfrwt>
<pdfrwt beam="2">  1       -2 0.94280921E-01 0.18414681E+04</pdfrwt>
<totfact> 0.13206521E+01</totfact>
</mgrwt>
</event>
<event>
12    1  0.1495204E-007  0.1291958E+04  0.7818608E-02  0.9035967E-01
          2   -1    0    0  501    0  0.00000000000E+00  0.00000000000E+00  0.64195563616E+03  0.64195563616E+03  0.00000000000E+00 0. -1.
         -2   -1    0    0    0  501 -0.00000000000E+00 -0.00000000000E+00 -0.65002722456E+03  0.65002722456E+03  0.00000000000E+00 0.  1.
         23    2    1    2    0    0  0.11975745012E+03  0.25850835840E+02  0.28967118432E+03  0.32804975609E+03  0.93258430564E+02 0.  0.
        254    2    1    2    0    0 -0.11975745012E+03 -0.25850835840E+02 -0.29774277273E+03  0.96393310463E+03  0.90857369482E+03 0.  0.
        -24    2    4    4    0    0 -0.20595302145E+03 -0.43645983402E+03 -0.17529301963E+03  0.51969192849E+03  0.80238544639E+02 0.  0.
         24    2    4    4    0    0  0.86195571332E+02  0.41060899818E+03 -0.12244975310E+03  0.44424117614E+03  0.79541527785E+02 0.  0.
         13    1    3    3    0    0  0.64563860186E+02  0.16882640925E+02  0.25185264179E+03  0.26054417818E+03  0.00000000000E+00 0. -1.
        -13    1    3    3    0    0  0.55193589932E+02  0.89681949156E+01  0.37818542531E+02  0.67505577909E+02  0.00000000000E+00 0.  1.
          2    1    6    6  502    0  0.33340784015E+02  0.16223560171E+03 -0.83126615230E+01  0.16583455214E+03  0.00000000000E+00 0. -1.
          1    1    5    5  503    0 -0.10431717465E+03 -0.15218371696E+03 -0.93844559397E+02  0.20699941537E+03  0.00000000000E+00 0. -1.
         -4    1    5    5    0  503 -0.10163584680E+03 -0.28427611706E+03 -0.81448460230E+02  0.31269251312E+03  0.00000000000E+00 0.  1.
         -1    1    6    6    0  502  0.52854787317E+02  0.24837339647E+03 -0.11413709158E+03  0.27840662401E+03  0.00000000000E+00 0.  1.
<mgrwt>
<rscale>  0 0.12919576E+04</rscale>
<asrwt>0</asrwt>
<pdfrwt beam="1">  1        2 0.98762406E-01 0.12919576E+04</pdfrwt>
<pdfrwt beam="2">  1       -2 0.10000419E+00 0.12919576E+04</pdfrwt>
<totfact> 0.36994329E+01</totfact>
</mgrwt>
</event>
<event>
12    1  0.1495204E-007  0.1561106E+04  0.7818608E-02  0.8844805E-01
          4   -1    0    0  501    0  0.00000000000E+00  0.00000000000E+00  0.14060472739E+04  0.14060472739E+04  0.00000000000E+00 0. -1.
         -4   -1    0    0    0  501 -0.00000000000E+00 -0.00000000000E+00 -0.43331600946E+03  0.43331600946E+03  0.00000000000E+00 0.  1.
         23    2    1    2    0    0 -0.83288676852E+02  0.43918425875E+03  0.22967627242E+02  0.45681929931E+03  0.91304673984E+02 0.  0.
        254    2    1    2    0    0  0.83288676852E+02 -0.43918425875E+03  0.94976363720E+03  0.13825439841E+04  0.89975390219E+03 0.  0.
        -24    2    4    4    0    0 -0.28225960808E+03  0.40201374114E+01  0.68454377698E+03  0.74477948001E+03  0.80060248382E+02 0.  0.
         24    2    4    4    0    0  0.36554828494E+03 -0.44320439616E+03  0.26521986022E+03  0.63776450406E+03  0.79663686751E+02 0.  0.
         13    1    3    3    0    0 -0.93040760425E+02  0.29808863634E+03 -0.65481402301E+01  0.31234003323E+03  0.00000000000E+00 0.  1.
        -13    1    3    3    0    0  0.97520835729E+01  0.14109562241E+03  0.29515767472E+02  0.14447926608E+03  0.00000000000E+00 0. -1.
          4    1    6    6  502    0  0.32620200111E+02 -0.69110742872E+02  0.57357791346E+02  0.95552542948E+02  0.00000000000E+00 0. -1.
          3    1    5    5  503    0 -0.11689520319E+02  0.15391340872E+02  0.80838157938E+02  0.83116460692E+02  0.00000000000E+00 0. -1.
         -4    1    5    5    0  503 -0.27057008777E+03 -0.11371203460E+02  0.60370561905E+03  0.66166301931E+03  0.00000000000E+00 0.  1.
         -3    1    6    6    0  502  0.33292808483E+03 -0.37409365329E+03  0.20786206887E+03  0.54221196111E+03  0.00000000000E+00 0.  1.
<mgrwt>
<rscale>  0 0.15611058E+04</rscale>
<asrwt>0</asrwt>
<pdfrwt beam="1">  1        4 0.21631496E+00 0.15611058E+04</pdfrwt>
<pdfrwt beam="2">  1       -4 0.66664002E-01 0.15611058E+04</pdfrwt>
<totfact> 0.41342697E-01</totfact>
</mgrwt>
</event>
<event>
12    1  0.1495204E-007  0.3097545E+04  0.7818608E-02  0.8216412E-01
          2   -1    0    0  501    0  0.00000000000E+00  0.00000000000E+00  0.16769228492E+04  0.16769228492E+04  0.00000000000E+00 0. -1.
         -2   -1    0    0    0  501 -0.00000000000E+00 -0.00000000000E+00 -0.14304150543E+04  0.14304150543E+04  0.00000000000E+00 0.  1.
         23    2    1    2    0    0 -0.31068551373E+02 -0.14110484876E+04 -0.66350310079E+01  0.14142124471E+04  0.89049045350E+02 0.  0.
        254    2    1    2    0    0  0.31068551373E+02  0.14110484876E+04  0.25314282591E+03  0.16931254564E+04  0.90031629524E+03 0.  0.
        -24    2    4    4    0    0  0.90776527209E+02  0.68593421995E+03 -0.31680244972E+03  0.76546255641E+03  0.82601459581E+02 0.  0.
         24    2    4    4    0    0 -0.59707975836E+02  0.72511426767E+03  0.56994527563E+03  0.92766289998E+03  0.79781546928E+02 0.  0.
         13    1    3    3    0    0 -0.69538027999E+01 -0.57897824597E+03  0.40695406667E+02  0.58044834465E+03  0.00000000000E+00 0. -1.
        -13    1    3    3    0    0 -0.24114748574E+02 -0.83207024166E+03 -0.47330437674E+02  0.83376410242E+03  0.00000000000E+00 0.  1.
          2    1    6    6  502    0 -0.74117527213E+02  0.67320074123E+03  0.51617447927E+03  0.85154491301E+03  0.00000000000E+00 0. -1.
          3    1    5    5  503    0  0.73997881294E+02  0.58652684487E+03 -0.23710722189E+03  0.63695310727E+03  0.00000000000E+00 0. -1.
         -4    1    5    5    0  503  0.16778645915E+02  0.99407375084E+02 -0.79695227831E+02  0.12850944914E+03  0.00000000000E+00 0.  1.
         -1    1    6    6    0  502  0.14409551378E+02  0.51913526440E+02  0.53770796364E+02  0.76117986967E+02  0.00000000000E+00 0.  1.
<mgrwt>
<rscale>  0 0.30975446E+04</rscale>
<asrwt>0</asrwt>
<pdfrwt beam="1">  1        2 0.25798813E+00 0.30975446E+04</pdfrwt>
<pdfrwt beam="2">  1       -2 0.22006385E+00 0.30975446E+04</pdfrwt>
<totfact> 0.84709825E-01</totfact>
</mgrwt>
</event>
<event>
12    1  0.1495204E-007  0.1496024E+04  0.7818608E-02  0.8887101E-01
         -1   -1    0    0    0  501 -0.00000000000E+00  0.00000000000E+00  0.11382406533E+04  0.11382406533E+04  0.00000000000E+00 0.  1.
          1   -1    0    0  501    0  0.00000000000E+00 -0.00000000000E+00 -0.49156763023E+03  0.49156763023E+03  0.00000000000E+00 0. -1.
         23    2    1    2    0    0  0.45582723772E+03 -0.49220116038E+02  0.15501423402E+03  0.49222289421E+03  0.89737809000E+02 0.  0.
        254    2    1    2    0    0 -0.45582723772E+03  0.49220116038E+02  0.49165878908E+03  0.11375853894E+04  0.91769878649E+03 0.  0.
        -24    2    4    4    0    0  0.15379764525E+03 -0.11996253244E+03 -0.12840566966E+03  0.24802908470E+03  0.83580416264E+02 0.  0.
         24    2    4    4    0    0 -0.60962488297E+03  0.16918264847E+03  0.62006445874E+03  0.88955630465E+03  0.81026043193E+02 0.  0.
         13    1    3    3    0    0  0.30546204909E+03 -0.59079571726E+01  0.67326153696E+02  0.31284945000E+03  0.00000000000E+00 0. -1.
        -13    1    3    3    0    0  0.15036518863E+03 -0.43312158865E+02  0.87688080326E+02  0.17937344422E+03  0.00000000000E+00 0.  1.
          4    1    6    6  502    0 -0.10053881057E+03  0.34012718408E+02  0.65523722820E+02  0.12473281724E+03  0.00000000000E+00 0. -1.
          3    1    5    5  503    0  0.68894380932E+02 -0.27691187201E+02 -0.88487221874E+01  0.74776583613E+02  0.00000000000E+00 0. -1.
         -4    1    5    5    0  503  0.84903264321E+02 -0.92271345236E+02 -0.11955694747E+03  0.17325250109E+03  0.00000000000E+00 0.  1.
         -3    1    6    6    0  502 -0.50908607240E+03  0.13516993007E+03  0.55454073592E+03  0.76482348741E+03  0.00000000000E+00 0.  1.
<mgrwt>
<rscale>  0 0.14960244E+04</rscale>
<asrwt>0</asrwt>
<pdfrwt beam="1">  1        1 0.75625789E-01 0.14960244E+04</pdfrwt>
<pdfrwt beam="2">  1       -1 0.17511395E+00 0.14960244E+04</pdfrwt>
<totfact> 0.99114175E+00</totfact>
</mgrwt>
</event>
<event>
12    1  0.1495204E-007  0.1749547E+04  0.7818608E-02  0.8733600E-01
          1   -1    0    0  501    0  0.00000000000E+00  0.00000000000E+00  0.57766316030E+03  0.57766316030E+03  0.00000000000E+00 0. -1.
         -1   -1    0    0    0  501 -0.00000000000E+00 -0.00000000000E+00 -0.13246969622E+04  0.13246969622E+04  0.00000000000E+00 0.  1.
         23    2    1    2    0    0  0.75415175655E+02 -0.27330643470E+03  0.34747079467E+03  0.45768823104E+03  0.91425968487E+02 0.  0.
        254    2    1    2    0    0 -0.75415175655E+02  0.27330643470E+03 -0.10945045966E+04  0.14446718915E+04  0.89930679199E+03 0.  0.
        -24    2    4    4    0    0  0.33843536444E+03 -0.57349830100E+02 -0.20993913348E+03  0.41047455188E+03  0.81162916754E+02 0.  0.
         24    2    4    4    0    0 -0.41385054009E+03  0.33065626480E+03 -0.88456546309E+03  0.10341973396E+04  0.80636491390E+02 0.  0.
         13    1    3    3    0    0  0.37597254532E+02 -0.32857926570E+02  0.92960687728E+02  0.10552197093E+03  0.00000000000E+00 0.  1.
        -13    1    3    3    0    0  0.37817921124E+02 -0.24044850813E+03  0.25451010694E+03  0.35216626010E+03  0.00000000000E+00 0. -1.
          2    1    6    6  502    0 -0.84611427531E+02  0.32823744230E+02 -0.12635508100E+03  0.15557023606E+03  0.00000000000E+00 0. -1.
          3    1    5    5  503    0  0.10058846159E+03  0.11513138285E+02 -0.89453981748E+02  0.13510220505E+03  0.00000000000E+00 0. -1.
         -4    1    5    5    0  503  0.23784690285E+03 -0.68862968385E+02 -0.12048515173E+03  0.27537234683E+03  0.00000000000E+00 0.  1.
         -1    1    6    6    0  502 -0.32923911256E+03  0.29783252057E+03 -0.75821038209E+03  0.87862710353E+03  0.00000000000E+00 0.  1.
<mgrwt>
<rscale>  0 0.17495470E+04</rscale>
<asrwt>0</asrwt>
<pdfrwt beam="1">  1        1 0.88871257E-01 0.17495470E+04</pdfrwt>
<pdfrwt beam="2">  1       -1 0.20379953E+00 0.17495470E+04</pdfrwt>
<totfact> 0.48568480E+00</totfact>
</mgrwt>
</event>
<event>
12    1  0.1495204E-007  0.1244691E+04  0.7818608E-02  0.9074614E-01
         -3   -1    0    0    0  501 -0.00000000000E+00  0.00000000000E+00  0.10030753969E+04  0.10030753969E+04  0.00000000000E+00 0.  1.
          3   -1    0    0  501    0  0.00000000000E+00 -0.00000000000E+00 -0.38612634419E+03  0.38612634419E+03  0.00000000000E+00 0. -1.
         23    2    1    2    0    0 -0.27665522302E+03 -0.29479613903E+01  0.89795893976E+02  0.31279420272E+03  0.11502220560E+03 0.  0.
        254    2    1    2    0    0  0.27665522302E+03  0.29479613903E+01  0.52715315869E+03  0.10764075383E+04  0.89678087231E+03 0.  0.
        -24    2    4    4    0    0  0.59650303438E+03 -0.48213160977E+02  0.31120427743E+03  0.67903173686E+03  0.78074441775E+02 0.  0.
         24    2    4    4    0    0 -0.31984781136E+03  0.51161122368E+02  0.21594888126E+03  0.39737580146E+03  0.79709004505E+02 0.  0.
         13    1    3    3    0    0 -0.17924839438E+03 -0.20558263197E+02  0.11062887788E+03  0.21163973563E+03  0.00000000000E+00 0. -1.
        -13    1    3    3    0    0 -0.97406828640E+02  0.17610301807E+02 -0.20832983906E+02  0.10115446710E+03  0.00000000000E+00 0.  1.
          2    1    6    6  502    0 -0.28584688353E+03  0.43106038715E+02  0.21846319430E+03  0.36234339881E+03  0.00000000000E+00 0. -1.
          1    1    5    5  503    0  0.38209134502E+03 -0.59057231567E+02  0.22756850659E+03  0.44863011238E+03  0.00000000000E+00 0. -1.
         -2    1    5    5    0  503  0.21441168936E+03  0.10844070589E+02  0.83635770836E+02  0.23040162448E+03  0.00000000000E+00 0.  1.
         -1    1    6    6    0  502 -0.34000927831E+02  0.80550836528E+01 -0.25143130352E+01  0.35032402659E+02  0.00000000000E+00 0.  1.
<mgrwt>
<rscale>  0 0.12446909E+04</rscale>
<asrwt>0</asrwt>
<pdfrwt beam="1">  1        3 0.59404053E-01 0.12446909E+04</pdfrwt>
<pdfrwt beam="2">  1       -3 0.15431929E+00 0.12446909E+04</pdfrwt>
<totfact> 0.21418896E+00</totfact>
</mgrwt>
</event>
<event>
12    1  0.1495204E-007  0.1548803E+04  0.7818608E-02  0.8852633E-01
         -2   -1    0    0    0  501 -0.00000000000E+00  0.00000000000E+00  0.28206726397E+03  0.28206726397E+03  0.00000000000E+00 0.  1.
          2   -1    0    0  501    0  0.00000000000E+00 -0.00000000000E+00 -0.21260804936E+04  0.21260804936E+04  0.00000000000E+00 0. -1.
         23    2    1    2    0    0  0.12104320850E+03  0.32412101610E+02  0.14951519120E+03  0.21504232779E+03  0.90478769265E+02 0.  0.
        254    2    1    2    0    0 -0.12104320850E+03 -0.32412101610E+02 -0.19935284208E+04  0.21931054298E+04  0.90545781725E+03 0.  0.
        -24    2    4    4    0    0  0.32900257871E+02  0.39077267656E+03 -0.13179601517E+04  0.13772455908E+04  0.77464470825E+02 0.  0.
         24    2    4    4    0    0 -0.15394346637E+03 -0.42318477817E+03 -0.67556826911E+03  0.81585983895E+03  0.80317141773E+02 0.  0.
         11    1    3    3    0    0  0.41214217455E+02  0.11360819844E+02 -0.16704827420E+01  0.42783997716E+02  0.00000000000E+00 0. -1.
        -11    1    3    3    0    0  0.79828991044E+02  0.21051281766E+02  0.15118567394E+03  0.17225833007E+03  0.00000000000E+00 0.  1.
          2    1    6    6  502    0 -0.49626468079E+02 -0.24244574683E+03 -0.39657033373E+03  0.46745134087E+03  0.00000000000E+00 0. -1.
          3    1    5    5  503    0 -0.10489714944E+02  0.25202194283E+03 -0.76603332193E+03  0.80649373469E+03  0.00000000000E+00 0. -1.
         -2    1    5    5    0  503  0.43389972815E+02  0.13875073373E+03 -0.55192682976E+03  0.57075185612E+03  0.00000000000E+00 0.  1.
         -1    1    6    6    0  502 -0.10431699829E+03 -0.18073903134E+03 -0.27899793538E+03  0.34840849807E+03  0.00000000000E+00 0.  1.
<mgrwt>
<rscale>  0 0.15488030E+04</rscale>
<asrwt>0</asrwt>
<pdfrwt beam="1">  1        2 0.32708929E+00 0.15488030E+04</pdfrwt>
<pdfrwt beam="2">  1       -2 0.43394966E-01 0.15488030E+04</pdfrwt>
<totfact> 0.27558712E+01</totfact>
</mgrwt>
</event>
<event>
12    1  0.1495204E-007  0.1464421E+04  0.7818608E-02  0.8908464E-01
          2   -1    0    0  501    0  0.00000000000E+00  0.00000000000E+00  0.37692254098E+04  0.37692254098E+04  0.00000000000E+00 0. -1.
         -2   -1    0    0    0  501 -0.00000000000E+00 -0.00000000000E+00 -0.14223930797E+03  0.14223930797E+03  0.00000000000E+00 0.  1.
         23    2    1    2    0    0  0.58312590517E+02 -0.42219244420E+03  0.79075398625E+03  0.90301306143E+03  0.92162379415E+02 0.  0.
        254    2    1    2    0    0 -0.58312590517E+02  0.42219244420E+03  0.28362321156E+04  0.30084516564E+04  0.90825213295E+03 0.  0.
        -24    2    4    4    0    0  0.22749913614E+03  0.50837149598E+03  0.24500659242E+04  0.25138857921E+04  0.81248430687E+02 0.  0.
         24    2    4    4    0    0 -0.28581172665E+03 -0.86179051777E+02  0.38616619134E+03  0.49456586430E+03  0.79723865559E+02 0.  0.
         11    1    3    3    0    0 -0.17095787948E+02 -0.18521655333E+02  0.52300808478E+02  0.58057663140E+02  0.00000000000E+00 0.  1.
        -11    1    3    3    0    0  0.75408378465E+02 -0.40367078887E+03  0.73845317777E+03  0.84495539829E+03  0.00000000000E+00 0. -1.
          2    1    6    6  502    0 -0.14853628118E+02 -0.26647884187E+02  0.27039513288E+02  0.40766104533E+02  0.00000000000E+00 0. -1.
          1    1    5    5  503    0 -0.45177845830E+01  0.38793503897E+02  0.17584841209E+03  0.18013331273E+03  0.00000000000E+00 0. -1.
         -2    1    5    5    0  503  0.23201692072E+03  0.46957799208E+03  0.22742175122E+04  0.23337524793E+04  0.00000000000E+00 0.  1.
         -1    1    6    6    0  502 -0.27095809854E+03 -0.59531167589E+02  0.35912667805E+03  0.45379975977E+03  0.00000000000E+00 0.  1.
<mgrwt>
<rscale>  0 0.14644207E+04</rscale>
<asrwt>0</asrwt>
<pdfrwt beam="1">  1        2 0.57988076E+00 0.14644207E+04</pdfrwt>
<pdfrwt beam="2">  1       -2 0.21882973E-01 0.14644207E+04</pdfrwt>
<totfact> 0.93380144E+00</totfact>
</mgrwt>
</event>
<event>
12    1  0.1495204E-007  0.1751781E+04  0.7818608E-02  0.8732371E-01
         -1   -1    0    0    0  501 -0.00000000000E+00  0.00000000000E+00  0.95261012233E+03  0.95261012233E+03  0.00000000000E+00 0.  1.
          1   -1    0    0  501    0  0.00000000000E+00 -0.00000000000E+00 -0.80534917579E+03  0.80534917579E+03  0.00000000000E+00 0. -1.
         23    2    1    2    0    0  0.64102095565E+03 -0.25524658837E+02  0.74992708733E+02  0.65208279569E+03  0.89602970294E+02 0.  0.
        254    2    1    2    0    0 -0.64102095565E+03  0.25524658837E+02  0.72268237799E+02  0.11058765024E+04  0.89787569665E+03 0.  0.
        -24    2    4    4    0    0 -0.70380131884E+03 -0.14677833811E+03 -0.21566454590E+03  0.75493488683E+03  0.80841264549E+02 0.  0.
         24    2    4    4    0    0  0.62780363187E+02  0.17230299695E+03  0.28793278370E+03  0.35094161560E+03  0.81394304920E+02 0.  0.
         13    1    3    3    0    0  0.48825474615E+03 -0.16688361881E+02  0.18253750425E+02  0.48888076048E+03  0.00000000000E+00 0.  1.
        -13    1    3    3    0    0  0.15276620950E+03 -0.88362969558E+01  0.56738958308E+02  0.16320203521E+03  0.00000000000E+00 0. -1.
          2    1    6    6  502    0  0.62526499778E+02  0.17375827481E+03  0.29262546158E+03  0.34602190972E+03  0.00000000000E+00 0. -1.
          1    1    5    5  503    0 -0.26382666046E+03 -0.16219172612E+02 -0.87647355081E+02  0.27847733693E+03  0.00000000000E+00 0. -1.
         -2    1    5    5    0  503 -0.43997465837E+03 -0.13055916550E+03 -0.12801719082E+03  0.47645754990E+03  0.00000000000E+00 0.  1.
         -1    1    6    6    0  502  0.25386340941E+00 -0.14552778575E+01 -0.46926778836E+01  0.49197058847E+01  0.00000000000E+00 0.  1.
<mgrwt>
<rscale>  0 0.17517806E+04</rscale>
<asrwt>0</asrwt>
<pdfrwt beam="1">  1        1 0.12389987E+00 0.17517806E+04</pdfrwt>
<pdfrwt beam="2">  1       -1 0.14655540E+00 0.17517806E+04</pdfrwt>
<totfact> 0.76971336E+00</totfact>
</mgrwt>
</event>
<event>
12    1  0.1495204E-007  0.1532045E+04  0.7818608E-02  0.8863419E-01
         -1   -1    0    0    0  501 -0.00000000000E+00  0.00000000000E+00  0.26040275106E+03  0.26040275106E+03  0.00000000000E+00 0.  1.
          1   -1    0    0  501    0  0.00000000000E+00 -0.00000000000E+00 -0.22533956178E+04  0.22533956178E+04  0.00000000000E+00 0. -1.
         23    2    1    2    0    0  0.15750868686E+03  0.48472305712E+03 -0.47114940713E+03  0.69929139379E+03  0.85213033274E+02 0.  0.
        254    2    1    2    0    0 -0.15750868686E+03 -0.48472305712E+03 -0.15218434596E+04  0.18145069751E+04  0.84655928234E+03 0.  0.
        -24    2    4    4    0    0 -0.44111069021E+02 -0.71182881637E+03 -0.11849852071E+04  0.13852996709E+04  0.78861822039E+02 0.  0.
         24    2    4    4    0    0 -0.11339761784E+03  0.22710575925E+03 -0.33685825251E+03  0.42920730416E+03  0.79431618708E+02 0.  0.
         13    1    3    3    0    0  0.92725380847E+02  0.15929511143E+03 -0.18476143183E+03  0.26097838123E+03  0.00000000000E+00 0. -1.
        -13    1    3    3    0    0  0.64783306009E+02  0.32542794570E+03 -0.28638797530E+03  0.43831301256E+03  0.00000000000E+00 0.  1.
          4    1    6    6  502    0 -0.89794918055E+02  0.16880530121E+03 -0.19049240392E+03  0.26989944975E+03  0.00000000000E+00 0. -1.
          1    1    5    5  503    0 -0.44580644472E+02 -0.49175408345E+03 -0.88222266565E+03  0.10110026430E+04  0.00000000000E+00 0. -1.
         -2    1    5    5    0  503  0.46957545158E+00 -0.22007473292E+03 -0.30276254143E+03  0.37429702786E+03  0.00000000000E+00 0.  1.
         -3    1    6    6    0  502 -0.23602699780E+02  0.58300458038E+02 -0.14636584859E+03  0.15930785441E+03  0.00000000000E+00 0.  1.
<mgrwt>
<rscale>  0 0.15320449E+04</rscale>
<asrwt>0</asrwt>
<pdfrwt beam="1">  1        1 0.34667625E+00 0.15320449E+04</pdfrwt>
<pdfrwt beam="2">  1       -1 0.40061962E-01 0.15320449E+04</pdfrwt>
<totfact> 0.11753671E+01</totfact>
</mgrwt>
</event>
<event>
12    1  0.1495204E-007  0.1515209E+04  0.7818608E-02  0.8874402E-01
          2   -1    0    0  501    0  0.00000000000E+00  0.00000000000E+00  0.19373054057E+04  0.19373054057E+04  0.00000000000E+00 0. -1.
         -2   -1    0    0    0  501 -0.00000000000E+00 -0.00000000000E+00 -0.29626943815E+03  0.29626943815E+03  0.00000000000E+00 0.  1.
         23    2    1    2    0    0 -0.22997092581E+03  0.45279296081E+02 -0.63796222304E+02  0.25936546072E+03  0.90904581091E+02 0.  0.
        254    2    1    2    0    0  0.22997092581E+03 -0.45279296081E+02  0.17048321899E+04  0.19742093832E+04  0.96752935433E+03 0.  0.
        -24    2    4    4    0    0  0.56630078372E+03 -0.11262284623E+03  0.13656176285E+04  0.14849861892E+04  0.83018020596E+02 0.  0.
         24    2    4    4    0    0 -0.33632985791E+03  0.67343550150E+02  0.33921456138E+03  0.48922319394E+03  0.81362692689E+02 0.  0.
         13    1    3    3    0    0 -0.18386387184E+03  0.71399348953E+02 -0.39903074430E+02  0.20123629331E+03  0.00000000000E+00 0.  1.
        -13    1    3    3    0    0 -0.46107053971E+02 -0.26120052872E+02 -0.23893147874E+02  0.58129167406E+02  0.00000000000E+00 0. -1.
          4    1    6    6  502    0 -0.59270689835E+02  0.34111162919E+02  0.36500131003E+02  0.77516744465E+02  0.00000000000E+00 0. -1.
          1    1    5    5  503    0  0.22498762782E+03 -0.78803062119E+02  0.62054091301E+03  0.66475588000E+03  0.00000000000E+00 0. -1.
         -2    1    5    5    0  503  0.34131315591E+03 -0.33819784111E+02  0.74507671550E+03  0.82023030922E+03  0.00000000000E+00 0.  1.
         -3    1    6    6    0  502 -0.27705916808E+03  0.33232387231E+02  0.30271443038E+03  0.41170644947E+03  0.00000000000E+00 0.  1.
<mgrwt>
<rscale>  0 0.15152087E+04</rscale>
<asrwt>0</asrwt>
<pdfrwt beam="1">  1        2 0.29804698E+00 0.15152087E+04</pdfrwt>
<pdfrwt beam="2">  1       -2 0.45579915E-01 0.15152087E+04</pdfrwt>
<totfact> 0.31897940E+01</totfact>
</mgrwt>
</event>
<event>
12    1  0.1495204E-007  0.1423782E+04  0.7818608E-02  0.8936781E-01
          1   -1    0    0  501    0  0.00000000000E+00  0.00000000000E+00  0.19139443494E+04  0.19139443494E+04  0.00000000000E+00 0. -1.
         -1   -1    0    0    0  501 -0.00000000000E+00 -0.00000000000E+00 -0.26478774119E+03  0.26478774119E+03  0.00000000000E+00 0.  1.
         23    2    1    2    0    0  0.85437926608E+01 -0.32574286985E+03  0.93436773590E+02  0.35144210049E+03  0.92734598093E+02 0.  0.
        254    2    1    2    0    0 -0.85437926608E+01  0.32574286985E+03  0.15557198346E+04  0.18272899901E+04  0.90141172082E+03 0.  0.
        -24    2    4    4    0    0 -0.98682400622E+02 -0.26761865203E+03  0.83502726538E+03  0.88637200570E+03  0.83826245615E+02 0.  0.
         24    2    4    4    0    0  0.90138607962E+02  0.59336152188E+03  0.72069256927E+03  0.94091798442E+03  0.75670401842E+02 0.  0.
         11    1    3    3    0    0  0.18674410538E+02 -0.95907464419E+01  0.14230042249E+02  0.25361587661E+02  0.00000000000E+00 0. -1.
        -11    1    3    3    0    0 -0.10130617877E+02 -0.31615212341E+03  0.79206731340E+02  0.32608051283E+03  0.00000000000E+00 0.  1.
          4    1    6    6  502    0  0.54861780787E+02  0.22917622119E+03  0.33169195293E+03  0.40687972054E+03  0.00000000000E+00 0. -1.
          3    1    5    5  503    0 -0.10043957588E+03 -0.27168330776E+03  0.79542261135E+03  0.84652056015E+03  0.00000000000E+00 0. -1.
         -4    1    5    5    0  503  0.17571752608E+01  0.40646557322E+01  0.39604654028E+02  0.39851445542E+02  0.00000000000E+00 0.  1.
         -3    1    6    6    0  502  0.35276827174E+02  0.36418530070E+03  0.38900061634E+03  0.53403826388E+03  0.00000000000E+00 0.  1.
<mgrwt>
<rscale>  0 0.14237823E+04</rscale>
<asrwt>0</asrwt>
<pdfrwt beam="1">  1        1 0.29445297E+00 0.14237823E+04</pdfrwt>
<pdfrwt beam="2">  1       -1 0.40736577E-01 0.14237823E+04</pdfrwt>
<totfact> 0.19553903E+01</totfact>
</mgrwt>
</event>
<event>
12    1  0.1495204E-007  0.1446167E+04  0.7818608E-02  0.8921062E-01
          2   -1    0    0  501    0  0.00000000000E+00  0.00000000000E+00  0.19233769478E+04  0.19233769478E+04  0.00000000000E+00 0. -1.
         -2   -1    0    0    0  501 -0.00000000000E+00 -0.00000000000E+00 -0.27183929888E+03  0.27183929888E+03  0.00000000000E+00 0.  1.
         23    2    1    2    0    0 -0.31517491728E+03  0.29780585485E+03  0.62925457690E+03  0.76956316152E+03  0.90788663199E+02 0.  0.
        254    2    1    2    0    0  0.31517491728E+03 -0.29780585485E+03  0.10222830720E+04  0.14256530851E+04  0.89409198864E+03 0.  0.
        -24    2    4    4    0    0 -0.13072593268E+03 -0.41455914695E+03  0.78183463255E+03  0.89808342453E+03  0.79623419641E+02 0.  0.
         24    2    4    4    0    0  0.44590084996E+03  0.11675329210E+03  0.24044843943E+03  0.52756966058E+03  0.89751855294E+02 0.  0.
         13    1    3    3    0    0 -0.16794830384E+03  0.19861715584E+03  0.43135888887E+03  0.50371211854E+03  0.00000000000E+00 0. -1.
        -13    1    3    3    0    0 -0.14722661344E+03  0.99188699010E+02  0.19789568802E+03  0.26585104298E+03  0.00000000000E+00 0.  1.
          2    1    6    6  502    0  0.28696787989E+03  0.36244571464E+02  0.17320444670E+03  0.33714093997E+03  0.00000000000E+00 0. -1.
          3    1    5    5  503    0 -0.10254326063E+03 -0.39328887766E+03  0.71235555891E+03  0.82014736719E+03  0.00000000000E+00 0. -1.
         -4    1    5    5    0  503 -0.28182672053E+02 -0.21270269292E+02  0.69479073637E+02  0.77936057337E+02  0.00000000000E+00 0.  1.
         -1    1    6    6    0  502  0.15893297007E+03  0.80508720635E+02  0.67243992729E+02  0.19042872060E+03  0.00000000000E+00 0.  1.
<mgrwt>
<rscale>  0 0.14461666E+04</rscale>
<asrwt>0</asrwt>
<pdfrwt beam="1">  1        2 0.29590414E+00 0.14461666E+04</pdfrwt>
<pdfrwt beam="2">  1       -2 0.41821432E-01 0.14461666E+04</pdfrwt>
<totfact> 0.38743936E+01</totfact>
</mgrwt>
</event>
<event>
12    1  0.1495204E-007  0.1201108E+04  0.7818608E-02  0.9111887E-01
          1   -1    0    0  501    0  0.00000000000E+00  0.00000000000E+00  0.10672558278E+04  0.10672558278E+04  0.00000000000E+00 0. -1.
         -1   -1    0    0    0  501 -0.00000000000E+00 -0.00000000000E+00 -0.33793705224E+03  0.33793705224E+03  0.00000000000E+00 0.  1.
         23    2    1    2    0    0  0.16212472994E+03 -0.96022441929E+02 -0.32700093205E+02  0.21145892637E+03  0.90226625975E+02 0.  0.
        254    2    1    2    0    0 -0.16212472994E+03  0.96022441929E+02  0.76201886873E+03  0.11937339536E+04  0.89934601704E+03 0.  0.
        -24    2    4    4    0    0 -0.34588153273E+03  0.57436145853E+02  0.88510642668E+03  0.95550360183E+03  0.81491110104E+02 0.  0.
         24    2    4    4    0    0  0.18375680279E+03  0.38586296075E+02 -0.12308755795E+03  0.23823035181E+03  0.79672384077E+02 0.  0.
         11    1    3    3    0    0  0.34341264591E+02  0.11229379909E+02  0.13143113669E+02  0.38446883668E+02  0.00000000000E+00 0. -1.
        -11    1    3    3    0    0  0.12778346535E+03 -0.10725182184E+03 -0.45843206874E+02  0.17301204270E+03  0.00000000000E+00 0.  1.
          2    1    6    6  502    0  0.13157654360E+03  0.60218672341E+02 -0.70127503035E+02  0.16079969529E+03  0.00000000000E+00 0. -1.
          1    1    5    5  503    0 -0.33889913319E+03  0.43120706434E+02  0.81683803730E+03  0.88540182798E+03  0.00000000000E+00 0. -1.
         -2    1    5    5    0  503 -0.69823995380E+01  0.14315439419E+02  0.68268389380E+02  0.70101773855E+02  0.00000000000E+00 0.  1.
         -1    1    6    6    0  502  0.52180259191E+02 -0.21632376265E+02 -0.52960054914E+02  0.77430656516E+02  0.00000000000E+00 0.  1.
<mgrwt>
<rscale>  0 0.12011083E+04</rscale>
<asrwt>0</asrwt>
<pdfrwt beam="1">  1        1 0.16419320E+00 0.12011083E+04</pdfrwt>
<pdfrwt beam="2">  1       -1 0.51990316E-01 0.12011083E+04</pdfrwt>
<totfact> 0.49476815E+01</totfact>
</mgrwt>
</event>
<event>
12    1  0.1495204E-007  0.2180377E+04  0.7818608E-02  0.8526640E-01
          1   -1    0    0  501    0  0.00000000000E+00  0.00000000000E+00  0.68830839503E+03  0.68830839503E+03  0.00000000000E+00 0. -1.
         -1   -1    0    0    0  501 -0.00000000000E+00 -0.00000000000E+00 -0.17267134426E+04  0.17267134426E+04  0.00000000000E+00 0.  1.
         23    2    1    2    0    0 -0.88595005421E+02  0.86457968463E+03 -0.16579103157E+03  0.88976491726E+03  0.94062935160E+02 0.  0.
        254    2    1    2    0    0  0.88595005421E+02 -0.86457968463E+03 -0.87261401603E+03  0.15252569204E+04  0.89978127686E+03 0.  0.
        -24    2    4    4    0    0  0.17685136028E+03 -0.13750979437E+03  0.13769014282E+03  0.27487689744E+03  0.80083619658E+02 0.  0.
         24    2    4    4    0    0 -0.88256354861E+02 -0.72706989027E+03 -0.10103041589E+04  0.12503800230E+04  0.79472629971E+02 0.  0.
         11    1    3    3    0    0 -0.75307443545E+02  0.44472133419E+03 -0.12300002586E+03  0.46752249411E+03  0.00000000000E+00 0. -1.
        -11    1    3    3    0    0 -0.13287561876E+02  0.41985835044E+03 -0.42791005710E+02  0.42224242315E+03  0.00000000000E+00 0.  1.
          2    1    6    6  502    0 -0.99270489283E+02 -0.67966251883E+03 -0.95960628986E+03  0.11801016910E+04  0.00000000000E+00 0. -1.
          1    1    5    5  503    0  0.14159129387E+03 -0.14401460710E+03  0.11420863453E+03  0.23201705489E+03  0.00000000000E+00 0. -1.
         -2    1    5    5    0  503  0.35260066414E+02  0.65048127344E+01  0.23481508292E+02  0.42859842555E+02  0.00000000000E+00 0.  1.
         -1    1    6    6    0  502  0.11014134421E+02 -0.47407371439E+02 -0.50697868994E+02  0.70278331969E+02  0.00000000000E+00 0.  1.
<mgrwt>
<rscale>  0 0.21803774E+04</rscale>
<asrwt>0</asrwt>
<pdfrwt beam="1">  1        1 0.10589360E+00 0.21803774E+04</pdfrwt>
<pdfrwt beam="2">  1       -1 0.26564822E+00 0.21803774E+04</pdfrwt>
<totfact> 0.14076269E+00</totfact>
</mgrwt>
</event>
<event>
12    1  0.1495204E-007  0.1569780E+04  0.7818608E-02  0.8839332E-01
         -1   -1    0    0    0  501 -0.00000000000E+00  0.00000000000E+00  0.35444693777E+03  0.35444693777E+03  0.00000000000E+00 0.  1.
          1   -1    0    0  501    0  0.00000000000E+00 -0.00000000000E+00 -0.17380657393E+04  0.17380657393E+04  0.00000000000E+00 0. -1.
         23    2    1    2    0    0 -0.35922014047E+03  0.12435384719E+03 -0.69848313657E+03  0.80039871444E+03  0.90864852209E+02 0.  0.
        254    2    1    2    0    0  0.35922014047E+03 -0.12435384719E+03 -0.68513566496E+03  0.12921139626E+04  0.10274456795E+04 0.  0.
        -24    2    4    4    0    0 -0.31535183320E+03 -0.42928861931E+02 -0.59776525948E+01  0.32800850550E+03  0.79146582117E+02 0.  0.
         24    2    4    4    0    0  0.67457197367E+03 -0.81424985261E+02 -0.67915801236E+03  0.96410545712E+03  0.81033022995E+02 0.  0.
         13    1    3    3    0    0 -0.10352837731E+03 -0.57075498091E+01 -0.17208108318E+03  0.20090445546E+03  0.00000000000E+00 0.  1.
        -13    1    3    3    0    0 -0.25569176316E+03  0.13006139700E+03 -0.52640205339E+03  0.59949425898E+03  0.00000000000E+00 0. -1.
          4    1    6    6  502    0  0.97355015891E+02 -0.40442964646E+02 -0.96541716908E+02  0.14294731761E+03  0.00000000000E+00 0. -1.
          3    1    5    5  503    0 -0.72706398907E+01 -0.70228519158E+01 -0.14557955762E+02  0.17723338552E+02  0.00000000000E+00 0. -1.
         -4    1    5    5    0  503 -0.30808119331E+03 -0.35906010015E+02  0.85803031669E+01  0.31028516695E+03  0.00000000000E+00 0.  1.
         -3    1    6    6    0  502  0.57721695778E+03 -0.40982020615E+02 -0.58261629545E+03  0.82115813951E+03  0.00000000000E+00 0.  1.
<mgrwt>
<rscale>  0 0.15697797E+04</rscale>
<asrwt>0</asrwt>
<pdfrwt beam="1">  1        1 0.26739473E+00 0.15697797E+04</pdfrwt>
<pdfrwt beam="2">  1       -1 0.54530298E-01 0.15697797E+04</pdfrwt>
<totfact> 0.14671194E+01</totfact>
</mgrwt>
</event>
<event>
12    1  0.1495204E-007  0.2062366E+04  0.7818608E-02  0.8578005E-01
          2   -1    0    0  501    0  0.00000000000E+00  0.00000000000E+00  0.27416051963E+04  0.27416051963E+04  0.00000000000E+00 0. -1.
         -2   -1    0    0    0  501 -0.00000000000E+00 -0.00000000000E+00 -0.38785243820E+03  0.38785243820E+03  0.00000000000E+00 0.  1.
         23    2    1    2    0    0 -0.56261200846E+03 -0.15404794052E+02  0.25064280171E+02  0.57075170281E+03  0.91431440876E+02 0.  0.
        254    2    1    2    0    0  0.56261200846E+03  0.15404794052E+02  0.23286884779E+04  0.25587059317E+04  0.89856354134E+03 0.  0.
        -24    2    4    4    0    0 -0.33966318476E+02  0.22299035651E+03  0.13570111940E+03  0.27518196143E+03  0.80199178318E+02 0.  0.
         24    2    4    4    0    0  0.59657832694E+03 -0.20758556246E+03  0.21929873585E+04  0.22835239702E+04  0.79313946629E+02 0.  0.
         13    1    3    3    0    0 -0.15227317311E+03  0.12156648551E+02  0.44260458984E+02  0.15904053440E+03  0.00000000000E+00 0. -1.
        -13    1    3    3    0    0 -0.41033883535E+03 -0.27561442603E+02 -0.19196178813E+02  0.41171116841E+03  0.00000000000E+00 0.  1.
          2    1    6    6  502    0  0.29100435251E+03 -0.10494688989E+03  0.93260709524E+03  0.98257487092E+03  0.00000000000E+00 0. -1.
          1    1    5    5  503    0 -0.52042126329E+02  0.20687958068E+03  0.11054480570E+03  0.24026588997E+03  0.00000000000E+00 0. -1.
         -2    1    5    5    0  503  0.18075807853E+02  0.16110775831E+02  0.25156313699E+02  0.34916071462E+02  0.00000000000E+00 0.  1.
         -1    1    6    6    0  502  0.30557397443E+03 -0.10263867257E+03  0.12603802633E+04  0.13009490993E+04  0.00000000000E+00 0.  1.
<mgrwt>
<rscale>  0 0.20623659E+04</rscale>
<asrwt>0</asrwt>
<pdfrwt beam="1">  1        2 0.42178540E+00 0.20623659E+04</pdfrwt>
<pdfrwt beam="2">  1       -2 0.59669608E-01 0.20623659E+04</pdfrwt>
<totfact> 0.60802815E+00</totfact>
</mgrwt>
</event>
<event>
12    1  0.1495204E-007  0.1345684E+04  0.7818608E-02  0.8994102E-01
         -2   -1    0    0    0  501 -0.00000000000E+00  0.00000000000E+00  0.52283541344E+03  0.52283541344E+03  0.00000000000E+00 0. -1.
          2   -1    0    0  501    0  0.00000000000E+00 -0.00000000000E+00 -0.86588655106E+03  0.86588655106E+03  0.00000000000E+00 0.  1.
         23    2    1    2    0    0  0.32780728544E+03  0.15518482547E+03 -0.14333240310E+03  0.40039423013E+03  0.90727147544E+02 0.  0.
        254    2    1    2    0    0 -0.32780728544E+03 -0.15518482547E+03 -0.19971873452E+03  0.98832773437E+03  0.89742085510E+03 0.  0.
        -24    2    4    4    0    0 -0.12980521600E+02 -0.45778782837E+03 -0.27226008090E+03  0.53845368670E+03  0.77901420506E+02 0.  0.
         24    2    4    4    0    0 -0.31482676384E+03  0.30260300291E+03  0.72541346378E+02  0.44987404768E+03  0.80249256944E+02 0.  0.
         13    1    3    3    0    0  0.77033834003E+02 -0.13438005777E+01 -0.16904749661E+02  0.78878310975E+02  0.00000000000E+00 0. -1.
        -13    1    3    3    0    0  0.25077345143E+03  0.15652862604E+03 -0.12642765343E+03  0.32151591915E+03  0.00000000000E+00 0.  1.
          2    1    6    6  502    0 -0.20879870741E+03  0.24742480536E+03  0.41656538403E+02  0.32642181563E+03  0.00000000000E+00 0. -1.
          3    1    5    5  503    0 -0.30858490419E+02 -0.28593696632E+03 -0.13457937530E+03  0.31752764194E+03  0.00000000000E+00 0. -1.
         -4    1    5    5    0  503  0.17877968820E+02 -0.17185086205E+03 -0.13768070559E+03  0.22092604475E+03  0.00000000000E+00 0.  1.
         -1    1    6    6    0  502 -0.10602805643E+03  0.55178197545E+02  0.30884807974E+02  0.12345223205E+03  0.00000000000E+00 0.  1.
<mgrwt>
<rscale>  0 0.13456837E+04</rscale>
<asrwt>0</asrwt>
<pdfrwt beam="1">  1        2 0.13321331E+00 0.13456837E+04</pdfrwt>
<pdfrwt beam="2">  1       -2 0.80436218E-01 0.13456837E+04</pdfrwt>
<totfact> 0.41296011E+01</totfact>
</mgrwt>
</event>
<event>
12    1  0.1495204E-007  0.4399496E+04  0.7818608E-02  0.7928472E-01
          1   -1    0    0  501    0  0.00000000000E+00  0.00000000000E+00  0.20469058048E+04  0.20469058048E+04  0.00000000000E+00 0. -1.
         -1   -1    0    0    0  501 -0.00000000000E+00 -0.00000000000E+00 -0.23640025278E+04  0.23640025278E+04  0.00000000000E+00 0.  1.
         23    2    1    2    0    0  0.51212744756E+03  0.19770928248E+04 -0.64627611749E+03  0.21440609374E+04  0.90299075778E+02 0.  0.
        254    2    1    2    0    0 -0.51212744756E+03 -0.19770928248E+04  0.32917939449E+03  0.22668473952E+04  0.92685893151E+03 0.  0.
        -24    2    4    4    0    0 -0.53586490840E+03 -0.14885884625E+04  0.60866224868E+03  0.16971819810E+04  0.83127209619E+02 0.  0.
         24    2    4    4    0    0  0.23737460837E+02 -0.48850436230E+03 -0.27948285419E+03  0.56966541418E+03  0.84900172492E+02 0.  0.
         13    1    3    3    0    0  0.17199610639E+03  0.56488347282E+03 -0.15284011973E+03  0.60994762126E+03  0.00000000000E+00 0. -1.
        -13    1    3    3    0    0  0.34013134117E+03  0.14122093520E+04 -0.49343599776E+03  0.15341133162E+04  0.00000000000E+00 0.  1.
          2    1    6    6  502    0  0.12742430898E+02 -0.46403994038E+03 -0.28128036912E+03  0.54278364186E+03  0.00000000000E+00 0. -1.
          1    1    5    5  503    0 -0.40522384272E+03 -0.12211470433E+04  0.49712131575E+03  0.13793244965E+04  0.00000000000E+00 0. -1.
         -4    1    5    5    0  503 -0.13064106568E+03 -0.26744141921E+03  0.11154093293E+03  0.31785748453E+03  0.00000000000E+00 0.  1.
         -1    1    6    6    0  502  0.10995029938E+02 -0.24464421915E+02  0.17975149294E+01  0.26881772317E+02  0.00000000000E+00 0.  1.
<mgrwt>
<rscale>  0 0.43994957E+04</rscale>
<asrwt>0</asrwt>
<pdfrwt beam="1">  1        1 0.31490859E+00 0.43994957E+04</pdfrwt>
<pdfrwt beam="2">  1       -1 0.36369270E+00 0.43994957E+04</pdfrwt>
<totfact> 0.26417147E-02</totfact>
</mgrwt>
</event>
<event>
12    1  0.1495204E-007  0.1460105E+04  0.7818608E-02  0.8911425E-01
          2   -1    0    0  501    0  0.00000000000E+00  0.00000000000E+00  0.22750573853E+04  0.22750573853E+04  0.00000000000E+00 0. -1.
         -2   -1    0    0    0  501 -0.00000000000E+00 -0.00000000000E+00 -0.23426948813E+03  0.23426948813E+03  0.00000000000E+00 0.  1.
         23    2    1    2    0    0  0.44301105336E+03 -0.64020753933E+02  0.72161451393E+03  0.85382509666E+03  0.89063677450E+02 0.  0.
        254    2    1    2    0    0 -0.44301105336E+03  0.64020753933E+02  0.13191733832E+04  0.16555017768E+04  0.89448883027E+03 0.  0.
        -24    2    4    4    0    0  0.23611856839E+03  0.16856755966E+03  0.50039846024E+03  0.58368339945E+03  0.78234846981E+02 0.  0.
         24    2    4    4    0    0 -0.67912962176E+03 -0.10454680573E+03  0.81877492301E+03  0.10718183773E+04  0.79089706411E+02 0.  0.
         13    1    3    3    0    0  0.39930319243E+03 -0.45097065033E+02  0.68328637818E+03  0.79268976237E+03  0.00000000000E+00 0. -1.
        -13    1    3    3    0    0  0.43707860935E+02 -0.18923688900E+02  0.38328135747E+02  0.61135334291E+02  0.00000000000E+00 0.  1.
          4    1    6    6  502    0 -0.21424992787E+01 -0.32852897558E+01  0.17643030219E+02  0.18073736394E+02  0.00000000000E+00 0. -1.
          3    1    5    5  503    0  0.79451001522E+02  0.35167449774E+02  0.93017814986E+02  0.12728521152E+03  0.00000000000E+00 0. -1.
         -4    1    5    5    0  503  0.15666756687E+03  0.13340010988E+03  0.40738064525E+03  0.45639818794E+03  0.00000000000E+00 0.  1.
         -3    1    6    6    0  502 -0.67698712248E+03 -0.10126151597E+03  0.80113189279E+03  0.10537446409E+04  0.00000000000E+00 0.  1.
<mgrwt>
<rscale>  0 0.14601048E+04</rscale>
<asrwt>0</asrwt>
<pdfrwt beam="1">  1        2 0.35000881E+00 0.14601048E+04</pdfrwt>
<pdfrwt beam="2">  1       -2 0.36041461E-01 0.14601048E+04</pdfrwt>
<totfact> 0.32921063E+01</totfact>
</mgrwt>
</event>
<event>
12    1  0.1495204E-007  0.1691021E+04  0.7818608E-02  0.8766502E-01
          1   -1    0    0  501    0  0.00000000000E+00  0.00000000000E+00  0.15257942425E+04  0.15257942425E+04  0.00000000000E+00 0. -1.
         -1   -1    0    0    0  501 -0.00000000000E+00 -0.00000000000E+00 -0.46853481525E+03  0.46853481525E+03  0.00000000000E+00 0.  1.
         23    2    1    2    0    0 -0.17207944488E+03 -0.46052921643E+03 -0.73116012307E+01  0.49908112880E+03  0.85615530627E+02 0.  0.
        254    2    1    2    0    0  0.17207944488E+03  0.46052921643E+03  0.10645710285E+04  0.14952479290E+04  0.92776958338E+03 0.  0.
        -24    2    4    4    0    0  0.34272916588E+02  0.41711012175E+03  0.12046176772E+04  0.12776762165E+04  0.78722802044E+02 0.  0.
         24    2    4    4    0    0  0.13780652829E+03  0.43419094679E+02 -0.14004664866E+03  0.21757171249E+03  0.82755841190E+02 0.  0.
         13    1    3    3    0    0 -0.20402805060E+02 -0.20217733297E+02  0.15841436037E+02  0.32802168979E+02  0.00000000000E+00 0. -1.
        -13    1    3    3    0    0 -0.15167663982E+03 -0.44031148313E+03 -0.23153037267E+02  0.46627895983E+03  0.00000000000E+00 0.  1.
          4    1    6    6  502    0 -0.23788607495E+01 -0.81165621509E+01  0.46206513654E+01  0.96378409748E+01  0.00000000000E+00 0. -1.
          1    1    5    5  503    0 -0.22945116863E+02  0.10015363840E+03  0.33085798839E+03  0.34644514451E+03  0.00000000000E+00 0. -1.
         -2    1    5    5    0  503  0.57218033451E+02  0.31695648335E+03  0.87375968878E+03  0.93123107199E+03  0.00000000000E+00 0.  1.
         -3    1    6    6    0  502  0.14018538904E+03  0.51535656830E+02 -0.14466730002E+03  0.20793387151E+03  0.00000000000E+00 0.  1.
<mgrwt>
<rscale>  0 0.16910207E+04</rscale>
<asrwt>0</asrwt>
<pdfrwt beam="1">  1        1 0.23473757E+00 0.16910207E+04</pdfrwt>
<pdfrwt beam="2">  1       -1 0.72082280E-01 0.16910207E+04</pdfrwt>
<totfact> 0.11610136E+01</totfact>
</mgrwt>
</event>
<event>
12    1  0.1495204E-007  0.1743869E+04  0.7818608E-02  0.8736733E-01
          2   -1    0    0  501    0  0.00000000000E+00  0.00000000000E+00  0.87278932439E+03  0.87278932439E+03  0.00000000000E+00 0.  1.
         -2   -1    0    0    0  501 -0.00000000000E+00 -0.00000000000E+00 -0.87108013894E+03  0.87108013894E+03  0.00000000000E+00 0. -1.
         23    2    1    2    0    0  0.18241855309E+03  0.49493061095E+03 -0.34363954527E+03  0.63599764411E+03  0.90399270352E+02 0.  0.
        254    2    1    2    0    0 -0.18241855309E+03 -0.49493061095E+03  0.34534873071E+03  0.11078718192E+04  0.91097825652E+03 0.  0.
        -24    2    4    4    0    0  0.25955925101E+03  0.55761968742E+02 -0.68664105239E+02  0.28545812633E+03  0.79316962851E+02 0.  0.
         24    2    4    4    0    0 -0.44197780409E+03 -0.55069257969E+03  0.41401283595E+03  0.82241369289E+03  0.79692893573E+02 0.  0.
         13    1    3    3    0    0  0.54045039444E+02  0.88998037950E+02 -0.33907235174E+02  0.10950441838E+03  0.00000000000E+00 0.  1.
        -13    1    3    3    0    0  0.12837351364E+03  0.40593257300E+03 -0.30973231010E+03  0.52649322573E+03  0.00000000000E+00 0. -1.
          4    1    6    6  502    0 -0.33956746955E+03 -0.37278852144E+03  0.31443386860E+03  0.59426089036E+03  0.00000000000E+00 0. -1.
          3    1    5    5  503    0  0.10533936609E+03 -0.43757185538E+01  0.20639904323E+01  0.10545041023E+03  0.00000000000E+00 0. -1.
         -2    1    5    5    0  503  0.15421988492E+03  0.60137687296E+02 -0.70728095671E+02  0.18000771610E+03  0.00000000000E+00 0.  1.
         -3    1    6    6    0  502 -0.10241033455E+03 -0.17790405824E+03  0.99578967356E+02  0.22815280253E+03  0.00000000000E+00 0.  1.
<mgrwt>
<rscale>  0 0.17438686E+04</rscale>
<asrwt>0</asrwt>
<pdfrwt beam="1">  1        2 0.13427528E+00 0.17438686E+04</pdfrwt>
<pdfrwt beam="2">  1       -2 0.13401233E+00 0.17438686E+04</pdfrwt>
<totfact> 0.11664300E+01</totfact>
</mgrwt>
</event>
<event>
12    1  0.1495204E-007  0.1150092E+04  0.7818608E-02  0.9157698E-01
          2   -1    0    0  501    0  0.00000000000E+00  0.00000000000E+00  0.22520685769E+04  0.22520685769E+04  0.00000000000E+00 0.  1.
         -2   -1    0    0    0  501 -0.00000000000E+00 -0.00000000000E+00 -0.14683301940E+03  0.14683301940E+03  0.00000000000E+00 0. -1.
         23    2    1    2    0    0  0.58232713991E+02  0.19820523164E+02  0.18636998771E+01  0.11256995417E+03  0.94258257400E+02 0.  0.
        254    2    1    2    0    0 -0.58232713991E+02 -0.19820523164E+02  0.21033718576E+04  0.22863316421E+04  0.89406672246E+03 0.  0.
        -24    2    4    4    0    0  0.16050078819E+03  0.38026079625E+03  0.80831533008E+03  0.91119562639E+03  0.80901301176E+02 0.  0.
         24    2    4    4    0    0 -0.21873350218E+03 -0.40008131941E+03  0.12950565276E+04  0.13751360157E+04  0.76930131430E+02 0.  0.
         13    1    3    3    0    0  0.10370844601E+02  0.26485498821E+02 -0.39695030200E+02  0.48833712619E+02  0.00000000000E+00 0. -1.
        -13    1    3    3    0    0  0.47861869389E+02 -0.66649756565E+01  0.41558730077E+02  0.63736241555E+02  0.00000000000E+00 0.  1.
          4    1    6    6  502    0 -0.20890988080E+03 -0.39421666227E+03  0.12836808843E+04  0.13590021073E+04  0.00000000000E+00 0. -1.
          3    1    5    5  503    0  0.12110462983E+03  0.19101325484E+03  0.40244359175E+03  0.46164189523E+03  0.00000000000E+00 0. -1.
         -4    1    5    5    0  503  0.39396158361E+02  0.18924754141E+03  0.40587173833E+03  0.44955373116E+03  0.00000000000E+00 0.  1.
         -3    1    6    6    0  502 -0.98236213842E+01 -0.58646571400E+01  0.11375643293E+02  0.16133908417E+02  0.00000000000E+00 0.  1.
<mgrwt>
<rscale>  0 0.11500922E+04</rscale>
<asrwt>0</asrwt>
<pdfrwt beam="1">  1        2 0.34647206E+00 0.11500922E+04</pdfrwt>
<pdfrwt beam="2">  1       -2 0.22589697E-01 0.11500922E+04</pdfrwt>
<totfact> 0.82621068E+01</totfact>
</mgrwt>
</event>
<event>
12    1  0.1495204E-007  0.1672903E+04  0.7818608E-02  0.8776972E-01
          2   -1    0    0  501    0  0.00000000000E+00  0.00000000000E+00  0.24313032508E+04  0.24313032508E+04  0.00000000000E+00 0. -1.
         -2   -1    0    0    0  501 -0.00000000000E+00 -0.00000000000E+00 -0.28776780225E+03  0.28776780225E+03  0.00000000000E+00 0.  1.
         23    2    1    2    0    0  0.54306254283E+03 -0.40963946852E+02  0.38740821408E+03  0.67357694739E+03  0.83820101072E+02 0.  0.
        254    2    1    2    0    0 -0.54306254283E+03  0.40963946852E+02  0.17561272345E+04  0.20454941057E+04  0.89636393408E+03 0.  0.
        -24    2    4    4    0    0 -0.10563775798E+03 -0.18942302918E+03  0.14946948588E+02  0.23373992090E+03  0.85851729493E+02 0.  0.
         24    2    4    4    0    0 -0.43742478485E+03  0.23038697603E+03  0.17411802859E+04  0.18117541848E+04  0.79535130223E+02 0.  0.
         11    1    3    3    0    0  0.44755749762E+02 -0.25264785015E+02  0.24559946644E+02  0.56961192735E+02  0.00000000000E+00 0. -1.
        -11    1    3    3    0    0  0.49830679307E+03 -0.15699161836E+02  0.36284826744E+03  0.61661575465E+03  0.00000000000E+00 0.  1.
          4    1    6    6  502    0 -0.18871920052E+03  0.95094551822E+02  0.60560183046E+03  0.64141366332E+03  0.00000000000E+00 0. -1.
          3    1    5    5  503    0 -0.12844251624E+02 -0.20854840374E+02  0.32301906910E+02  0.40537789245E+02  0.00000000000E+00 0. -1.
         -4    1    5    5    0  503 -0.92793506358E+02 -0.16856818880E+03 -0.17354958322E+02  0.19320213166E+03  0.00000000000E+00 0.  1.
         -3    1    6    6    0  502 -0.24870558433E+03  0.13529242421E+03  0.11355784555E+04  0.11703405215E+04  0.00000000000E+00 0.  1.
<mgrwt>
<rscale>  0 0.16729026E+04</rscale>
<asrwt>0</asrwt>
<pdfrwt beam="1">  1        2 0.37404664E+00 0.16729026E+04</pdfrwt>
<pdfrwt beam="2">  1       -2 0.44271971E-01 0.16729026E+04</pdfrwt>
<totfact> 0.17623435E+01</totfact>
</mgrwt>
</event>
<event>
12    1  0.1495204E-007  0.2007986E+04  0.7818608E-02  0.8602896E-01
          2   -1    0    0  501    0  0.00000000000E+00  0.00000000000E+00  0.69054033617E+03  0.69054033617E+03  0.00000000000E+00 0. -1.
         -2   -1    0    0    0  501 -0.00000000000E+00 -0.00000000000E+00 -0.14597292194E+04  0.14597292194E+04  0.00000000000E+00 0.  1.
         23    2    1    2    0    0 -0.17325966973E+03 -0.24701196556E+03  0.49781279962E+03  0.58955083865E+03  0.93374426914E+02 0.  0.
        254    2    1    2    0    0  0.17325966973E+03  0.24701196556E+03 -0.12670016829E+04  0.15607187169E+04  0.85995105949E+03 0.  0.
        -24    2    4    4    0    0  0.42565074934E+03  0.23929308060E+03 -0.11838551007E+04  0.12830732395E+04  0.79525464360E+02 0.  0.
         24    2    4    4    0    0 -0.25239107960E+03  0.77188849582E+01 -0.83146582161E+02  0.27764547749E+03  0.80080077396E+02 0.  0.
         13    1    3    3    0    0 -0.16364350703E+03 -0.19909543375E+03  0.35555832762E+03  0.43913541587E+03  0.00000000000E+00 0. -1.
        -13    1    3    3    0    0 -0.96161627048E+01 -0.47916531812E+02  0.14225447200E+03  0.15041542278E+03  0.00000000000E+00 0.  1.
          4    1    6    6  502    0 -0.17164383405E+03  0.73476808045E+01 -0.94543448534E+02  0.19609706229E+03  0.00000000000E+00 0. -1.
          1    1    5    5  503    0  0.38796785436E+03  0.19033708712E+03 -0.10099250013E+04  0.10984970510E+04  0.00000000000E+00 0. -1.
         -2    1    5    5    0  503  0.37682894976E+02  0.48955993479E+02 -0.17393009938E+03  0.18457618844E+03  0.00000000000E+00 0.  1.
         -3    1    6    6    0  502 -0.80747245557E+02  0.37120415369E+00  0.11396866373E+02  0.81548415195E+02  0.00000000000E+00 0.  1.
<mgrwt>
<rscale>  0 0.20079860E+04</rscale>
<asrwt>0</asrwt>
<pdfrwt beam="1">  1        2 0.10623698E+00 0.20079860E+04</pdfrwt>
<pdfrwt beam="2">  1       -2 0.22457372E+00 0.20079860E+04</pdfrwt>
<totfact> 0.35771766E+00</totfact>
</mgrwt>
</event>
<event>
12    1  0.1495204E-007  0.2027007E+04  0.7818608E-02  0.8594097E-01
         -1   -1    0    0    0  501 -0.00000000000E+00  0.00000000000E+00  0.10118930603E+04  0.10118930603E+04  0.00000000000E+00 0.  1.
          1   -1    0    0  501    0  0.00000000000E+00 -0.00000000000E+00 -0.10151169264E+04  0.10151169264E+04  0.00000000000E+00 0. -1.
         23    2    1    2    0    0  0.70827347998E+03  0.25238681757E+03 -0.29395204058E+03  0.81267184003E+03  0.93151968767E+02 0.  0.
        254    2    1    2    0    0 -0.70827347998E+03 -0.25238681757E+03  0.29072817451E+03  0.12143381466E+04  0.90815408098E+03 0.  0.
        -24    2    4    4    0    0 -0.82735536072E+03 -0.26340129391E+03 -0.19992512487E+02  0.87206475820E+03  0.78740760727E+02 0.  0.
         24    2    4    4    0    0  0.11908188073E+03  0.11014476343E+02  0.31072068700E+03  0.34227338844E+03  0.79384596074E+02 0.  0.
         11    1    3    3    0    0  0.75666334207E+02  0.56452009070E+02 -0.23241429235E+02  0.97223389641E+02  0.00000000000E+00 0.  1.
        -11    1    3    3    0    0  0.63260714577E+03  0.19593480850E+03 -0.27071061135E+03  0.71544845039E+03  0.00000000000E+00 0. -1.
          2    1    6    6  502    0  0.99165584498E+02  0.13441690347E+02  0.30559826857E+03  0.32156615796E+03  0.00000000000E+00 0. -1.
          3    1    5    5  503    0 -0.71817787932E+03 -0.23096289292E+03  0.93141074513E+01  0.75446012276E+03  0.00000000000E+00 0. -1.
         -4    1    5    5    0  503 -0.10917748140E+03 -0.32438400993E+02 -0.29306619938E+02  0.11760463544E+03  0.00000000000E+00 0.  1.
         -1    1    6    6    0  502  0.19916296236E+02 -0.24272140032E+01  0.51224184261E+01  0.20707230479E+02  0.00000000000E+00 0.  1.
<mgrwt>
<rscale>  0 0.20270074E+04</rscale>
<asrwt>0</asrwt>
<pdfrwt beam="1">  1        1 0.15617183E+00 0.20270074E+04</pdfrwt>
<pdfrwt beam="2">  1       -1 0.15567586E+00 0.20270074E+04</pdfrwt>
<totfact> 0.42976894E+00</totfact>
</mgrwt>
</event>
<event>
12    1  0.1495204E-007  0.1097035E+04  0.7818608E-02  0.9208086E-01
         -2   -1    0    0    0  501 -0.00000000000E+00  0.00000000000E+00  0.41287460211E+03  0.41287460211E+03  0.00000000000E+00 0.  1.
          2   -1    0    0  501    0  0.00000000000E+00 -0.00000000000E+00 -0.72872404487E+03  0.72872404487E+03  0.00000000000E+00 0. -1.
         23    2    1    2    0    0 -0.72351611650E+02 -0.14561569292E+03 -0.46696588166E+02  0.19268719002E+03  0.92244762010E+02 0.  0.
        254    2    1    2    0    0  0.72351611650E+02  0.14561569292E+03 -0.26915285460E+03  0.94891145697E+03  0.89529381116E+03 0.  0.
        -24    2    4    4    0    0  0.23477156992E+02  0.50343136752E+03 -0.35409772480E+02  0.51129912354E+03  0.78604217679E+02 0.  0.
         24    2    4    4    0    0  0.48874454657E+02 -0.35781567461E+03 -0.23374308212E+03  0.43761233343E+03  0.80299169507E+02 0.  0.
         11    1    3    3    0    0 -0.15831212531E+01 -0.10536804416E+03 -0.22506407229E+02  0.10775652819E+03  0.00000000000E+00 0.  1.
        -11    1    3    3    0    0 -0.70768490397E+02 -0.40247648760E+02 -0.24190180937E+02  0.84930661822E+02  0.00000000000E+00 0. -1.
          4    1    6    6  502    0 -0.62603991341E+00 -0.69777721354E+02 -0.12120601120E+02  0.70825357710E+02  0.00000000000E+00 0. -1.
          1    1    5    5  503    0 -0.15266985742E+02  0.26872844624E+03 -0.46557823819E+02  0.27315872607E+03  0.00000000000E+00 0. -1.
         -2    1    5    5    0  503  0.38744142734E+02  0.23470292128E+03  0.11148051339E+02  0.23814039746E+03  0.00000000000E+00 0.  1.
         -3    1    6    6    0  502  0.49500494571E+02 -0.28803795325E+03 -0.22162248100E+03  0.36678697572E+03  0.00000000000E+00 0.  1.
<mgrwt>
<rscale>  0 0.10970354E+04</rscale>
<asrwt>0</asrwt>
<pdfrwt beam="1">  1        2 0.11211139E+00 0.10970354E+04</pdfrwt>
<pdfrwt beam="2">  1       -2 0.63519170E-01 0.10970354E+04</pdfrwt>
<totfact> 0.88704446E+01</totfact>
</mgrwt>
</event>
<event>
12    1  0.1495204E-007  0.2252821E+04  0.7818608E-02  0.8496759E-01
         -2   -1    0    0    0  501 -0.00000000000E+00  0.00000000000E+00  0.58050157059E+03  0.58050157059E+03  0.00000000000E+00 0.  1.
          2   -1    0    0  501    0  0.00000000000E+00 -0.00000000000E+00 -0.21856974615E+04  0.21856974615E+04  0.00000000000E+00 0. -1.
         23    2    1    2    0    0  0.47390330437E+03 -0.21872985841E+03 -0.16404505719E+04  0.17240865107E+04  0.94705463046E+02 0.  0.
        254    2    1    2    0    0 -0.47390330437E+03  0.21872985841E+03  0.35254681034E+02  0.10421125213E+04  0.90129269482E+03 0.  0.
        -24    2    4    4    0    0 -0.14158470469E+03  0.47562485340E+03  0.25244335676E+03  0.56245104616E+03  0.79738956476E+02 0.  0.
         24    2    4    4    0    0 -0.33231859968E+03 -0.25689499498E+03 -0.21718867573E+03  0.47966147518E+03  0.80458186427E+02 0.  0.
         13    1    3    3    0    0  0.64475237130E+02 -0.47508004018E+02 -0.16622952424E+03  0.18451645286E+03  0.00000000000E+00 0.  1.
        -13    1    3    3    0    0  0.40942806724E+03 -0.17122185439E+03 -0.14742210477E+04  0.15395700579E+04  0.00000000000E+00 0. -1.
          4    1    6    6  502    0 -0.18684701516E+03 -0.11200853329E+03 -0.14646830096E+03  0.26250844137E+03  0.00000000000E+00 0. -1.
          1    1    5    5  503    0 -0.14076865334E+03  0.35813289704E+03  0.20176268060E+03  0.43449184686E+03  0.00000000000E+00 0. -1.
         -2    1    5    5    0  503 -0.81605134886E+00  0.11749195636E+03  0.50680676158E+02  0.12795919929E+03  0.00000000000E+00 0.  1.
         -3    1    6    6    0  502 -0.14547158452E+03 -0.14488646169E+03 -0.70720374770E+02  0.21715303380E+03  0.00000000000E+00 0.  1.
<mgrwt>
<rscale>  0 0.22528212E+04</rscale>
<asrwt>0</asrwt>
<pdfrwt beam="1">  1        2 0.33626115E+00 0.22528212E+04</pdfrwt>
<pdfrwt beam="2">  1       -2 0.89307933E-01 0.22528212E+04</pdfrwt>
<totfact> 0.51497629E+00</totfact>
</mgrwt>
</event>
<event>
12    1  0.1495204E-007  0.1913829E+04  0.7818608E-02  0.8648003E-01
         -1   -1    0    0    0  501 -0.00000000000E+00  0.00000000000E+00  0.25709357250E+03  0.25709357250E+03  0.00000000000E+00 0.  1.
          1   -1    0    0  501    0  0.00000000000E+00 -0.00000000000E+00 -0.35616816449E+04  0.35616816449E+04  0.00000000000E+00 0. -1.
         23    2    1    2    0    0  0.55532104578E+03 -0.36377568084E+03 -0.63584560592E+03  0.92388982386E+03  0.92512497641E+02 0.  0.
        254    2    1    2    0    0 -0.55532104578E+03  0.36377568084E+03 -0.26687424665E+04  0.28948853935E+04  0.90413543202E+03 0.  0.
        -24    2    4    4    0    0 -0.62130949860E+02  0.20087350667E+03 -0.21321293640E+04  0.21439350812E+04  0.79193352417E+02 0.  0.
         24    2    4    4    0    0 -0.49319009592E+03  0.16290217418E+03 -0.53661310248E+03  0.75095031230E+03  0.78734749212E+02 0.  0.
         11    1    3    3    0    0  0.47736820259E+03 -0.30029741908E+03 -0.57958243419E+03  0.80868704625E+03  0.00000000000E+00 0.  1.
        -11    1    3    3    0    0  0.77952843184E+02 -0.63478261763E+02 -0.56263171727E+02  0.11520277761E+03  0.00000000000E+00 0. -1.
          4    1    6    6  502    0 -0.38645728208E+02 -0.22454100906E+01 -0.63698512160E+02  0.74538812887E+02  0.00000000000E+00 0. -1.
          3    1    5    5  503    0  0.17041909404E+02  0.63212940815E+02 -0.68275282252E+03  0.68588462530E+03  0.00000000000E+00 0. -1.
         -4    1    5    5    0  503 -0.79172859264E+02  0.13766056585E+03 -0.14493765415E+04  0.14580504559E+04  0.00000000000E+00 0.  1.
         -1    1    6    6    0  502 -0.45454436771E+03  0.16514758427E+03 -0.47291459032E+03  0.67641149941E+03  0.00000000000E+00 0.  1.
<mgrwt>
<rscale>  0 0.19138291E+04</rscale>
<asrwt>0</asrwt>
<pdfrwt beam="1">  1        1 0.54795100E+00 0.19138291E+04</pdfrwt>
<pdfrwt beam="2">  1       -1 0.39552859E-01 0.19138291E+04</pdfrwt>
<totfact> 0.13046721E+00</totfact>
</mgrwt>
</event>
<event>
12    1  0.1495204E-007  0.1677541E+04  0.7818608E-02  0.8774278E-01
         -1   -1    0    0    0  501 -0.00000000000E+00  0.00000000000E+00  0.25083361279E+03  0.25083361279E+03  0.00000000000E+00 0.  1.
          1   -1    0    0  501    0  0.00000000000E+00 -0.00000000000E+00 -0.28047914989E+04  0.28047914989E+04  0.00000000000E+00 0. -1.
         23    2    1    2    0    0  0.94057488802E+02  0.35975942689E+03 -0.17528968117E+04  0.17943193625E+04  0.93064954829E+02 0.  0.
        254    2    1    2    0    0 -0.94057488802E+02 -0.35975942689E+03 -0.80106107441E+03  0.12613057492E+04  0.90051079479E+03 0.  0.
        -24    2    4    4    0    0  0.89395128886E+02  0.18144181885E+02 -0.82428135399E+03  0.83282963445E+03  0.76450958623E+02 0.  0.
         24    2    4    4    0    0 -0.18345261769E+03 -0.37790360877E+03  0.23220279576E+02  0.42847611473E+03  0.81157864987E+02 0.  0.
         11    1    3    3    0    0  0.10847624689E+03  0.29763734672E+03 -0.15315039411E+04  0.15639243613E+04  0.00000000000E+00 0. -1.
        -11    1    3    3    0    0 -0.14418758091E+02  0.62122080163E+02 -0.22139287055E+03  0.23039500116E+03  0.00000000000E+00 0.  1.
          4    1    6    6  502    0 -0.11892659130E+03 -0.31847318798E+03  0.13602712091E+02  0.34022601217E+03  0.00000000000E+00 0. -1.
          3    1    5    5  503    0  0.16253442203E+02 -0.11124125690E+02 -0.44586690445E+03  0.44630171077E+03  0.00000000000E+00 0. -1.
         -4    1    5    5    0  503  0.73141686683E+02  0.29268307576E+02 -0.37841444954E+03  0.38652792367E+03  0.00000000000E+00 0.  1.
         -3    1    6    6    0  502 -0.64526026391E+02 -0.59430420788E+02  0.96175674852E+01  0.88250102556E+02  0.00000000000E+00 0.  1.
<mgrwt>
<rscale>  0 0.16775410E+04</rscale>
<asrwt>0</asrwt>
<pdfrwt beam="1">  1        1 0.43150637E+00 0.16775410E+04</pdfrwt>
<pdfrwt beam="2">  1       -1 0.38589788E-01 0.16775410E+04</pdfrwt>
<totfact> 0.51427696E+00</totfact>
</mgrwt>
</event>
<event>
12    1  0.1495204E-007  0.1683911E+04  0.7818608E-02  0.8770594E-01
         -1   -1    0    0    0  501 -0.00000000000E+00  0.00000000000E+00  0.50604382537E+03  0.50604382537E+03  0.00000000000E+00 0.  1.
          1   -1    0    0  501    0  0.00000000000E+00 -0.00000000000E+00 -0.14008456680E+04  0.14008456680E+04  0.00000000000E+00 0. -1.
         23    2    1    2    0    0  0.57353930659E+03  0.15404700338E+03 -0.24625933242E+03  0.65071504157E+03  0.10054148928E+03 0.  0.
        254    2    1    2    0    0 -0.57353930659E+03 -0.15404700338E+03 -0.64854251023E+03  0.12561744518E+04  0.89704462006E+03 0.  0.
        -24    2    4    4    0    0 -0.70594569977E+03 -0.16010638171E+03 -0.16169260053E+03  0.74598326192E+03  0.79706621554E+02 0.  0.
         24    2    4    4    0    0  0.13240639318E+03  0.60593783272E+01 -0.48684990970E+03  0.51019118990E+03  0.75525139240E+02 0.  0.
         13    1    3    3    0    0  0.54553643928E+02  0.43160731877E+02 -0.46460148468E+02  0.83651026519E+02  0.00000000000E+00 0. -1.
        -13    1    3    3    0    0  0.51898566266E+03  0.11088627150E+03 -0.19979918395E+03  0.56706401505E+03  0.00000000000E+00 0.  1.
          4    1    6    6  502    0  0.13628445011E+03 -0.90395427775E+01 -0.44696510203E+03  0.46736812804E+03  0.00000000000E+00 0. -1.
          1    1    5    5  503    0 -0.27357941835E+03 -0.95856373549E+02 -0.43149270399E+02  0.29308019727E+03  0.00000000000E+00 0. -1.
         -2    1    5    5    0  503 -0.43236628141E+03 -0.64250008156E+02 -0.11854333013E+03  0.45290306465E+03  0.00000000000E+00 0.  1.
         -3    1    6    6    0  502 -0.38780569353E+01  0.15098921105E+02 -0.39884807672E+02  0.42823061861E+02  0.00000000000E+00 0.  1.
<mgrwt>
<rscale>  0 0.16839113E+04</rscale>
<asrwt>0</asrwt>
<pdfrwt beam="1">  1        1 0.21551472E+00 0.16839113E+04</pdfrwt>
<pdfrwt beam="2">  1       -1 0.77852896E-01 0.16839113E+04</pdfrwt>
<totfact> 0.12082864E+01</totfact>
</mgrwt>
</event>
<event>
12    1  0.1495204E-007  0.1674156E+04  0.7818608E-02  0.8776243E-01
         -2   -1    0    0    0  501 -0.00000000000E+00  0.00000000000E+00  0.26497556477E+03  0.26497556477E+03  0.00000000000E+00 0.  1.
          2   -1    0    0  501    0  0.00000000000E+00 -0.00000000000E+00 -0.26443929064E+04  0.26443929064E+04  0.00000000000E+00 0. -1.
         23    2    1    2    0    0  0.40443501700E+03 -0.23442954161E+03 -0.14663400601E+04  0.15415874190E+04  0.88395166454E+02 0.  0.
        254    2    1    2    0    0 -0.40443501700E+03  0.23442954161E+03 -0.91307728148E+03  0.13677810522E+04  0.90475963203E+03 0.  0.
        -24    2    4    4    0    0 -0.97340049538E+02 -0.31313849252E+03 -0.13580158573E+03  0.36483842644E+03  0.84464228977E+02 0.  0.
         24    2    4    4    0    0 -0.30709496746E+03  0.54756803413E+03 -0.77727569575E+03  0.10029426257E+04  0.87168413137E+02 0.  0.
         13    1    3    3    0    0  0.36534754652E+02 -0.42319744177E+02 -0.25697102173E+03  0.26298261359E+03  0.00000000000E+00 0.  1.
        -13    1    3    3    0    0  0.36790026235E+03 -0.19210979743E+03 -0.12093690384E+04  0.12786048054E+04  0.00000000000E+00 0. -1.
          2    1    6    6  502    0 -0.12591898684E+03  0.27037608429E+03 -0.42763414996E+03  0.52137298014E+03  0.00000000000E+00 0. -1.
          3    1    5    5  503    0  0.30416311513E+01 -0.93274216692E+02 -0.62321708383E+02  0.11221999089E+03  0.00000000000E+00 0. -1.
         -4    1    5    5    0  503 -0.10038168069E+03 -0.21986427583E+03 -0.73479877347E+02  0.25261843555E+03  0.00000000000E+00 0.  1.
         -1    1    6    6    0  502 -0.18117598062E+03  0.27719194984E+03 -0.34964154579E+03  0.48156964559E+03  0.00000000000E+00 0.  1.
<mgrwt>
<rscale>  0 0.16741559E+04</rscale>
<asrwt>0</asrwt>
<pdfrwt beam="1">  1        2 0.40682966E+00 0.16741559E+04</pdfrwt>
<pdfrwt beam="2">  1       -2 0.40765473E-01 0.16741559E+04</pdfrwt>
<totfact> 0.15606711E+01</totfact>
</mgrwt>
</event>
<event>
12    1  0.1495204E-007  0.3349583E+04  0.7818608E-02  0.8150392E-01
          1   -1    0    0  501    0  0.00000000000E+00  0.00000000000E+00  0.14866371743E+04  0.14866371743E+04  0.00000000000E+00 0. -1.
         -1   -1    0    0    0  501 -0.00000000000E+00 -0.00000000000E+00 -0.18867594680E+04  0.18867594680E+04  0.00000000000E+00 0.  1.
         23    2    1    2    0    0  0.15481380544E+04  0.31163967477E+03 -0.83333895444E+02  0.15841883581E+04  0.94114258662E+02 0.  0.
        254    2    1    2    0    0 -0.15481380544E+04 -0.31163967477E+03 -0.31678839833E+03  0.17892082842E+04  0.77914098378E+03 0.  0.
        -24    2    4    4    0    0 -0.14207389012E+04 -0.40413378004E+03 -0.47329739714E+03  0.15531235089E+04  0.79743778613E+02 0.  0.
         24    2    4    4    0    0 -0.12739915314E+03  0.92494105272E+02  0.15650899881E+03  0.23608477526E+03  0.80344574599E+02 0.  0.
         13    1    3    3    0    0  0.26936159785E+03  0.78428419202E+02 -0.41912370580E+02  0.28366059674E+03  0.00000000000E+00 0. -1.
        -13    1    3    3    0    0  0.12787764565E+04  0.23321125556E+03 -0.41421524864E+02  0.13005277614E+04  0.00000000000E+00 0.  1.
          2    1    6    6  502    0 -0.13810589942E+03  0.89118168955E+02  0.15235488930E+03  0.22411447920E+03  0.00000000000E+00 0. -1.
          3    1    5    5  503    0 -0.51558996326E+03 -0.13196037696E+03 -0.13330850780E+03  0.54865080839E+03  0.00000000000E+00 0. -1.
         -4    1    5    5    0  503 -0.90514893796E+03 -0.27217340308E+03 -0.33998888934E+03  0.10044727005E+04  0.00000000000E+00 0.  1.
         -1    1    6    6    0  502  0.10706746277E+02  0.33759363167E+01  0.41541095072E+01  0.11970296056E+02  0.00000000000E+00 0.  1.
<mgrwt>
<rscale>  0 0.33495831E+04</rscale>
<asrwt>0</asrwt>
<pdfrwt beam="1">  1        1 0.22871341E+00 0.33495831E+04</pdfrwt>
<pdfrwt beam="2">  1       -1 0.29027069E+00 0.33495831E+04</pdfrwt>
<totfact> 0.21081443E-01</totfact>
</mgrwt>
</event>
<event>
12    1  0.1495204E-007  0.1517960E+04  0.7818608E-02  0.8872597E-01
         -1   -1    0    0    0  501 -0.00000000000E+00  0.00000000000E+00  0.31117975218E+03  0.31117975218E+03  0.00000000000E+00 0.  1.
          1   -1    0    0  501    0  0.00000000000E+00 -0.00000000000E+00 -0.18511820207E+04  0.18511820207E+04  0.00000000000E+00 0. -1.
         23    2    1    2    0    0  0.26963555654E+03  0.30503055697E+03 -0.11847409767E+03  0.43332266407E+03  0.89361319085E+02 0.  0.
        254    2    1    2    0    0 -0.26963555654E+03 -0.30503055697E+03 -0.14215281709E+04  0.17290391088E+04  0.89615117321E+03 0.  0.
        -24    2    4    4    0    0 -0.11286768333E+03 -0.34600129430E+03 -0.88883559586E+02  0.38414641077E+03  0.84924484996E+02 0.  0.
         24    2    4    4    0    0 -0.15676787321E+03  0.40970737331E+02 -0.13326446113E+04  0.13448926981E+04  0.80869907238E+02 0.  0.
         11    1    3    3    0    0  0.10899673811E+03  0.18972224694E+03 -0.70012214101E+02  0.22973143021E+03  0.00000000000E+00 0. -1.
        -11    1    3    3    0    0  0.16063881843E+03  0.11530831002E+03 -0.48461883571E+02  0.20359123387E+03  0.00000000000E+00 0.  1.
          2    1    6    6  502    0 -0.12962094703E+03  0.61164516550E+01 -0.11336644870E+04  0.11410671190E+04  0.00000000000E+00 0. -1.
          3    1    5    5  503    0 -0.20092006063E+02 -0.18556778527E+03 -0.26073272434E+02  0.18846460456E+03  0.00000000000E+00 0. -1.
         -4    1    5    5    0  503 -0.92775677263E+02 -0.16043350903E+03 -0.62810287152E+02  0.19568180621E+03  0.00000000000E+00 0.  1.
         -1    1    6    6    0  502 -0.27146926179E+02  0.34854285676E+02 -0.19898012430E+03  0.20382557911E+03  0.00000000000E+00 0.  1.
<mgrwt>
<rscale>  0 0.15179596E+04</rscale>
<asrwt>0</asrwt>
<pdfrwt beam="1">  1        1 0.28479723E+00 0.15179596E+04</pdfrwt>
<pdfrwt beam="2">  1       -1 0.47873809E-01 0.15179596E+04</pdfrwt>
<totfact> 0.15838309E+01</totfact>
</mgrwt>
</event>
<event>
12    1  0.1495204E-007  0.1462301E+04  0.7818608E-02  0.8909917E-01
         -1   -1    0    0    0  501 -0.00000000000E+00  0.00000000000E+00  0.24667265484E+03  0.24667265484E+03  0.00000000000E+00 0.  1.
          1   -1    0    0  501    0  0.00000000000E+00 -0.00000000000E+00 -0.21671668525E+04  0.21671668525E+04  0.00000000000E+00 0. -1.
         23    2    1    2    0    0  0.19264703059E+03  0.41691878527E+03 -0.69531859444E+03  0.83744924074E+03  0.83181314785E+02 0.  0.
        254    2    1    2    0    0 -0.19264703059E+03 -0.41691878527E+03 -0.12251756032E+04  0.15763902666E+04  0.87921377492E+03 0.  0.
        -24    2    4    4    0    0 -0.30798043986E+03 -0.19073984075E+03 -0.51279381702E+02  0.37270656914E+03  0.71042054480E+02 0.  0.
         24    2    4    4    0    0  0.11533340927E+03 -0.22617894452E+03 -0.11738962215E+04  0.12036836975E+04  0.79770887015E+02 0.  0.
         13    1    3    3    0    0  0.84192957706E+01 -0.10455678272E+01 -0.24165371749E+02  0.25611383116E+02  0.00000000000E+00 0.  1.
        -13    1    3    3    0    0  0.18422773482E+03  0.41796435309E+03 -0.67115322270E+03  0.81183785762E+03  0.00000000000E+00 0. -1.
          2    1    6    6  502    0  0.12740284311E+03 -0.19789830623E+03 -0.10342748215E+04  0.10607165646E+04  0.00000000000E+00 0. -1.
          3    1    5    5  503    0 -0.13753698507E+03 -0.55040852778E+02 -0.44714167574E+02  0.15474260731E+03  0.00000000000E+00 0. -1.
         -4    1    5    5    0  503 -0.17044345480E+03 -0.13569898797E+03 -0.65652141284E+01  0.21796396183E+03  0.00000000000E+00 0.  1.
         -1    1    6    6    0  502 -0.12069433841E+02 -0.28280638290E+02 -0.13962139997E+03  0.14296713282E+03  0.00000000000E+00 0.  1.
<mgrwt>
<rscale>  0 0.14623007E+04</rscale>
<asrwt>0</asrwt>
<pdfrwt beam="1">  1        1 0.33341027E+00 0.14623007E+04</pdfrwt>
<pdfrwt beam="2">  1       -1 0.37949640E-01 0.14623007E+04</pdfrwt>
<totfact> 0.14941911E+01</totfact>
</mgrwt>
</event>
<event>
12    1  0.1495204E-007  0.1522749E+04  0.7818608E-02  0.8869464E-01
          2   -1    0    0  501    0  0.00000000000E+00  0.00000000000E+00  0.66883782661E+03  0.66883782661E+03  0.00000000000E+00 0. -1.
         -2   -1    0    0    0  501 -0.00000000000E+00 -0.00000000000E+00 -0.86671426825E+03  0.86671426825E+03  0.00000000000E+00 0.  1.
         23    2    1    2    0    0 -0.41700812659E+02  0.15956994851E+02  0.43011550969E+03  0.44194489201E+03  0.91226928264E+02 0.  0.
        254    2    1    2    0    0  0.41700812659E+02 -0.15956994851E+02 -0.62799195134E+03  0.10936072028E+04  0.89420872268E+03 0.  0.
        -24    2    4    4    0    0 -0.28030341336E+03  0.19023753813E+03 -0.61075446397E+03  0.70275971686E+03  0.78037682648E+02 0.  0.
         24    2    4    4    0    0  0.32200422602E+03 -0.20619453298E+03 -0.17237487364E+02  0.39084748599E+03  0.79131026316E+02 0.  0.
         11    1    3    3    0    0 -0.52283268800E+02  0.43260287144E+02  0.23350498666E+03  0.24316572833E+03  0.00000000000E+00 0. -1.
        -11    1    3    3    0    0  0.10582456141E+02 -0.27303292294E+02  0.19661052303E+03  0.19877916368E+03  0.00000000000E+00 0.  1.
          4    1    6    6  502    0  0.65826468770E+02 -0.50916386007E+02 -0.36051844468E+02  0.90693648313E+02  0.00000000000E+00 0. -1.
          1    1    5    5  503    0 -0.63378452098E+02  0.81702699495E+02 -0.15219355021E+03  0.18399738047E+03  0.00000000000E+00 0. -1.
         -2    1    5    5    0  503 -0.21692496127E+03  0.10853483864E+03 -0.45856091376E+03  0.51876233638E+03  0.00000000000E+00 0.  1.
         -3    1    6    6    0  502  0.25617775725E+03 -0.15527814698E+03  0.18814357104E+02  0.30015383768E+03  0.00000000000E+00 0.  1.
<mgrwt>
<rscale>  0 0.15227492E+04</rscale>
<asrwt>0</asrwt>
<pdfrwt beam="1">  1        2 0.10289813E+00 0.15227492E+04</pdfrwt>
<pdfrwt beam="2">  1       -2 0.13334066E+00 0.15227492E+04</pdfrwt>
<totfact> 0.17034911E+01</totfact>
</mgrwt>
</event>
<event>
12    1  0.1495204E-007  0.3316314E+04  0.7818608E-02  0.8158757E-01
         -2   -1    0    0    0  501 -0.00000000000E+00  0.00000000000E+00  0.12400189093E+04  0.12400189093E+04  0.00000000000E+00 0.  1.
          2   -1    0    0  501    0  0.00000000000E+00 -0.00000000000E+00 -0.22172918772E+04  0.22172918772E+04  0.00000000000E+00 0. -1.
         23    2    1    2    0    0 -0.77574752768E+03  0.57906643431E+02 -0.18297844725E+04  0.19917348322E+04  0.11729884877E+03 0.  0.
        254    2    1    2    0    0  0.77574752768E+03 -0.57906643431E+02  0.85251150460E+03  0.14655759544E+04  0.90332696546E+03 0.  0.
        -24    2    4    4    0    0 -0.72206232687E+02  0.22210319746E+03  0.29681097867E+02  0.24880468146E+03  0.80493674213E+02 0.  0.
         24    2    4    4    0    0  0.84795376037E+03 -0.28000984089E+03  0.82283040673E+03  0.12167712729E+04  0.77790498317E+02 0.  0.
         13    1    3    3    0    0 -0.14832472182E+02  0.14503840616E+02 -0.89545799033E+02  0.91917428968E+02  0.00000000000E+00 0.  1.
        -13    1    3    3    0    0 -0.76091505550E+03  0.43402802816E+02 -0.17402386735E+04  0.18998174032E+04  0.00000000000E+00 0. -1.
          2    1    6    6  502    0  0.19578159664E+03 -0.71723074942E+02  0.23746923975E+03  0.31601625415E+03  0.00000000000E+00 0. -1.
          3    1    5    5  503    0 -0.44287284947E+02  0.15674041761E+03 -0.17012687250E+02  0.16376310221E+03  0.00000000000E+00 0. -1.
         -2    1    5    5    0  503 -0.27918947741E+02  0.65362779849E+02  0.46693785117E+02  0.85041579249E+02  0.00000000000E+00 0.  1.
         -1    1    6    6    0  502  0.65217216373E+03 -0.20828676595E+03  0.58536116698E+03  0.90075501876E+03  0.00000000000E+00 0.  1.
<mgrwt>
<rscale>  0 0.33163135E+04</rscale>
<asrwt>0</asrwt>
<pdfrwt beam="1">  1        2 0.34112183E+00 0.33163135E+04</pdfrwt>
<pdfrwt beam="2">  1       -2 0.19077214E+00 0.33163135E+04</pdfrwt>
<totfact> 0.64506605E-01</totfact>
</mgrwt>
</event>
<event>
12    1  0.1495204E-007  0.1866926E+04  0.7818608E-02  0.8671497E-01
         -1   -1    0    0    0  501 -0.00000000000E+00  0.00000000000E+00  0.54396767401E+03  0.54396767401E+03  0.00000000000E+00 0.  1.
          1   -1    0    0  501    0  0.00000000000E+00 -0.00000000000E+00 -0.16018467783E+04  0.16018467783E+04  0.00000000000E+00 0. -1.
         23    2    1    2    0    0  0.47389059838E+03  0.52709473869E+03 -0.31497463530E+03  0.78098550931E+03  0.91258873977E+02 0.  0.
        254    2    1    2    0    0 -0.47389059838E+03 -0.52709473869E+03 -0.74290446903E+03  0.13648289430E+04  0.89913838247E+03 0.  0.
        -24    2    4    4    0    0 -0.72240865839E+03 -0.37231329612E+03 -0.65981834714E+03  0.10500216837E+04  0.81815797764E+02 0.  0.
         24    2    4    4    0    0  0.24851806001E+03 -0.15478144257E+03 -0.83086121889E+02  0.31480725936E+03  0.80509538451E+02 0.  0.
         11    1    3    3    0    0  0.45296910909E+02  0.26287520783E+02 -0.51130597522E+01  0.52621167479E+02  0.00000000000E+00 0. -1.
        -11    1    3    3    0    0  0.42859368748E+03  0.50080721791E+03 -0.30986157555E+03  0.72836434184E+03  0.00000000000E+00 0.  1.
          4    1    6    6  502    0  0.19792532206E+03 -0.84113835238E+02 -0.44002427263E+02  0.21951260555E+03  0.00000000000E+00 0. -1.
          3    1    5    5  503    0 -0.41782491674E+03 -0.24397332917E+03 -0.43161040984E+03  0.64837349751E+03  0.00000000000E+00 0. -1.
         -4    1    5    5    0  503 -0.30458374165E+03 -0.12833996696E+03 -0.22820793730E+03  0.40164818616E+03  0.00000000000E+00 0.  1.
         -3    1    6    6    0  502  0.50592737950E+02 -0.70667607333E+02 -0.39083694626E+02  0.95294653812E+02  0.00000000000E+00 0.  1.
<mgrwt>
<rscale>  0 0.18669257E+04</rscale>
<asrwt>0</asrwt>
<pdfrwt beam="1">  1        1 0.24643796E+00 0.18669257E+04</pdfrwt>
<pdfrwt beam="2">  1       -1 0.83687336E-01 0.18669257E+04</pdfrwt>
<totfact> 0.73915650E+00</totfact>
</mgrwt>
</event>
<event>
12    1  0.1495204E-007  0.1175851E+04  0.7818608E-02  0.9134260E-01
         -2   -1    0    0    0  501 -0.00000000000E+00  0.00000000000E+00  0.32131988347E+03  0.32131988347E+03  0.00000000000E+00 0.  1.
          2   -1    0    0  501    0  0.00000000000E+00 -0.00000000000E+00 -0.10757400283E+04  0.10757400283E+04  0.00000000000E+00 0. -1.
         23    2    1    2    0    0  0.13738783293E+03 -0.18091947500E+03 -0.23741089158E+03  0.34017810795E+03  0.88033747057E+02 0.  0.
        254    2    1    2    0    0 -0.13738783293E+03  0.18091947500E+03 -0.51700925329E+03  0.10568818038E+04  0.89336068094E+03 0.  0.
        -24    2    4    4    0    0  0.16349502809E+03 -0.17043795391E+03  0.11032779755E+03  0.27341084518E+03  0.82471492093E+02 0.  0.
         24    2    4    4    0    0 -0.30088286102E+03  0.35135742891E+03 -0.62733705084E+03  0.78347095866E+03  0.79324830934E+02 0.  0.
         13    1    3    3    0    0 -0.89382083656E+01 -0.19333124267E+02 -0.43436655208E+02  0.48377725022E+02  0.00000000000E+00 0.  1.
        -13    1    3    3    0    0  0.14632604130E+03 -0.16158635073E+03 -0.19397423637E+03  0.29180038293E+03  0.00000000000E+00 0. -1.
          2    1    6    6  502    0 -0.27409984610E+03  0.34589455805E+03 -0.58011523767E+03  0.72890840295E+03  0.00000000000E+00 0. -1.
          1    1    5    5  503    0  0.13487188878E+03 -0.11073785994E+03  0.44599485832E+02  0.18011777853E+03  0.00000000000E+00 0. -1.
         -2    1    5    5    0  503  0.28623139314E+02 -0.59700093973E+02  0.65728311717E+02  0.93293066654E+02  0.00000000000E+00 0.  1.
         -1    1    6    6    0  502 -0.26783014922E+02  0.54628708626E+01 -0.47221813173E+02  0.54562555711E+02  0.00000000000E+00 0.  1.
<mgrwt>
<rscale>  0 0.11758515E+04</rscale>
<asrwt>0</asrwt>
<pdfrwt beam="1">  1        2 0.16549846E+00 0.11758515E+04</pdfrwt>
<pdfrwt beam="2">  1       -2 0.49433829E-01 0.11758515E+04</pdfrwt>
<totfact> 0.86313475E+01</totfact>
</mgrwt>
</event>
<event>
12    1  0.1495204E-007  0.1807959E+04  0.7818608E-02  0.8702078E-01
         -1   -1    0    0    0  501 -0.00000000000E+00  0.00000000000E+00  0.17670798465E+04  0.17670798465E+04  0.00000000000E+00 0.  1.
          1   -1    0    0  501    0  0.00000000000E+00 -0.00000000000E+00 -0.46244601149E+03  0.46244601149E+03  0.00000000000E+00 0. -1.
         23    2    1    2    0    0 -0.54319135939E+03 -0.36343482733E+03  0.27001933769E+03  0.71320691089E+03  0.92800476232E+02 0.  0.
        254    2    1    2    0    0  0.54319135939E+03  0.36343482733E+03  0.10346144973E+04  0.15163189471E+04  0.89535147546E+03 0.  0.
        -24    2    4    4    0    0  0.29756219230E+03 -0.27439255701E+03  0.30403190248E+03  0.51267177535E+03  0.81008751855E+02 0.  0.
         24    2    4    4    0    0  0.24562916709E+03  0.63782738434E+03  0.73058259482E+03  0.10036471717E+04  0.79995359414E+02 0.  0.
         13    1    3    3    0    0 -0.54696099104E+03 -0.36265314186E+03  0.26832196108E+03  0.70899950763E+03  0.00000000000E+00 0. -1.
        -13    1    3    3    0    0  0.37696316442E+01 -0.78168546446E+00  0.16973766034E+01  0.42074032647E+01  0.00000000000E+00 0.  1.
          4    1    6    6  502    0 -0.55001337648E+01  0.19102887919E+02  0.28280213526E+02  0.34567937100E+02  0.00000000000E+00 0. -1.
          1    1    5    5  503    0  0.12113523068E+03 -0.16471298413E+03  0.16451780241E+03  0.26243135972E+03  0.00000000000E+00 0. -1.
         -2    1    5    5    0  503  0.17642696162E+03 -0.10967957289E+03  0.13951410007E+03  0.25024041563E+03  0.00000000000E+00 0.  1.
         -3    1    6    6    0  502  0.25112930085E+03  0.61872449642E+03  0.70230238129E+03  0.96907923463E+03  0.00000000000E+00 0.  1.
<mgrwt>
<rscale>  0 0.18079591E+04</rscale>
<asrwt>0</asrwt>
<pdfrwt beam="1">  1        1 0.71145541E-01 0.18079591E+04</pdfrwt>
<pdfrwt beam="2">  1       -1 0.27185843E+00 0.18079591E+04</pdfrwt>
<totfact> 0.23391876E+00</totfact>
</mgrwt>
</event>
<event>
12    1  0.1495204E-007  0.1426464E+04  0.7818608E-02  0.8934883E-01
         -3   -1    0    0    0  501 -0.00000000000E+00  0.00000000000E+00  0.67902018258E+03  0.67902018258E+03  0.00000000000E+00 0.  1.
          3   -1    0    0  501    0  0.00000000000E+00 -0.00000000000E+00 -0.74916702856E+03  0.74916702856E+03  0.00000000000E+00 0. -1.
         23    2    1    2    0    0  0.30017172152E+03  0.43121917869E+02  0.26995393357E+03  0.41595916962E+03  0.90467355106E+02 0.  0.
        254    2    1    2    0    0 -0.30017172152E+03 -0.43121917869E+02 -0.34010077955E+03  0.10122280415E+04  0.90386642021E+03 0.  0.
        -24    2    4    4    0    0 -0.50542248423E+03 -0.26943154614E+03 -0.38266295033E+03  0.69315782646E+03  0.77405382301E+02 0.  0.
         24    2    4    4    0    0  0.20525076271E+03  0.22630962827E+03  0.42562170784E+02  0.31907021506E+03  0.81549618732E+02 0.  0.
         13    1    3    3    0    0  0.30102528208E+03  0.37304012707E+02  0.27405047668E+03  0.40879270246E+03  0.00000000000E+00 0.  1.
        -13    1    3    3    0    0 -0.85356055800E+00  0.58179051622E+01 -0.40965431116E+01  0.71664671609E+01  0.00000000000E+00 0. -1.
          2    1    6    6  502    0  0.39708055694E+02  0.54375992807E+02  0.43924392070E+02  0.80391731536E+02  0.00000000000E+00 0. -1.
          1    1    5    5  503    0 -0.54639728323E+02 -0.14751359953E+02 -0.16303709512E+02  0.58897482760E+02  0.00000000000E+00 0. -1.
         -2    1    5    5    0  503 -0.45078275591E+03 -0.25468018618E+03 -0.36635924082E+03  0.63426034370E+03  0.00000000000E+00 0.  1.
         -1    1    6    6    0  502  0.16554270702E+03  0.17193363546E+03 -0.13622212855E+01  0.23867848352E+03  0.00000000000E+00 0.  1.
<mgrwt>
<rscale>  0 0.14264635E+04</rscale>
<asrwt>0</asrwt>
<pdfrwt beam="1">  1        3 0.11525647E+00 0.14264635E+04</pdfrwt>
<pdfrwt beam="2">  1       -3 0.10446464E+00 0.14264635E+04</pdfrwt>
<totfact> 0.12531991E+00</totfact>
</mgrwt>
</event>
<event>
12    1  0.1495204E-007  0.1622479E+04  0.7818608E-02  0.8806856E-01
         -1   -1    0    0    0  501 -0.00000000000E+00  0.00000000000E+00  0.10422932304E+04  0.10422932304E+04  0.00000000000E+00 0.  1.
          1   -1    0    0  501    0  0.00000000000E+00 -0.00000000000E+00 -0.63140523583E+03  0.63140523583E+03  0.00000000000E+00 0. -1.
         23    2    1    2    0    0  0.48632838251E+02 -0.46249764617E+03  0.44629171626E+03  0.65108925613E+03  0.92041826264E+02 0.  0.
        254    2    1    2    0    0 -0.48632838251E+02  0.46249764617E+03 -0.35403721677E+02  0.10226092101E+04  0.91005876042E+03 0.  0.
        -24    2    4    4    0    0 -0.12448318166E+03  0.34792724631E+03  0.40498776527E+03  0.55440858595E+03  0.82488538076E+02 0.  0.
         24    2    4    4    0    0  0.75850343413E+02  0.11457039986E+03 -0.44039148695E+03  0.46820062416E+03  0.79921909201E+02 0.  0.
         11    1    3    3    0    0  0.18309245892E+02 -0.22884395479E+03  0.28306672976E+03  0.36446063934E+03  0.00000000000E+00 0. -1.
        -11    1    3    3    0    0  0.30323592358E+02 -0.23365369138E+03  0.16322498650E+03  0.28662861680E+03  0.00000000000E+00 0.  1.
          4    1    6    6  502    0  0.10418303909E+02 -0.49953297614E+01 -0.11273987046E+03  0.11333037001E+03  0.00000000000E+00 0. -1.
          3    1    5    5  503    0 -0.75271213007E+02  0.28902664841E+03  0.29103497411E+03  0.41701740390E+03  0.00000000000E+00 0. -1.
         -4    1    5    5    0  503 -0.49211968657E+02  0.58900597897E+02  0.11395279116E+03  0.13739118205E+03  0.00000000000E+00 0.  1.
         -3    1    6    6    0  502  0.65432039504E+02  0.11956572963E+03 -0.32765161649E+03  0.35487025415E+03  0.00000000000E+00 0.  1.
<mgrwt>
<rscale>  0 0.16224788E+04</rscale>
<asrwt>0</asrwt>
<pdfrwt beam="1">  1        1 0.97139267E-01 0.16224788E+04</pdfrwt>
<pdfrwt beam="2">  1       -1 0.16035280E+00 0.16224788E+04</pdfrwt>
<totfact> 0.88435085E+00</totfact>
</mgrwt>
</event>
<event>
12    1  0.1495204E-007  0.1713133E+04  0.7818608E-02  0.8753909E-01
          2   -1    0    0  501    0  0.00000000000E+00  0.00000000000E+00  0.20036305796E+04  0.20036305796E+04  0.00000000000E+00 0. -1.
         -2   -1    0    0    0  501 -0.00000000000E+00 -0.00000000000E+00 -0.36618847207E+03  0.36618847207E+03  0.00000000000E+00 0.  1.
         23    2    1    2    0    0 -0.17415249209E+03  0.41035628019E+03  0.49114431426E+01  0.45485423114E+03  0.90260080436E+02 0.  0.
        254    2    1    2    0    0  0.17415249209E+03 -0.41035628019E+03  0.16325306644E+04  0.19149648205E+04  0.89622124864E+03 0.  0.
        -24    2    4    4    0    0 -0.34703293206E+03 -0.28385845383E+03  0.82706313366E+03  0.94393526652E+03  0.77284426504E+02 0.  0.
         24    2    4    4    0    0  0.52118542415E+03 -0.12649782636E+03  0.80546753073E+03  0.97102955401E+03  0.80526425999E+02 0.  0.
         13    1    3    3    0    0  0.79742748175E+01  0.94791002713E+01  0.76065613345E+01  0.14536236657E+02  0.00000000000E+00 0. -1.
        -13    1    3    3    0    0 -0.18212676691E+03  0.40087717992E+03 -0.26951181920E+01  0.44031799448E+03  0.00000000000E+00 0.  1.
          4    1    6    6  502    0  0.24231342756E+03 -0.88894723856E+02  0.33605454905E+03  0.42373426702E+03  0.00000000000E+00 0. -1.
          3    1    5    5  503    0 -0.87426754931E+02 -0.52362231436E+02  0.25249557540E+03  0.27228524814E+03  0.00000000000E+00 0. -1.
         -4    1    5    5    0  503 -0.25960617713E+03 -0.23149622240E+03  0.57456755826E+03  0.67165001838E+03  0.00000000000E+00 0.  1.
         -3    1    6    6    0  502  0.27887199659E+03 -0.37603102500E+02  0.46941298167E+03  0.54729528699E+03  0.00000000000E+00 0.  1.
<mgrwt>
<rscale>  0 0.17131333E+04</rscale>
<asrwt>0</asrwt>
<pdfrwt beam="1">  1        2 0.30825085E+00 0.17131333E+04</pdfrwt>
<pdfrwt beam="2">  1       -2 0.56336689E-01 0.17131333E+04</pdfrwt>
<totfact> 0.18694653E+01</totfact>
</mgrwt>
</event>
<event>
12    1  0.1495204E-007  0.2272418E+04  0.7818608E-02  0.8488876E-01
          1   -1    0    0  501    0  0.00000000000E+00  0.00000000000E+00  0.30688769378E+04  0.30688769378E+04  0.00000000000E+00 0. -1.
         -1   -1    0    0    0  501 -0.00000000000E+00 -0.00000000000E+00 -0.42066576005E+03  0.42066576005E+03  0.00000000000E+00 0.  1.
         23    2    1    2    0    0  0.40379482583E+03 -0.35719517617E+03 -0.99463364479E+02  0.55527981573E+03  0.88340577560E+02 0.  0.
        254    2    1    2    0    0 -0.40379482583E+03  0.35719517617E+03  0.27476745422E+04  0.29342628821E+04  0.87723692133E+03 0.  0.
        -24    2    4    4    0    0  0.16701322724E+03  0.36566578101E+03  0.15803786042E+04  0.16323960813E+04  0.74266764731E+02 0.  0.
         24    2    4    4    0    0 -0.57080805307E+03 -0.84706048458E+01  0.11672959380E+04  0.13018668008E+04  0.79898531937E+02 0.  0.
         11    1    3    3    0    0  0.20607020738E+02  0.22073486488E+01 -0.83270861499E+00  0.20741627115E+02  0.00000000000E+00 0. -1.
        -11    1    3    3    0    0  0.38318780509E+03 -0.35940252481E+03 -0.98630655864E+02  0.53453818862E+03  0.00000000000E+00 0.  1.
          4    1    6    6  502    0 -0.45401665677E+03  0.16888597287E+02  0.87094325939E+03  0.98232301735E+03  0.00000000000E+00 0. -1.
          3    1    5    5  503    0  0.83213384625E+02  0.13657717287E+03  0.75356383173E+03  0.77034812911E+03  0.00000000000E+00 0. -1.
         -2    1    5    5    0  503  0.83799842611E+02  0.22908860814E+03  0.82681477245E+03  0.86204795223E+03  0.00000000000E+00 0.  1.
         -3    1    6    6    0  502 -0.11679139630E+03 -0.25359202133E+02  0.29635267866E+03  0.31954378343E+03  0.00000000000E+00 0.  1.
<mgrwt>
<rscale>  0 0.22724185E+04</rscale>
<asrwt>0</asrwt>
<pdfrwt beam="1">  1        1 0.47213490E+00 0.22724185E+04</pdfrwt>
<pdfrwt beam="2">  1       -1 0.64717811E-01 0.22724185E+04</pdfrwt>
<totfact> 0.11680205E+00</totfact>
</mgrwt>
</event>
<event>
12    1  0.1495204E-007  0.1466271E+04  0.7818608E-02  0.8907197E-01
          2   -1    0    0  501    0  0.00000000000E+00  0.00000000000E+00  0.16496140889E+04  0.16496140889E+04  0.00000000000E+00 0. -1.
         -2   -1    0    0    0  501 -0.00000000000E+00 -0.00000000000E+00 -0.32582621379E+03  0.32582621379E+03  0.00000000000E+00 0.  1.
         23    2    1    2    0    0 -0.19209717813E+03  0.11943551255E+03  0.94649699926E+03  0.97749159048E+03  0.92016696070E+02 0.  0.
        254    2    1    2    0    0  0.19209717813E+03 -0.11943551255E+03  0.37729087588E+03  0.99794871223E+03  0.89576060402E+03 0.  0.
        -24    2    4    4    0    0  0.37465836829E+03 -0.14207512489E+03  0.58204997270E+03  0.71122583373E+03  0.80658426722E+02 0.  0.
         24    2    4    4    0    0 -0.18256119016E+03  0.22639612333E+02 -0.20475909682E+03  0.28672287850E+03  0.80265690855E+02 0.  0.
         11    1    3    3    0    0 -0.11485363602E+02  0.24386376181E+02  0.25734258531E+03  0.25875048818E+03  0.00000000000E+00 0. -1.
        -11    1    3    3    0    0 -0.18061181453E+03  0.95049136371E+02  0.68915441395E+03  0.71874110230E+03  0.00000000000E+00 0.  1.
          2    1    6    6  502    0 -0.15164812266E+03  0.18398351473E+02 -0.20482892697E+03  0.25552013965E+03  0.00000000000E+00 0. -1.
          3    1    5    5  503    0  0.18148083135E+03 -0.80794960075E+02  0.35563465674E+03  0.40735626520E+03  0.00000000000E+00 0. -1.
         -4    1    5    5    0  503  0.19317753694E+03 -0.61280164810E+02  0.22641531596E+03  0.30386956853E+03  0.00000000000E+00 0.  1.
         -1    1    6    6    0  502 -0.30913067493E+02  0.42412608603E+01  0.69830150118E-01  0.31202738851E+02  0.00000000000E+00 0.  1.
<mgrwt>
<rscale>  0 0.14662708E+04</rscale>
<asrwt>0</asrwt>
<pdfrwt beam="1">  1        2 0.25378678E+00 0.14662708E+04</pdfrwt>
<pdfrwt beam="2">  1       -2 0.50127111E-01 0.14662708E+04</pdfrwt>
<totfact> 0.38144004E+01</totfact>
</mgrwt>
</event>
<event>
12    1  0.1495204E-007  0.2878751E+04  0.7818608E-02  0.8279228E-01
          2   -1    0    0  501    0  0.00000000000E+00  0.00000000000E+00  0.16152288695E+04  0.16152288695E+04  0.00000000000E+00 0. -1.
         -2   -1    0    0    0  501 -0.00000000000E+00 -0.00000000000E+00 -0.12826677929E+04  0.12826677929E+04  0.00000000000E+00 0.  1.
         23    2    1    2    0    0  0.35882990454E+03 -0.33792111697E+03 -0.10586597899E+04  0.11709981154E+04  0.86755136931E+02 0.  0.
        254    2    1    2    0    0 -0.35882990454E+03  0.33792111697E+03  0.13912208666E+04  0.17268985469E+04  0.89651185717E+03 0.  0.
        -24    2    4    4    0    0 -0.48852067386E+03  0.56213220352E+03  0.10021878574E+04  0.12511599262E+04  0.79847330791E+02 0.  0.
         24    2    4    4    0    0  0.12969076932E+03 -0.22421108654E+03  0.38903300917E+03  0.47573862077E+03  0.88827057222E+02 0.  0.
         13    1    3    3    0    0  0.26226684178E+02 -0.98999967387E+01 -0.11059392730E+03  0.11409147932E+03  0.00000000000E+00 0. -1.
        -13    1    3    3    0    0  0.33260322036E+03 -0.32802112023E+03 -0.94806586265E+03  0.10569066361E+04  0.00000000000E+00 0.  1.
          4    1    6    6  502    0  0.69692284438E+02 -0.51236748306E+02  0.87944581873E+02  0.12335505003E+03  0.00000000000E+00 0. -1.
          1    1    5    5  503    0 -0.62147159586E+01  0.11966944948E+01  0.11488124199E+01  0.64323045743E+01  0.00000000000E+00 0. -1.
         -2    1    5    5    0  503 -0.48230595790E+03  0.56093550902E+03  0.10010390450E+04  0.12447276216E+04  0.00000000000E+00 0.  1.
         -3    1    6    6    0  502  0.59998484882E+02 -0.17297433824E+03  0.30108842730E+03  0.35238357074E+03  0.00000000000E+00 0.  1.
<mgrwt>
<rscale>  0 0.28787512E+04</rscale>
<asrwt>0</asrwt>
<pdfrwt beam="1">  1        2 0.24849675E+00 0.28787512E+04</pdfrwt>
<pdfrwt beam="2">  1       -2 0.19733351E+00 0.28787512E+04</pdfrwt>
<totfact> 0.13095080E+00</totfact>
</mgrwt>
</event>
<event>
12    1  0.1495204E-007  0.1321204E+04  0.7818608E-02  0.9012917E-01
          1   -1    0    0  501    0  0.00000000000E+00  0.00000000000E+00  0.16238412407E+04  0.16238412407E+04  0.00000000000E+00 0. -1.
         -1   -1    0    0    0  501 -0.00000000000E+00 -0.00000000000E+00 -0.26874249444E+03  0.26874249444E+03  0.00000000000E+00 0.  1.
         23    2    1    2    0    0 -0.20116296153E+03  0.20348355010E+03  0.65464166160E+03  0.72159937775E+03  0.10137980377E+03 0.  0.
        254    2    1    2    0    0  0.20116296153E+03 -0.20348355010E+03  0.70045708466E+03  0.11709843574E+04  0.89369577907E+03 0.  0.
        -24    2    4    4    0    0  0.51905330175E+03 -0.19565646680E+03  0.25093331332E+03  0.61480709394E+03  0.85571326797E+02 0.  0.
         24    2    4    4    0    0 -0.31789034022E+03 -0.78270832957E+01  0.44952377134E+03  0.55617726344E+03  0.78396401270E+02 0.  0.
         11    1    3    3    0    0 -0.14309192954E+03  0.11711700496E+03  0.51677502873E+03  0.54886075053E+03  0.00000000000E+00 0. -1.
        -11    1    3    3    0    0 -0.58071031988E+02  0.86366545138E+02  0.13786663287E+03  0.17273862722E+03  0.00000000000E+00 0.  1.
          2    1    6    6  502    0 -0.13265278982E+03  0.66812583194E+01  0.12590797435E+03  0.18301426137E+03  0.00000000000E+00 0. -1.
          1    1    5    5  503    0  0.11237076251E+03 -0.60006975043E+02  0.93843655597E+02  0.15822344016E+03  0.00000000000E+00 0. -1.
         -2    1    5    5    0  503  0.40668253924E+03 -0.13564949176E+03  0.15708965773E+03  0.45658365378E+03  0.00000000000E+00 0.  1.
         -1    1    6    6    0  502 -0.18523755040E+03 -0.14508341615E+02  0.32361579698E+03  0.37316300207E+03  0.00000000000E+00 0.  1.
<mgrwt>
<rscale>  0 0.13212042E+04</rscale>
<asrwt>0</asrwt>
<pdfrwt beam="1">  1        1 0.24982172E+00 0.13212042E+04</pdfrwt>
<pdfrwt beam="2">  1       -1 0.41345000E-01 0.13212042E+04</pdfrwt>
<totfact> 0.30214602E+01</totfact>
</mgrwt>
</event>
<event>
12    1  0.1495204E-007  0.1710311E+04  0.7818608E-02  0.8755506E-01
          1   -1    0    0  501    0  0.00000000000E+00  0.00000000000E+00  0.29434754382E+04  0.29434754382E+04  0.00000000000E+00 0. -1.
         -1   -1    0    0    0  501 -0.00000000000E+00 -0.00000000000E+00 -0.24844462556E+03  0.24844462556E+03  0.00000000000E+00 0.  1.
         23    2    1    2    0    0  0.51802412882E+03  0.27950905397E+03  0.64576253975E+03  0.87820656058E+03  0.88109000786E+02 0.  0.
        254    2    1    2    0    0 -0.51802412882E+03 -0.27950905397E+03  0.20492682729E+04  0.23137135032E+04  0.89849619435E+03 0.  0.
        -24    2    4    4    0    0 -0.62562610523E+03 -0.10947100887E+03  0.70552104584E+03  0.95267373101E+03  0.80220734927E+02 0.  0.
         24    2    4    4    0    0  0.10760197641E+03 -0.17003804509E+03  0.13437472271E+04  0.13610397722E+04  0.79256098236E+02 0.  0.
         13    1    3    3    0    0  0.25868596284E+03  0.12638113823E+03  0.37844649292E+03  0.47551274165E+03  0.00000000000E+00 0.  1.
        -13    1    3    3    0    0  0.25933816598E+03  0.15312791574E+03  0.26731604683E+03  0.40269381893E+03  0.00000000000E+00 0. -1.
          2    1    6    6  502    0 -0.19440027343E+00 -0.44748085218E+02  0.44298819862E+03  0.44524260020E+03  0.00000000000E+00 0. -1.
          1    1    5    5  503    0 -0.34170502103E+03 -0.51447214205E+02  0.32506676303E+03  0.47442337386E+03  0.00000000000E+00 0. -1.
         -2    1    5    5    0  503 -0.28392108420E+03 -0.58023794668E+02  0.38045428281E+03  0.47825035714E+03  0.00000000000E+00 0.  1.
         -1    1    6    6    0  502  0.10779637668E+03 -0.12528995987E+03  0.90075902848E+03  0.91579717200E+03  0.00000000000E+00 0.  1.
<mgrwt>
<rscale>  0 0.17103107E+04</rscale>
<asrwt>0</asrwt>
<pdfrwt beam="1">  1        1 0.45284235E+00 0.17103107E+04</pdfrwt>
<pdfrwt beam="2">  1       -1 0.38222252E-01 0.17103107E+04</pdfrwt>
<totfact> 0.41497727E+00</totfact>
</mgrwt>
</event>
<event>
12    1  0.1495204E-007  0.2346522E+04  0.7818608E-02  0.8459801E-01
          2   -1    0    0  501    0  0.00000000000E+00  0.00000000000E+00  0.10311363390E+04  0.10311363390E+04  0.00000000000E+00 0. -1.
         -2   -1    0    0    0  501 -0.00000000000E+00 -0.00000000000E+00 -0.13349756709E+04  0.13349756709E+04  0.00000000000E+00 0.  1.
         23    2    1    2    0    0  0.53070988912E+03  0.64621841856E+03 -0.67449502580E+03  0.10786690085E+04  0.96602583361E+02 0.  0.
        254    2    1    2    0    0 -0.53070988912E+03 -0.64621841856E+03  0.37065569387E+03  0.12874430014E+04  0.90602020262E+03 0.  0.
        -24    2    4    4    0    0 -0.15631335270E+03 -0.45280277307E+03  0.62320687401E+03  0.78993765974E+03  0.78425014665E+02 0.  0.
         24    2    4    4    0    0 -0.37439653642E+03 -0.19341564548E+03 -0.25255118014E+03  0.49750534166E+03  0.78403367238E+02 0.  0.
         13    1    3    3    0    0  0.39442716851E+03  0.44048047669E+03 -0.52090189359E+03  0.78799405096E+03  0.00000000000E+00 0. -1.
        -13    1    3    3    0    0  0.13628272061E+03  0.20573794187E+03 -0.15359313221E+03  0.29067495751E+03  0.00000000000E+00 0.  1.
          2    1    6    6  502    0 -0.83753529879E+02 -0.80145009372E+02 -0.81972146420E+02  0.14197643848E+03  0.00000000000E+00 0. -1.
          3    1    5    5  503    0 -0.11746295266E+03 -0.24260576000E+03  0.38370433617E+03  0.46891802869E+03  0.00000000000E+00 0. -1.
         -4    1    5    5    0  503 -0.38850400043E+02 -0.21019701308E+03  0.23950253784E+03  0.32101963105E+03  0.00000000000E+00 0.  1.
         -1    1    6    6    0  502 -0.29064300654E+03 -0.11327063611E+03 -0.17057903372E+03  0.35552890318E+03  0.00000000000E+00 0.  1.
<mgrwt>
<rscale>  0 0.23465225E+04</rscale>
<asrwt>0</asrwt>
<pdfrwt beam="1">  1        2 0.15863636E+00 0.23465225E+04</pdfrwt>
<pdfrwt beam="2">  1       -2 0.20538087E+00 0.23465225E+04</pdfrwt>
<totfact> 0.26649486E+00</totfact>
</mgrwt>
</event>
<event>
12    1  0.1495204E-007  0.1376657E+04  0.7818608E-02  0.8970891E-01
          2   -1    0    0  501    0  0.00000000000E+00  0.00000000000E+00  0.16288470716E+04  0.16288470716E+04  0.00000000000E+00 0.  1.
         -2   -1    0    0    0  501 -0.00000000000E+00 -0.00000000000E+00 -0.29087818266E+03  0.29087818266E+03  0.00000000000E+00 0. -1.
         23    2    1    2    0    0  0.11660451221E+03 -0.29831566090E+03  0.78838757754E+02  0.34211455919E+03  0.90763296994E+02 0.  0.
        254    2    1    2    0    0 -0.11660451221E+03  0.29831566090E+03  0.12591301312E+04  0.15776106951E+04  0.89490668348E+03 0.  0.
        -24    2    4    4    0    0 -0.14984139916E+02 -0.74562141494E+02  0.11670803194E+04  0.11726216045E+04  0.84740298198E+02 0.  0.
         24    2    4    4    0    0 -0.10162037229E+03  0.37287780240E+03  0.92049811809E+02  0.40498909054E+03  0.78603053493E+02 0.  0.
         11    1    3    3    0    0 -0.93101626728E+01 -0.17782157987E+01  0.76489224301E+01  0.12179786318E+02  0.00000000000E+00 0.  1.
        -11    1    3    3    0    0  0.12591467488E+03 -0.29653744510E+03  0.71189835324E+02  0.32993477288E+03  0.00000000000E+00 0. -1.
          4    1    6    6  502    0 -0.14202306971E+02  0.33149641718E+01  0.22701958262E+01  0.14759684951E+02  0.00000000000E+00 0. -1.
          1    1    5    5  503    0 -0.28799664385E+01  0.13769446195E+02  0.48642499369E+02  0.50635803539E+02  0.00000000000E+00 0. -1.
         -2    1    5    5    0  503 -0.12104173477E+02 -0.88331587689E+02  0.11184378200E+04  0.11219858010E+04  0.00000000000E+00 0.  1.
         -3    1    6    6    0  502 -0.87418065318E+02  0.36956283823E+03  0.89779615983E+02  0.39022940559E+03  0.00000000000E+00 0.  1.
<mgrwt>
<rscale>  0 0.13766569E+04</rscale>
<asrwt>0</asrwt>
<pdfrwt beam="1">  1        2 0.25059185E+00 0.13766569E+04</pdfrwt>
<pdfrwt beam="2">  1       -2 0.44750491E-01 0.13766569E+04</pdfrwt>
<totfact> 0.49598980E+01</totfact>
</mgrwt>
</event>
<event>
12    1  0.1495204E-007  0.2798306E+04  0.7818608E-02  0.8303794E-01
         -2   -1    0    0    0  501 -0.00000000000E+00  0.00000000000E+00  0.40390109883E+03  0.40390109883E+03  0.00000000000E+00 0.  1.
          2   -1    0    0  501    0  0.00000000000E+00 -0.00000000000E+00 -0.48468031388E+04  0.48468031388E+04  0.00000000000E+00 0. -1.
         23    2    1    2    0    0  0.13843168741E+03  0.70126830859E+03 -0.64931202084E+02  0.72420471078E+03  0.96518544316E+02 0.  0.
        254    2    1    2    0    0 -0.13843168741E+03 -0.70126830859E+03 -0.43779708379E+04  0.45264995269E+04  0.90090439924E+03 0.  0.
        -24    2    4    4    0    0  0.36247548146E+03 -0.32689218478E+03 -0.23976124539E+04  0.24482426932E+04  0.84260489986E+02 0.  0.
         24    2    4    4    0    0 -0.50090716887E+03 -0.37437612381E+03 -0.19803583839E+04  0.20782568337E+04  0.79162264119E+02 0.  0.
         13    1    3    3    0    0  0.61101148428E+02  0.13616229395E+03 -0.33561181520E+02  0.15297017205E+03  0.00000000000E+00 0. -1.
        -13    1    3    3    0    0  0.77330538983E+02  0.56510601464E+03 -0.31370020564E+02  0.57123453873E+03  0.00000000000E+00 0.  1.
          2    1    6    6  502    0 -0.95204705913E+02 -0.81529407956E+02 -0.50665252660E+03  0.52192697104E+03  0.00000000000E+00 0. -1.
          3    1    5    5  503    0  0.19759896483E+02 -0.16321506859E+02 -0.58862059729E+02  0.64199588556E+02  0.00000000000E+00 0. -1.
         -4    1    5    5    0  503  0.34271558498E+03 -0.31057067792E+03 -0.23387503942E+04  0.23840431046E+04  0.00000000000E+00 0.  1.
         -1    1    6    6    0  502 -0.40570246296E+03 -0.29284671585E+03 -0.14737058573E+04  0.15563298627E+04  0.00000000000E+00 0.  1.
<mgrwt>
<rscale>  0 0.27983060E+04</rscale>
<asrwt>0</asrwt>
<pdfrwt beam="1">  1        2 0.74566199E+00 0.27983060E+04</pdfrwt>
<pdfrwt beam="2">  1       -2 0.62138633E-01 0.27983060E+04</pdfrwt>
<totfact> 0.11035622E-01</totfact>
</mgrwt>
</event>
<event>
12    1  0.1495204E-007  0.1972104E+04  0.7818608E-02  0.8619775E-01
          1   -1    0    0  501    0  0.00000000000E+00  0.00000000000E+00  0.11698413531E+04  0.11698413531E+04  0.00000000000E+00 0. -1.
         -1   -1    0    0    0  501 -0.00000000000E+00 -0.00000000000E+00 -0.83113736725E+03  0.83113736725E+03  0.00000000000E+00 0.  1.
         23    2    1    2    0    0 -0.24474092686E+03 -0.43880680270E+03 -0.46837064296E+03  0.69437397749E+03  0.10165938251E+03 0.  0.
        254    2    1    2    0    0  0.24474092686E+03  0.43880680270E+03  0.80707462885E+03  0.13066047429E+04  0.89632414128E+03 0.  0.
        -24    2    4    4    0    0  0.83093911954E+02 -0.17891770246E+03 -0.64740040470E+02  0.22312958904E+03  0.81727585354E+02 0.  0.
         24    2    4    4    0    0  0.16164701491E+03  0.61772450516E+03  0.87181466932E+03  0.10834751539E+04  0.78385392013E+02 0.  0.
         13    1    3    3    0    0 -0.23867171272E+03 -0.42253566052E+03 -0.41595048605E+03  0.63915207714E+03  0.00000000000E+00 0.  1.
        -13    1    3    3    0    0 -0.60692141424E+01 -0.16271142182E+02 -0.52420156914E+02  0.55221900358E+02  0.00000000000E+00 0. -1.
          2    1    6    6  502    0  0.19204961540E+02  0.22021854520E+03  0.29725198331E+03  0.37043728184E+03  0.00000000000E+00 0. -1.
          1    1    5    5  503    0  0.31647558214E+02 -0.39681454458E+02  0.17183885393E+02  0.53586114675E+02  0.00000000000E+00 0. -1.
         -2    1    5    5    0  503  0.51446353740E+02 -0.13923624800E+03 -0.81923925863E+02  0.16954347436E+03  0.00000000000E+00 0.  1.
         -1    1    6    6    0  502  0.14244205337E+03  0.39750595997E+03  0.57456268600E+03  0.71303787201E+03  0.00000000000E+00 0.  1.
<mgrwt>
<rscale>  0 0.19721043E+04</rscale>
<asrwt>0</asrwt>
<pdfrwt beam="1">  1        1 0.17997559E+00 0.19721043E+04</pdfrwt>
<pdfrwt beam="2">  1       -1 0.12786729E+00 0.19721043E+04</pdfrwt>
<totfact> 0.55295605E+00</totfact>
</mgrwt>
</event>
<event>
12    1  0.1495204E-007  0.1444951E+04  0.7818608E-02  0.8921909E-01
         -2   -1    0    0    0  501 -0.00000000000E+00  0.00000000000E+00  0.29162287886E+03  0.29162287886E+03  0.00000000000E+00 0. -1.
          2   -1    0    0  501    0  0.00000000000E+00 -0.00000000000E+00 -0.17898823397E+04  0.17898823397E+04  0.00000000000E+00 0.  1.
         23    2    1    2    0    0 -0.32485963061E+03  0.24917554723E+03 -0.29716267491E+03  0.51450233618E+03  0.93727080624E+02 0.  0.
        254    2    1    2    0    0  0.32485963061E+03 -0.24917554723E+03 -0.12010967859E+04  0.15670028824E+04  0.91937060605E+03 0.  0.
        -24    2    4    4    0    0 -0.29133576178E+02 -0.53285960521E+03 -0.56301929374E+03  0.77985111671E+03  0.79930688615E+02 0.  0.
         24    2    4    4    0    0  0.35399320678E+03  0.28368405798E+03 -0.63807749219E+03  0.78715176567E+03  0.81714019311E+02 0.  0.
         11    1    3    3    0    0 -0.17554224778E+02  0.17750564026E+02 -0.53742646177E+02  0.59257955997E+02  0.00000000000E+00 0.  1.
        -11    1    3    3    0    0 -0.30730540583E+03  0.23142498320E+03 -0.24342002874E+03  0.45524438018E+03  0.00000000000E+00 0. -1.
          4    1    6    6  502    0  0.47960164040E+02  0.28411723219E+02 -0.12983021129E+03  0.14129149697E+03  0.00000000000E+00 0. -1.
          1    1    5    5  503    0 -0.41200807564E+02 -0.17594114904E+03 -0.15982824931E+03  0.24124233406E+03  0.00000000000E+00 0. -1.
         -2    1    5    5    0  503  0.12067231386E+02 -0.35691845617E+03 -0.40319104443E+03  0.53860878265E+03  0.00000000000E+00 0.  1.
         -3    1    6    6    0  502  0.30603304274E+03  0.25527233477E+03 -0.50824728090E+03  0.64586026871E+03  0.00000000000E+00 0.  1.
<mgrwt>
<rscale>  0 0.14449507E+04</rscale>
<asrwt>0</asrwt>
<pdfrwt beam="1">  1        2 0.27536651E+00 0.14449507E+04</pdfrwt>
<pdfrwt beam="2">  1       -2 0.44865058E-01 0.14449507E+04</pdfrwt>
<totfact> 0.39953071E+01</totfact>
</mgrwt>
</event>
<event>
12    1  0.1495204E-007  0.1530470E+04  0.7818608E-02  0.8864440E-01
          2   -1    0    0  501    0  0.00000000000E+00  0.00000000000E+00  0.14324826824E+04  0.14324826824E+04  0.00000000000E+00 0. -1.
         -2   -1    0    0    0  501 -0.00000000000E+00 -0.00000000000E+00 -0.40878986649E+03  0.40878986649E+03  0.00000000000E+00 0.  1.
         23    2    1    2    0    0 -0.19745380604E+03  0.91543009215E+02 -0.19610587975E+03  0.30783844565E+03  0.94545568327E+02 0.  0.
        254    2    1    2    0    0  0.19745380604E+03 -0.91543009215E+02  0.12197986956E+04  0.15334341032E+04  0.90340642181E+03 0.  0.
        -24    2    4    4    0    0  0.13961967445E+03  0.12583402068E+03  0.12732023854E+04  0.12895089245E+04  0.80380955716E+02 0.  0.
         24    2    4    4    0    0  0.57834131587E+02 -0.21737702989E+03 -0.53403689743E+02  0.24392517869E+03  0.77781609766E+02 0.  0.
         11    1    3    3    0    0 -0.10559439747E+02 -0.17586344416E+02 -0.21972545754E+02  0.30059508389E+02  0.00000000000E+00 0. -1.
        -11    1    3    3    0    0 -0.18689436629E+03  0.10912935363E+03 -0.17413333400E+03  0.27777893726E+03  0.00000000000E+00 0.  1.
          4    1    6    6  502    0  0.36614369604E+02 -0.35854093407E+02  0.63687060463E+01  0.51639989275E+02  0.00000000000E+00 0. -1.
          3    1    5    5  503    0  0.56232428409E+02  0.61239683165E+02  0.32532601908E+03  0.33578177957E+03  0.00000000000E+00 0. -1.
         -2    1    5    5    0  503  0.83387246040E+02  0.64594337512E+02  0.94787636631E+03  0.95372714497E+03  0.00000000000E+00 0.  1.
         -3    1    6    6    0  502  0.21219761983E+02 -0.18152293648E+03 -0.59772395790E+02  0.19228518941E+03  0.00000000000E+00 0.  1.
<mgrwt>
<rscale>  0 0.15304697E+04</rscale>
<asrwt>0</asrwt>
<pdfrwt beam="1">  1        2 0.22038195E+00 0.15304697E+04</pdfrwt>
<pdfrwt beam="2">  1       -2 0.62890749E-01 0.15304697E+04</pdfrwt>
<totfact> 0.31315905E+01</totfact>
</mgrwt>
</event>
<event>
12    1  0.1495204E-007  0.1952941E+04  0.7818608E-02  0.8628944E-01
          2   -1    0    0  501    0  0.00000000000E+00  0.00000000000E+00  0.11260239473E+04  0.11260239473E+04  0.00000000000E+00 0. -1.
         -2   -1    0    0    0  501 -0.00000000000E+00 -0.00000000000E+00 -0.84678041150E+03  0.84678041150E+03  0.00000000000E+00 0.  1.
         23    2    1    2    0    0 -0.13679065997E+03  0.40713658813E+03 -0.53037307575E+03  0.68890508255E+03  0.93929373651E+02 0.  0.
        254    2    1    2    0    0  0.13679065997E+03 -0.40713658813E+03  0.80961661149E+03  0.12838992762E+04  0.89913647895E+03 0.  0.
        -24    2    4    4    0    0  0.72751393958E+02  0.14936954744E+03 -0.10293121880E+03  0.21069152914E+03  0.78689628445E+02 0.  0.
         24    2    4    4    0    0  0.64039266015E+02 -0.55650613557E+03  0.91254783029E+03  0.10732077471E+04  0.72327168208E+02 0.  0.
         13    1    3    3    0    0 -0.67304028274E+02  0.19486777433E+03 -0.32854109533E+03  0.38786922154E+03  0.00000000000E+00 0. -1.
        -13    1    3    3    0    0 -0.69486631700E+02  0.21226881380E+03 -0.20183198042E+03  0.30103586102E+03  0.00000000000E+00 0.  1.
          4    1    6    6  502    0  0.34247506560E+02 -0.16584238717E+03  0.33402420543E+03  0.37449800921E+03  0.00000000000E+00 0. -1.
          1    1    5    5  503    0  0.19717885321E+02  0.50731756155E+02 -0.79384793500E+02  0.96252020879E+02  0.00000000000E+00 0. -1.
         -4    1    5    5    0  503  0.53033508638E+02  0.98637791282E+02 -0.23546425298E+02  0.11443950826E+03  0.00000000000E+00 0.  1.
         -3    1    6    6    0  502  0.29791759456E+02 -0.39066374840E+03  0.57852362486E+03  0.69870973785E+03  0.00000000000E+00 0.  1.
<mgrwt>
<rscale>  0 0.19529414E+04</rscale>
<asrwt>0</asrwt>
<pdfrwt beam="1">  1        2 0.17323445E+00 0.19529414E+04</pdfrwt>
<pdfrwt beam="2">  1       -2 0.13027391E+00 0.19529414E+04</pdfrwt>
<totfact> 0.84602033E+00</totfact>
</mgrwt>
</event>
<event>
12    1  0.1495204E-007  0.1540906E+04  0.7818608E-02  0.8857697E-01
          1   -1    0    0  501    0  0.00000000000E+00  0.00000000000E+00  0.13587293241E+04  0.13587293241E+04  0.00000000000E+00 0. -1.
         -1   -1    0    0    0  501 -0.00000000000E+00 -0.00000000000E+00 -0.43687718495E+03  0.43687718495E+03  0.00000000000E+00 0.  1.
         23    2    1    2    0    0 -0.27114527141E+03 -0.42444819261E+03  0.27967907598E+03  0.58280835568E+03  0.88142881151E+02 0.  0.
        254    2    1    2    0    0  0.27114527141E+03  0.42444819261E+03  0.64217306323E+03  0.12127981534E+04  0.89711598546E+03 0.  0.
        -24    2    4    4    0    0  0.46935277109E+02  0.43940898418E+03 -0.76306510639E+02  0.45553546526E+03  0.80041869849E+02 0.  0.
         24    2    4    4    0    0  0.22420999430E+03 -0.14960791569E+02  0.71847957386E+03  0.75726268815E+03  0.82097100918E+02 0.  0.
         11    1    3    3    0    0 -0.21415954747E+03 -0.26195103797E+03  0.20027897661E+03  0.39318485034E+03  0.00000000000E+00 0. -1.
        -11    1    3    3    0    0 -0.56985723943E+02 -0.16249715464E+03  0.79400099364E+02  0.18962350534E+03  0.00000000000E+00 0.  1.
          2    1    6    6  502    0  0.13693330475E+03 -0.42334587451E+02  0.36479276064E+03  0.39193967069E+03  0.00000000000E+00 0. -1.
          1    1    5    5  503    0  0.56961992270E+01  0.29910871051E+03 -0.23603052234E+02  0.30009260481E+03  0.00000000000E+00 0. -1.
         -2    1    5    5    0  503  0.41239077882E+02  0.14030027367E+03 -0.52703458405E+02  0.15544286045E+03  0.00000000000E+00 0.  1.
         -1    1    6    6    0  502  0.87276689549E+02  0.27373795882E+02  0.35368681322E+03  0.36532301746E+03  0.00000000000E+00 0.  1.
<mgrwt>
<rscale>  0 0.15409060E+04</rscale>
<asrwt>0</asrwt>
<pdfrwt beam="1">  1        1 0.20903528E+00 0.15409060E+04</pdfrwt>
<pdfrwt beam="2">  1       -1 0.67211875E-01 0.15409060E+04</pdfrwt>
<totfact> 0.17760500E+01</totfact>
</mgrwt>
</event>
<event>
12    1  0.1495204E-007  0.1331512E+04  0.7818608E-02  0.9004942E-01
         -2   -1    0    0    0  501 -0.00000000000E+00  0.00000000000E+00  0.17757698520E+04  0.17757698520E+04  0.00000000000E+00 0.  1.
          2   -1    0    0  501    0  0.00000000000E+00 -0.00000000000E+00 -0.24959945141E+03  0.24959945141E+03  0.00000000000E+00 0. -1.
         23    2    1    2    0    0  0.15493195323E+02  0.18066539347E+03  0.87392265814E+03  0.89711152607E+03  0.90488973403E+02 0.  0.
        254    2    1    2    0    0 -0.15493195323E+02 -0.18066539347E+03  0.65224774242E+03  0.11282577773E+04  0.90258432905E+03 0.  0.
        -24    2    4    4    0    0  0.18625729911E+03  0.17340473638E+03 -0.87884147585E+02  0.27950211198E+03  0.75078779532E+02 0.  0.
         24    2    4    4    0    0 -0.20175049443E+03 -0.35407012984E+03  0.74013189000E+03  0.84875566532E+03  0.80759185009E+02 0.  0.
         11    1    3    3    0    0  0.68562394024E+01  0.38049413582E+02  0.64692667077E+02  0.75365158172E+02  0.00000000000E+00 0. -1.
        -11    1    3    3    0    0  0.86369559208E+01  0.14261597989E+03  0.80922999106E+03  0.82174636790E+03  0.00000000000E+00 0.  1.
          2    1    6    6  502    0 -0.76106654793E+02 -0.75577969339E+02  0.23671955750E+03  0.25988536176E+03  0.00000000000E+00 0. -1.
          1    1    5    5  503    0  0.98545366676E+01  0.24070230640E+02 -0.32877706292E+02  0.41921730249E+02  0.00000000000E+00 0. -1.
         -2    1    5    5    0  503  0.17640276244E+03  0.14933450573E+03 -0.55006441293E+02  0.23758038173E+03  0.00000000000E+00 0.  1.
         -3    1    6    6    0  502 -0.12564383964E+03 -0.27849216050E+03  0.50341233251E+03  0.58887030356E+03  0.00000000000E+00 0.  1.
<mgrwt>
<rscale>  0 0.13315122E+04</rscale>
<asrwt>0</asrwt>
<pdfrwt beam="1">  1        2 0.38399917E-01 0.13315122E+04</pdfrwt>
<pdfrwt beam="2">  1       -2 0.27319535E+00 0.13315122E+04</pdfrwt>
<totfact> 0.61313909E+00</totfact>
</mgrwt>
</event>
<event>
12    1  0.1495204E-007  0.1499909E+04  0.7818608E-02  0.8884513E-01
          2   -1    0    0  501    0  0.00000000000E+00  0.00000000000E+00  0.20299795933E+04  0.20299795933E+04  0.00000000000E+00 0. -1.
         -2   -1    0    0    0  501 -0.00000000000E+00 -0.00000000000E+00 -0.27706294333E+03  0.27706294333E+03  0.00000000000E+00 0.  1.
         23    2    1    2    0    0 -0.25880674988E+03 -0.39823522971E+03  0.49271007600E+03  0.69037493844E+03  0.91006069398E+02 0.  0.
        254    2    1    2    0    0  0.25880674988E+03  0.39823522971E+03  0.12602065739E+04  0.16166675982E+04  0.89438318522E+03 0.  0.
        -24    2    4    4    0    0  0.24252704835E+03  0.30423672191E+02 -0.41292966949E+02  0.26168364615E+03  0.83834673802E+02 0.  0.
         24    2    4    4    0    0  0.16279701536E+02  0.36781155751E+03  0.13014995409E+04  0.13549839520E+04  0.80808940016E+02 0.  0.
         11    1    3    3    0    0 -0.15657354284E+03 -0.23484077560E+03  0.35480638636E+03  0.45337957167E+03  0.00000000000E+00 0. -1.
        -11    1    3    3    0    0 -0.10223320705E+03 -0.16339445411E+03  0.13790368964E+03  0.23699536677E+03  0.00000000000E+00 0.  1.
          4    1    6    6  502    0 -0.17321075021E+02  0.30660390110E+03  0.10550906923E+04  0.10988732141E+04  0.00000000000E+00 0. -1.
          3    1    5    5  503    0  0.18379896662E+03  0.20031076786E+02 -0.67116543432E+02  0.19669248733E+03  0.00000000000E+00 0. -1.
         -4    1    5    5    0  503  0.58728081727E+02  0.10392595406E+02  0.25823576483E+02  0.64991158821E+02  0.00000000000E+00 0.  1.
         -3    1    6    6    0  502  0.33600776557E+02  0.61207656412E+02  0.24640884862E+03  0.25611073790E+03  0.00000000000E+00 0.  1.
<mgrwt>
<rscale>  0 0.14999095E+04</rscale>
<asrwt>0</asrwt>
<pdfrwt beam="1">  1        2 0.31230454E+00 0.14999095E+04</pdfrwt>
<pdfrwt beam="2">  1       -2 0.42625070E-01 0.14999095E+04</pdfrwt>
<totfact> 0.32426282E+01</totfact>
</mgrwt>
</event>
<event>
12    1  0.1495204E-007  0.1877695E+04  0.7818608E-02  0.8666039E-01
          4   -1    0    0  501    0  0.00000000000E+00  0.00000000000E+00  0.65488009178E+03  0.65488009178E+03  0.00000000000E+00 0. -1.
         -4   -1    0    0    0  501 -0.00000000000E+00 -0.00000000000E+00 -0.13459485300E+04  0.13459485300E+04  0.00000000000E+00 0.  1.
         23    2    1    2    0    0  0.14983326989E+03  0.90367406661E+02  0.47627162178E+03  0.51555837199E+03  0.91375599943E+02 0.  0.
        254    2    1    2    0    0 -0.14983326989E+03 -0.90367406661E+02 -0.11673400600E+04  0.14852702498E+04  0.90151462676E+03 0.  0.
        -24    2    4    4    0    0 -0.11247884361E+03  0.36899545445E+02  0.12118479645E+03  0.18755276237E+03  0.80481159698E+02 0.  0.
         24    2    4    4    0    0 -0.37354426280E+02 -0.12726695211E+03 -0.12885248565E+04  0.12977174874E+04  0.78626593352E+02 0.  0.
         13    1    3    3    0    0  0.13523813226E+03  0.10676930353E+03  0.38697119203E+03  0.42359856003E+03  0.00000000000E+00 0. -1.
        -13    1    3    3    0    0  0.14595137628E+02 -0.16401896870E+02  0.89300429751E+02  0.91959811967E+02  0.00000000000E+00 0.  1.
          4    1    6    6  502    0 -0.44161196925E+02 -0.11610711435E+03 -0.12624761600E+04  0.12685728706E+04  0.00000000000E+00 0. -1.
          3    1    5    5  503    0 -0.96668980225E+02  0.52143799869E+02  0.65955871073E+02  0.12811730770E+03  0.00000000000E+00 0. -1.
         -2    1    5    5    0  503 -0.15809863386E+02 -0.15244254424E+02  0.55228925381E+02  0.59435454671E+02  0.00000000000E+00 0.  1.
         -3    1    6    6    0  502  0.68067706452E+01 -0.11159837760E+02 -0.26048696441E+02  0.29144616857E+02  0.00000000000E+00 0.  1.
<mgrwt>
<rscale>  0 0.18776953E+04</rscale>
<asrwt>0</asrwt>
<pdfrwt beam="1">  1        4 0.10075078E+00 0.18776953E+04</pdfrwt>
<pdfrwt beam="2">  1       -4 0.20706900E+00 0.18776953E+04</pdfrwt>
<totfact> 0.18000576E-01</totfact>
</mgrwt>
</event>
<event>
12    1  0.1495204E-007  0.1842280E+04  0.7818608E-02  0.8684133E-01
          2   -1    0    0  501    0  0.00000000000E+00  0.00000000000E+00  0.49115234740E+03  0.49115234740E+03  0.00000000000E+00 0. -1.
         -2   -1    0    0    0  501 -0.00000000000E+00 -0.00000000000E+00 -0.17275669833E+04  0.17275669833E+04  0.00000000000E+00 0.  1.
         23    2    1    2    0    0  0.24028500259E+02  0.64595099332E+03 -0.79420861220E+03  0.10276272373E+04  0.86141537749E+02 0.  0.
        254    2    1    2    0    0 -0.24028500259E+02 -0.64595099332E+03 -0.44220602368E+03  0.11910920934E+04  0.89739854746E+03 0.  0.
        -24    2    4    4    0    0 -0.22526860371E+03  0.66610253589E+02  0.10236216961E+03  0.26852591009E+03  0.80282506958E+02 0.  0.
         24    2    4    4    0    0  0.20124010345E+03 -0.71256124691E+03 -0.54456819329E+03  0.92256618331E+03  0.79578487060E+02 0.  0.
         11    1    3    3    0    0  0.14459575638E+02  0.44280511355E+03 -0.47873311654E+03  0.65228126202E+03  0.00000000000E+00 0.  1.
        -11    1    3    3    0    0  0.95689246207E+01  0.20314587978E+03 -0.31547549566E+03  0.37534597527E+03  0.00000000000E+00 0. -1.
          2    1    6    6  502    0  0.12099094668E+03 -0.46053594792E+03 -0.30325366263E+03  0.56453073646E+03  0.00000000000E+00 0. -1.
          1    1    5    5  503    0 -0.18963094856E+03  0.72341367274E+02  0.57506605625E+02  0.21095065717E+03  0.00000000000E+00 0. -1.
         -2    1    5    5    0  503 -0.35637655148E+02 -0.57311136845E+01  0.44855563981E+02  0.57575252918E+02  0.00000000000E+00 0.  1.
         -1    1    6    6    0  502  0.80249156771E+02 -0.25202529899E+03 -0.24131453066E+03  0.35803544685E+03  0.00000000000E+00 0.  1.
<mgrwt>
<rscale>  0 0.18422797E+04</rscale>
<asrwt>0</asrwt>
<pdfrwt beam="1">  1        2 0.75561897E-01 0.18422797E+04</pdfrwt>
<pdfrwt beam="2">  1       -2 0.26577955E+00 0.18422797E+04</pdfrwt>
<totfact> 0.30435039E+00</totfact>
</mgrwt>
</event>
<event>
12    1  0.1495204E-007  0.3896176E+04  0.7818608E-02  0.8025825E-01
          2   -1    0    0  501    0  0.00000000000E+00  0.00000000000E+00  0.26235032968E+04  0.26235032968E+04  0.00000000000E+00 0. -1.
         -2   -1    0    0    0  501 -0.00000000000E+00 -0.00000000000E+00 -0.14465571006E+04  0.14465571006E+04  0.00000000000E+00 0.  1.
         23    2    1    2    0    0  0.55776671693E+03 -0.12687464344E+04 -0.71132193633E+03  0.15604917756E+04  0.91293259083E+02 0.  0.
        254    2    1    2    0    0 -0.55776671693E+03  0.12687464344E+04  0.18882681325E+04  0.25095686219E+04  0.90086453033E+03 0.  0.
        -24    2    4    4    0    0 -0.32789078660E+03  0.84458866586E+03  0.17944164787E+04  0.20116100890E+04  0.76172624390E+02 0.  0.
         24    2    4    4    0    0 -0.22987593033E+03  0.42415776857E+03  0.93851653882E+02  0.49795853289E+03  0.80011321417E+02 0.  0.
         13    1    3    3    0    0  0.50901085507E+03 -0.11711671247E+04 -0.68119753126E+03  0.14473266947E+04  0.00000000000E+00 0.  1.
        -13    1    3    3    0    0  0.48755861859E+02 -0.97579309702E+02 -0.30124405069E+02  0.11316508087E+03  0.00000000000E+00 0. -1.
          4    1    6    6  502    0 -0.23175120538E+03  0.40743770309E+03  0.10130122007E+03  0.47955817195E+03  0.00000000000E+00 0. -1.
          1    1    5    5  503    0 -0.32500762036E+03  0.78617719731E+03  0.16811933433E+04  0.18841750440E+04  0.00000000000E+00 0. -1.
         -2    1    5    5    0  503 -0.28831662429E+01  0.58411468549E+02  0.11322313533E+03  0.12743504494E+03  0.00000000000E+00 0.  1.
         -3    1    6    6    0  502  0.18752750519E+01  0.16720065475E+02 -0.74495661919E+01  0.18400360933E+02  0.00000000000E+00 0.  1.
<mgrwt>
<rscale>  0 0.38961762E+04</rscale>
<asrwt>0</asrwt>
<pdfrwt beam="1">  1        2 0.40361589E+00 0.38961762E+04</pdfrwt>
<pdfrwt beam="2">  1       -2 0.22254725E+00 0.38961762E+04</pdfrwt>
<totfact> 0.22330662E-01</totfact>
</mgrwt>
</event>
<event>
12    1  0.1495204E-007  0.2975691E+04  0.7818608E-02  0.8250707E-01
          2   -1    0    0  501    0  0.00000000000E+00  0.00000000000E+00  0.31755516385E+04  0.31755516385E+04  0.00000000000E+00 0. -1.
         -2   -1    0    0    0  501 -0.00000000000E+00 -0.00000000000E+00 -0.69710231384E+03  0.69710231384E+03  0.00000000000E+00 0.  1.
         23    2    1    2    0    0  0.43783428485E+03 -0.97499193518E+03  0.53304261816E+02  0.10731680148E+04  0.80870940687E+02 0.  0.
        254    2    1    2    0    0 -0.43783428485E+03  0.97499193518E+03  0.24251450628E+04  0.27994859375E+04  0.90193392433E+03 0.  0.
        -24    2    4    4    0    0 -0.31229737508E+03  0.17170081694E+02  0.11683716693E+04  0.12123173823E+04  0.82441590065E+02 0.  0.
         24    2    4    4    0    0 -0.12553690977E+03  0.95782185349E+03  0.12567733936E+04  0.15871685552E+04  0.80264818079E+02 0.  0.
         11    1    3    3    0    0  0.24047923869E+03 -0.49137008059E+03 -0.89340748680E+01  0.54713310815E+03  0.00000000000E+00 0.  1.
        -11    1    3    3    0    0  0.19735504616E+03 -0.48362185459E+03  0.62238336684E+02  0.52603490667E+03  0.00000000000E+00 0. -1.
          4    1    6    6  502    0 -0.13006299974E+03  0.94428804423E+03  0.12236468407E+04  0.15510989282E+04  0.00000000000E+00 0. -1.
          1    1    5    5  503    0 -0.23925211280E+03  0.84746555431E+01  0.10054527453E+04  0.10335611333E+04  0.00000000000E+00 0. -1.
         -2    1    5    5    0  503 -0.73045262280E+02  0.86954261514E+01  0.16291892401E+03  0.17875624906E+03  0.00000000000E+00 0.  1.
         -3    1    6    6    0  502  0.45260899653E+01  0.13533809261E+02  0.33126552895E+02  0.36069626976E+02  0.00000000000E+00 0.  1.
<mgrwt>
<rscale>  0 0.29756911E+04</rscale>
<asrwt>0</asrwt>
<pdfrwt beam="1">  1        2 0.48854640E+00 0.29756911E+04</pdfrwt>
<pdfrwt beam="2">  1       -2 0.10724651E+00 0.29756911E+04</pdfrwt>
<totfact> 0.80545700E-01</totfact>
</mgrwt>
</event>
<event>
12    1  0.1495204E-007  0.1128154E+04  0.7818608E-02  0.9178178E-01
          1   -1    0    0  501    0  0.00000000000E+00  0.00000000000E+00  0.19019667516E+04  0.19019667516E+04  0.00000000000E+00 0. -1.
         -1   -1    0    0    0  501 -0.00000000000E+00 -0.00000000000E+00 -0.16729144413E+03  0.16729144413E+03  0.00000000000E+00 0.  1.
         23    2    1    2    0    0 -0.18975212467E+02 -0.13102628308E+03  0.53833540221E+03  0.56425058507E+03  0.10509886742E+03 0.  0.
        254    2    1    2    0    0  0.18975212467E+02  0.13102628308E+03  0.11963399053E+04  0.15050076107E+04  0.90348812591E+03 0.  0.
        -24    2    4    4    0    0  0.37807262339E+03  0.12410190867E+03  0.10197265586E+04  0.10975334268E+04  0.79982349153E+02 0.  0.
         24    2    4    4    0    0 -0.35909741093E+03  0.69243744039E+01  0.17661334664E+03  0.40747418391E+03  0.76446313476E+02 0.  0.
         13    1    3    3    0    0  0.18083653359E+02 -0.18846896124E+02  0.20765402779E+02  0.33368038074E+02  0.00000000000E+00 0.  1.
        -13    1    3    3    0    0 -0.37058865826E+02 -0.11217938695E+03  0.51756999943E+03  0.53088254699E+03  0.00000000000E+00 0. -1.
          2    1    6    6  502    0 -0.29662023166E+02  0.20201198609E+02  0.64978172382E+01  0.36471162203E+02  0.00000000000E+00 0. -1.
          1    1    5    5  503    0  0.19379616741E+01 -0.67309775373E+01  0.27330719367E+02  0.28214003176E+02  0.00000000000E+00 0. -1.
         -2    1    5    5    0  503  0.37613466172E+03  0.13083288621E+03  0.99239583927E+03  0.10693194236E+04  0.00000000000E+00 0.  1.
         -1    1    6    6    0  502 -0.32943538776E+03 -0.13276824205E+02  0.17011552940E+03  0.37100302170E+03  0.00000000000E+00 0.  1.
<mgrwt>
<rscale>  0 0.11281538E+04</rscale>
<asrwt>0</asrwt>
<pdfrwt beam="1">  1        1 0.29261025E+00 0.11281538E+04</pdfrwt>
<pdfrwt beam="2">  1       -1 0.25737147E-01 0.11281538E+04</pdfrwt>
<totfact> 0.46114514E+01</totfact>
</mgrwt>
</event>
<event>
12    1  0.1495204E-007  0.1208193E+04  0.7818608E-02  0.9105715E-01
         -1   -1    0    0    0  501 -0.00000000000E+00  0.00000000000E+00  0.24013135716E+03  0.24013135716E+03  0.00000000000E+00 0.  1.
          1   -1    0    0  501    0  0.00000000000E+00 -0.00000000000E+00 -0.15197208079E+04  0.15197208079E+04  0.00000000000E+00 0. -1.
         23    2    1    2    0    0  0.10829012549E+02  0.25890535200E+03 -0.24634860281E+03  0.36669325736E+03  0.81406769256E+02 0.  0.
        254    2    1    2    0    0 -0.10829012549E+02 -0.25890535200E+03 -0.10332408479E+04  0.13931589077E+04  0.89786181757E+03 0.  0.
        -24    2    4    4    0    0 -0.17043866894E+03 -0.47855878199E+03 -0.27323688894E+03  0.58220343329E+03  0.78959436176E+02 0.  0.
         24    2    4    4    0    0  0.15960965639E+03  0.21965343000E+03 -0.76000395899E+03  0.81095547440E+03  0.79497748769E+02 0.  0.
         13    1    3    3    0    0  0.17467317614E+02  0.25443476106E+03 -0.25066829608E+03  0.35759858708E+03  0.00000000000E+00 0.  1.
        -13    1    3    3    0    0 -0.66383050646E+01  0.44705909403E+01  0.43196932765E+01  0.90946702793E+01  0.00000000000E+00 0. -1.
          4    1    6    6  502    0  0.83019540840E+02  0.67414097984E+02 -0.37433676023E+03  0.38931338896E+03  0.00000000000E+00 0. -1.
          3    1    5    5  503    0 -0.42637153014E+02 -0.49717562337E+02 -0.48229348141E+02  0.81337770095E+02  0.00000000000E+00 0. -1.
         -4    1    5    5    0  503 -0.12780151593E+03 -0.42884121966E+03 -0.22500754080E+03  0.50086566319E+03  0.00000000000E+00 0.  1.
         -3    1    6    6    0  502  0.76590115554E+02  0.15223933201E+03 -0.38566719876E+03  0.42164208543E+03  0.00000000000E+00 0.  1.
<mgrwt>
<rscale>  0 0.12081931E+04</rscale>
<asrwt>0</asrwt>
<pdfrwt beam="1">  1        1 0.23380320E+00 0.12081931E+04</pdfrwt>
<pdfrwt beam="2">  1       -1 0.36943286E-01 0.12081931E+04</pdfrwt>
<totfact> 0.44131690E+01</totfact>
</mgrwt>
</event>
<event>
12    1  0.1495204E-007  0.1672534E+04  0.7818608E-02  0.8777186E-01
         -2   -1    0    0    0  501 -0.00000000000E+00  0.00000000000E+00  0.78183513504E+03  0.78183513504E+03  0.00000000000E+00 0.  1.
          2   -1    0    0  501    0  0.00000000000E+00 -0.00000000000E+00 -0.89448872826E+03  0.89448872826E+03  0.00000000000E+00 0. -1.
         23    2    1    2    0    0  0.54272690381E+03 -0.20490670888E+03  0.18894690534E+02  0.58790889907E+03  0.93491244550E+02 0.  0.
        254    2    1    2    0    0 -0.54272690381E+03  0.20490670888E+03 -0.13154828375E+03  0.10884149642E+04  0.91148391754E+03 0.  0.
        -24    2    4    4    0    0 -0.28167387021E+02  0.47260879621E+03 -0.14831826824E+03  0.50265019512E+03  0.80662469674E+02 0.  0.
         24    2    4    4    0    0 -0.51455951679E+03 -0.26770208733E+03  0.16769984489E+02  0.58576476911E+03  0.80020175420E+02 0.  0.
         13    1    3    3    0    0  0.52351974467E+03 -0.18469757800E+03  0.34026107294E+02  0.55618692394E+03  0.00000000000E+00 0.  1.
        -13    1    3    3    0    0  0.19207159141E+02 -0.20209130877E+02 -0.15131416760E+02  0.31721975132E+02  0.00000000000E+00 0. -1.
          4    1    6    6  502    0 -0.49585546089E+03 -0.25346240039E+03 -0.13756477405E-01  0.55688044201E+03  0.00000000000E+00 0. -1.
          1    1    5    5  503    0  0.21521658892E+02  0.29654530188E+03 -0.92757261365E+02  0.31145819528E+03  0.00000000000E+00 0. -1.
         -2    1    5    5    0  503 -0.49689045913E+02  0.17606349432E+03 -0.55561006873E+02  0.19119199984E+03  0.00000000000E+00 0.  1.
         -3    1    6    6    0  502 -0.18704055900E+02 -0.14239686939E+02  0.16783740967E+02  0.28884327101E+02  0.00000000000E+00 0.  1.
<mgrwt>
<rscale>  0 0.16725343E+04</rscale>
<asrwt>0</asrwt>
<pdfrwt beam="1">  1        2 0.13761365E+00 0.16725343E+04</pdfrwt>
<pdfrwt beam="2">  1       -2 0.12028233E+00 0.16725343E+04</pdfrwt>
<totfact> 0.14888269E+01</totfact>
</mgrwt>
</event>
<event>
12    1  0.1495204E-007  0.2763795E+04  0.7818608E-02  0.8314597E-01
          2   -1    0    0  501    0  0.00000000000E+00  0.00000000000E+00  0.11013362937E+04  0.11013362937E+04  0.00000000000E+00 0. -1.
         -2   -1    0    0    0  501 -0.00000000000E+00 -0.00000000000E+00 -0.17339310997E+04  0.17339310997E+04  0.00000000000E+00 0.  1.
         23    2    1    2    0    0 -0.77534851134E+03  0.60269026252E+03  0.49058493549E+03  0.11018979752E+04  0.95418563228E+02 0.  0.
        254    2    1    2    0    0  0.77534851134E+03 -0.60269026252E+03 -0.11231797416E+04  0.17333694182E+04  0.88240350277E+03 0.  0.
        -24    2    4    4    0    0  0.24647215436E+03 -0.61192100613E+03 -0.97177491104E+03  0.11772584352E+04  0.79969399854E+02 0.  0.
         24    2    4    4    0    0  0.52887635697E+03  0.92307436165E+01 -0.15140483052E+03  0.55611098304E+03  0.80873946128E+02 0.  0.
         13    1    3    3    0    0 -0.53625435721E+03  0.44220016827E+03  0.38919152020E+03  0.79660514927E+03  0.00000000000E+00 0. -1.
        -13    1    3    3    0    0 -0.23909415413E+03  0.16049009425E+03  0.10139341530E+03  0.30529282591E+03  0.00000000000E+00 0.  1.
          2    1    6    6  502    0  0.27739547326E+03 -0.33169780098E+02 -0.93363656438E+02  0.29455942565E+03  0.00000000000E+00 0. -1.
          3    1    5    5  503    0  0.10216357915E+03 -0.33174732144E+03 -0.55748952242E+03  0.65672539908E+03  0.00000000000E+00 0. -1.
         -4    1    5    5    0  503  0.14430857522E+03 -0.28017368470E+03 -0.41428538862E+03  0.52053303613E+03  0.00000000000E+00 0.  1.
         -1    1    6    6    0  502  0.25148088371E+03  0.42400523714E+02 -0.58041174078E+02  0.26155155738E+03  0.00000000000E+00 0.  1.
<mgrwt>
<rscale>  0 0.27637954E+04</rscale>
<asrwt>0</asrwt>
<pdfrwt beam="1">  1        2 0.16943635E+00 0.27637954E+04</pdfrwt>
<pdfrwt beam="2">  1       -2 0.26675863E+00 0.27637954E+04</pdfrwt>
<totfact> 0.96266759E-01</totfact>
</mgrwt>
</event>
<event>
12    1  0.1495204E-007  0.2517079E+04  0.7818608E-02  0.8396926E-01
         -1   -1    0    0    0  501 -0.00000000000E+00  0.00000000000E+00  0.80895696874E+03  0.80895696874E+03  0.00000000000E+00 0.  1.
          1   -1    0    0  501    0  0.00000000000E+00 -0.00000000000E+00 -0.19579808342E+04  0.19579808342E+04  0.00000000000E+00 0. -1.
         23    2    1    2    0    0 -0.64016167574E+03 -0.83839087959E+03 -0.79217999462E+03  0.13225161016E+04  0.93773435114E+02 0.  0.
        254    2    1    2    0    0  0.64016167574E+03  0.83839087959E+03 -0.35684387088E+03  0.14444217013E+04  0.91995122971E+03 0.  0.
        -24    2    4    4    0    0  0.71832680811E+03  0.26765598576E+03 -0.38571407773E+03  0.86192107525E+03  0.80619230017E+02 0.  0.
         24    2    4    4    0    0 -0.78165132367E+02  0.57073489383E+03  0.28870206853E+02  0.58250062609E+03  0.81396459319E+02 0.  0.
         11    1    3    3    0    0 -0.54493675479E+03 -0.71434948903E+03 -0.71432699780E+03  0.11478302658E+04  0.00000000000E+00 0. -1.
        -11    1    3    3    0    0 -0.95224920949E+02 -0.12404139056E+03 -0.77852996822E+02  0.17468583588E+03  0.00000000000E+00 0.  1.
          4    1    6    6  502    0 -0.46505252933E+02  0.10956034204E+03  0.15701441282E+02  0.12005308141E+03  0.00000000000E+00 0. -1.
          1    1    5    5  503    0  0.14391659286E+03  0.54267653135E+02 -0.42446618934E+02  0.15955776176E+03  0.00000000000E+00 0. -1.
         -2    1    5    5    0  503  0.57441021525E+03  0.21338833262E+03 -0.34326745880E+03  0.70236331350E+03  0.00000000000E+00 0.  1.
         -3    1    6    6    0  502 -0.31659879434E+02  0.46117455180E+03  0.13168765571E+02  0.46244754468E+03  0.00000000000E+00 0.  1.
<mgrwt>
<rscale>  0 0.25170795E+04</rscale>
<asrwt>0</asrwt>
<pdfrwt beam="1">  1        1 0.30122782E+00 0.25170795E+04</pdfrwt>
<pdfrwt beam="2">  1       -1 0.12445492E+00 0.25170795E+04</pdfrwt>
<totfact> 0.15968590E+00</totfact>
</mgrwt>
</event>
<event>
12    1  0.1495204E-007  0.1799103E+04  0.7818608E-02  0.8706777E-01
          1   -1    0    0  501    0  0.00000000000E+00  0.00000000000E+00  0.21582752125E+04  0.21582752125E+04  0.00000000000E+00 0. -1.
         -1   -1    0    0    0  501 -0.00000000000E+00 -0.00000000000E+00 -0.37492562163E+03  0.37492562163E+03  0.00000000000E+00 0.  1.
         23    2    1    2    0    0  0.30047633489E+03  0.53405411256E+03  0.10004759284E+04  0.11767150341E+04  0.90588990434E+02 0.  0.
        254    2    1    2    0    0 -0.30047633489E+03 -0.53405411256E+03  0.78287366250E+03  0.13564858001E+04  0.92285574785E+03 0.  0.
        -24    2    4    4    0    0 -0.24440278812E+03  0.22350043858E+03  0.19343904450E+03  0.39154011694E+03  0.78739001435E+02 0.  0.
         24    2    4    4    0    0 -0.56073546764E+02 -0.75755455114E+03  0.58943461799E+03  0.96494568311E+03  0.81571207314E+02 0.  0.
         11    1    3    3    0    0  0.24892299777E+03  0.49724921402E+03  0.90114852669E+03  0.10589089228E+04  0.00000000000E+00 0. -1.
        -11    1    3    3    0    0  0.51553337119E+02  0.36804898545E+02  0.99327401691E+02  0.11780611127E+03  0.00000000000E+00 0.  1.
          2    1    6    6  502    0  0.11830591774E+02 -0.78428392075E+02  0.40408257540E+02  0.89015745027E+02  0.00000000000E+00 0. -1.
          3    1    5    5  503    0 -0.11291832250E+03  0.15610057971E+03  0.10834145212E+03  0.22103350151E+03  0.00000000000E+00 0. -1.
         -4    1    5    5    0  503 -0.13148446562E+03  0.67399858866E+02  0.85097592385E+02  0.17050661543E+03  0.00000000000E+00 0.  1.
         -1    1    6    6    0  502 -0.67904138538E+02 -0.67912615907E+03  0.54902636045E+03  0.87592993809E+03  0.00000000000E+00 0.  1.
<mgrwt>
<rscale>  0 0.17991027E+04</rscale>
<asrwt>0</asrwt>
<pdfrwt beam="1">  1        1 0.33204233E+00 0.17991027E+04</pdfrwt>
<pdfrwt beam="2">  1       -1 0.57680866E-01 0.17991027E+04</pdfrwt>
<totfact> 0.66847587E+00</totfact>
</mgrwt>
</event>
<event>
12    1  0.1495204E-007  0.2575388E+04  0.7818608E-02  0.8376610E-01
         -1   -1    0    0    0  501 -0.00000000000E+00  0.00000000000E+00  0.70720840780E+03  0.70720840780E+03  0.00000000000E+00 0.  1.
          1   -1    0    0  501    0  0.00000000000E+00 -0.00000000000E+00 -0.23446487849E+04  0.23446487849E+04  0.00000000000E+00 0. -1.
         23    2    1    2    0    0 -0.10486077124E+04  0.35395203346E+03 -0.60192622033E+03  0.12621964334E+04  0.77230080598E+02 0.  0.
        254    2    1    2    0    0  0.10486077124E+04 -0.35395203346E+03 -0.10355141567E+04  0.17896607593E+04  0.95170157511E+03 0.  0.
        -24    2    4    4    0    0  0.11580708847E+04 -0.11107373655E+03 -0.93221628021E+03  0.14928658039E+04  0.78457418538E+02 0.  0.
         24    2    4    4    0    0 -0.10946317233E+03 -0.24287829692E+03 -0.10329787654E+03  0.29679495536E+03  0.80279144372E+02 0.  0.
         13    1    3    3    0    0 -0.49884619752E+03  0.19566616479E+03 -0.32374769795E+03  0.62605538793E+03  0.00000000000E+00 0. -1.
        -13    1    3    3    0    0 -0.54976151483E+03  0.15828586867E+03 -0.27817852238E+03  0.63614104546E+03  0.00000000000E+00 0.  1.
          2    1    6    6  502    0 -0.66378150020E+02 -0.17072566387E+03 -0.30676497035E+02  0.18572656938E+03  0.00000000000E+00 0. -1.
          3    1    5    5  503    0  0.22733288033E+03 -0.30229176777E+02 -0.22345626213E+03  0.32019797421E+03  0.00000000000E+00 0. -1.
         -4    1    5    5    0  503  0.93073800435E+03 -0.80844559770E+02 -0.70876001808E+03  0.11726678297E+04  0.00000000000E+00 0.  1.
         -1    1    6    6    0  502 -0.43085022307E+02 -0.72152633047E+02 -0.72621379506E+02  0.11106838598E+03  0.00000000000E+00 0.  1.
<mgrwt>
<rscale>  0 0.25753876E+04</rscale>
<asrwt>0</asrwt>
<pdfrwt beam="1">  1        1 0.36071520E+00 0.25753876E+04</pdfrwt>
<pdfrwt beam="2">  1       -1 0.10880129E+00 0.25753876E+04</pdfrwt>
<totfact> 0.11985123E+00</totfact>
</mgrwt>
</event>
<event>
12    1  0.1495204E-007  0.1984058E+04  0.7818608E-02  0.8614111E-01
          1   -1    0    0  501    0  0.00000000000E+00  0.00000000000E+00  0.10056639605E+04  0.10056639605E+04  0.00000000000E+00 0. -1.
         -1   -1    0    0    0  501 -0.00000000000E+00 -0.00000000000E+00 -0.97857889004E+03  0.97857889004E+03  0.00000000000E+00 0.  1.
         23    2    1    2    0    0  0.34675270907E+03 -0.54971792503E+03 -0.46623347048E+03  0.80508814213E+03  0.91466000578E+02 0.  0.
        254    2    1    2    0    0 -0.34675270907E+03  0.54971792503E+03  0.49331854095E+03  0.11791547084E+04  0.85124344648E+03 0.  0.
        -24    2    4    4    0    0 -0.46653462942E+03  0.40058849703E+03  0.66587920963E+03  0.90994900862E+03  0.80538016352E+02 0.  0.
         24    2    4    4    0    0  0.11978192035E+03  0.14912942800E+03 -0.17256066867E+03  0.26920569979E+03  0.78148766402E+02 0.  0.
         13    1    3    3    0    0  0.94470992291E+02 -0.15584785542E+03 -0.82346134549E+02  0.19998552022E+03  0.00000000000E+00 0. -1.
        -13    1    3    3    0    0  0.25228171678E+03 -0.39387006961E+03 -0.38388733593E+03  0.60510262191E+03  0.00000000000E+00 0.  1.
          2    1    6    6  502    0  0.11292782538E+02  0.17393076142E+02  0.66102978979E+01  0.21765616771E+02  0.00000000000E+00 0. -1.
          3    1    5    5  503    0 -0.16627656363E+03  0.98154296251E+02  0.23088103865E+03  0.30097876253E+03  0.00000000000E+00 0. -1.
         -4    1    5    5    0  503 -0.30025806578E+03  0.30243420078E+03  0.43499817097E+03  0.60897024609E+03  0.00000000000E+00 0.  1.
         -1    1    6    6    0  502  0.10848913781E+03  0.13173635185E+03 -0.17917096657E+03  0.24744008302E+03  0.00000000000E+00 0.  1.
<mgrwt>
<rscale>  0 0.19840580E+04</rscale>
<asrwt>0</asrwt>
<pdfrwt beam="1">  1        1 0.15471753E+00 0.19840580E+04</pdfrwt>
<pdfrwt beam="2">  1       -1 0.15055060E+00 0.19840580E+04</pdfrwt>
<totfact> 0.48067808E+00</totfact>
</mgrwt>
</event>
<event>
12    1  0.1495204E-007  0.2341428E+04  0.7818608E-02  0.8461763E-01
          2   -1    0    0  501    0  0.00000000000E+00  0.00000000000E+00  0.88682078508E+03  0.88682078508E+03  0.00000000000E+00 0.  1.
         -2   -1    0    0    0  501 -0.00000000000E+00 -0.00000000000E+00 -0.15454888795E+04  0.15454888795E+04  0.00000000000E+00 0. -1.
         23    2    1    2    0    0 -0.46645415142E+03  0.49219399361E+03 -0.10364601769E+04  0.12418772721E+04  0.90416026675E+02 0.  0.
        254    2    1    2    0    0  0.46645415142E+03 -0.49219399361E+03  0.37779208252E+03  0.11904323925E+04  0.90253422132E+03 0.  0.
        -24    2    4    4    0    0  0.48062411766E+03 -0.66288269421E+03  0.65656419027E+02  0.82545954311E+03  0.81606881963E+02 0.  0.
         24    2    4    4    0    0 -0.14169966234E+02  0.17068870060E+03  0.31213566350E+03  0.36497284935E+03  0.80256388397E+02 0.  0.
         11    1    3    3    0    0 -0.44429991456E+03  0.47109406684E+03 -0.94618918536E+03  0.11465626927E+04  0.00000000000E+00 0.  1.
        -11    1    3    3    0    0 -0.22154236863E+02  0.21099926766E+02 -0.90270991545E+02  0.95314579342E+02  0.00000000000E+00 0. -1.
          4    1    6    6  502    0 -0.21660245489E+02  0.17747888145E+03  0.29090867209E+03  0.34146123512E+03  0.00000000000E+00 0. -1.
          3    1    5    5  503    0  0.24238234156E+03 -0.26624216024E+03  0.35307842920E+02  0.36177442027E+03  0.00000000000E+00 0. -1.
         -4    1    5    5    0  503  0.23824177610E+03 -0.39664053397E+03  0.30348576108E+02  0.46368512284E+03  0.00000000000E+00 0.  1.
         -3    1    6    6    0  502  0.74902792549E+01 -0.67901808473E+01  0.21226991407E+02  0.23511614225E+02  0.00000000000E+00 0.  1.
<mgrwt>
<rscale>  0 0.23414283E+04</rscale>
<asrwt>0</asrwt>
<pdfrwt beam="1">  1        2 0.13643397E+00 0.23414283E+04</pdfrwt>
<pdfrwt beam="2">  1       -2 0.23776752E+00 0.23414283E+04</pdfrwt>
<totfact> 0.20679048E+00</totfact>
</mgrwt>
</event>
<event>
12    1  0.1495204E-007  0.1822089E+04  0.7818608E-02  0.8694640E-01
         -2   -1    0    0    0  501 -0.00000000000E+00  0.00000000000E+00  0.15477930668E+04  0.15477930668E+04  0.00000000000E+00 0.  1.
          2   -1    0    0  501    0  0.00000000000E+00 -0.00000000000E+00 -0.53624870949E+03  0.53624870949E+03  0.00000000000E+00 0. -1.
         23    2    1    2    0    0  0.63043200420E+03 -0.25098588464E+03  0.30712829503E+03  0.75125446401E+03  0.98066578817E+02 0.  0.
        254    2    1    2    0    0 -0.63043200420E+03  0.25098588464E+03  0.70441606232E+03  0.13327873123E+04  0.90536269241E+03 0.  0.
        -24    2    4    4    0    0 -0.41430483188E+03  0.45365074822E+03  0.79908547040E+03  0.10110741920E+04  0.79283905744E+02 0.  0.
         24    2    4    4    0    0 -0.21612717232E+03 -0.20266486358E+03 -0.94669408083E+02  0.32171312028E+03  0.82176842190E+02 0.  0.
         13    1    3    3    0    0  0.57501995560E+03 -0.22616367437E+03  0.24591475521E+03  0.66503535528E+03  0.00000000000E+00 0. -1.
        -13    1    3    3    0    0  0.55412048601E+02 -0.24822210265E+02  0.61213539826E+02  0.86219108733E+02  0.00000000000E+00 0.  1.
          2    1    6    6  502    0 -0.34028853009E+02 -0.68270389887E+02 -0.49480638055E+02  0.90923828091E+02  0.00000000000E+00 0. -1.
          3    1    5    5  503    0 -0.92007021705E+01 -0.19161060868E+01  0.17342934343E+02  0.19725662336E+02  0.00000000000E+00 0. -1.
         -4    1    5    5    0  503 -0.40510412971E+03  0.45556685430E+03  0.78174253606E+03  0.99134852969E+03  0.00000000000E+00 0.  1.
         -1    1    6    6    0  502 -0.18209831931E+03 -0.13439447369E+03 -0.45188770028E+02  0.23078929219E+03  0.00000000000E+00 0.  1.
<mgrwt>
<rscale>  0 0.18220889E+04</rscale>
<asrwt>0</asrwt>
<pdfrwt beam="1">  1        2 0.82499802E-01 0.18220889E+04</pdfrwt>
<pdfrwt beam="2">  1       -2 0.23812201E+00 0.18220889E+04</pdfrwt>
<totfact> 0.40661879E+00</totfact>
</mgrwt>
</event>
<event>
12    1  0.1495204E-007  0.2323815E+04  0.7818608E-02  0.8468590E-01
         -1   -1    0    0    0  501 -0.00000000000E+00  0.00000000000E+00  0.12022788625E+04  0.12022788625E+04  0.00000000000E+00 0.  1.
          1   -1    0    0  501    0  0.00000000000E+00 -0.00000000000E+00 -0.11228921165E+04  0.11228921165E+04  0.00000000000E+00 0. -1.
         23    2    1    2    0    0 -0.50118434406E+03 -0.62011487524E+03  0.61235321997E+03  0.10096105021E+04  0.92783052026E+02 0.  0.
        254    2    1    2    0    0  0.50118434406E+03  0.62011487524E+03 -0.53296647398E+03  0.13155604769E+04  0.90050980054E+03 0.  0.
        -24    2    4    4    0    0 -0.21226424905E+03 -0.37009485140E+02 -0.10154610107E+03  0.25103681785E+03  0.79259446489E+02 0.  0.
         24    2    4    4    0    0  0.71344859311E+03  0.65712436038E+03 -0.43142037291E+03  0.10645236591E+04  0.79156570052E+02 0.  0.
         13    1    3    3    0    0 -0.13506539655E+03 -0.11143854360E+03  0.11468186923E+03  0.20931588921E+03  0.00000000000E+00 0. -1.
        -13    1    3    3    0    0 -0.36611894751E+03 -0.50867633164E+03  0.49767135075E+03  0.80029461291E+03  0.00000000000E+00 0.  1.
          4    1    6    6  502    0  0.97671116301E+02  0.12773875535E+03 -0.81702241297E+02  0.18036655125E+03  0.00000000000E+00 0. -1.
          1    1    5    5  503    0 -0.35866010604E+02 -0.36555662602E+02 -0.37082448116E+02  0.63228119877E+02  0.00000000000E+00 0. -1.
         -2    1    5    5    0  503 -0.17639823844E+03 -0.45382253861E+00 -0.64463652956E+02  0.18780869797E+03  0.00000000000E+00 0.  1.
         -3    1    6    6    0  502  0.61577747681E+03  0.52938560503E+03 -0.34971813161E+03  0.88415710784E+03  0.00000000000E+00 0.  1.
<mgrwt>
<rscale>  0 0.23238154E+04</rscale>
<asrwt>0</asrwt>
<pdfrwt beam="1">  1        1 0.17275263E+00 0.23238154E+04</pdfrwt>
<pdfrwt beam="2">  1       -1 0.18496598E+00 0.23238154E+04</pdfrwt>
<totfact> 0.21082029E+00</totfact>
</mgrwt>
</event>
<event>
12    1  0.1495204E-007  0.2052969E+04  0.7818608E-02  0.8582249E-01
         -2   -1    0    0    0  501 -0.00000000000E+00  0.00000000000E+00  0.18459339017E+04  0.18459339017E+04  0.00000000000E+00 0.  1.
          2   -1    0    0  501    0  0.00000000000E+00 -0.00000000000E+00 -0.57080623388E+03  0.57080623388E+03  0.00000000000E+00 0. -1.
         23    2    1    2    0    0  0.45095775751E+03 -0.16401419541E+03  0.13323248349E+04  0.14192461813E+04  0.94375325325E+02 0.  0.
        254    2    1    2    0    0 -0.45095775751E+03  0.16401419541E+03 -0.57197167083E+02  0.99749395429E+03  0.87261624874E+03 0.  0.
        -24    2    4    4    0    0 -0.43752690370E+03 -0.13394349427E+03  0.27790741562E+03  0.54108971649E+03  0.78580522527E+02 0.  0.
         24    2    4    4    0    0 -0.13430853814E+02  0.29795768968E+03 -0.33510458270E+03  0.45640423779E+03  0.83967697688E+02 0.  0.
         13    1    3    3    0    0  0.14298940321E+03 -0.43504586762E+02  0.54880641252E+03  0.56879442413E+03  0.00000000000E+00 0.  1.
        -13    1    3    3    0    0  0.30796835430E+03 -0.12050960865E+03  0.78351842237E+03  0.85045175714E+03  0.00000000000E+00 0. -1.
          2    1    6    6  502    0  0.31764360884E+02  0.18928264829E+03 -0.19918818546E+03  0.27660952404E+03  0.00000000000E+00 0. -1.
          1    1    5    5  503    0 -0.43216446949E+03 -0.13446509497E+03  0.25908067448E+03  0.52150722559E+03  0.00000000000E+00 0. -1.
         -2    1    5    5    0  503 -0.53624342065E+01  0.52160069689E+00  0.18826741141E+02  0.19582490901E+02  0.00000000000E+00 0.  1.
         -1    1    6    6    0  502 -0.45195214698E+02  0.10867504140E+03 -0.13591639724E+03  0.17979471375E+03  0.00000000000E+00 0.  1.
<mgrwt>
<rscale>  0 0.20529691E+04</rscale>
<asrwt>0</asrwt>
<pdfrwt beam="1">  1        2 0.87816344E-01 0.20529691E+04</pdfrwt>
<pdfrwt beam="2">  1       -2 0.28398983E+00 0.20529691E+04</pdfrwt>
<totfact> 0.19409262E+00</totfact>
</mgrwt>
</event>
<event>
12    1  0.1495204E-007  0.1204336E+04  0.7818608E-02  0.9109070E-01
         -1   -1    0    0    0  501 -0.00000000000E+00  0.00000000000E+00  0.19647606672E+03  0.19647606672E+03  0.00000000000E+00 0.  1.
          1   -1    0    0  501    0  0.00000000000E+00 -0.00000000000E+00 -0.18455495287E+04  0.18455495287E+04  0.00000000000E+00 0. -1.
         23    2    1    2    0    0 -0.16036414953E+03  0.11837022347E+03 -0.11065137846E+03  0.24587858375E+03  0.92110695009E+02 0.  0.
        254    2    1    2    0    0  0.16036414953E+03 -0.11837022347E+03 -0.15384220835E+04  0.17961470116E+04  0.90535816681E+03 0.  0.
        -24    2    4    4    0    0  0.91753089957E+01 -0.42682632717E+03 -0.35279902518E+03  0.55917579687E+03  0.77107196655E+02 0.  0.
         24    2    4    4    0    0  0.15118884053E+03  0.30845610370E+03 -0.11856230583E+04  0.12369712148E+04  0.79953213569E+02 0.  0.
         11    1    3    3    0    0 -0.65671223053E+02  0.50572286265E+02  0.32859068954E+01  0.82952172120E+02  0.00000000000E+00 0. -1.
        -11    1    3    3    0    0 -0.94692926477E+02  0.67797937204E+02 -0.11393728535E+03  0.16292641163E+03  0.00000000000E+00 0.  1.
          4    1    6    6  502    0 -0.54894049823E+01 -0.12432993899E-02 -0.36071954098E+02  0.36487250390E+02  0.00000000000E+00 0. -1.
          3    1    5    5  503    0  0.11912270258E+02 -0.52065347294E+02 -0.77649344883E+02  0.94245017546E+02  0.00000000000E+00 0. -1.
         -4    1    5    5    0  503 -0.27369612624E+01 -0.37476097988E+03 -0.27514968030E+03  0.46493077933E+03  0.00000000000E+00 0.  1.
         -3    1    6    6    0  502  0.15667824552E+03  0.30845734700E+03 -0.11495511042E+04  0.12004839644E+04  0.00000000000E+00 0.  1.
<mgrwt>
<rscale>  0 0.12043360E+04</rscale>
<asrwt>0</asrwt>
<pdfrwt beam="1">  1        1 0.28393069E+00 0.12043360E+04</pdfrwt>
<pdfrwt beam="2">  1       -1 0.30227088E-01 0.12043360E+04</pdfrwt>
<totfact> 0.37832870E+01</totfact>
</mgrwt>
</event>
<event>
12    1  0.1495204E-007  0.1887536E+04  0.7818608E-02  0.8661085E-01
          2   -1    0    0  501    0  0.00000000000E+00  0.00000000000E+00  0.16466208813E+04  0.16466208813E+04  0.00000000000E+00 0. -1.
         -2   -1    0    0    0  501 -0.00000000000E+00 -0.00000000000E+00 -0.54092494194E+03  0.54092494194E+03  0.00000000000E+00 0.  1.
         23    2    1    2    0    0  0.19188297788E+03 -0.53890105443E+03  0.94620929036E+03  0.11095307008E+04  0.92265546543E+02 0.  0.
        254    2    1    2    0    0 -0.19188297788E+03  0.53890105443E+03  0.15948664903E+03  0.10780151225E+04  0.89969283063E+03 0.  0.
        -24    2    4    4    0    0  0.28648032335E+03  0.73095232641E+01  0.19754675360E+03  0.35733798410E+03  0.80878366885E+02 0.  0.
         24    2    4    4    0    0 -0.47836330123E+03  0.53159153117E+03 -0.38060104570E+02  0.72067713841E+03  0.80659545595E+02 0.  0.
         13    1    3    3    0    0  0.16967506795E+03 -0.52176495625E+03  0.91977237799E+03  0.10709853060E+04  0.00000000000E+00 0. -1.
        -13    1    3    3    0    0  0.22207909933E+02 -0.17136098186E+02  0.26436912365E+02  0.38545394797E+02  0.00000000000E+00 0.  1.
          2    1    6    6  502    0 -0.65990719323E+02  0.45854266753E+02 -0.21936623220E+02  0.83298284823E+02  0.00000000000E+00 0. -1.
          1    1    5    5  503    0  0.95258858300E+02  0.31939654863E+02  0.98014631561E+02  0.14036117568E+03  0.00000000000E+00 0. -1.
         -2    1    5    5    0  503  0.19122146505E+03 -0.24630131599E+02  0.99532122037E+02  0.21697680843E+03  0.00000000000E+00 0.  1.
         -1    1    6    6    0  502 -0.41237258191E+03  0.48573726442E+03 -0.16123481350E+02  0.63737885359E+03  0.00000000000E+00 0.  1.
<mgrwt>
<rscale>  0 0.18875363E+04</rscale>
<asrwt>0</asrwt>
<pdfrwt beam="1">  1        2 0.25332629E+00 0.18875363E+04</pdfrwt>
<pdfrwt beam="2">  1       -2 0.83219223E-01 0.18875363E+04</pdfrwt>
<totfact> 0.12448194E+01</totfact>
</mgrwt>
</event>
<event>
12    1  0.1495204E-007  0.1764753E+04  0.7818608E-02  0.8725271E-01
          2   -1    0    0  501    0  0.00000000000E+00  0.00000000000E+00  0.17083763020E+04  0.17083763020E+04  0.00000000000E+00 0. -1.
         -2   -1    0    0    0  501 -0.00000000000E+00 -0.00000000000E+00 -0.45574776870E+03  0.45574776870E+03  0.00000000000E+00 0.  1.
         23    2    1    2    0    0 -0.32027569021E+03 -0.17891941243E+03 -0.19152510381E+03  0.42463947595E+03  0.95121739158E+02 0.  0.
        254    2    1    2    0    0  0.32027569021E+03  0.17891941243E+03  0.14441536371E+04  0.17394845948E+04  0.89757353676E+03 0.  0.
        -24    2    4    4    0    0  0.15095120831E+03  0.52691514665E+03  0.66262567629E+03  0.86380240139E+03  0.81584083665E+02 0.  0.
         24    2    4    4    0    0  0.16932448190E+03 -0.34799573422E+03  0.78152796083E+03  0.87568219336E+03  0.79129886941E+02 0.  0.
         11    1    3    3    0    0 -0.33278690152E+02 -0.59198670332E+02 -0.38403562702E+02  0.78017866002E+02  0.00000000000E+00 0. -1.
        -11    1    3    3    0    0 -0.28699700006E+03 -0.11972074210E+03 -0.15312154111E+03  0.34662160995E+03  0.00000000000E+00 0.  1.
          2    1    6    6  502    0  0.16803469537E+03 -0.29363319176E+03  0.63706264046E+03  0.72132164671E+03  0.00000000000E+00 0. -1.
          1    1    5    5  503    0  0.13880366997E+03  0.35001469032E+03  0.43709358259E+03  0.57691207492E+03  0.00000000000E+00 0. -1.
         -2    1    5    5    0  503  0.12147538334E+02  0.17690045633E+03  0.22553209370E+03  0.28689032648E+03  0.00000000000E+00 0.  1.
         -1    1    6    6    0  502  0.12897865380E+01 -0.54362542462E+02  0.14446532037E+03  0.15436054665E+03  0.00000000000E+00 0.  1.
<mgrwt>
<rscale>  0 0.17647535E+04</rscale>
<asrwt>0</asrwt>
<pdfrwt beam="1">  1        2 0.26282712E+00 0.17647535E+04</pdfrwt>
<pdfrwt beam="2">  1       -2 0.70115042E-01 0.17647535E+04</pdfrwt>
<totfact> 0.17011582E+01</totfact>
</mgrwt>
</event>
<event>
12    1  0.1495204E-007  0.1588718E+04  0.7818608E-02  0.8827509E-01
          2   -1    0    0  501    0  0.00000000000E+00  0.00000000000E+00  0.33260114269E+04  0.33260114269E+04  0.00000000000E+00 0. -1.
         -2   -1    0    0    0  501 -0.00000000000E+00 -0.00000000000E+00 -0.18971865824E+03  0.18971865824E+03  0.00000000000E+00 0.  1.
         23    2    1    2    0    0 -0.41581949620E+03  0.39630976724E+03  0.12537329950E+04  0.13821054375E+04  0.91660965607E+02 0.  0.
        254    2    1    2    0    0  0.41581949620E+03 -0.39630976724E+03  0.18825597737E+04  0.21336246476E+04  0.82362342761E+03 0.  0.
        -24    2    4    4    0    0  0.11426273547E+03  0.32603992062E+02  0.14278132583E+04  0.14350604096E+04  0.81416740066E+02 0.  0.
         24    2    4    4    0    0  0.30155676073E+03 -0.42891375930E+03  0.45474651533E+03  0.69856423801E+03  0.79335418045E+02 0.  0.
         13    1    3    3    0    0 -0.31039391630E+03  0.25486658402E+03  0.93941172107E+03  0.10216632227E+04  0.00000000000E+00 0. -1.
        -13    1    3    3    0    0 -0.10542557990E+03  0.14144318322E+03  0.31432127396E+03  0.36044221484E+03  0.00000000000E+00 0.  1.
          2    1    6    6  502    0  0.45235361226E+02 -0.39272051230E+02  0.26944309048E+02  0.65685064536E+02  0.00000000000E+00 0. -1.
          1    1    5    5  503    0 -0.10665118757E+02  0.79463384079E+01  0.67340245698E+02  0.68641079121E+02  0.00000000000E+00 0. -1.
         -2    1    5    5    0  503  0.12492785422E+03  0.24657653655E+02  0.13604730126E+04  0.13664193305E+04  0.00000000000E+00 0.  1.
         -1    1    6    6    0  502  0.25632139951E+03 -0.38964170807E+03  0.42780220628E+03  0.63287917347E+03  0.00000000000E+00 0.  1.
<mgrwt>
<rscale>  0 0.15887183E+04</rscale>
<asrwt>0</asrwt>
<pdfrwt beam="1">  1        2 0.51169402E+00 0.15887183E+04</pdfrwt>
<pdfrwt beam="2">  1       -2 0.29187488E-01 0.15887183E+04</pdfrwt>
<totfact> 0.11193260E+01</totfact>
</mgrwt>
</event>
<event>
12    1  0.1495204E-007  0.1598580E+04  0.7818608E-02  0.8821421E-01
          2   -1    0    0  501    0  0.00000000000E+00  0.00000000000E+00  0.16201515132E+04  0.16201515132E+04  0.00000000000E+00 0. -1.
         -2   -1    0    0    0  501 -0.00000000000E+00 -0.00000000000E+00 -0.39432383341E+03  0.39432383341E+03  0.00000000000E+00 0.  1.
         23    2    1    2    0    0 -0.18037438848E+03 -0.49931074100E+03  0.52102401100E+03  0.74956573155E+03  0.92393883914E+02 0.  0.
        254    2    1    2    0    0  0.18037438848E+03  0.49931074100E+03  0.70480366877E+03  0.12649096150E+04  0.90631230082E+03 0.  0.
        -24    2    4    4    0    0 -0.13245081190E+03  0.52597356075E+03  0.71031378905E+02  0.55295724868E+03  0.80776592542E+02 0.  0.
         24    2    4    4    0    0  0.31282520038E+03 -0.26662819747E+02  0.63377228987E+03  0.71195236636E+03  0.81476037088E+02 0.  0.
         11    1    3    3    0    0 -0.47158019083E+01 -0.71943469364E+02  0.39497976123E+02  0.82208221545E+02  0.00000000000E+00 0. -1.
        -11    1    3    3    0    0 -0.17565858657E+03 -0.42736727164E+03  0.48152603487E+03  0.66735751001E+03  0.00000000000E+00 0.  1.
          2    1    6    6  502    0  0.11285670704E+02 -0.18933165740E+02  0.55972303612E+02  0.60155880010E+02  0.00000000000E+00 0. -1.
          3    1    5    5  503    0 -0.34115772023E+02  0.48135506240E+02 -0.50248150389E+01  0.59212850192E+02  0.00000000000E+00 0. -1.
         -4    1    5    5    0  503 -0.98335039877E+02  0.47783805451E+03  0.76056193944E+02  0.49374439849E+03  0.00000000000E+00 0.  1.
         -1    1    6    6    0  502  0.30153952967E+03 -0.77296540079E+01  0.57779998625E+03  0.65179648635E+03  0.00000000000E+00 0.  1.
<mgrwt>
<rscale>  0 0.15985798E+04</rscale>
<asrwt>0</asrwt>
<pdfrwt beam="1">  1        2 0.24925407E+00 0.15985798E+04</pdfrwt>
<pdfrwt beam="2">  1       -2 0.60665206E-01 0.15985798E+04</pdfrwt>
<totfact> 0.26362934E+01</totfact>
</mgrwt>
</event>
<event>
12    1  0.1495204E-007  0.2010391E+04  0.7818608E-02  0.8601778E-01
         -1   -1    0    0    0  501 -0.00000000000E+00  0.00000000000E+00  0.10954468531E+04  0.10954468531E+04  0.00000000000E+00 0.  1.
          1   -1    0    0  501    0  0.00000000000E+00 -0.00000000000E+00 -0.92237959536E+03  0.92237959536E+03  0.00000000000E+00 0. -1.
         23    2    1    2    0    0 -0.44721249214E+03  0.51114240324E+03  0.52269104240E+03  0.86168067968E+03  0.89566167823E+02 0.  0.
        254    2    1    2    0    0  0.44721249214E+03 -0.51114240324E+03 -0.34962378468E+03  0.11561457688E+04  0.86785406509E+03 0.  0.
        -24    2    4    4    0    0  0.60583662109E+03 -0.52482191078E+03 -0.50126860549E+02  0.80724394269E+03  0.81572246358E+02 0.  0.
         24    2    4    4    0    0 -0.15862412895E+03  0.13679507544E+02 -0.29949692413E+03  0.34890182607E+03  0.81763888484E+02 0.  0.
         11    1    3    3    0    0 -0.24755331689E+03  0.31116165260E+03  0.25455301037E+03  0.47212440504E+03  0.00000000000E+00 0. -1.
        -11    1    3    3    0    0 -0.19965917524E+03  0.19998075064E+03  0.26813803203E+03  0.38955627464E+03  0.00000000000E+00 0.  1.
          2    1    6    6  502    0 -0.11287554517E+03  0.25660729924E+02 -0.13544958477E+03  0.17817393684E+03  0.00000000000E+00 0. -1.
          1    1    5    5  503    0  0.49054115838E+03 -0.45602376841E+03 -0.22357189995E+02  0.67014039526E+03  0.00000000000E+00 0. -1.
         -2    1    5    5    0  503  0.11529546271E+03 -0.68798142376E+02 -0.27769670554E+02  0.13710354743E+03  0.00000000000E+00 0.  1.
         -3    1    6    6    0  502 -0.45748583786E+02 -0.11981222380E+02 -0.16404733936E+03  0.17072788922E+03  0.00000000000E+00 0.  1.
<mgrwt>
<rscale>  0 0.20103908E+04</rscale>
<asrwt>0</asrwt>
<pdfrwt beam="1">  1        1 0.14190455E+00 0.20103908E+04</pdfrwt>
<pdfrwt beam="2">  1       -1 0.16853029E+00 0.20103908E+04</pdfrwt>
<totfact> 0.40794732E+00</totfact>
</mgrwt>
</event>
<event>
12    1  0.1495204E-007  0.1578567E+04  0.7818608E-02  0.8833824E-01
         -2   -1    0    0    0  501 -0.00000000000E+00  0.00000000000E+00  0.17498339622E+03  0.17498339622E+03  0.00000000000E+00 0.  1.
          2   -1    0    0  501    0  0.00000000000E+00 -0.00000000000E+00 -0.35601575198E+04  0.35601575198E+04  0.00000000000E+00 0. -1.
         23    2    1    2    0    0  0.51021111297E+03  0.13508077768E+03 -0.10374375747E+04  0.11676144429E+04  0.92111724224E+02 0.  0.
        254    2    1    2    0    0 -0.51021111297E+03 -0.13508077768E+03 -0.23477365489E+04  0.25675264731E+04  0.89541224617E+03 0.  0.
        -24    2    4    4    0    0  0.14778617579E+02 -0.19561431545E+03 -0.63043261713E+02  0.22102017303E+03  0.79950585297E+02 0.  0.
         24    2    4    4    0    0 -0.52498973055E+03  0.60533537773E+02 -0.22846932872E+04  0.23465063000E+04  0.83605461917E+02 0.  0.
         13    1    3    3    0    0  0.37651216129E+03  0.13806046407E+03 -0.80805739441E+03  0.90209691941E+03  0.00000000000E+00 0. -1.
        -13    1    3    3    0    0  0.13369895168E+03 -0.29796863850E+01 -0.22938018026E+03  0.26551752354E+03  0.00000000000E+00 0.  1.
          2    1    6    6  502    0 -0.45186667499E+03  0.62143147398E+02 -0.18310965769E+04  0.18870505920E+04  0.00000000000E+00 0. -1.
          3    1    5    5  503    0  0.46419371309E+02 -0.13764836384E+03 -0.50555443277E+02  0.15381054238E+03  0.00000000000E+00 0. -1.
         -4    1    5    5    0  503 -0.31640753730E+02 -0.57965951611E+02 -0.12487818436E+02  0.67209630650E+02  0.00000000000E+00 0.  1.
         -1    1    6    6    0  502 -0.73123055562E+02 -0.16096096248E+01 -0.45359671026E+03  0.45945570805E+03  0.00000000000E+00 0.  1.
<mgrwt>
<rscale>  0 0.15785670E+04</rscale>
<asrwt>0</asrwt>
<pdfrwt beam="1">  1        2 0.54771648E+00 0.15785670E+04</pdfrwt>
<pdfrwt beam="2">  1       -2 0.26920525E-01 0.15785670E+04</pdfrwt>
<totfact> 0.89926910E+00</totfact>
</mgrwt>
</event>
<event>
12    1  0.1495204E-007  0.1644797E+04  0.7818608E-02  0.8793490E-01
         -1   -1    0    0    0  501 -0.00000000000E+00  0.00000000000E+00  0.52953664687E+03  0.52953664687E+03  0.00000000000E+00 0.  1.
          1   -1    0    0  501    0  0.00000000000E+00 -0.00000000000E+00 -0.12772290125E+04  0.12772290125E+04  0.00000000000E+00 0. -1.
         23    2    1    2    0    0 -0.52993037172E+03 -0.10442948890E+03 -0.47252600452E+03  0.72352838882E+03  0.92091190952E+02 0.  0.
        254    2    1    2    0    0  0.52993037172E+03  0.10442948890E+03 -0.27516636115E+03  0.10832372706E+04  0.89774982098E+03 0.  0.
        -24    2    4    4    0    0  0.20080991365E+03 -0.39101466471E+03 -0.83269412830E+02  0.45388009533E+03  0.76526181010E+02 0.  0.
         24    2    4    4    0    0  0.32912045808E+03  0.49544415362E+03 -0.19189694833E+03  0.62935717527E+03  0.74032627975E+02 0.  0.
         11    1    3    3    0    0 -0.48730124841E+03 -0.84334608400E+02 -0.45842653750E+03  0.67433650588E+03  0.00000000000E+00 0. -1.
        -11    1    3    3    0    0 -0.42629123310E+02 -0.20094880502E+02 -0.14099467017E+02  0.49191882935E+02  0.00000000000E+00 0.  1.
          2    1    6    6  502    0  0.39063592282E+02  0.32958566171E+02 -0.13068613466E+01  0.51126697650E+02  0.00000000000E+00 0. -1.
          1    1    5    5  503    0  0.17566490344E+03 -0.27364920248E+03 -0.47472379873E+02  0.32862694833E+03  0.00000000000E+00 0. -1.
         -4    1    5    5    0  503  0.25145010207E+02 -0.11736546223E+03 -0.35797032956E+02  0.12525314699E+03  0.00000000000E+00 0.  1.
         -1    1    6    6    0  502  0.29005686579E+03  0.46248558745E+03 -0.19059008698E+03  0.57823047762E+03  0.00000000000E+00 0.  1.
<mgrwt>
<rscale>  0 0.16447973E+04</rscale>
<asrwt>0</asrwt>
<pdfrwt beam="1">  1        1 0.19649677E+00 0.16447973E+04</pdfrwt>
<pdfrwt beam="2">  1       -1 0.81467178E-01 0.16447973E+04</pdfrwt>
<totfact> 0.13473182E+01</totfact>
</mgrwt>
</event>
<event>
12    1  0.1495204E-007  0.1347648E+04  0.7818608E-02  0.8992611E-01
         -2   -1    0    0    0  501 -0.00000000000E+00  0.00000000000E+00  0.34169089803E+03  0.34169089803E+03  0.00000000000E+00 0. -1.
          2   -1    0    0  501    0  0.00000000000E+00 -0.00000000000E+00 -0.13287990121E+04  0.13287990121E+04  0.00000000000E+00 0.  1.
         23    2    1    2    0    0 -0.11891589378E+03 -0.64811643305E+02  0.13892160787E+03  0.21310600268E+03  0.88166979879E+02 0.  0.
        254    2    1    2    0    0  0.11891589378E+03  0.64811643305E+02 -0.11260297219E+04  0.14573839074E+04  0.91525044664E+03 0.  0.
        -24    2    4    4    0    0  0.12220964766E+03 -0.22421230335E+03 -0.11242987216E+04  0.11557602648E+04  0.80794922079E+02 0.  0.
         24    2    4    4    0    0 -0.32937538759E+01  0.28902394665E+03 -0.17310003193E+01  0.30162364260E+03  0.86186628060E+02 0.  0.
         13    1    3    3    0    0 -0.12422389244E+03 -0.75874579067E+02  0.11248426321E+03  0.18395987789E+03  0.00000000000E+00 0. -1.
        -13    1    3    3    0    0  0.53079986626E+01  0.11062935761E+02  0.26437344659E+02  0.29146124787E+02  0.00000000000E+00 0.  1.
          2    1    6    6  502    0 -0.11906109165E+02  0.36880270562E+01  0.99051673877E+01  0.15920719832E+02  0.00000000000E+00 0. -1.
          1    1    5    5  503    0 -0.62291618576E+01 -0.15671733231E+01 -0.80412822573E+01  0.10291778759E+02  0.00000000000E+00 0. -1.
         -2    1    5    5    0  503  0.12843880951E+03 -0.22264513003E+03 -0.11162574393E+04  0.11454684861E+04  0.00000000000E+00 0.  1.
         -1    1    6    6    0  502  0.86123552886E+01  0.28533591960E+03 -0.11636167707E+02  0.28570292276E+03  0.00000000000E+00 0.  1.
<mgrwt>
<rscale>  0 0.13476476E+04</rscale>
<asrwt>0</asrwt>
<pdfrwt beam="1">  1        2 0.20443062E+00 0.13476476E+04</pdfrwt>
<pdfrwt beam="2">  1       -2 0.52567830E-01 0.13476476E+04</pdfrwt>
<totfact> 0.53045378E+01</totfact>
</mgrwt>
</event>
<event>
12    1  0.1495204E-007  0.1853576E+04  0.7818608E-02  0.8678316E-01
          1   -1    0    0  501    0  0.00000000000E+00  0.00000000000E+00  0.62353220287E+03  0.62353220287E+03  0.00000000000E+00 0. -1.
         -1   -1    0    0    0  501 -0.00000000000E+00 -0.00000000000E+00 -0.13775331556E+04  0.13775331556E+04  0.00000000000E+00 0.  1.
         23    2    1    2    0    0 -0.64009782704E+03  0.12171679875E+03 -0.59619267303E+03  0.88776430053E+03  0.90219413901E+02 0.  0.
        254    2    1    2    0    0  0.64009782704E+03 -0.12171679875E+03 -0.15780827966E+03  0.11133010579E+04  0.88881695815E+03 0.  0.
        -24    2    4    4    0    0 -0.19296806530E+02  0.14190773228E+03 -0.33882787611E+03  0.37628034342E+03  0.79198459533E+02 0.  0.
         24    2    4    4    0    0  0.65939463357E+03 -0.26362453103E+03  0.18101959645E+03  0.73702071447E+03  0.78308767842E+02 0.  0.
         13    1    3    3    0    0 -0.42141132769E+02  0.25225437433E+02 -0.24521667478E+02  0.54895445536E+02  0.00000000000E+00 0. -1.
        -13    1    3    3    0    0 -0.59795669427E+03  0.96491361315E+02 -0.57167100555E+03  0.83286885499E+03  0.00000000000E+00 0.  1.
          4    1    6    6  502    0  0.64332264824E+03 -0.26772423227E+03  0.18266731773E+03  0.72035244377E+03  0.00000000000E+00 0. -1.
          1    1    5    5  503    0 -0.38100429192E+02  0.13725857013E+03 -0.31391523291E+03  0.34472355770E+03  0.00000000000E+00 0. -1.
         -2    1    5    5    0  503  0.18803622662E+02  0.46491621496E+01 -0.24912643196E+02  0.31556785719E+02  0.00000000000E+00 0.  1.
         -3    1    6    6    0  502  0.16071985335E+02  0.40997012388E+01 -0.16477212801E+01  0.16668270705E+02  0.00000000000E+00 0.  1.
<mgrwt>
<rscale>  0 0.18535763E+04</rscale>
<asrwt>0</asrwt>
<pdfrwt beam="1">  1        1 0.95928031E-01 0.18535763E+04</pdfrwt>
<pdfrwt beam="2">  1       -1 0.21192818E+00 0.18535763E+04</pdfrwt>
<totfact> 0.37936039E+00</totfact>
</mgrwt>
</event>
<event>
12    1  0.1495204E-007  0.1511404E+04  0.7818608E-02  0.8876904E-01
          2   -1    0    0  501    0  0.00000000000E+00  0.00000000000E+00  0.39790580279E+03  0.39790580279E+03  0.00000000000E+00 0. -1.
         -2   -1    0    0    0  501 -0.00000000000E+00 -0.00000000000E+00 -0.14352288169E+04  0.14352288169E+04  0.00000000000E+00 0.  1.
         23    2    1    2    0    0 -0.45913791271E+03  0.20802950649E+02 -0.23326010687E+03  0.52333476508E+03  0.90711703978E+02 0.  0.
        254    2    1    2    0    0  0.45913791271E+03 -0.20802950649E+02 -0.80406290722E+03  0.13097998546E+04  0.92618470874E+03 0.  0.
        -24    2    4    4    0    0 -0.10954912810E+03 -0.11990467410E+03 -0.69375207774E+03  0.71693046343E+03  0.79493406541E+02 0.  0.
         24    2    4    4    0    0  0.56868704081E+03  0.99101723450E+02 -0.11031082948E+03  0.59286939118E+03  0.78099512935E+02 0.  0.
         11    1    3    3    0    0 -0.35682649791E+03 -0.20021760263E+02 -0.16404710812E+03  0.39323971592E+03  0.00000000000E+00 0.  1.
        -11    1    3    3    0    0 -0.10231141480E+03  0.40824710911E+02 -0.69212998749E+02  0.13009504916E+03  0.00000000000E+00 0. -1.
          4    1    6    6  502    0  0.38181607839E+03  0.52143679646E+02 -0.38646750725E+02  0.38729323824E+03  0.00000000000E+00 0. -1.
          3    1    5    5  503    0 -0.45814538687E+02 -0.98065761910E+02 -0.50624526010E+03  0.51768728880E+03  0.00000000000E+00 0. -1.
         -4    1    5    5    0  503 -0.63734589411E+02 -0.21838912188E+02 -0.18750681764E+03  0.19924317463E+03  0.00000000000E+00 0.  1.
         -3    1    6    6    0  502  0.18687096242E+03  0.46958043804E+02 -0.71664078757E+02  0.20557615294E+03  0.00000000000E+00 0.  1.
<mgrwt>
<rscale>  0 0.15114045E+04</rscale>
<asrwt>0</asrwt>
<pdfrwt beam="1">  1        2 0.61216279E-01 0.15114045E+04</pdfrwt>
<pdfrwt beam="2">  1       -2 0.22080443E+00 0.15114045E+04</pdfrwt>
<totfact> 0.75388173E+00</totfact>
</mgrwt>
</event>
<event>
12    1  0.1495204E-007  0.1352523E+04  0.7818608E-02  0.8988921E-01
         -1   -1    0    0    0  501 -0.00000000000E+00  0.00000000000E+00  0.95998939642E+03  0.95998939642E+03  0.00000000000E+00 0.  1.
          1   -1    0    0  501    0  0.00000000000E+00 -0.00000000000E+00 -0.47638994782E+03  0.47638994782E+03  0.00000000000E+00 0. -1.
         23    2    1    2    0    0 -0.25321800440E+03 -0.26034620285E+03 -0.15612936527E+01  0.37429091720E+03  0.90508286726E+02 0.  0.
        254    2    1    2    0    0  0.25321800440E+03  0.26034620285E+03  0.48516074226E+03  0.10620884270E+04  0.87221062705E+03 0.  0.
        -24    2    4    4    0    0 -0.14393083119E+03  0.46113193884E+03  0.28730076141E+03  0.56753827410E+03  0.78735099439E+02 0.  0.
         24    2    4    4    0    0  0.39714883560E+03 -0.20078573599E+03  0.19785998085E+03  0.49455015294E+03  0.85960295229E+02 0.  0.
         13    1    3    3    0    0 -0.22121741691E+03 -0.21534488770E+03  0.30851285575E+02  0.31026177338E+03  0.00000000000E+00 0.  1.
        -13    1    3    3    0    0 -0.32000587497E+02 -0.45001315154E+02 -0.32412579227E+02  0.64029143816E+02  0.00000000000E+00 0. -1.
          2    1    6    6  502    0  0.37727606487E+03 -0.16492567001E+03  0.18642634823E+03  0.45198726649E+03  0.00000000000E+00 0. -1.
          1    1    5    5  503    0 -0.13195784749E+03  0.29890708918E+03  0.19528610498E+03  0.38065073791E+03  0.00000000000E+00 0. -1.
         -2    1    5    5    0  503 -0.11972983699E+02  0.16222484966E+03  0.92014656427E+02  0.18688753619E+03  0.00000000000E+00 0.  1.
         -1    1    6    6    0  502  0.19872770732E+02 -0.35860065975E+02  0.11433632615E+02  0.42562886451E+02  0.00000000000E+00 0.  1.
<mgrwt>
<rscale>  0 0.13525225E+04</rscale>
<asrwt>0</asrwt>
<pdfrwt beam="1">  1        1 0.73290761E-01 0.13525225E+04</pdfrwt>
<pdfrwt beam="2">  1       -1 0.14769068E+00 0.13525225E+04</pdfrwt>
<totfact> 0.16867343E+01</totfact>
</mgrwt>
</event>
<event>
12    1  0.1495204E-007  0.1507381E+04  0.7818608E-02  0.8879559E-01
          2   -1    0    0  501    0  0.00000000000E+00  0.00000000000E+00  0.23703351339E+04  0.23703351339E+04  0.00000000000E+00 0. -1.
         -2   -1    0    0    0  501 -0.00000000000E+00 -0.00000000000E+00 -0.23964941086E+03  0.23964941086E+03  0.00000000000E+00 0.  1.
         23    2    1    2    0    0  0.33729546927E+02 -0.14965055831E+03  0.15072304517E+04  0.15178553436E+04  0.92780587916E+02 0.  0.
        254    2    1    2    0    0 -0.33729546927E+02  0.14965055831E+03  0.62345527133E+03  0.10921292012E+04  0.88346858733E+03 0.  0.
        -24    2    4    4    0    0 -0.50545987662E+02  0.36454623820E+03 -0.50605362883E+02  0.37996589075E+03  0.79776680344E+02 0.  0.
         24    2    4    4    0    0  0.16816440735E+02 -0.21489567989E+03  0.67406063421E+03  0.71216331044E+03  0.79723874885E+02 0.  0.
         13    1    3    3    0    0  0.17185692750E+02 -0.15071795819E+03  0.11146285643E+04  0.11249035902E+04  0.00000000000E+00 0. -1.
        -13    1    3    3    0    0  0.16543854176E+02  0.10673998753E+01  0.39260188749E+03  0.39295175342E+03  0.00000000000E+00 0.  1.
          2    1    6    6  502    0  0.14705311816E+02 -0.22126930637E+03  0.63692363696E+03  0.67442425183E+03  0.00000000000E+00 0. -1.
          3    1    5    5  503    0 -0.21091106809E+02  0.23580578509E+03 -0.69064006638E+02  0.24661516596E+03  0.00000000000E+00 0. -1.
         -4    1    5    5    0  503 -0.29454880853E+02  0.12874045310E+03  0.18458643755E+02  0.13335072478E+03  0.00000000000E+00 0.  1.
         -1    1    6    6    0  502  0.21111289194E+01  0.63736264815E+01  0.37136997247E+02  0.37739058605E+02  0.00000000000E+00 0.  1.
<mgrwt>
<rscale>  0 0.15073811E+04</rscale>
<asrwt>0</asrwt>
<pdfrwt beam="1">  1        2 0.36466693E+00 0.15073811E+04</pdfrwt>
<pdfrwt beam="2">  1       -2 0.36869142E-01 0.15073811E+04</pdfrwt>
<totfact> 0.27722452E+01</totfact>
</mgrwt>
</event>
<event>
12    1  0.1495204E-007  0.1688257E+04  0.7818608E-02  0.8768090E-01
         -2   -1    0    0    0  501 -0.00000000000E+00  0.00000000000E+00  0.54989372071E+03  0.54989372071E+03  0.00000000000E+00 0.  1.
          2   -1    0    0  501    0  0.00000000000E+00 -0.00000000000E+00 -0.12958014894E+04  0.12958014894E+04  0.00000000000E+00 0. -1.
         23    2    1    2    0    0  0.21497480935E+03  0.52667759596E+03 -0.43055347195E+02  0.57789570183E+03  0.92229174020E+02 0.  0.
        254    2    1    2    0    0 -0.21497480935E+03 -0.52667759596E+03 -0.70285242148E+03  0.12677995083E+04  0.88865663111E+03 0.  0.
        -24    2    4    4    0    0  0.36988351898E+02 -0.39139879353E+03  0.98346718380E+02  0.41339581639E+03  0.81626406541E+02 0.  0.
         24    2    4    4    0    0 -0.25196316124E+03 -0.13527880243E+03 -0.80119913986E+03  0.85440369186E+03  0.79371392523E+02 0.  0.
         13    1    3    3    0    0  0.12056832331E+03  0.31746809313E+03 -0.70201209493E+02  0.34677214501E+03  0.00000000000E+00 0. -1.
        -13    1    3    3    0    0  0.94406486038E+02  0.20920950283E+03  0.27145862298E+02  0.23112355682E+03  0.00000000000E+00 0.  1.
          4    1    6    6  502    0  0.17897318933E+01  0.17654035780E+01  0.36205433684E+00  0.25398569617E+01  0.00000000000E+00 0. -1.
          1    1    5    5  503    0  0.55139724803E+02 -0.16539587636E+03  0.33050101702E+02  0.17744997715E+03  0.00000000000E+00 0. -1.
         -2    1    5    5    0  503 -0.18151372905E+02 -0.22600291717E+03  0.65296616677E+02  0.23594583924E+03  0.00000000000E+00 0.  1.
         -3    1    6    6    0  502 -0.25375289314E+03 -0.13704420601E+03 -0.80156119419E+03  0.85186383490E+03  0.00000000000E+00 0.  1.
<mgrwt>
<rscale>  0 0.16882572E+04</rscale>
<asrwt>0</asrwt>
<pdfrwt beam="1">  1        2 0.19935407E+00 0.16882572E+04</pdfrwt>
<pdfrwt beam="2">  1       -2 0.84599035E-01 0.16882572E+04</pdfrwt>
<totfact> 0.19287212E+01</totfact>
</mgrwt>
</event>
<event>
12    1  0.1495204E-007  0.1541895E+04  0.7818608E-02  0.8857062E-01
         -2   -1    0    0    0  501 -0.00000000000E+00  0.00000000000E+00  0.24728056562E+03  0.24728056562E+03  0.00000000000E+00 0.  1.
          2   -1    0    0  501    0  0.00000000000E+00 -0.00000000000E+00 -0.24035845377E+04  0.24035845377E+04  0.00000000000E+00 0. -1.
         23    2    1    2    0    0 -0.42250964834E+03  0.10790081980E+03 -0.11202700610E+04  0.12062319601E+04  0.99164218335E+02 0.  0.
        254    2    1    2    0    0  0.42250964834E+03 -0.10790081980E+03 -0.10360339110E+04  0.14446331432E+04  0.90743686482E+03 0.  0.
        -24    2    4    4    0    0  0.45230391968E+03 -0.29674875061E+03 -0.19827162447E+03  0.58170262695E+03  0.80172641113E+02 0.  0.
         24    2    4    4    0    0 -0.29794271337E+02  0.18884793081E+03 -0.83776228657E+03  0.86293051621E+03  0.79070774935E+02 0.  0.
         13    1    3    3    0    0 -0.11462230831E+03 -0.29675037665E+01 -0.37849230785E+03  0.39547883223E+03  0.00000000000E+00 0. -1.
        -13    1    3    3    0    0 -0.30788734003E+03  0.11086832357E+03 -0.74177775314E+03  0.81075312789E+03  0.00000000000E+00 0.  1.
          2    1    6    6  502    0 -0.42628318677E+02  0.12081131467E+03 -0.40841837325E+03  0.42803985202E+03  0.00000000000E+00 0. -1.
          1    1    5    5  503    0  0.42687170832E+03 -0.26678565059E+03 -0.20162041595E+03  0.54225900717E+03  0.00000000000E+00 0. -1.
         -2    1    5    5    0  503  0.25432211352E+02 -0.29963100018E+02  0.33487914712E+01  0.39443619779E+02  0.00000000000E+00 0.  1.
         -1    1    6    6    0  502  0.12834047341E+02  0.68036616136E+02 -0.42934391331E+03  0.43489066419E+03  0.00000000000E+00 0.  1.
<mgrwt>
<rscale>  0 0.15418946E+04</rscale>
<asrwt>0</asrwt>
<pdfrwt beam="1">  1        2 0.36978225E+00 0.15418946E+04</pdfrwt>
<pdfrwt beam="2">  1       -2 0.38043163E-01 0.15418946E+04</pdfrwt>
<totfact> 0.24904709E+01</totfact>
</mgrwt>
</event>
<event>
12    1  0.1495204E-007  0.2002215E+04  0.7818608E-02  0.8605586E-01
          2   -1    0    0  501    0  0.00000000000E+00  0.00000000000E+00  0.52225092045E+03  0.52225092045E+03  0.00000000000E+00 0. -1.
         -2   -1    0    0    0  501 -0.00000000000E+00 -0.00000000000E+00 -0.19190321581E+04  0.19190321581E+04  0.00000000000E+00 0.  1.
         23    2    1    2    0    0 -0.77156598365E+03 -0.16552848575E+03 -0.67977488702E+03  0.10455457274E+04  0.91423324723E+02 0.  0.
        254    2    1    2    0    0  0.77156598365E+03  0.16552848575E+03 -0.71700635067E+03  0.13957373512E+04  0.90070577879E+03 0.  0.
        -24    2    4    4    0    0  0.85499595989E+03  0.17525626804E+03 -0.84941980160E+03  0.12205866239E+04  0.81147126994E+02 0.  0.
         24    2    4    4    0    0 -0.83429976236E+02 -0.97277822915E+01  0.13241345093E+03  0.17515072730E+03  0.78033740159E+02 0.  0.
         11    1    3    3    0    0 -0.36620567301E+03 -0.85957993554E+02 -0.38352604952E+03  0.53720350172E+03  0.00000000000E+00 0.  1.
        -11    1    3    3    0    0 -0.40536031064E+03 -0.79570492195E+02 -0.29624883750E+03  0.50834222566E+03  0.00000000000E+00 0. -1.
          2    1    6    6  502    0 -0.92562617036E+02 -0.30021014219E+01  0.82706080477E+02  0.12416580219E+03  0.00000000000E+00 0. -1.
          3    1    5    5  503    0  0.71184973973E+03  0.17479580275E+03 -0.72391676633E+03  0.10302131377E+04  0.00000000000E+00 0. -1.
         -4    1    5    5    0  503  0.14314622015E+03  0.46046528586E+00 -0.12550303527E+03  0.19037348616E+03  0.00000000000E+00 0.  1.
         -1    1    6    6    0  502  0.91326407992E+01 -0.67256808697E+01  0.49707370454E+02  0.50984925111E+02  0.00000000000E+00 0.  1.
<mgrwt>
<rscale>  0 0.20022151E+04</rscale>
<asrwt>0</asrwt>
<pdfrwt beam="1">  1        2 0.80346296E-01 0.20022151E+04</pdfrwt>
<pdfrwt beam="2">  1       -2 0.29523571E+00 0.20022151E+04</pdfrwt>
<totfact> 0.18493959E+00</totfact>
</mgrwt>
</event>
<event>
12    1  0.1495204E-007  0.2237383E+04  0.7818608E-02  0.8503028E-01
         -2   -1    0    0    0  501 -0.00000000000E+00  0.00000000000E+00  0.86857877623E+03  0.86857877623E+03  0.00000000000E+00 0. -1.
          2   -1    0    0  501    0  0.00000000000E+00 -0.00000000000E+00 -0.14408261172E+04  0.14408261172E+04  0.00000000000E+00 0.  1.
         23    2    1    2    0    0  0.61761128160E+03  0.41803863731E+03 -0.82821687889E+03  0.11182189034E+04  0.90941300023E+02 0.  0.
        254    2    1    2    0    0 -0.61761128160E+03 -0.41803863731E+03  0.25596953790E+03  0.11911859900E+04  0.89286262160E+03 0.  0.
        -24    2    4    4    0    0 -0.27222029681E+03  0.14142158522E+03 -0.21048973221E+03  0.38111102736E+03  0.82678492080E+02 0.  0.
         24    2    4    4    0    0 -0.34539098480E+03 -0.55946022253E+03  0.46645927011E+03  0.81007496266E+03  0.79665058094E+02 0.  0.
         11    1    3    3    0    0  0.71551506904E+01  0.23192091332E+02 -0.25333731746E+02  0.35083717675E+02  0.00000000000E+00 0. -1.
        -11    1    3    3    0    0  0.61045613091E+03  0.39484654597E+03 -0.80288314714E+03  0.10831351857E+04  0.00000000000E+00 0.  1.
          2    1    6    6  502    0 -0.21441597625E+03 -0.36612497548E+03  0.25489415472E+03  0.49496741171E+03  0.00000000000E+00 0. -1.
          1    1    5    5  503    0 -0.13976001844E+03  0.90030679621E+02 -0.67181256304E+02  0.17930897140E+03  0.00000000000E+00 0. -1.
         -2    1    5    5    0  503 -0.13246027837E+03  0.51390905603E+02 -0.14330847591E+03  0.20180205596E+03  0.00000000000E+00 0.  1.
         -1    1    6    6    0  502 -0.13097500855E+03 -0.19333524705E+03  0.21156511539E+03  0.31510755095E+03  0.00000000000E+00 0.  1.
<mgrwt>
<rscale>  0 0.22373833E+04</rscale>
<asrwt>0</asrwt>
<pdfrwt beam="1">  1        2 0.22166556E+00 0.22373833E+04</pdfrwt>
<pdfrwt beam="2">  1       -2 0.13362750E+00 0.22373833E+04</pdfrwt>
<totfact> 0.50615035E+00</totfact>
</mgrwt>
</event>
<event>
12    1  0.1495204E-007  0.1108581E+04  0.7818608E-02  0.9196869E-01
          2   -1    0    0  501    0  0.00000000000E+00  0.00000000000E+00  0.27071001441E+04  0.27071001441E+04  0.00000000000E+00 0.  1.
         -2   -1    0    0    0  501 -0.00000000000E+00 -0.00000000000E+00 -0.11349330149E+03  0.11349330149E+03  0.00000000000E+00 0. -1.
         23    2    1    2    0    0  0.26411261973E+02  0.37410468065E+02  0.99032386298E+03  0.99549955031E+03  0.90448345495E+02 0.  0.
        254    2    1    2    0    0 -0.26411261973E+02 -0.37410468065E+02  0.16032829797E+04  0.18250938953E+04  0.87083541266E+03 0.  0.
        -24    2    4    4    0    0 -0.35007760793E+03 -0.22550948851E+03  0.11816709384E+04  0.12554804297E+04  0.80473858035E+02 0.  0.
         24    2    4    4    0    0  0.32366634596E+03  0.18809902044E+03  0.42161204127E+03  0.56961346557E+03  0.81003961758E+02 0.  0.
         11    1    3    3    0    0  0.22305266020E+02 -0.17730509021E+02  0.65723983244E+03  0.65785719818E+03  0.00000000000E+00 0.  1.
        -11    1    3    3    0    0  0.41059959534E+01  0.55140977086E+02  0.33308403054E+03  0.33764235214E+03  0.00000000000E+00 0. -1.
          2    1    6    6  502    0  0.13124793618E+03  0.69658987210E+02  0.22754503525E+03  0.27176301867E+03  0.00000000000E+00 0. -1.
          3    1    5    5  503    0  0.91648106913E-01  0.48781900468E+01  0.16558605076E+02  0.17262460415E+02  0.00000000000E+00 0. -1.
         -4    1    5    5    0  503 -0.35016925604E+03 -0.23038767856E+03  0.11651123333E+04  0.12382179693E+04  0.00000000000E+00 0.  1.
         -1    1    6    6    0  502  0.19241840977E+03  0.11844003323E+03  0.19406700602E+03  0.29785044690E+03  0.00000000000E+00 0.  1.
<mgrwt>
<rscale>  0 0.11085806E+04</rscale>
<asrwt>0</asrwt>
<pdfrwt beam="1">  1        2 0.41647690E+00 0.11085806E+04</pdfrwt>
<pdfrwt beam="2">  1       -2 0.17460510E-01 0.11085806E+04</pdfrwt>
<totfact> 0.71543156E+01</totfact>
</mgrwt>
</event>
<event>
12    1  0.1495204E-007  0.1669421E+04  0.7818608E-02  0.8779000E-01
         -2   -1    0    0    0  501 -0.00000000000E+00  0.00000000000E+00  0.58200955793E+03  0.58200955793E+03  0.00000000000E+00 0.  1.
          2   -1    0    0  501    0  0.00000000000E+00 -0.00000000000E+00 -0.11971302948E+04  0.11971302948E+04  0.00000000000E+00 0. -1.
         23    2    1    2    0    0  0.13968063141E+03  0.54317753767E+03 -0.38225137278E+03  0.68494006028E+03  0.92055732907E+02 0.  0.
        254    2    1    2    0    0 -0.13968063141E+03 -0.54317753767E+03 -0.23286936413E+03  0.10941997925E+04  0.91021564968E+03 0.  0.
        -24    2    4    4    0    0  0.28648948146E+03 -0.84387065392E+01 -0.27509848854E+03  0.40434168088E+03  0.75270058726E+02 0.  0.
         24    2    4    4    0    0 -0.42617011287E+03 -0.53473883113E+03  0.42229124419E+02  0.68985811161E+03  0.80958832676E+02 0.  0.
         11    1    3    3    0    0  0.76553246160E+02  0.38426551492E+03 -0.30863701527E+03  0.49877569372E+03  0.00000000000E+00 0. -1.
        -11    1    3    3    0    0  0.63127385248E+02  0.15891202275E+03 -0.73614357507E+02  0.18616436655E+03  0.00000000000E+00 0.  1.
          2    1    6    6  502    0 -0.39893405381E+03 -0.52547685100E+03  0.38912693979E+02  0.66089976395E+03  0.00000000000E+00 0. -1.
          3    1    5    5  503    0  0.17638579866E+03 -0.37553669303E+02 -0.19161842378E+03  0.26313465827E+03  0.00000000000E+00 0. -1.
         -4    1    5    5    0  503  0.11010368280E+03  0.29114962764E+02 -0.83480064762E+02  0.14120702261E+03  0.00000000000E+00 0.  1.
         -1    1    6    6    0  502 -0.27236059054E+02 -0.92619801273E+01  0.33164304402E+01  0.28958347665E+02  0.00000000000E+00 0.  1.
<mgrwt>
<rscale>  0 0.16694206E+04</rscale>
<asrwt>0</asrwt>
<pdfrwt beam="1">  1        2 0.18417389E+00 0.16694206E+04</pdfrwt>
<pdfrwt beam="2">  1       -2 0.89539933E-01 0.16694206E+04</pdfrwt>
<totfact> 0.19399362E+01</totfact>
</mgrwt>
</event>
<event>
12    1  0.1495204E-007  0.3698658E+04  0.7818608E-02  0.8068259E-01
         -2   -1    0    0    0  501 -0.00000000000E+00  0.00000000000E+00  0.21916900006E+04  0.21916900006E+04  0.00000000000E+00 0.  1.
          2   -1    0    0  501    0  0.00000000000E+00 -0.00000000000E+00 -0.15604477835E+04  0.15604477835E+04  0.00000000000E+00 0. -1.
         23    2    1    2    0    0 -0.13410269299E+04 -0.57599071933E+03  0.12597591514E+04  0.19301168851E+04  0.90771885311E+02 0.  0.
        254    2    1    2    0    0  0.13410269299E+04  0.57599071933E+03 -0.62851693436E+03  0.18220208990E+04  0.89140792232E+03 0.  0.
        -24    2    4    4    0    0  0.41073868925E+03  0.53770033912E+03  0.24961832545E+02  0.68161638631E+03  0.78421167233E+02 0.  0.
         24    2    4    4    0    0  0.93028824065E+03  0.38290380215E+02 -0.65347876691E+03  0.11404045126E+04  0.81151646629E+02 0.  0.
         13    1    3    3    0    0 -0.25053565527E+03 -0.14476935463E+03  0.26509256701E+03  0.39242878295E+03  0.00000000000E+00 0. -1.
        -13    1    3    3    0    0 -0.10904912746E+04 -0.43122136470E+03  0.99466658441E+03  0.15376881022E+04  0.00000000000E+00 0.  1.
          4    1    6    6  502    0  0.87894714419E+03  0.26918088853E+02 -0.63500765614E+03  0.10846692533E+04  0.00000000000E+00 0. -1.
          1    1    5    5  503    0  0.36546154070E+03  0.43304450833E+03  0.30341042061E+02  0.56745948116E+03  0.00000000000E+00 0. -1.
         -2    1    5    5    0  503  0.45277148553E+02  0.10465583079E+03 -0.53792095150E+01  0.11415690516E+03  0.00000000000E+00 0.  1.
         -3    1    6    6    0  502  0.51341096455E+02  0.11372291361E+02 -0.18471110765E+02  0.55735259297E+02  0.00000000000E+00 0.  1.
<mgrwt>
<rscale>  0 0.36986580E+04</rscale>
<asrwt>0</asrwt>
<pdfrwt beam="1">  1        2 0.24006889E+00 0.36986580E+04</pdfrwt>
<pdfrwt beam="2">  1       -2 0.33718308E+00 0.36986580E+04</pdfrwt>
<totfact> 0.17762828E-01</totfact>
</mgrwt>
</event>
<event>
12    1  0.1495204E-007  0.1548665E+04  0.7818608E-02  0.8852721E-01
         -1   -1    0    0    0  501 -0.00000000000E+00  0.00000000000E+00  0.26651899050E+03  0.26651899050E+03  0.00000000000E+00 0.  1.
          1   -1    0    0  501    0  0.00000000000E+00 -0.00000000000E+00 -0.22497115536E+04  0.22497115536E+04  0.00000000000E+00 0. -1.
         23    2    1    2    0    0 -0.34013822589E+03 -0.14101293656E+03 -0.92956611611E+02  0.39351704039E+03  0.10313131651E+03 0.  0.
        254    2    1    2    0    0  0.34013822589E+03  0.14101293656E+03 -0.18902359515E+04  0.21227135037E+04  0.89294009066E+03 0.  0.
        -24    2    4    4    0    0 -0.23767490523E+03  0.24334676849E+03 -0.48618672018E+03  0.59901537704E+03  0.82066343578E+02 0.  0.
         24    2    4    4    0    0  0.57781313111E+03 -0.10233383192E+03 -0.14040492313E+04  0.15236981267E+04  0.77210812717E+02 0.  0.
         13    1    3    3    0    0 -0.66432120866E+02 -0.56640251026E+02 -0.58380816278E+02  0.10502220922E+03  0.00000000000E+00 0. -1.
        -13    1    3    3    0    0 -0.27370610502E+03 -0.84372685537E+02 -0.34575795332E+02  0.28849483117E+03  0.00000000000E+00 0.  1.
          4    1    6    6  502    0  0.56523682784E+03 -0.87566211851E+02 -0.13458564892E+04  0.14623577547E+04  0.00000000000E+00 0. -1.
          1    1    5    5  503    0 -0.23239602398E+03  0.24868318212E+03 -0.48295233086E+03  0.59084193395E+03  0.00000000000E+00 0. -1.
         -2    1    5    5    0  503 -0.52788812491E+01 -0.53364136321E+01 -0.32343893113E+01  0.81734430879E+01  0.00000000000E+00 0.  1.
         -3    1    6    6    0  502  0.12576303274E+02 -0.14767620071E+02 -0.58192742071E+02  0.61340371994E+02  0.00000000000E+00 0.  1.
<mgrwt>
<rscale>  0 0.15486650E+04</rscale>
<asrwt>0</asrwt>
<pdfrwt beam="1">  1        1 0.34610947E+00 0.15486650E+04</pdfrwt>
<pdfrwt beam="2">  1       -1 0.41002921E-01 0.15486650E+04</pdfrwt>
<totfact> 0.11312323E+01</totfact>
</mgrwt>
</event>
<event>
12    1  0.1495204E-007  0.1069806E+04  0.7818608E-02  0.9235132E-01
         -1   -1    0    0    0  501 -0.00000000000E+00  0.00000000000E+00  0.72768681011E+03  0.72768681011E+03  0.00000000000E+00 0.  1.
          1   -1    0    0  501    0  0.00000000000E+00 -0.00000000000E+00 -0.39319247550E+03  0.39319247550E+03  0.00000000000E+00 0. -1.
         23    2    1    2    0    0  0.94839389109E+01 -0.95840287558E+02  0.13247526482E+03  0.19096660875E+03  0.98200020625E+02 0.  0.
        254    2    1    2    0    0 -0.94839389109E+01  0.95840287558E+02  0.20201906979E+03  0.92991267687E+03  0.90257995559E+03 0.  0.
        -24    2    4    4    0    0 -0.11515088457E+03  0.47249525808E+03  0.25399157315E+02  0.49338655589E+03  0.79206573066E+02 0.  0.
         24    2    4    4    0    0  0.10566694566E+03 -0.37665497052E+03  0.17661991247E+03  0.43652612098E+03  0.79536096168E+02 0.  0.
         13    1    3    3    0    0 -0.28860347059E+02 -0.66214307057E+01  0.39393541471E+01  0.29871081133E+02  0.00000000000E+00 0. -1.
        -13    1    3    3    0    0  0.38344285970E+02 -0.89218856853E+02  0.12853591067E+03  0.16109552761E+03  0.00000000000E+00 0.  1.
          4    1    6    6  502    0  0.11722450155E-02 -0.55972650107E+02  0.52651923588E+02  0.76845055917E+02  0.00000000000E+00 0. -1.
          1    1    5    5  503    0 -0.73647163003E+01  0.19340170866E+03  0.11211955325E+02  0.19386636609E+03  0.00000000000E+00 0. -1.
         -2    1    5    5    0  503 -0.10778616827E+03  0.27909354941E+03  0.14187201990E+02  0.29952018979E+03  0.00000000000E+00 0.  1.
         -3    1    6    6    0  502  0.10566577341E+03 -0.32068232041E+03  0.12396798888E+03  0.35968106506E+03  0.00000000000E+00 0.  1.
<mgrwt>
<rscale>  0 0.10698055E+04</rscale>
<asrwt>0</asrwt>
<pdfrwt beam="1">  1        1 0.60491150E-01 0.10698055E+04</pdfrwt>
<pdfrwt beam="2">  1       -1 0.11195182E+00 0.10698055E+04</pdfrwt>
<totfact> 0.44881950E+01</totfact>
</mgrwt>
</event>
<event>
12    1  0.1495204E-007  0.3134030E+04  0.7818608E-02  0.8206460E-01
         -1   -1    0    0    0  501 -0.00000000000E+00  0.00000000000E+00  0.12583013724E+04  0.12583013724E+04  0.00000000000E+00 0.  1.
          1   -1    0    0  501    0  0.00000000000E+00 -0.00000000000E+00 -0.19514686766E+04  0.19514686766E+04  0.00000000000E+00 0. -1.
         23    2    1    2    0    0 -0.14042667266E+04  0.26501195656E+03 -0.13169619209E+03  0.14381990003E+04  0.94213061327E+02 0.  0.
        254    2    1    2    0    0  0.14042667266E+04 -0.26501195656E+03 -0.56147111204E+03  0.17715710487E+04  0.88375211124E+03 0.  0.
        -24    2    4    4    0    0  0.11349731315E+04  0.18155021561E+03 -0.40288649391E+03  0.12206660115E+04  0.81138736124E+02 0.  0.
         24    2    4    4    0    0  0.26929359510E+03 -0.44656217217E+03 -0.15858461813E+03  0.55090503718E+03  0.80065378977E+02 0.  0.
         13    1    3    3    0    0 -0.20166133053E+03  0.70253610324E+02 -0.30741956473E+02  0.21574969266E+03  0.00000000000E+00 0. -1.
        -13    1    3    3    0    0 -0.12026053961E+04  0.19475834624E+03 -0.10095423562E+03  0.12224493077E+04  0.00000000000E+00 0.  1.
          4    1    6    6  502    0  0.21905005977E+03 -0.33360744667E+03 -0.88478365998E+02  0.40878512498E+03  0.00000000000E+00 0. -1.
          1    1    5    5  503    0  0.81889229949E+03  0.16742911216E+03 -0.29636310349E+03  0.88681914440E+03  0.00000000000E+00 0. -1.
         -4    1    5    5    0  503  0.31608083204E+03  0.14121103442E+02 -0.10652339042E+03  0.33384686707E+03  0.00000000000E+00 0.  1.
         -3    1    6    6    0  502  0.50243535332E+02 -0.11295472550E+03 -0.70106252133E+02  0.14211991220E+03  0.00000000000E+00 0.  1.
<mgrwt>
<rscale>  0 0.31340298E+04</rscale>
<asrwt>0</asrwt>
<pdfrwt beam="1">  1        1 0.30022595E+00 0.31340298E+04</pdfrwt>
<pdfrwt beam="2">  1       -1 0.19358483E+00 0.31340298E+04</pdfrwt>
<totfact> 0.45110483E-01</totfact>
</mgrwt>
</event>
<event>
12    1  0.1495204E-007  0.1412914E+04  0.7818608E-02  0.8944523E-01
         -1   -1    0    0    0  501 -0.00000000000E+00  0.00000000000E+00  0.68715530347E+03  0.68715530347E+03  0.00000000000E+00 0.  1.
          1   -1    0    0  501    0  0.00000000000E+00 -0.00000000000E+00 -0.72630086546E+03  0.72630086546E+03  0.00000000000E+00 0. -1.
         23    2    1    2    0    0 -0.25151391142E+03 -0.30664437892E+03  0.98875183184E+02  0.41895019495E+03  0.91939878347E+02 0.  0.
        254    2    1    2    0    0  0.25151391142E+03  0.30664437892E+03 -0.13802074517E+03  0.99450597399E+03  0.90150007401E+03 0.  0.
        -24    2    4    4    0    0 -0.12897128412E+03 -0.19729693253E+03  0.15299800080E+03  0.29465075162E+03  0.88605899729E+02 0.  0.
         24    2    4    4    0    0  0.38048519554E+03  0.50394131145E+03 -0.29101874597E+03  0.69985522237E+03  0.79872350381E+02 0.  0.
         11    1    3    3    0    0 -0.16481529903E+03 -0.18044918553E+03  0.10437397189E+03  0.26574408245E+03  0.00000000000E+00 0.  1.
        -11    1    3    3    0    0 -0.86698612394E+02 -0.12619519340E+03 -0.54987887056E+01  0.15320611249E+03  0.00000000000E+00 0. -1.
          4    1    6    6  502    0  0.35348648900E+03  0.42451265643E+03 -0.25808034488E+03  0.60972875755E+03  0.00000000000E+00 0. -1.
          3    1    5    5  503    0 -0.14242888150E+03 -0.17886933501E+03  0.13448417372E+03  0.26526631576E+03  0.00000000000E+00 0. -1.
         -4    1    5    5    0  503  0.13457597386E+02 -0.18427597522E+02  0.18513827081E+02  0.29384435864E+02  0.00000000000E+00 0.  1.
         -3    1    6    6    0  502  0.26998706543E+02  0.79428655026E+02 -0.32938401096E+02  0.90126464820E+02  0.00000000000E+00 0.  1.
<mgrwt>
<rscale>  0 0.14129140E+04</rscale>
<asrwt>0</asrwt>
<pdfrwt beam="1">  1        1 0.11173859E+00 0.14129140E+04</pdfrwt>
<pdfrwt beam="2">  1       -1 0.10571620E+00 0.14129140E+04</pdfrwt>
<totfact> 0.21023237E+01</totfact>
</mgrwt>
</event>
<event>
12    1  0.1495204E-007  0.1896140E+04  0.7818608E-02  0.8656780E-01
         -1   -1    0    0    0  501 -0.00000000000E+00  0.00000000000E+00  0.72318603040E+03  0.72318603040E+03  0.00000000000E+00 0.  1.
          1   -1    0    0  501    0  0.00000000000E+00 -0.00000000000E+00 -0.12428845572E+04  0.12428845572E+04  0.00000000000E+00 0. -1.
         23    2    1    2    0    0  0.23298808209E+03 -0.61686157911E+03  0.12334996512E+03  0.67680324597E+03  0.89698192129E+02 0.  0.
        254    2    1    2    0    0 -0.23298808209E+03  0.61686157911E+03 -0.64304849190E+03  0.12892673416E+04  0.90216254692E+03 0.  0.
        -24    2    4    4    0    0 -0.18564916385E+03 -0.13976734856E+03  0.59304133395E+02  0.25269764193E+03  0.79615288962E+02 0.  0.
         24    2    4    4    0    0 -0.47338918239E+02  0.75662892768E+03 -0.70235262530E+03  0.10365696997E+04  0.80307064937E+02 0.  0.
         13    1    3    3    0    0  0.95121760468E+02 -0.30975659895E+03  0.10109555696E+03  0.33943719824E+03  0.00000000000E+00 0. -1.
        -13    1    3    3    0    0  0.13786632163E+03 -0.30710498016E+03  0.22254408157E+02  0.33736604773E+03  0.00000000000E+00 0.  1.
          4    1    6    6  502    0 -0.27341610018E+02  0.12220670722E+03 -0.14767537137E+03  0.19362349608E+03  0.00000000000E+00 0. -1.
          1    1    5    5  503    0 -0.69387342421E+01 -0.10996135612E+02  0.27135455380E+02  0.30089765202E+02  0.00000000000E+00 0. -1.
         -2    1    5    5    0  503 -0.17871042961E+03 -0.12877121295E+03  0.32168678015E+02  0.22260787673E+03  0.00000000000E+00 0.  1.
         -3    1    6    6    0  502 -0.19997308221E+02  0.63442222046E+03 -0.55467725393E+03  0.84294620361E+03  0.00000000000E+00 0.  1.
<mgrwt>
<rscale>  0 0.18961400E+04</rscale>
<asrwt>0</asrwt>
<pdfrwt beam="1">  1        1 0.19121301E+00 0.18961400E+04</pdfrwt>
<pdfrwt beam="2">  1       -1 0.11125939E+00 0.18961400E+04</pdfrwt>
<totfact> 0.69141660E+00</totfact>
</mgrwt>
</event>
<event>
12    1  0.1495204E-007  0.4275180E+04  0.7818608E-02  0.7951224E-01
         -1   -1    0    0    0  501 -0.00000000000E+00  0.00000000000E+00  0.13555714951E+04  0.13555714951E+04  0.00000000000E+00 0.  1.
          1   -1    0    0  501    0  0.00000000000E+00 -0.00000000000E+00 -0.33707485823E+04  0.33707485823E+04  0.00000000000E+00 0. -1.
         23    2    1    2    0    0 -0.96460898332E+03 -0.11709650078E+04 -0.24499214734E+04  0.28830609035E+04  0.91079127726E+02 0.  0.
        254    2    1    2    0    0  0.96460898332E+03  0.11709650078E+04  0.43474438614E+03  0.18432591740E+04  0.95235086020E+03 0.  0.
        -24    2    4    4    0    0  0.21424990895E+03  0.92189881686E+03  0.28283016171E+02  0.95045063996E+03  0.82195121501E+02 0.  0.
         24    2    4    4    0    0  0.75035907436E+03  0.24906619094E+03  0.40646136997E+03  0.89280853399E+03  0.82604631493E+02 0.  0.
         11    1    3    3    0    0 -0.95447572737E+03 -0.11477881610E+04 -0.24243741559E+04  0.28471093454E+04  0.00000000000E+00 0. -1.
        -11    1    3    3    0    0 -0.10133255943E+02 -0.23176846791E+02 -0.25547317478E+02  0.35951558151E+02  0.00000000000E+00 0.  1.
          4    1    6    6  502    0  0.27461404138E+03  0.10146186781E+03  0.19443972300E+03  0.35144585390E+03  0.00000000000E+00 0. -1.
          1    1    5    5  503    0  0.49461661023E+01  0.86064466679E+01 -0.80455552448E+01  0.12777575770E+02  0.00000000000E+00 0. -1.
         -2    1    5    5    0  503  0.20930374285E+03  0.91329237019E+03  0.36328571416E+02  0.93767306419E+03  0.00000000000E+00 0.  1.
         -3    1    6    6    0  502  0.47574503298E+03  0.14760432312E+03  0.21202164697E+03  0.54136268009E+03  0.00000000000E+00 0.  1.
<mgrwt>
<rscale>  0 0.42751799E+04</rscale>
<asrwt>0</asrwt>
<pdfrwt beam="1">  1        1 0.51857670E+00 0.42751799E+04</pdfrwt>
<pdfrwt beam="2">  1       -1 0.20854946E+00 0.42751799E+04</pdfrwt>
<totfact> 0.31686820E-02</totfact>
</mgrwt>
</event>
<event>
12    1  0.1495204E-007  0.1551883E+04  0.7818608E-02  0.8850666E-01
         -1   -1    0    0    0  501 -0.00000000000E+00  0.00000000000E+00  0.22741546561E+03  0.22741546561E+03  0.00000000000E+00 0.  1.
          1   -1    0    0  501    0  0.00000000000E+00 -0.00000000000E+00 -0.26475112620E+04  0.26475112620E+04  0.00000000000E+00 0. -1.
         23    2    1    2    0    0  0.40731176224E+03  0.23493573030E+03 -0.11993444538E+04  0.12914700350E+04  0.91488049879E+02 0.  0.
        254    2    1    2    0    0 -0.40731176224E+03 -0.23493573030E+03 -0.12207513426E+04  0.15834566926E+04  0.89219033173E+03 0.  0.
        -24    2    4    4    0    0 -0.21711435856E+02 -0.22890301884E+03 -0.11593087868E+04  0.11846775329E+04  0.81215856516E+02 0.  0.
         24    2    4    4    0    0 -0.38560032639E+03 -0.60327114557E+01 -0.61442555724E+02  0.39877915968E+03  0.80781342054E+02 0.  0.
         13    1    3    3    0    0  0.28742096017E+03  0.17037584344E+03 -0.73117760555E+03  0.80390262298E+03  0.00000000000E+00 0.  1.
        -13    1    3    3    0    0  0.11989080208E+03  0.64559886856E+02 -0.46816684827E+03  0.48756741199E+03  0.00000000000E+00 0. -1.
          4    1    6    6  502    0 -0.26226039569E+02 -0.43538825417E+01  0.16169068755E+02  0.31115916009E+02  0.00000000000E+00 0. -1.
          1    1    5    5  503    0  0.25190839684E+02 -0.30147640037E+02 -0.16476903942E+03  0.16938800122E+03  0.00000000000E+00 0. -1.
         -2    1    5    5    0  503 -0.46902275540E+02 -0.19875537881E+03 -0.99453974741E+03  0.10152895317E+04  0.00000000000E+00 0.  1.
         -3    1    6    6    0  502 -0.35937428682E+03 -0.16788289140E+01 -0.77611624479E+02  0.36766324367E+03  0.00000000000E+00 0.  1.
<mgrwt>
<rscale>  0 0.15518827E+04</rscale>
<asrwt>0</asrwt>
<pdfrwt beam="1">  1        1 0.40730939E+00 0.15518827E+04</pdfrwt>
<pdfrwt beam="2">  1       -1 0.34986998E-01 0.15518827E+04</pdfrwt>
<totfact> 0.80179693E+00</totfact>
</mgrwt>
</event>
<event>
12    1  0.1495204E-007  0.1333954E+04  0.7818608E-02  0.9003064E-01
          1   -1    0    0  501    0  0.00000000000E+00  0.00000000000E+00  0.15650857140E+04  0.15650857140E+04  0.00000000000E+00 0. -1.
         -1   -1    0    0    0  501 -0.00000000000E+00 -0.00000000000E+00 -0.28423896356E+03  0.28423896356E+03  0.00000000000E+00 0.  1.
         23    2    1    2    0    0  0.18666677268E+03  0.23525063057E+03  0.74173809497E+02  0.32239755517E+03  0.90835490615E+02 0.  0.
        254    2    1    2    0    0 -0.18666677268E+03 -0.23525063057E+03  0.12066729410E+04  0.15269271224E+04  0.88614869381E+03 0.  0.
        -24    2    4    4    0    0 -0.21060169513E+03  0.23672238118E+03  0.90224073142E+03  0.95984093816E+03  0.82859697049E+02 0.  0.
         24    2    4    4    0    0  0.23934922454E+02 -0.47197301175E+03  0.30443220954E+03  0.56708618426E+03  0.74675068375E+02 0.  0.
         13    1    3    3    0    0  0.13481962039E+03  0.21497973292E+03  0.80859564618E+02  0.26632852795E+03  0.00000000000E+00 0.  1.
        -13    1    3    3    0    0  0.51847152281E+02  0.20270897652E+02 -0.66857551209E+01  0.56069027215E+02  0.00000000000E+00 0. -1.
          2    1    6    6  502    0  0.38285615924E+01 -0.65579747373E+02  0.13976105553E+02  0.67161690537E+02  0.00000000000E+00 0. -1.
          3    1    5    5  503    0 -0.48741007445E+02  0.16715639962E+02  0.10208482902E+03  0.11435213484E+03  0.00000000000E+00 0. -1.
         -2    1    5    5    0  503 -0.16186068768E+03  0.22000674122E+03  0.80015590241E+03  0.84548880333E+03  0.00000000000E+00 0.  1.
         -1    1    6    6    0  502  0.20106360861E+02 -0.40639326438E+03  0.29045610399E+03  0.49992449373E+03  0.00000000000E+00 0.  1.
<mgrwt>
<rscale>  0 0.13339540E+04</rscale>
<asrwt>0</asrwt>
<pdfrwt beam="1">  1        1 0.24078241E+00 0.13339540E+04</pdfrwt>
<pdfrwt beam="2">  1       -1 0.43729072E-01 0.13339540E+04</pdfrwt>
<totfact> 0.29858672E+01</totfact>
</mgrwt>
</event>
<event>
12    1  0.1592977E-007  0.1271955E+04  0.7818608E-02  0.9052105E-01
          1   -1    0    0  501    0  0.00000000000E+00  0.00000000000E+00  0.20031855743E+04  0.20031855743E+04  0.00000000000E+00 0. -1.
         -1   -1    0    0    0  501 -0.00000000000E+00 -0.00000000000E+00 -0.20191223846E+03  0.20191223846E+03  0.00000000000E+00 0.  1.
         23    2    1    2    0    0 -0.45641759675E+02 -0.22798557330E+03  0.10337312904E+03  0.27024862377E+03  0.91036931980E+02 0.  0.
        254    2    1    2    0    0  0.45641759675E+02  0.22798557330E+03  0.16979002068E+04  0.19348491890E+04  0.89817352444E+03 0.  0.
        -24    2    4    4    0    0  0.78572845046E+02  0.45050981558E+03  0.16155018164E+04  0.16808881829E+04  0.80038608197E+02 0.  0.
         24    2    4    4    0    0 -0.32931085371E+02 -0.22252424228E+03  0.82398390368E+02  0.25396100603E+03  0.84292366574E+02 0.  0.
         13    1    3    3    0    0 -0.87901430799E+01 -0.49307021624E+02  0.67931609280E+02  0.84398770940E+02  0.00000000000E+00 0. -1.
        -13    1    3    3    0    0 -0.36851616596E+02 -0.17867855167E+03  0.35441519755E+02  0.18584985283E+03  0.00000000000E+00 0.  1.
          2    1    6    6  502    0 -0.16353735633E+02 -0.17985126339E+03  0.27817813365E+02  0.18272315768E+03  0.00000000000E+00 0. -1.
          1    1    5    5  503    0  0.86452586383E+02  0.44680503874E+03  0.15733180654E+04  0.16378151688E+04  0.00000000000E+00 0. -1.
         -2    1    5    5    0  503 -0.78797413368E+01  0.37047768365E+01  0.42183751011E+02  0.43073014107E+02  0.00000000000E+00 0.  1.
         -1    1    6    6    0  502 -0.16577349737E+02 -0.42672978890E+02  0.54580577003E+02  0.71237848351E+02  0.00000000000E+00 0.  1.
<mgrwt>
<rscale>  0 0.12719555E+04</rscale>
<asrwt>0</asrwt>
<pdfrwt beam="1">  1        1 0.30818238E+00 0.12719555E+04</pdfrwt>
<pdfrwt beam="2">  1       -1 0.31063423E-01 0.12719555E+04</pdfrwt>
<totfact> 0.28056299E+01</totfact>
</mgrwt>
</event>
<event>
12    1  0.1495204E-007  0.2618660E+04  0.7818608E-02  0.8361890E-01
          2   -1    0    0  501    0  0.00000000000E+00  0.00000000000E+00  0.10954899550E+04  0.10954899550E+04  0.00000000000E+00 0.  1.
         -2   -1    0    0    0  501 -0.00000000000E+00 -0.00000000000E+00 -0.15649118547E+04  0.15649118547E+04  0.00000000000E+00 0. -1.
         23    2    1    2    0    0 -0.98151928101E+03 -0.20637764119E+03 -0.75254212848E+03  0.12573074567E+04  0.92361007793E+02 0.  0.
        254    2    1    2    0    0  0.98151928101E+03  0.20637764119E+03  0.28312022872E+03  0.14030943530E+04  0.93943859281E+03 0.  0.
        -24    2    4    4    0    0  0.10968232724E+04  0.33565074550E+03  0.34820962725E+03  0.12013045698E+04  0.78740149788E+02 0.  0.
         24    2    4    4    0    0 -0.11530399135E+03 -0.12927310431E+03 -0.65089398533E+02  0.20178978316E+03  0.80473230752E+02 0.  0.
         13    1    3    3    0    0 -0.98031509870E+03 -0.20735517750E+03 -0.74244524264E+03  0.12470921380E+04  0.00000000000E+00 0. -1.
        -13    1    3    3    0    0 -0.12041823142E+01  0.97753630770E+00 -0.10096885843E+02  0.10215318693E+02  0.00000000000E+00 0.  1.
          4    1    6    6  502    0 -0.11107877695E+03 -0.12924758173E+03 -0.38303671736E+02  0.17467284661E+03  0.00000000000E+00 0. -1.
          1    1    5    5  503    0  0.10289857081E+04  0.32017490435E+03  0.30737218451E+03  0.11206253686E+04  0.00000000000E+00 0. -1.
         -2    1    5    5    0  503  0.67837564225E+02  0.15475841143E+02  0.40837442741E+02  0.80679201215E+02  0.00000000000E+00 0.  1.
         -3    1    6    6    0  502 -0.42252144001E+01 -0.25522576516E-01 -0.26785726797E+02  0.27116936556E+02  0.00000000000E+00 0.  1.
<mgrwt>
<rscale>  0 0.26186601E+04</rscale>
<asrwt>0</asrwt>
<pdfrwt beam="1">  1        2 0.16853692E+00 0.26186601E+04</pdfrwt>
<pdfrwt beam="2">  1       -2 0.24075567E+00 0.26186601E+04</pdfrwt>
<totfact> 0.14190242E+00</totfact>
</mgrwt>
</event>
<event>
12    1  0.1495204E-007  0.2244219E+04  0.7818608E-02  0.8500245E-01
         -1   -1    0    0    0  501 -0.00000000000E+00  0.00000000000E+00  0.91032999076E+03  0.91032999076E+03  0.00000000000E+00 0.  1.
          1   -1    0    0  501    0  0.00000000000E+00 -0.00000000000E+00 -0.13831571631E+04  0.13831571631E+04  0.00000000000E+00 0. -1.
         23    2    1    2    0    0  0.35520694299E+03 -0.69716832950E+03  0.33285442636E+03  0.85504372136E+03  0.89955790631E+02 0.  0.
        254    2    1    2    0    0 -0.35520694299E+03  0.69716832950E+03 -0.80568159870E+03  0.14384434325E+04  0.89876638679E+03 0.  0.
        -24    2    4    4    0    0  0.84850773398E+02  0.68508030098E+03 -0.68314381806E+03  0.97444062788E+03  0.79463127157E+02 0.  0.
         24    2    4    4    0    0 -0.44005771639E+03  0.12088028528E+02 -0.12253778064E+03  0.46400280462E+03  0.80536829000E+02 0.  0.
         13    1    3    3    0    0  0.62848589916E+02 -0.61740201736E+02  0.34652192368E+02  0.94670862470E+02  0.00000000000E+00 0. -1.
        -13    1    3    3    0    0  0.29235835308E+03 -0.63542812777E+03  0.29820223400E+03  0.76037285889E+03  0.00000000000E+00 0.  1.
          2    1    6    6  502    0 -0.37651826444E+03  0.21987187717E+02 -0.13073720289E+03  0.39917622186E+03  0.00000000000E+00 0. -1.
          3    1    5    5  503    0  0.68955276201E+02  0.64886757321E+03 -0.62107306001E+03  0.90084166397E+03  0.00000000000E+00 0. -1.
         -4    1    5    5    0  503  0.15895497197E+02  0.36212727769E+02 -0.62070758049E+02  0.73598963909E+02  0.00000000000E+00 0.  1.
         -1    1    6    6    0  502 -0.63539451954E+02 -0.98991591889E+01  0.81994222571E+01  0.64826582762E+02  0.00000000000E+00 0.  1.
<mgrwt>
<rscale>  0 0.22442187E+04</rscale>
<asrwt>0</asrwt>
<pdfrwt beam="1">  1        1 0.21279341E+00 0.22442187E+04</pdfrwt>
<pdfrwt beam="2">  1       -1 0.14005077E+00 0.22442187E+04</pdfrwt>
<totfact> 0.30031285E+00</totfact>
</mgrwt>
</event>
<event>
12    1  0.1495204E-007  0.1886862E+04  0.7818608E-02  0.8661424E-01
          2   -1    0    0  501    0  0.00000000000E+00  0.00000000000E+00  0.12147890025E+04  0.12147890025E+04  0.00000000000E+00 0. -1.
         -2   -1    0    0    0  501 -0.00000000000E+00 -0.00000000000E+00 -0.73268882845E+03  0.73268882845E+03  0.00000000000E+00 0.  1.
         23    2    1    2    0    0  0.35197922783E+03 -0.16644314914E+03 -0.44725385923E+03  0.59988397661E+03  0.90730767027E+02 0.  0.
        254    2    1    2    0    0 -0.35197922783E+03  0.16644314914E+03  0.92935403323E+03  0.13475938543E+04  0.89482823956E+03 0.  0.
        -24    2    4    4    0    0 -0.19210813424E+03  0.47124519870E+03  0.83602514142E+03  0.98202308919E+03  0.80335160858E+02 0.  0.
         24    2    4    4    0    0 -0.15987109359E+03 -0.30480204956E+03  0.93328891809E+02  0.36557076510E+03  0.80427894864E+02 0.  0.
         13    1    3    3    0    0  0.25400339167E+03 -0.15690944319E+03 -0.36536967888E+03  0.47184033166E+03  0.00000000000E+00 0.  1.
        -13    1    3    3    0    0  0.97975836163E+02 -0.95337059514E+01 -0.81884180351E+02  0.12804364495E+03  0.00000000000E+00 0. -1.
          4    1    6    6  502    0 -0.12005735873E+02 -0.10070232737E+03  0.27883588266E+02  0.10517885208E+03  0.00000000000E+00 0. -1.
          3    1    5    5  503    0 -0.44723070617E+02  0.43695908392E+02  0.88891626070E+02  0.10867937542E+03  0.00000000000E+00 0. -1.
         -4    1    5    5    0  503 -0.14738506362E+03  0.42754929031E+03  0.74713351535E+03  0.87334371377E+03  0.00000000000E+00 0.  1.
         -3    1    6    6    0  502 -0.14786535771E+03 -0.20409972219E+03  0.65445303543E+02  0.26039191302E+03  0.00000000000E+00 0.  1.
<mgrwt>
<rscale>  0 0.18868623E+04</rscale>
<asrwt>0</asrwt>
<pdfrwt beam="1">  1        2 0.18689062E+00 0.18868623E+04</pdfrwt>
<pdfrwt beam="2">  1       -2 0.11272136E+00 0.18868623E+04</pdfrwt>
<totfact> 0.10775291E+01</totfact>
</mgrwt>
</event>
<event>
12    1  0.1495204E-007  0.2171867E+04  0.7818608E-02  0.8530230E-01
         -1   -1    0    0    0  501 -0.00000000000E+00  0.00000000000E+00  0.98180886849E+03  0.98180886849E+03  0.00000000000E+00 0.  1.
          1   -1    0    0  501    0  0.00000000000E+00 -0.00000000000E+00 -0.12011012552E+04  0.12011012552E+04  0.00000000000E+00 0. -1.
         23    2    1    2    0    0 -0.67598082448E+03  0.55141014718E+03 -0.31433919764E+03  0.93119714812E+03  0.85532286416E+02 0.  0.
        254    2    1    2    0    0  0.67598082448E+03 -0.55141014718E+03  0.95046810923E+02  0.12517129756E+04  0.89260755738E+03 0.  0.
        -24    2    4    4    0    0  0.87579089840E+03 -0.46959157351E+03 -0.14007600289E+02  0.99725343683E+03  0.82415173148E+02 0.  0.
         24    2    4    4    0    0 -0.19981007392E+03 -0.81818573668E+02  0.10905441121E+03  0.25445953875E+03  0.78983844019E+02 0.  0.
         11    1    3    3    0    0 -0.46142024862E+03  0.35798122822E+03 -0.24986973211E+03  0.63521184546E+03  0.00000000000E+00 0. -1.
        -11    1    3    3    0    0 -0.21456057586E+03  0.19342891896E+03 -0.64469465533E+02  0.29598530266E+03  0.00000000000E+00 0.  1.
          2    1    6    6  502    0 -0.17482870181E+03 -0.40633185582E+02  0.70799513137E+02  0.19294740685E+03  0.00000000000E+00 0. -1.
          3    1    5    5  503    0  0.60274329233E+03 -0.31217336018E+03  0.27575303491E+02  0.67934680438E+03  0.00000000000E+00 0. -1.
         -4    1    5    5    0  503  0.27304760607E+03 -0.15741821333E+03 -0.41582903780E+02  0.31790663245E+03  0.00000000000E+00 0.  1.
         -3    1    6    6    0  502 -0.24981372112E+02 -0.41185388086E+02  0.38254898075E+02  0.61512131902E+02  0.00000000000E+00 0.  1.
<mgrwt>
<rscale>  0 0.21718673E+04</rscale>
<asrwt>0</asrwt>
<pdfrwt beam="1">  1        1 0.18478481E+00 0.21718673E+04</pdfrwt>
<pdfrwt beam="2">  1       -1 0.15104752E+00 0.21718673E+04</pdfrwt>
<totfact> 0.33379989E+00</totfact>
</mgrwt>
</event>
<event>
12    1  0.1495204E-007  0.1203885E+04  0.7818608E-02  0.9109463E-01
          1   -1    0    0  501    0  0.00000000000E+00  0.00000000000E+00  0.20269668483E+04  0.20269668483E+04  0.00000000000E+00 0. -1.
         -1   -1    0    0    0  501 -0.00000000000E+00 -0.00000000000E+00 -0.17875717830E+03  0.17875717830E+03  0.00000000000E+00 0.  1.
         23    2    1    2    0    0 -0.12792847219E+03  0.20525251276E+03  0.58371600442E+03  0.63858185575E+03  0.92564165263E+02 0.  0.
        254    2    1    2    0    0  0.12792847219E+03 -0.20525251276E+03  0.12644936656E+04  0.15671421709E+04  0.89358607050E+03 0.  0.
        -24    2    4    4    0    0 -0.15167759285E+03  0.16646923350E+03  0.99630240166E+03  0.10245412435E+04  0.79675506020E+02 0.  0.
         24    2    4    4    0    0  0.27960606504E+03 -0.37172174626E+03  0.26819126396E+03  0.54260092736E+03  0.78310944713E+02 0.  0.
         13    1    3    3    0    0  0.36519099358E+00  0.21225885027E+01  0.84853482330E+02  0.84880811789E+02  0.00000000000E+00 0.  1.
        -13    1    3    3    0    0 -0.12829366318E+03  0.20312992426E+03  0.49886252209E+03  0.55370104396E+03  0.00000000000E+00 0. -1.
          2    1    6    6  502    0  0.12356975283E+03 -0.13016165555E+03  0.66724028745E+02  0.19147750887E+03  0.00000000000E+00 0. -1.
          1    1    5    5  503    0 -0.14232814009E+03  0.10540465234E+03  0.73979962639E+03  0.76070423123E+03  0.00000000000E+00 0. -1.
         -2    1    5    5    0  503 -0.93494527552E+01  0.61064581157E+02  0.25650277526E+03  0.26383701229E+03  0.00000000000E+00 0.  1.
         -1    1    6    6    0  502  0.15603631221E+03 -0.24156009071E+03  0.20146723522E+03  0.35112341850E+03  0.00000000000E+00 0.  1.
<mgrwt>
<rscale>  0 0.12038852E+04</rscale>
<asrwt>0</asrwt>
<pdfrwt beam="1">  1        1 0.31184104E+00 0.12038852E+04</pdfrwt>
<pdfrwt beam="2">  1       -1 0.27501106E-01 0.12038852E+04</pdfrwt>
<totfact> 0.33650075E+01</totfact>
</mgrwt>
</event>
<event>
12    1  0.1495204E-007  0.1247920E+04  0.7818608E-02  0.9071916E-01
         -1   -1    0    0    0  501 -0.00000000000E+00  0.00000000000E+00  0.25028284479E+03  0.25028284479E+03  0.00000000000E+00 0.  1.
          1   -1    0    0  501    0  0.00000000000E+00 -0.00000000000E+00 -0.15555441225E+04  0.15555441225E+04  0.00000000000E+00 0. -1.
         23    2    1    2    0    0  0.11693753356E+03  0.26680246326E+03 -0.35025924204E+03  0.46536890022E+03  0.95019658502E+02 0.  0.
        254    2    1    2    0    0 -0.11693753356E+03 -0.26680246326E+03 -0.95500203568E+03  0.13404580671E+04  0.89439420856E+03 0.  0.
        -24    2    4    4    0    0 -0.29198918819E+03 -0.20793682796E+03 -0.10550411636E+04  0.11171725685E+04  0.80419404010E+02 0.  0.
         24    2    4    4    0    0  0.17505165464E+03 -0.58865635296E+02  0.10003912793E+03  0.22328549854E+03  0.75765044263E+02 0.  0.
         11    1    3    3    0    0  0.53596161171E+02  0.21935229820E+03 -0.27848158084E+03  0.35852471335E+03  0.00000000000E+00 0.  1.
        -11    1    3    3    0    0  0.63341372385E+02  0.47450165053E+02 -0.71777661206E+02  0.10684418687E+03  0.00000000000E+00 0. -1.
          4    1    6    6  502    0  0.69545832930E+02 -0.14947639919E+02 -0.40705871698E+00  0.71135226954E+02  0.00000000000E+00 0. -1.
          3    1    5    5  503    0 -0.60837367251E+01 -0.20988150078E+02 -0.11334827596E+03  0.11543546231E+03  0.00000000000E+00 0. -1.
         -4    1    5    5    0  503 -0.28590545147E+03 -0.18694867788E+03 -0.94169288766E+03  0.10017371062E+04  0.00000000000E+00 0.  1.
         -3    1    6    6    0  502  0.10550582171E+03 -0.43917995377E+02  0.10044618665E+03  0.15215027159E+03  0.00000000000E+00 0.  1.
<mgrwt>
<rscale>  0 0.12479199E+04</rscale>
<asrwt>0</asrwt>
<pdfrwt beam="1">  1        1 0.23931448E+00 0.12479199E+04</pdfrwt>
<pdfrwt beam="2">  1       -1 0.38505053E-01 0.12479199E+04</pdfrwt>
<totfact> 0.38559532E+01</totfact>
</mgrwt>
</event>
<event>
12    1  0.1495204E-007  0.3071216E+04  0.7818608E-02  0.8223682E-01
          2   -1    0    0  501    0  0.00000000000E+00  0.00000000000E+00  0.15575010278E+04  0.15575010278E+04  0.00000000000E+00 0. -1.
         -2   -1    0    0    0  501 -0.00000000000E+00 -0.00000000000E+00 -0.15140225670E+04  0.15140225670E+04  0.00000000000E+00 0.  1.
         23    2    1    2    0    0  0.80099027537E+02 -0.14629884662E+03  0.14106934913E+04  0.14234288942E+04  0.90964188925E+02 0.  0.
        254    2    1    2    0    0 -0.80099027537E+02  0.14629884662E+03 -0.13672150305E+04  0.16480947005E+04  0.90505248229E+03 0.  0.
        -24    2    4    4    0    0 -0.42124173213E+03  0.30499401236E+03 -0.90391735182E+03  0.10458131338E+04  0.78692995341E+02 0.  0.
         24    2    4    4    0    0  0.34114270459E+03 -0.15869516574E+03 -0.46329767865E+03  0.60228156671E+03  0.80844579493E+02 0.  0.
         13    1    3    3    0    0  0.69651468083E+02 -0.15862592874E+03  0.13180390657E+04  0.13293759780E+04  0.00000000000E+00 0. -1.
        -13    1    3    3    0    0  0.10447559455E+02  0.12327082121E+02  0.92654425603E+02  0.94052916148E+02  0.00000000000E+00 0.  1.
          2    1    6    6  502    0  0.17553158515E+02  0.17999467770E+01 -0.51899673492E+02  0.54817235344E+02  0.00000000000E+00 0. -1.
          3    1    5    5  503    0 -0.14308214474E+03  0.59912558029E+02 -0.25581302869E+03  0.29916938413E+03  0.00000000000E+00 0. -1.
         -4    1    5    5    0  503 -0.27815958740E+03  0.24508145433E+03 -0.64810432313E+03  0.74664374971E+03  0.00000000000E+00 0.  1.
         -1    1    6    6    0  502  0.32358954608E+03 -0.16049511251E+03 -0.41139800515E+03  0.54746433137E+03  0.00000000000E+00 0.  1.
<mgrwt>
<rscale>  0 0.30712159E+04</rscale>
<asrwt>0</asrwt>
<pdfrwt beam="1">  1        2 0.23961554E+00 0.30712159E+04</pdfrwt>
<pdfrwt beam="2">  1       -2 0.23292655E+00 0.30712159E+04</pdfrwt>
<totfact> 0.82189670E-01</totfact>
</mgrwt>
</event>
<event>
12    1  0.1495204E-007  0.1601702E+04  0.7818608E-02  0.8819503E-01
         -2   -1    0    0    0  501 -0.00000000000E+00  0.00000000000E+00  0.19765106545E+03  0.19765106545E+03  0.00000000000E+00 0.  1.
          2   -1    0    0  501    0  0.00000000000E+00 -0.00000000000E+00 -0.32449222650E+04  0.32449222650E+04  0.00000000000E+00 0. -1.
         23    2    1    2    0    0 -0.67416545022E+02 -0.39277781341E+03 -0.25715939343E+03  0.48381490623E+03  0.95532761977E+02 0.  0.
        254    2    1    2    0    0  0.67416545022E+02  0.39277781341E+03 -0.27901118062E+04  0.29587584243E+04  0.90039331463E+03 0.  0.
        -24    2    4    4    0    0  0.42985157457E+03  0.70589287535E+01 -0.14895442772E+04  0.15523881609E+04  0.79653273363E+02 0.  0.
         24    2    4    4    0    0 -0.36243502955E+03  0.38571888466E+03 -0.13005675290E+04  0.14063702633E+04  0.79140454009E+02 0.  0.
         13    1    3    3    0    0 -0.57303295138E+01 -0.10494291233E+03 -0.11859233367E+03  0.15846133008E+03  0.00000000000E+00 0. -1.
        -13    1    3    3    0    0 -0.61686215509E+02 -0.28783490108E+03 -0.13856705975E+03  0.32535357615E+03  0.00000000000E+00 0.  1.
          4    1    6    6  502    0 -0.31941774071E+03  0.29658060335E+03 -0.10407114745E+04  0.11283032041E+04  0.00000000000E+00 0. -1.
          1    1    5    5  503    0  0.18496718440E+03  0.41237272693E+02 -0.61121829651E+03  0.63992279062E+03  0.00000000000E+00 0. -1.
         -2    1    5    5    0  503  0.24488439017E+03 -0.34178343940E+02 -0.87832598066E+03  0.91246537033E+03  0.00000000000E+00 0.  1.
         -3    1    6    6    0  502 -0.43017288835E+02  0.89138281307E+02 -0.25985605453E+03  0.27806705920E+03  0.00000000000E+00 0.  1.
<mgrwt>
<rscale>  0 0.16017020E+04</rscale>
<asrwt>0</asrwt>
<pdfrwt beam="1">  1        2 0.49921880E+00 0.16017020E+04</pdfrwt>
<pdfrwt beam="2">  1       -2 0.30407857E-01 0.16017020E+04</pdfrwt>
<totfact> 0.11715855E+01</totfact>
</mgrwt>
</event>
<event>
12    1  0.1495204E-007  0.1067491E+04  0.7818608E-02  0.9237470E-01
          1   -1    0    0  501    0  0.00000000000E+00  0.00000000000E+00  0.15196000374E+04  0.15196000374E+04  0.00000000000E+00 0. -1.
         -1   -1    0    0    0  501 -0.00000000000E+00 -0.00000000000E+00 -0.18747311410E+03  0.18747311410E+03  0.00000000000E+00 0.  1.
         23    2    1    2    0    0 -0.50913104022E+02 -0.30697211378E+02  0.40470304015E+03  0.41964855480E+03  0.93733109884E+02 0.  0.
        254    2    1    2    0    0  0.50913104022E+02  0.30697211378E+02  0.92742388315E+03  0.12874245967E+04  0.89096159863E+03 0.  0.
        -24    2    4    4    0    0  0.39240598164E+03 -0.19781744186E+03  0.31883337794E+03  0.54910277479E+03  0.82127581628E+02 0.  0.
         24    2    4    4    0    0 -0.34149287762E+03  0.22851465323E+03  0.60859050521E+03  0.73832182192E+03  0.76813914668E+02 0.  0.
         13    1    3    3    0    0 -0.21003506592E+02 -0.38916108906E+02  0.37183396266E+03  0.37445441193E+03  0.00000000000E+00 0. -1.
        -13    1    3    3    0    0 -0.29909597430E+02  0.82188975278E+01  0.32869077493E+02  0.45194142875E+02  0.00000000000E+00 0.  1.
          4    1    6    6  502    0 -0.24358717597E+03  0.16639878038E+03  0.49352354678E+03  0.57496848404E+03  0.00000000000E+00 0. -1.
          3    1    5    5  503    0  0.27002365956E+03 -0.17638746457E+03  0.23881917335E+03  0.40132270299E+03  0.00000000000E+00 0. -1.
         -4    1    5    5    0  503  0.12238232208E+03 -0.21429977291E+02  0.80014204593E+02  0.14778007180E+03  0.00000000000E+00 0.  1.
         -3    1    6    6    0  502 -0.97905701650E+02  0.62115872852E+02  0.11506695843E+03  0.16335333789E+03  0.00000000000E+00 0.  1.
<mgrwt>
<rscale>  0 0.10674908E+04</rscale>
<asrwt>0</asrwt>
<pdfrwt beam="1">  1        1 0.23378461E+00 0.10674908E+04</pdfrwt>
<pdfrwt beam="2">  1       -1 0.28842019E-01 0.10674908E+04</pdfrwt>
<totfact> 0.69207493E+01</totfact>
</mgrwt>
</event>
<event>
12    1  0.1495204E-007  0.1187696E+04  0.7818608E-02  0.9123695E-01
          2   -1    0    0  501    0  0.00000000000E+00  0.00000000000E+00  0.64967961028E+03  0.64967961028E+03  0.00000000000E+00 0. -1.
         -2   -1    0    0    0  501 -0.00000000000E+00 -0.00000000000E+00 -0.54281449555E+03  0.54281449555E+03  0.00000000000E+00 0.  1.
         23    2    1    2    0    0 -0.13962834900E+03  0.37983090156E+02  0.21390549892E+03  0.27369913677E+03  0.90646919524E+02 0.  0.
        254    2    1    2    0    0  0.13962834900E+03 -0.37983090156E+02 -0.10704038420E+03  0.91879496906E+03  0.90099265277E+03 0.  0.
        -24    2    4    4    0    0 -0.36603326321E+03 -0.12152045655E+03 -0.46850451551E+02  0.39674624997E+03  0.80405540313E+02 0.  0.
         24    2    4    4    0    0  0.50566161221E+03  0.83537366393E+02 -0.60189932649E+02  0.52204871909E+03  0.78992907690E+02 0.  0.
         13    1    3    3    0    0 -0.14379907000E+03  0.39320230884E+02  0.15654839149E+03  0.21617504936E+03  0.00000000000E+00 0. -1.
        -13    1    3    3    0    0  0.41707210027E+01 -0.13371407279E+01  0.57357107436E+02  0.57524087411E+02  0.00000000000E+00 0.  1.
          2    1    6    6  502    0  0.24336600592E+03  0.28427375353E+00 -0.26616839309E+02  0.24481738047E+03  0.00000000000E+00 0. -1.
          1    1    5    5  503    0 -0.26675251170E+03 -0.85441579114E+02 -0.69757970491E+02  0.28865782578E+03  0.00000000000E+00 0. -1.
         -4    1    5    5    0  503 -0.99280751519E+02 -0.36078877434E+02  0.22907518940E+02  0.10808842419E+03  0.00000000000E+00 0.  1.
         -1    1    6    6    0  502  0.26229560630E+03  0.83253092639E+02 -0.33573093340E+02  0.27723133862E+03  0.00000000000E+00 0.  1.
<mgrwt>
<rscale>  0 0.11876961E+04</rscale>
<asrwt>0</asrwt>
<pdfrwt beam="1">  1        2 0.99950709E-01 0.11876961E+04</pdfrwt>
<pdfrwt beam="2">  1       -2 0.83509922E-01 0.11876961E+04</pdfrwt>
<totfact> 0.55758735E+01</totfact>
</mgrwt>
</event>
<event>
12    1  0.1495204E-007  0.1337747E+04  0.7818608E-02  0.9000155E-01
          2   -1    0    0  501    0  0.00000000000E+00  0.00000000000E+00  0.38203375859E+03  0.38203375859E+03  0.00000000000E+00 0. -1.
         -2   -1    0    0    0  501 -0.00000000000E+00 -0.00000000000E+00 -0.11710795004E+04  0.11710795004E+04  0.00000000000E+00 0.  1.
         23    2    1    2    0    0  0.25346351301E+03  0.27268475490E+03 -0.47716284505E+03  0.61339187157E+03  0.99822239124E+02 0.  0.
        254    2    1    2    0    0 -0.25346351301E+03 -0.27268475490E+03 -0.31188289677E+03  0.93972138743E+03  0.80449028379E+03 0.  0.
        -24    2    4    4    0    0 -0.52679631410E+03 -0.24367067724E+03 -0.28884835236E+03  0.65320819191E+03  0.79735913019E+02 0.  0.
         24    2    4    4    0    0  0.27333280109E+03 -0.29014077664E+02 -0.23034544409E+02  0.28651319552E+03  0.77502155553E+02 0.  0.
         13    1    3    3    0    0  0.60640560595E+02  0.12987992892E+03 -0.14775193790E+03  0.20585603873E+03  0.00000000000E+00 0. -1.
        -13    1    3    3    0    0  0.19282295242E+03  0.14280482598E+03 -0.32941090715E+03  0.40753583284E+03  0.00000000000E+00 0.  1.
          2    1    6    6  502    0  0.25390936087E+03 -0.23313456255E+02  0.11434786433E+01  0.25497997632E+03  0.00000000000E+00 0. -1.
          3    1    5    5  503    0 -0.48150786253E+03 -0.21051048082E+03 -0.23585467651E+03  0.57601381289E+03  0.00000000000E+00 0. -1.
         -4    1    5    5    0  503 -0.45288451570E+02 -0.33160196422E+02 -0.52993675843E+02  0.77194379016E+02  0.00000000000E+00 0.  1.
         -1    1    6    6    0  502  0.19423440222E+02 -0.57006214090E+01 -0.24178023052E+02  0.31533219201E+02  0.00000000000E+00 0.  1.
<mgrwt>
<rscale>  0 0.13377472E+04</rscale>
<asrwt>0</asrwt>
<pdfrwt beam="1">  1        2 0.58774424E-01 0.13377472E+04</pdfrwt>
<pdfrwt beam="2">  1       -2 0.18016608E+00 0.13377472E+04</pdfrwt>
<totfact> 0.14789544E+01</totfact>
</mgrwt>
</event>
<event>
12    1  0.1495204E-007  0.1567787E+04  0.7818608E-02  0.8840586E-01
          2   -1    0    0  501    0  0.00000000000E+00  0.00000000000E+00  0.10185709279E+04  0.10185709279E+04  0.00000000000E+00 0. -1.
         -2   -1    0    0    0  501 -0.00000000000E+00 -0.00000000000E+00 -0.60328517258E+03  0.60328517258E+03  0.00000000000E+00 0.  1.
         23    2    1    2    0    0  0.28396189927E+03  0.26116243064E+03  0.50158189705E+03  0.63909803086E+03  0.89564045153E+02 0.  0.
        254    2    1    2    0    0 -0.28396189927E+03 -0.26116243064E+03 -0.86296141754E+02  0.98275806960E+03  0.89973675254E+03 0.  0.
        -24    2    4    4    0    0  0.10432466137E+03  0.16847700069E+03 -0.29307883125E+03  0.36261703416E+03  0.79547328085E+02 0.  0.
         24    2    4    4    0    0 -0.38828656063E+03 -0.42963943133E+03  0.20678268949E+03  0.62014103545E+03  0.80369951182E+02 0.  0.
         13    1    3    3    0    0  0.39511790101E+02  0.19213320053E+02  0.22561492979E+02  0.49389818687E+02  0.00000000000E+00 0.  1.
        -13    1    3    3    0    0  0.24445010917E+03  0.24194911058E+03  0.47902040408E+03  0.58970821217E+03  0.00000000000E+00 0. -1.
          4    1    6    6  502    0 -0.38799131017E+03 -0.43235896410E+03  0.20814304658E+03  0.61708594089E+03  0.00000000000E+00 0. -1.
          1    1    5    5  503    0  0.10222500301E+03  0.16627810319E+03 -0.23955267677E+03  0.30900460157E+03  0.00000000000E+00 0. -1.
         -2    1    5    5    0  503  0.20996583563E+01  0.21988975005E+01 -0.53526154476E+02  0.53612432592E+02  0.00000000000E+00 0.  1.
         -3    1    6    6    0  502 -0.29525046357E+00  0.27195327740E+01 -0.13603570874E+01  0.30550945567E+01  0.00000000000E+00 0.  1.
<mgrwt>
<rscale>  0 0.15677866E+04</rscale>
<asrwt>0</asrwt>
<pdfrwt beam="1">  1        2 0.15670322E+00 0.15677866E+04</pdfrwt>
<pdfrwt beam="2">  1       -2 0.92813103E-01 0.15677866E+04</pdfrwt>
<totfact> 0.23187743E+01</totfact>
</mgrwt>
</event>
<event>
12    1  0.1495204E-007  0.2064630E+04  0.7818608E-02  0.8576986E-01
         -1   -1    0    0    0  501 -0.00000000000E+00  0.00000000000E+00  0.89020246311E+03  0.89020246311E+03  0.00000000000E+00 0.  1.
          1   -1    0    0  501    0  0.00000000000E+00 -0.00000000000E+00 -0.11971147058E+04  0.11971147058E+04  0.00000000000E+00 0. -1.
         23    2    1    2    0    0  0.62072544850E+03 -0.51010778346E+03  0.98086032368E+02  0.81493501877E+03  0.94806022604E+02 0.  0.
        254    2    1    2    0    0 -0.62072544850E+03  0.51010778346E+03 -0.40499827507E+03  0.12723821502E+04  0.89967922065E+03 0.  0.
        -24    2    4    4    0    0 -0.25170666125E+03 -0.24348946488E+03 -0.17990205933E+03  0.39993059214E+03  0.70259268090E+02 0.  0.
         24    2    4    4    0    0 -0.36901878725E+03  0.75359724834E+03 -0.22509621574E+03  0.87245155802E+03  0.80123259379E+02 0.  0.
         11    1    3    3    0    0  0.62001907265E+03 -0.50155954148E+03  0.88996757085E+02  0.80243756572E+03  0.00000000000E+00 0.  1.
        -11    1    3    3    0    0  0.70637584600E+00 -0.85482419788E+01  0.90892752837E+01  0.12497453058E+02  0.00000000000E+00 0. -1.
          2    1    6    6  502    0 -0.21999995550E+02  0.88312432391E+02 -0.81908011827E+01  0.91379290559E+02  0.00000000000E+00 0. -1.
          3    1    5    5  503    0 -0.61734234088E+02 -0.85884874190E+02 -0.84190826454E+02  0.13518662113E+03  0.00000000000E+00 0. -1.
         -4    1    5    5    0  503 -0.18997242716E+03 -0.15760459069E+03 -0.95711232880E+02  0.26474397101E+03  0.00000000000E+00 0.  1.
         -1    1    6    6    0  502 -0.34701879170E+03  0.66528481595E+03 -0.21690541456E+03  0.78107226746E+03  0.00000000000E+00 0.  1.
<mgrwt>
<rscale>  0 0.20646302E+04</rscale>
<asrwt>0</asrwt>
<pdfrwt beam="1">  1        1 0.18417149E+00 0.20646302E+04</pdfrwt>
<pdfrwt beam="2">  1       -1 0.13695423E+00 0.20646302E+04</pdfrwt>
<totfact> 0.43974520E+00</totfact>
</mgrwt>
</event>
<event>
12    1  0.1495204E-007  0.2485417E+04  0.7818608E-02  0.8408199E-01
          1   -1    0    0  501    0  0.00000000000E+00  0.00000000000E+00  0.11395517015E+04  0.11395517015E+04  0.00000000000E+00 0. -1.
         -1   -1    0    0    0  501 -0.00000000000E+00 -0.00000000000E+00 -0.13552033542E+04  0.13552033542E+04  0.00000000000E+00 0.  1.
         23    2    1    2    0    0 -0.10809865582E+03  0.51815449187E+03 -0.10407820824E+04  0.11711673644E+04  0.90753818621E+02 0.  0.
        254    2    1    2    0    0  0.10809865582E+03 -0.51815449187E+03  0.82513042971E+03  0.13235876912E+04  0.88931139290E+03 0.  0.
        -24    2    4    4    0    0  0.35181386664E+03 -0.51736019753E+03  0.22253159686E+03  0.66872187870E+03  0.78956118840E+02 0.  0.
         24    2    4    4    0    0 -0.24371521082E+03 -0.79429433689E+00  0.60259883285E+03  0.65486581254E+03  0.79537061766E+02 0.  0.
         13    1    3    3    0    0 -0.10059626347E+03  0.27845730829E+03 -0.61285357899E+03  0.68062294263E+03  0.00000000000E+00 0.  1.
        -13    1    3    3    0    0 -0.75023923531E+01  0.23969718358E+03 -0.42792850339E+03  0.49054442176E+03  0.00000000000E+00 0. -1.
          4    1    6    6  502    0 -0.28796084287E+02  0.26605777537E+02  0.10793973947E+03  0.11483931916E+03  0.00000000000E+00 0. -1.
          3    1    5    5  503    0  0.10331614880E+03 -0.16123944052E+03  0.10700079916E+03  0.21936625721E+03  0.00000000000E+00 0. -1.
         -4    1    5    5    0  503  0.24849771784E+03 -0.35612075701E+03  0.11553079769E+03  0.44935562149E+03  0.00000000000E+00 0.  1.
         -1    1    6    6    0  502 -0.21491912653E+03 -0.27400071874E+02  0.49465909338E+03  0.54002649338E+03  0.00000000000E+00 0.  1.
<mgrwt>
<rscale>  0 0.24854169E+04</rscale>
<asrwt>0</asrwt>
<pdfrwt beam="1">  1        1 0.17531565E+00 0.24854169E+04</pdfrwt>
<pdfrwt beam="2">  1       -1 0.20849282E+00 0.24854169E+04</pdfrwt>
<totfact> 0.13865759E+00</totfact>
</mgrwt>
</event>
<event>
12    1  0.1495204E-007  0.2663305E+04  0.7818608E-02  0.8347010E-01
          1   -1    0    0  501    0  0.00000000000E+00  0.00000000000E+00  0.29341647267E+04  0.29341647267E+04  0.00000000000E+00 0. -1.
         -1   -1    0    0    0  501 -0.00000000000E+00 -0.00000000000E+00 -0.60436225877E+03  0.60436225877E+03  0.00000000000E+00 0.  1.
         23    2    1    2    0    0 -0.10834136155E+04  0.29436433103E+03  0.55787186471E+03  0.12569724531E+04  0.91232169847E+02 0.  0.
        254    2    1    2    0    0  0.10834136155E+04 -0.29436433103E+03  0.17719306032E+04  0.22815545324E+04  0.89739489643E+03 0.  0.
        -24    2    4    4    0    0  0.34470780436E+03  0.22742564682E+03  0.19889032455E+03  0.46536389826E+03  0.80376000062E+02 0.  0.
         24    2    4    4    0    0  0.73870581110E+03 -0.52178997785E+03  0.15730402786E+04  0.18161906341E+04  0.78368647349E+02 0.  0.
         13    1    3    3    0    0 -0.63477589944E+03  0.14973686554E+03  0.27972663663E+03  0.70965383297E+03  0.00000000000E+00 0. -1.
        -13    1    3    3    0    0 -0.44863771601E+03  0.14462746549E+03  0.27814522809E+03  0.54731862010E+03  0.00000000000E+00 0.  1.
          4    1    6    6  502    0  0.64902195023E+03 -0.42485859498E+03  0.13488107414E+04  0.15559642457E+04  0.00000000000E+00 0. -1.
          3    1    5    5  503    0  0.33709655416E+03  0.21869695645E+03  0.17393772069E+03  0.43785474334E+03  0.00000000000E+00 0. -1.
         -2    1    5    5    0  503  0.76112501987E+01  0.87286903730E+01  0.24952603853E+02  0.27509154917E+02  0.00000000000E+00 0.  1.
         -3    1    6    6    0  502  0.89683860871E+02 -0.96931382870E+02  0.22422953721E+03  0.26022638845E+03  0.00000000000E+00 0.  1.
<mgrwt>
<rscale>  0 0.26633050E+04</rscale>
<asrwt>0</asrwt>
<pdfrwt beam="1">  1        1 0.45140995E+00 0.26633050E+04</pdfrwt>
<pdfrwt beam="2">  1       -1 0.92978811E-01 0.26633050E+04</pdfrwt>
<totfact> 0.65660801E-01</totfact>
</mgrwt>
</event>
<event>
12    1  0.1673309E-007  0.2254731E+04  0.7818608E-02  0.8495987E-01
         -1   -1    0    0    0  501 -0.00000000000E+00  0.00000000000E+00  0.64614880390E+03  0.64614880390E+03  0.00000000000E+00 0.  1.
          1   -1    0    0  501    0  0.00000000000E+00 -0.00000000000E+00 -0.19669657205E+04  0.19669657205E+04  0.00000000000E+00 0. -1.
         23    2    1    2    0    0  0.61800947793E+03  0.65459689622E+03 -0.21967699860E+03  0.93129904869E+03  0.92882307306E+02 0.  0.
        254    2    1    2    0    0 -0.61800947793E+03 -0.65459689622E+03 -0.11011399180E+04  0.16818154757E+04  0.89753070361E+03 0.  0.
        -24    2    4    4    0    0 -0.41980456832E+03 -0.38576684734E+03 -0.11946076318E+04  0.13260186121E+04  0.78651315406E+02 0.  0.
         24    2    4    4    0    0 -0.19820490961E+03 -0.26883004889E+03  0.93467713886E+02  0.35579686360E+03  0.79375142374E+02 0.  0.
         13    1    3    3    0    0  0.17859583254E+03  0.21435578716E+03 -0.27913387147E+02  0.28039977188E+03  0.00000000000E+00 0.  1.
        -13    1    3    3    0    0  0.43941364539E+03  0.44024110906E+03 -0.19176361145E+03  0.65089927680E+03  0.00000000000E+00 0. -1.
          2    1    6    6  502    0 -0.19373126986E+03 -0.24865896371E+03  0.67071048212E+02  0.32227567494E+03  0.00000000000E+00 0. -1.
          1    1    5    5  503    0 -0.34165748673E+03 -0.28015140817E+03 -0.96825695099E+03  0.10643007906E+04  0.00000000000E+00 0. -1.
         -2    1    5    5    0  503 -0.78147081592E+02 -0.10561543916E+03 -0.22635068085E+03  0.26171782146E+03  0.00000000000E+00 0.  1.
         -1    1    6    6    0  502 -0.44736397556E+01 -0.20171085183E+02  0.26396665675E+02  0.33521188655E+02  0.00000000000E+00 0.  1.
<mgrwt>
<rscale>  0 0.22547306E+04</rscale>
<asrwt>0</asrwt>
<pdfrwt beam="1">  1        1 0.30261011E+00 0.22547306E+04</pdfrwt>
<pdfrwt beam="2">  1       -1 0.99407509E-01 0.22547306E+04</pdfrwt>
<totfact> 0.27505637E+00</totfact>
</mgrwt>
</event>
<event>
12    1  0.1495204E-007  0.3270710E+04  0.7818608E-02  0.8170389E-01
         -2   -1    0    0    0  501 -0.00000000000E+00  0.00000000000E+00  0.72506678407E+03  0.72506678407E+03  0.00000000000E+00 0. -1.
          2   -1    0    0  501    0  0.00000000000E+00 -0.00000000000E+00 -0.36884674831E+04  0.36884674831E+04  0.00000000000E+00 0.  1.
         23    2    1    2    0    0 -0.34409843414E+03 -0.21859933935E+03  0.59195067632E+03  0.72408899419E+03  0.87805835638E+02 0.  0.
        254    2    1    2    0    0  0.34409843414E+03  0.21859933935E+03 -0.35553513753E+04  0.36894452729E+04  0.89738153343E+03 0.  0.
        -24    2    4    4    0    0  0.27767364951E+02  0.47533682627E+03 -0.26506096574E+04  0.26942181929E+04  0.79774619411E+02 0.  0.
         24    2    4    4    0    0  0.31633106919E+03 -0.25673748692E+03 -0.90474171791E+03  0.99522708007E+03  0.77070631598E+02 0.  0.
         13    1    3    3    0    0 -0.25657906315E+03 -0.19881445491E+03  0.49553500089E+03  0.59238073925E+03  0.00000000000E+00 0. -1.
        -13    1    3    3    0    0 -0.87519370993E+02 -0.19784884439E+02  0.96415675430E+02  0.13170825494E+03  0.00000000000E+00 0.  1.
          4    1    6    6  502    0  0.31110764504E+03 -0.23267913199E+03 -0.82751068465E+03  0.91416709549E+03  0.00000000000E+00 0. -1.
          1    1    5    5  503    0  0.52161561764E+02  0.35211523418E+03 -0.20399081990E+04  0.20707320992E+04  0.00000000000E+00 0. -1.
         -2    1    5    5    0  503 -0.24394196813E+02  0.12322159209E+03 -0.61070145846E+03  0.62348609364E+03  0.00000000000E+00 0.  1.
         -3    1    6    6    0  502  0.52234241470E+01 -0.24058354929E+02 -0.77231033260E+02  0.81059984580E+02  0.00000000000E+00 0.  1.
<mgrwt>
<rscale>  0 0.32707096E+04</rscale>
<asrwt>0</asrwt>
<pdfrwt beam="1">  1        2 0.56745654E+00 0.32707096E+04</pdfrwt>
<pdfrwt beam="2">  1       -2 0.11154874E+00 0.32707096E+04</pdfrwt>
<totfact> 0.31598449E-01</totfact>
</mgrwt>
</event>
<event>
12    1  0.1495204E-007  0.1274849E+04  0.7818608E-02  0.9049751E-01
         -1   -1    0    0    0  501 -0.00000000000E+00  0.00000000000E+00  0.12929851958E+03  0.12929851958E+03  0.00000000000E+00 0.  1.
          1   -1    0    0  501    0  0.00000000000E+00 -0.00000000000E+00 -0.31424204418E+04  0.31424204418E+04  0.00000000000E+00 0. -1.
         23    2    1    2    0    0  0.79713085620E+02 -0.19346762972E+03 -0.13257904076E+04  0.13453070688E+04  0.91361943640E+02 0.  0.
        254    2    1    2    0    0 -0.79713085620E+02  0.19346762972E+03 -0.16873315147E+04  0.19264118926E+04  0.90564410222E+03 0.  0.
        -24    2    4    4    0    0 -0.44911129987E+03  0.14636535751E+03 -0.12848990638E+04  0.13713110073E+04  0.80028101541E+02 0.  0.
         24    2    4    4    0    0  0.36939821425E+03  0.47102272203E+02 -0.40243245089E+03  0.55510088535E+03  0.86668625521E+02 0.  0.
         13    1    3    3    0    0  0.33639676705E+02 -0.17016642866E+03 -0.11069790592E+04  0.11204868937E+04  0.00000000000E+00 0. -1.
        -13    1    3    3    0    0  0.46073408914E+02 -0.23301201060E+02 -0.21881134833E+03  0.22482017512E+03  0.00000000000E+00 0.  1.
          4    1    6    6  502    0  0.36715609634E+03  0.55550171080E+02 -0.40048144875E+03  0.54614541230E+03  0.00000000000E+00 0. -1.
          1    1    5    5  503    0 -0.43888516337E+03  0.12983670120E+03 -0.12527986990E+04  0.13337849661E+04  0.00000000000E+00 0. -1.
         -2    1    5    5    0  503 -0.10226136494E+02  0.16528656312E+02 -0.32100364823E+02  0.37526041209E+02  0.00000000000E+00 0.  1.
         -1    1    6    6    0  502  0.22421179081E+01 -0.84478988776E+01 -0.19510021432E+01  0.89554730485E+01  0.00000000000E+00 0.  1.
<mgrwt>
<rscale>  0 0.12748495E+04</rscale>
<asrwt>0</asrwt>
<pdfrwt beam="1">  1        1 0.48344925E+00 0.12748495E+04</pdfrwt>
<pdfrwt beam="2">  1       -1 0.19892082E-01 0.12748495E+04</pdfrwt>
<totfact> 0.96596833E+00</totfact>
</mgrwt>
</event>
<event>
12    1  0.1495204E-007  0.1950159E+04  0.7818608E-02  0.8630284E-01
         -2   -1    0    0    0  501 -0.00000000000E+00  0.00000000000E+00  0.64943041094E+03  0.64943041094E+03  0.00000000000E+00 0.  1.
          2   -1    0    0  501    0  0.00000000000E+00 -0.00000000000E+00 -0.14640209466E+04  0.14640209466E+04  0.00000000000E+00 0. -1.
         23    2    1    2    0    0  0.62973936480E+03 -0.33555483959E+03 -0.10278065512E+02  0.71912655132E+03  0.88705356254E+02 0.  0.
        254    2    1    2    0    0 -0.62973936480E+03  0.33555483959E+03 -0.80431247017E+03  0.13943248062E+04  0.88772428022E+03 0.  0.
        -24    2    4    4    0    0  0.20445637093E+03 -0.16978166565E+02 -0.90147707621E+02  0.23818807521E+03  0.80723504820E+02 0.  0.
         24    2    4    4    0    0 -0.83419573573E+03  0.35253300616E+03 -0.71416476255E+03  0.11561367310E+04  0.80366577945E+02 0.  0.
         13    1    3    3    0    0  0.14093159470E+03 -0.61035039724E+02 -0.36628976798E+02  0.15788816422E+03  0.00000000000E+00 0. -1.
        -13    1    3    3    0    0  0.48880777010E+03 -0.27451979987E+03  0.26350911286E+02  0.56123838710E+03  0.00000000000E+00 0.  1.
          2    1    6    6  502    0 -0.53816981607E+03  0.24553577024E+03 -0.42163129969E+03  0.72642103375E+03  0.00000000000E+00 0. -1.
          3    1    5    5  503    0  0.75529371219E+02  0.15803966401E+02 -0.68946397478E+02  0.10347974196E+03  0.00000000000E+00 0. -1.
         -4    1    5    5    0  503  0.12892699971E+03 -0.32782132966E+02 -0.21201310143E+02  0.13470833325E+03  0.00000000000E+00 0.  1.
         -1    1    6    6    0  502 -0.29602591966E+03  0.10699723592E+03 -0.29253346286E+03  0.42971569729E+03  0.00000000000E+00 0.  1.
<mgrwt>
<rscale>  0 0.19501587E+04</rscale>
<asrwt>0</asrwt>
<pdfrwt beam="1">  1        2 0.22523399E+00 0.19501587E+04</pdfrwt>
<pdfrwt beam="2">  1       -2 0.99912372E-01 0.19501587E+04</pdfrwt>
<totfact> 0.10273219E+01</totfact>
</mgrwt>
</event>
<event>
12    1  0.1495204E-007  0.2771036E+04  0.7818608E-02  0.8312317E-01
         -2   -1    0    0    0  501 -0.00000000000E+00  0.00000000000E+00  0.19086000973E+04  0.19086000973E+04  0.00000000000E+00 0.  1.
          2   -1    0    0  501    0  0.00000000000E+00 -0.00000000000E+00 -0.10057945307E+04  0.10057945307E+04  0.00000000000E+00 0. -1.
         23    2    1    2    0    0 -0.71846298196E+02 -0.79077052008E+03  0.13704099210E+04  0.15865499855E+04  0.92938683086E+02 0.  0.
        254    2    1    2    0    0  0.71846298196E+02  0.79077052008E+03 -0.46760435435E+03  0.13278446425E+04  0.95605316610E+03 0.  0.
        -24    2    4    4    0    0  0.28896662807E+03  0.91455093029E+03 -0.45674219568E+03  0.10652845066E+04  0.79451435072E+02 0.  0.
         24    2    4    4    0    0 -0.21712032987E+03 -0.12378041021E+03 -0.10862158667E+02  0.26256013586E+03  0.79730865147E+02 0.  0.
         13    1    3    3    0    0 -0.90534309987E+02 -0.66867362498E+03  0.11878710723E+04  0.13661473429E+04  0.00000000000E+00 0.  1.
        -13    1    3    3    0    0  0.18688011790E+02 -0.12209689510E+03  0.18253884871E+03  0.22040264260E+03  0.00000000000E+00 0. -1.
          2    1    6    6  502    0 -0.95558625117E+02 -0.99748736069E+02 -0.11845164799E+02  0.13864187358E+03  0.00000000000E+00 0. -1.
          1    1    5    5  503    0  0.23407370062E+03  0.73886140542E+03 -0.40282861246E+03  0.87348586981E+03  0.00000000000E+00 0. -1.
         -2    1    5    5    0  503  0.54892927449E+02  0.17568952488E+03 -0.53913583220E+02  0.19179863683E+03  0.00000000000E+00 0.  1.
         -1    1    6    6    0  502 -0.12156170475E+03 -0.24031674142E+02  0.98300613201E+00  0.12391826228E+03  0.00000000000E+00 0.  1.
<mgrwt>
<rscale>  0 0.27710356E+04</rscale>
<asrwt>0</asrwt>
<pdfrwt beam="1">  1        2 0.15473762E+00 0.27710356E+04</pdfrwt>
<pdfrwt beam="2">  1       -2 0.29363078E+00 0.27710356E+04</pdfrwt>
<totfact> 0.75729899E-01</totfact>
</mgrwt>
</event>
<event>
12    1  0.1495204E-007  0.1289433E+04  0.7818608E-02  0.9037987E-01
         -1   -1    0    0    0  501 -0.00000000000E+00  0.00000000000E+00  0.10363398225E+04  0.10363398225E+04  0.00000000000E+00 0.  1.
          1   -1    0    0  501    0  0.00000000000E+00 -0.00000000000E+00 -0.40108402694E+03  0.40108402694E+03  0.00000000000E+00 0. -1.
         23    2    1    2    0    0 -0.79792079642E+02 -0.21887349909E+03  0.42859536537E+03  0.49607747436E+03  0.90147039734E+02 0.  0.
        254    2    1    2    0    0  0.79792079642E+02  0.21887349909E+03  0.20666043023E+03  0.94134637512E+03  0.88834232137E+03 0.  0.
        -24    2    4    4    0    0  0.27351091303E+02  0.22209458238E+03  0.54274863154E+03  0.59242519148E+03  0.79482354927E+02 0.  0.
         24    2    4    4    0    0  0.52440988339E+02 -0.32210832939E+01 -0.33608820131E+03  0.34892118364E+03  0.77654881994E+02 0.  0.
         11    1    3    3    0    0 -0.52034185421E+02 -0.84702385481E+02  0.10459819079E+03  0.14430118529E+03  0.00000000000E+00 0.  1.
        -11    1    3    3    0    0 -0.27757894221E+02 -0.13417111361E+03  0.32399717457E+03  0.35177628907E+03  0.00000000000E+00 0. -1.
          2    1    6    6  502    0 -0.24351874729E+01 -0.31649789435E+02 -0.12541465412E+03  0.12936952801E+03  0.00000000000E+00 0. -1.
          3    1    5    5  503    0  0.17403714010E+02  0.45367254425E+02  0.54165136346E+02  0.72766331712E+02  0.00000000000E+00 0. -1.
         -4    1    5    5    0  503  0.99473772936E+01  0.17672732796E+03  0.48858349519E+03  0.51965885977E+03  0.00000000000E+00 0.  1.
         -1    1    6    6    0  502  0.54876175812E+02  0.28428706141E+02 -0.21067354718E+03  0.21955165563E+03  0.00000000000E+00 0.  1.
<mgrwt>
<rscale>  0 0.12894330E+04</rscale>
<asrwt>0</asrwt>
<pdfrwt beam="1">  1        1 0.61705235E-01 0.12894330E+04</pdfrwt>
<pdfrwt beam="2">  1       -1 0.15943689E+00 0.12894330E+04</pdfrwt>
<totfact> 0.17348164E+01</totfact>
</mgrwt>
</event>
<event>
12    1  0.1495204E-007  0.2144993E+04  0.7818608E-02  0.8541678E-01
          1   -1    0    0  501    0  0.00000000000E+00  0.00000000000E+00  0.34684865275E+04  0.34684865275E+04  0.00000000000E+00 0. -1.
         -1   -1    0    0    0  501 -0.00000000000E+00 -0.00000000000E+00 -0.33162857322E+03  0.33162857322E+03  0.00000000000E+00 0.  1.
         23    2    1    2    0    0  0.43530561537E+03 -0.69461199608E+03  0.72199344478E+03  0.10969641701E+04  0.10039448319E+03 0.  0.
        254    2    1    2    0    0 -0.43530561537E+03  0.69461199608E+03  0.24148645095E+04  0.27031509306E+04  0.89636909289E+03 0.  0.
        -24    2    4    4    0    0 -0.65531649029E+03  0.28762450048E+03  0.17202764689E+04  0.18647995909E+04  0.77193451743E+02 0.  0.
         24    2    4    4    0    0  0.22001087492E+03  0.40698749561E+03  0.69458804059E+03  0.83835133974E+03  0.79604120854E+02 0.  0.
         13    1    3    3    0    0  0.33515792759E+03 -0.46126666022E+03  0.46582883285E+03  0.73627051399E+03  0.00000000000E+00 0. -1.
        -13    1    3    3    0    0  0.10014768778E+03 -0.23334533586E+03  0.25616461194E+03  0.36069365609E+03  0.00000000000E+00 0.  1.
          4    1    6    6  502    0  0.13289971216E+02  0.53125326938E+02  0.47970543520E+02  0.72801763322E+02  0.00000000000E+00 0. -1.
          1    1    5    5  503    0 -0.57600674179E+02  0.36740824854E+02  0.11783055587E+03  0.13620486693E+03  0.00000000000E+00 0. -1.
         -2    1    5    5    0  503 -0.59771581611E+03  0.25088367562E+03  0.16024459130E+04  0.17285947239E+04  0.00000000000E+00 0.  1.
         -3    1    6    6    0  502  0.20672090371E+03  0.35386216867E+03  0.64661749707E+03  0.76554957642E+03  0.00000000000E+00 0.  1.
<mgrwt>
<rscale>  0 0.21449935E+04</rscale>
<asrwt>0</asrwt>
<pdfrwt beam="1">  1        1 0.53361329E+00 0.21449935E+04</pdfrwt>
<pdfrwt beam="2">  1       -1 0.51019783E-01 0.21449935E+04</pdfrwt>
<totfact> 0.93887104E-01</totfact>
</mgrwt>
</event>
<event>
12    1  0.1495204E-007  0.1516056E+04  0.7818608E-02  0.8873846E-01
         -1   -1    0    0    0  501 -0.00000000000E+00  0.00000000000E+00  0.58088726325E+03  0.58088726325E+03  0.00000000000E+00 0.  1.
          1   -1    0    0  501    0  0.00000000000E+00 -0.00000000000E+00 -0.98918732148E+03  0.98918732148E+03  0.00000000000E+00 0. -1.
         23    2    1    2    0    0 -0.32845426195E+03  0.17559110493E+03  0.18311614204E+03  0.42518349548E+03  0.92385307435E+02 0.  0.
        254    2    1    2    0    0  0.32845426195E+03 -0.17559110493E+03 -0.59141620026E+03  0.11448910893E+04  0.90680099581E+03 0.  0.
        -24    2    4    4    0    0 -0.10534494253E+03  0.30114375503E+03 -0.23203318704E+03  0.40250966632E+03  0.79934432382E+02 0.  0.
         24    2    4    4    0    0  0.43379920448E+03 -0.47673485996E+03 -0.35938301323E+03  0.74238142294E+03  0.80722676054E+02 0.  0.
         13    1    3    3    0    0 -0.31907466041E+03  0.14638144657E+03  0.15566160223E+03  0.38401393364E+03  0.00000000000E+00 0.  1.
        -13    1    3    3    0    0 -0.93796015356E+01  0.29209658352E+02  0.27454539808E+02  0.41169561840E+02  0.00000000000E+00 0. -1.
          4    1    6    6  502    0  0.30452695001E+03 -0.32576481238E+03 -0.28965279505E+03  0.53175005214E+03  0.00000000000E+00 0. -1.
          3    1    5    5  503    0 -0.74037946131E+02  0.25004606003E+03 -0.14974270836E+03  0.30071170298E+03  0.00000000000E+00 0. -1.
         -4    1    5    5    0  503 -0.31306996398E+02  0.51097695005E+02 -0.82290478680E+02  0.10179796334E+03  0.00000000000E+00 0.  1.
         -3    1    6    6    0  502  0.12927225446E+03 -0.15097004757E+03 -0.69730218180E+02  0.21063137080E+03  0.00000000000E+00 0.  1.
<mgrwt>
<rscale>  0 0.15160558E+04</rscale>
<asrwt>0</asrwt>
<pdfrwt beam="1">  1        1 0.15218266E+00 0.15160558E+04</pdfrwt>
<pdfrwt beam="2">  1       -1 0.89367273E-01 0.15160558E+04</pdfrwt>
<totfact> 0.18293391E+01</totfact>
</mgrwt>
</event>
<event>
12    1  0.1495204E-007  0.1235962E+04  0.7818608E-02  0.9081948E-01
         -1   -1    0    0    0  501 -0.00000000000E+00  0.00000000000E+00  0.83163124096E+03  0.83163124096E+03  0.00000000000E+00 0.  1.
          1   -1    0    0  501    0  0.00000000000E+00 -0.00000000000E+00 -0.45921879654E+03  0.45921879654E+03  0.00000000000E+00 0. -1.
         23    2    1    2    0    0 -0.17858530280E+03 -0.38608392842E+01  0.35232608150E+03  0.40501118941E+03  0.89402345554E+02 0.  0.
        254    2    1    2    0    0  0.17858530280E+03  0.38608392842E+01  0.20086362917E+02  0.88583884808E+03  0.86740958396E+03 0.  0.
        -24    2    4    4    0    0  0.18588312670E+03 -0.79986462184E+02 -0.39692890357E+03  0.45298946300E+03  0.81832317405E+02 0.  0.
         24    2    4    4    0    0 -0.72978239031E+01  0.83847301468E+02  0.41701526649E+03  0.43284938509E+03  0.79832508955E+02 0.  0.
         13    1    3    3    0    0  0.52472397914E-01 -0.18302561702E+02  0.17961781339E+02  0.25643948742E+02  0.00000000000E+00 0. -1.
        -13    1    3    3    0    0 -0.17863777520E+03  0.14441722418E+02  0.33436430016E+03  0.37936724067E+03  0.00000000000E+00 0.  1.
          2    1    6    6  502    0 -0.17554236918E+02  0.11298273535E+02  0.24488903727E+03  0.24577722188E+03  0.00000000000E+00 0. -1.
          3    1    5    5  503    0  0.14004694245E+03 -0.56529847983E+02 -0.35764576485E+03  0.38822578858E+03  0.00000000000E+00 0. -1.
         -4    1    5    5    0  503  0.45836184248E+02 -0.23456614200E+02 -0.39283138719E+02  0.64763674416E+02  0.00000000000E+00 0.  1.
         -1    1    6    6    0  502  0.10256413015E+02  0.72549027933E+02  0.17212622922E+03  0.18707216321E+03  0.00000000000E+00 0.  1.
<mgrwt>
<rscale>  0 0.12359623E+04</rscale>
<asrwt>0</asrwt>
<pdfrwt beam="1">  1        1 0.70649046E-01 0.12359623E+04</pdfrwt>
<pdfrwt beam="2">  1       -1 0.12794327E+00 0.12359623E+04</pdfrwt>
<totfact> 0.25968948E+01</totfact>
</mgrwt>
</event>
<event>
12    1  0.1495204E-007  0.1601859E+04  0.7818608E-02  0.8819407E-01
         -2   -1    0    0    0  501 -0.00000000000E+00  0.00000000000E+00  0.21381206332E+03  0.21381206332E+03  0.00000000000E+00 0.  1.
          2   -1    0    0  501    0  0.00000000000E+00 -0.00000000000E+00 -0.30002417437E+04  0.30002417437E+04  0.00000000000E+00 0. -1.
         23    2    1    2    0    0 -0.43970581994E+03 -0.10994481587E+03 -0.36393670990E+03  0.58864512381E+03  0.92865937491E+02 0.  0.
        254    2    1    2    0    0  0.43970581994E+03  0.10994481587E+03 -0.24224929705E+04  0.26254086832E+04  0.90491407945E+03 0.  0.
        -24    2    4    4    0    0  0.29169943511E+03 -0.30643619515E+03 -0.18416183680E+04  0.18913188089E+04  0.80851230318E+02 0.  0.
         24    2    4    4    0    0  0.14800638483E+03  0.41638101101E+03 -0.58087460247E+03  0.73408987428E+03  0.78699450129E+02 0.  0.
         11    1    3    3    0    0 -0.15965974911E+03 -0.23021672573E+02 -0.18362290077E+03  0.24441481662E+03  0.00000000000E+00 0. -1.
        -11    1    3    3    0    0 -0.28004607083E+03 -0.86923143293E+02 -0.18031380913E+03  0.34423030719E+03  0.00000000000E+00 0.  1.
          2    1    6    6  502    0  0.59246539630E+02  0.10429355957E+03 -0.11354058602E+03  0.16516283994E+03  0.00000000000E+00 0. -1.
          1    1    5    5  503    0  0.12528927920E+03 -0.79544003041E+02 -0.57755147445E+03  0.59631397564E+03  0.00000000000E+00 0. -1.
         -2    1    5    5    0  503  0.16641015591E+03 -0.22689219211E+03 -0.12640668935E+04  0.12950048333E+04  0.00000000000E+00 0.  1.
         -1    1    6    6    0  502  0.88759845199E+02  0.31208745145E+03 -0.46733401645E+03  0.56892703434E+03  0.00000000000E+00 0.  1.
<mgrwt>
<rscale>  0 0.16018588E+04</rscale>
<asrwt>0</asrwt>
<pdfrwt beam="1">  1        2 0.46157561E+00 0.16018588E+04</pdfrwt>
<pdfrwt beam="2">  1       -2 0.32894167E-01 0.16018588E+04</pdfrwt>
<totfact> 0.14475476E+01</totfact>
</mgrwt>
</event>
<event>
12    1  0.1495204E-007  0.1776631E+04  0.7818608E-02  0.8718827E-01
          2   -1    0    0  501    0  0.00000000000E+00  0.00000000000E+00  0.39520218953E+04  0.39520218953E+04  0.00000000000E+00 0. -1.
         -2   -1    0    0    0  501 -0.00000000000E+00 -0.00000000000E+00 -0.19967104282E+03  0.19967104282E+03  0.00000000000E+00 0.  1.
         23    2    1    2    0    0 -0.15377180880E+03  0.61306020581E+03  0.17739409437E+04  0.18851874897E+04  0.87044900763E+02 0.  0.
        254    2    1    2    0    0  0.15377180880E+03 -0.61306020581E+03  0.19784099089E+04  0.22665054484E+04  0.90744288805E+03 0.  0.
        -24    2    4    4    0    0 -0.32019327894E+03 -0.39715672715E+02  0.85221774183E+03  0.91448833834E+03  0.76894544208E+02 0.  0.
         24    2    4    4    0    0  0.47396508775E+03 -0.57334453309E+03  0.11261921670E+04  0.13520171101E+04  0.79212441035E+02 0.  0.
         11    1    3    3    0    0 -0.80015364857E+00  0.15537192321E+03  0.44391563060E+03  0.47032133893E+03  0.00000000000E+00 0.  1.
        -11    1    3    3    0    0 -0.15297165516E+03  0.45768828260E+03  0.13300253131E+04  0.14148661508E+04  0.00000000000E+00 0. -1.
          4    1    6    6  502    0  0.38012735805E+03 -0.43894151574E+03  0.92964111449E+03  0.10960835116E+04  0.00000000000E+00 0. -1.
          1    1    5    5  503    0 -0.29747968679E+03 -0.22101330143E+02  0.72314685555E+03  0.78225571749E+03  0.00000000000E+00 0. -1.
         -2    1    5    5    0  503 -0.22713592153E+02 -0.17614342572E+02  0.12907088628E+03  0.13223262085E+03  0.00000000000E+00 0.  1.
         -3    1    6    6    0  502  0.93837729697E+02 -0.13440301736E+03  0.19655105253E+03  0.25593359850E+03  0.00000000000E+00 0.  1.
<mgrwt>
<rscale>  0 0.17766309E+04</rscale>
<asrwt>0</asrwt>
<pdfrwt beam="1">  1        2 0.60800331E+00 0.17766309E+04</pdfrwt>
<pdfrwt beam="2">  1       -2 0.30718625E-01 0.17766309E+04</pdfrwt>
<totfact> 0.35199945E+00</totfact>
</mgrwt>
</event>
<event>
12    1  0.1495204E-007  0.2891120E+04  0.7818608E-02  0.8275525E-01
         -1   -1    0    0    0  501 -0.00000000000E+00  0.00000000000E+00  0.72025988014E+03  0.72025988014E+03  0.00000000000E+00 0.  1.
          1   -1    0    0  501    0  0.00000000000E+00 -0.00000000000E+00 -0.29012349634E+04  0.29012349634E+04  0.00000000000E+00 0. -1.
         23    2    1    2    0    0 -0.10848157300E+04  0.37203975852E+03 -0.17546619211E+04  0.20981061432E+04  0.89287068231E+02 0.  0.
        254    2    1    2    0    0  0.10848157300E+04 -0.37203975852E+03 -0.42631316216E+03  0.15233887004E+04  0.90759653493E+03 0.  0.
        -24    2    4    4    0    0  0.45214572576E+03  0.20520134884E+03 -0.43238059134E+03  0.66320458923E+03  0.79649234309E+02 0.  0.
         24    2    4    4    0    0  0.63267000427E+03 -0.57724110736E+03  0.60674291784E+01  0.86018411116E+03  0.80007881246E+02 0.  0.
         11    1    3    3    0    0 -0.10552006757E+04  0.35454688292E+03 -0.17232708108E+04  0.20515394819E+04  0.00000000000E+00 0. -1.
        -11    1    3    3    0    0 -0.29615054332E+02  0.17492875599E+02 -0.31391110252E+02  0.46566661279E+02  0.00000000000E+00 0.  1.
          2    1    6    6  502    0  0.36211873448E+03 -0.27636025350E+03  0.20228954455E+01  0.45553162314E+03  0.00000000000E+00 0. -1.
          3    1    5    5  503    0  0.18740942378E+03  0.66953580070E+02 -0.12713383591E+03  0.23615267569E+03  0.00000000000E+00 0. -1.
         -4    1    5    5    0  503  0.26473630198E+03  0.13824776877E+03 -0.30524675543E+03  0.42705191354E+03  0.00000000000E+00 0.  1.
         -1    1    6    6    0  502  0.27055126980E+03 -0.30088085386E+03  0.40445337329E+01  0.40465248802E+03  0.00000000000E+00 0.  1.
<mgrwt>
<rscale>  0 0.28911196E+04</rscale>
<asrwt>0</asrwt>
<pdfrwt beam="1">  1        1 0.44634384E+00 0.28911196E+04</pdfrwt>
<pdfrwt beam="2">  1       -1 0.11080921E+00 0.28911196E+04</pdfrwt>
<totfact> 0.45394826E-01</totfact>
</mgrwt>
</event>
<event>
12    1  0.1495204E-007  0.1790425E+04  0.7818608E-02  0.8711408E-01
          2   -1    0    0  501    0  0.00000000000E+00  0.00000000000E+00  0.17128928566E+04  0.17128928566E+04  0.00000000000E+00 0. -1.
         -2   -1    0    0    0  501 -0.00000000000E+00 -0.00000000000E+00 -0.46786672271E+03  0.46786672271E+03  0.00000000000E+00 0.  1.
         23    2    1    2    0    0 -0.16490220263E+02  0.64030233969E+03  0.69773145283E+03  0.95136917872E+03  0.89527204690E+02 0.  0.
        254    2    1    2    0    0  0.16490220263E+02 -0.64030233969E+03  0.54729468106E+03  0.12293904006E+04  0.89532690988E+03 0.  0.
        -24    2    4    4    0    0  0.20913275867E+03  0.61837326332E+02 -0.10028537699E+03  0.25173766417E+03  0.75857293982E+02 0.  0.
         24    2    4    4    0    0 -0.19264253841E+03 -0.70213966602E+03  0.64758005804E+03  0.97765273641E+03  0.79584440906E+02 0.  0.
         13    1    3    3    0    0  0.34274225641E+02  0.17942658299E+03  0.21258995729E+03  0.28029111860E+03  0.00000000000E+00 0.  1.
        -13    1    3    3    0    0 -0.50764445903E+02  0.46087575669E+03  0.48514149554E+03  0.67107806012E+03  0.00000000000E+00 0. -1.
          2    1    6    6  502    0 -0.91585509562E+02 -0.39032587968E+03  0.30702714893E+03  0.50498303743E+03  0.00000000000E+00 0. -1.
          3    1    5    5  503    0  0.18397307886E+03  0.76836420363E+02 -0.98535292364E+02  0.22239409408E+03  0.00000000000E+00 0. -1.
         -4    1    5    5    0  503  0.25159679811E+02 -0.14999094031E+02 -0.17500846233E+01  0.29343570098E+02  0.00000000000E+00 0.  1.
         -1    1    6    6    0  502 -0.10105702884E+03 -0.31181378633E+03  0.34055290912E+03  0.47266969898E+03  0.00000000000E+00 0.  1.
<mgrwt>
<rscale>  0 0.17904252E+04</rscale>
<asrwt>0</asrwt>
<pdfrwt beam="1">  1        2 0.26352197E+00 0.17904252E+04</pdfrwt>
<pdfrwt beam="2">  1       -2 0.71979497E-01 0.17904252E+04</pdfrwt>
<totfact> 0.15934796E+01</totfact>
</mgrwt>
</event>
<event>
12    1  0.1495204E-007  0.1779570E+04  0.7818608E-02  0.8717240E-01
         -2   -1    0    0    0  501 -0.00000000000E+00  0.00000000000E+00  0.51861188999E+03  0.51861188999E+03  0.00000000000E+00 0.  1.
          2   -1    0    0  501    0  0.00000000000E+00 -0.00000000000E+00 -0.15266094059E+04  0.15266094059E+04  0.00000000000E+00 0. -1.
         23    2    1    2    0    0 -0.28101847938E+03  0.15854905139E+03  0.28996423938E+03  0.44316790950E+03  0.90605454772E+02 0.  0.
        254    2    1    2    0    0  0.28101847938E+03 -0.15854905139E+03 -0.12979617553E+04  0.16020533864E+04  0.88190767500E+03 0.  0.
        -24    2    4    4    0    0 -0.24699291303E+03  0.15919892811E+03 -0.30595240959E+03  0.43147023637E+03  0.78802856208E+02 0.  0.
         24    2    4    4    0    0  0.52801139241E+03 -0.31774797950E+03 -0.99200934572E+03  0.11705831500E+04  0.80140877046E+02 0.  0.
         13    1    3    3    0    0 -0.84422774206E+01 -0.40076161304E+01 -0.43754963596E+01  0.10318817931E+02  0.00000000000E+00 0. -1.
        -13    1    3    3    0    0 -0.27257620196E+03  0.16255666752E+03  0.29433973574E+03  0.43284909156E+03  0.00000000000E+00 0.  1.
          2    1    6    6  502    0  0.19196518990E+03 -0.15730646095E+03 -0.36671109961E+03  0.44280129558E+03  0.00000000000E+00 0. -1.
          3    1    5    5  503    0 -0.24424101291E+03  0.13744776976E+03 -0.29520817633E+03  0.40705457763E+03  0.00000000000E+00 0. -1.
         -4    1    5    5    0  503 -0.27519001194E+01  0.21751158342E+02 -0.10744233264E+02  0.24415658744E+02  0.00000000000E+00 0.  1.
         -1    1    6    6    0  502  0.33604620251E+03 -0.16044151856E+03 -0.62529824611E+03  0.72778185447E+03  0.00000000000E+00 0.  1.
<mgrwt>
<rscale>  0 0.17795705E+04</rscale>
<asrwt>0</asrwt>
<pdfrwt beam="1">  1        2 0.23486298E+00 0.17795705E+04</pdfrwt>
<pdfrwt beam="2">  1       -2 0.79786446E-01 0.17795705E+04</pdfrwt>
<totfact> 0.16124528E+01</totfact>
</mgrwt>
</event>
<event>
12    1  0.1495204E-007  0.3426198E+04  0.7818608E-02  0.8131506E-01
         -1   -1    0    0    0  501 -0.00000000000E+00  0.00000000000E+00  0.11751704414E+04  0.11751704414E+04  0.00000000000E+00 0.  1.
          1   -1    0    0  501    0  0.00000000000E+00 -0.00000000000E+00 -0.24972612563E+04  0.24972612563E+04  0.00000000000E+00 0. -1.
         23    2    1    2    0    0  0.66572318429E+03 -0.14453489815E+04 -0.52760326672E+03  0.16789549340E+04  0.91123141004E+02 0.  0.
        254    2    1    2    0    0 -0.66572318429E+03  0.14453489815E+04 -0.79448754821E+03  0.19934767637E+04  0.90028779108E+03 0.  0.
        -24    2    4    4    0    0 -0.51931469774E+03  0.22525475706E+03 -0.40543572046E+03  0.70205740081E+03  0.89883311827E+02 0.  0.
         24    2    4    4    0    0 -0.14640848655E+03  0.12200942245E+04 -0.38905182775E+03  0.12914193629E+04  0.79607064516E+02 0.  0.
         11    1    3    3    0    0  0.22376976527E+03 -0.41668641192E+03 -0.18842195250E+03  0.50912012915E+03  0.00000000000E+00 0. -1.
        -11    1    3    3    0    0  0.44195341902E+03 -0.10286625696E+04 -0.33918131422E+03  0.11698348049E+04  0.00000000000E+00 0.  1.
          2    1    6    6  502    0 -0.44629362536E+02  0.15751302028E+03 -0.42698009363E+02  0.16918998659E+03  0.00000000000E+00 0. -1.
          1    1    5    5  503    0 -0.34683597324E+02 -0.20088367871E+01 -0.44537210479E+02  0.56484957872E+02  0.00000000000E+00 0. -1.
         -2    1    5    5    0  503 -0.48463110041E+03  0.22726359385E+03 -0.36089850998E+03  0.64557244294E+03  0.00000000000E+00 0.  1.
         -1    1    6    6    0  502 -0.10177912402E+03  0.10625812042E+04 -0.34635381839E+03  0.11222293763E+04  0.00000000000E+00 0.  1.
<mgrwt>
<rscale>  0 0.34261977E+04</rscale>
<asrwt>0</asrwt>
<pdfrwt beam="1">  1        1 0.38419403E+00 0.34261977E+04</pdfrwt>
<pdfrwt beam="2">  1       -1 0.18079545E+00 0.34261977E+04</pdfrwt>
<totfact> 0.22937029E-01</totfact>
</mgrwt>
</event>
<event>
12    1  0.1495204E-007  0.2232506E+04  0.7818608E-02  0.8505019E-01
          2   -1    0    0  501    0  0.00000000000E+00  0.00000000000E+00  0.98983466504E+03  0.98983466504E+03  0.00000000000E+00 0.  1.
         -2   -1    0    0    0  501 -0.00000000000E+00 -0.00000000000E+00 -0.12588165541E+04  0.12588165541E+04  0.00000000000E+00 0. -1.
         23    2    1    2    0    0 -0.70308850480E+02 -0.34623278225E+03 -0.97010362613E+03  0.10364869100E+04  0.91561974493E+02 0.  0.
        254    2    1    2    0    0  0.70308850480E+02  0.34623278225E+03  0.70112173702E+03  0.12121643092E+04  0.92355300250E+03 0.  0.
        -24    2    4    4    0    0 -0.41436964202E+03  0.24064095334E+03  0.32268142520E+03  0.58295290056E+03  0.78105783726E+02 0.  0.
         24    2    4    4    0    0  0.48467849250E+03  0.10559182891E+03  0.37844031183E+03  0.62921140865E+03  0.81406705730E+02 0.  0.
         11    1    3    3    0    0 -0.22071992670E+01 -0.17187009785E+03 -0.55773981917E+03  0.58362480084E+03  0.00000000000E+00 0. -1.
        -11    1    3    3    0    0 -0.68101651213E+02 -0.17436268440E+03 -0.41236380695E+03  0.45286210914E+03  0.00000000000E+00 0.  1.
          4    1    6    6  502    0  0.41180939840E+03  0.62248220852E+02  0.29603772649E+03  0.51097960538E+03  0.00000000000E+00 0. -1.
          3    1    5    5  503    0 -0.31170326511E+03  0.14892591259E+03  0.20399543454E+03  0.40118822295E+03  0.00000000000E+00 0. -1.
         -4    1    5    5    0  503 -0.10266637691E+03  0.91715040757E+02  0.11868599066E+03  0.18176467761E+03  0.00000000000E+00 0.  1.
         -3    1    6    6    0  502  0.72869094096E+02  0.43343608058E+02  0.82402585336E+02  0.11823180327E+03  0.00000000000E+00 0.  1.
<mgrwt>
<rscale>  0 0.22325056E+04</rscale>
<asrwt>0</asrwt>
<pdfrwt beam="1">  1        2 0.15228226E+00 0.22325056E+04</pdfrwt>
<pdfrwt beam="2">  1       -2 0.19366409E+00 0.22325056E+04</pdfrwt>
<totfact> 0.34140689E+00</totfact>
</mgrwt>
</event>
<event>
12    1  0.1495204E-007  0.1771163E+04  0.7818608E-02  0.8721787E-01
         -2   -1    0    0    0  501 -0.00000000000E+00  0.00000000000E+00  0.26928774412E+03  0.26928774412E+03  0.00000000000E+00 0.  1.
          2   -1    0    0  501    0  0.00000000000E+00 -0.00000000000E+00 -0.29123287311E+04  0.29123287311E+04  0.00000000000E+00 0. -1.
         23    2    1    2    0    0  0.17673151178E+03 -0.19660764932E+03  0.87357979131E+02  0.29272710378E+03  0.90383326692E+02 0.  0.
        254    2    1    2    0    0 -0.17673151178E+03  0.19660764932E+03 -0.27303989661E+04  0.28888893714E+04  0.90593305008E+03 0.  0.
        -24    2    4    4    0    0  0.71372534031E+02  0.27723471817E+03 -0.25368081083E+04  0.25541431823E+04  0.79365545807E+02 0.  0.
         24    2    4    4    0    0 -0.24810404581E+03 -0.80627068852E+02 -0.19359085777E+03  0.33474618908E+03  0.80754251359E+02 0.  0.
         13    1    3    3    0    0  0.21760772916E+02  0.53929789287E+01  0.18272422188E+02  0.28922255656E+02  0.00000000000E+00 0. -1.
        -13    1    3    3    0    0  0.15497073887E+03 -0.20200062825E+03  0.69085556944E+02  0.26380484813E+03  0.00000000000E+00 0.  1.
          2    1    6    6  502    0 -0.20077418100E+03 -0.49636061774E+02 -0.11124495626E+03  0.23483920174E+03  0.00000000000E+00 0. -1.
          1    1    5    5  503    0  0.53739799372E+02  0.27280237663E+03 -0.24214493181E+04  0.24373604377E+04  0.00000000000E+00 0. -1.
         -2    1    5    5    0  503  0.17632734659E+02  0.44323415421E+01 -0.11535879016E+03  0.11678274466E+03  0.00000000000E+00 0.  1.
         -1    1    6    6    0  502 -0.47329864818E+02 -0.30991007078E+02 -0.82345901512E+02  0.99906987339E+02  0.00000000000E+00 0.  1.
<mgrwt>
<rscale>  0 0.17711628E+04</rscale>
<asrwt>0</asrwt>
<pdfrwt beam="1">  1        2 0.44805056E+00 0.17711628E+04</pdfrwt>
<pdfrwt beam="2">  1       -2 0.41428885E-01 0.17711628E+04</pdfrwt>
<totfact> 0.10347596E+01</totfact>
</mgrwt>
</event>
<event>
12    1  0.1495204E-007  0.1802561E+04  0.7818608E-02  0.8704939E-01
         -2   -1    0    0    0  501 -0.00000000000E+00  0.00000000000E+00  0.21242291839E+04  0.21242291839E+04  0.00000000000E+00 0.  1.
          2   -1    0    0  501    0  0.00000000000E+00 -0.00000000000E+00 -0.38240073010E+03  0.38240073010E+03  0.00000000000E+00 0. -1.
         23    2    1    2    0    0  0.12806969696E+02  0.46173082870E+03  0.13337562292E+04  0.14143141526E+04  0.89551474878E+02 0.  0.
        254    2    1    2    0    0 -0.12806969696E+02 -0.46173082870E+03  0.40807222457E+03  0.10923157614E+04  0.90181561610E+03 0.  0.
        -24    2    4    4    0    0  0.26691888353E+03  0.97631133625E+02  0.35181431723E+03  0.45946666973E+03  0.80986283710E+02 0.  0.
         24    2    4    4    0    0 -0.27972585322E+03 -0.55936196233E+03  0.56257907338E+02  0.63284909165E+03  0.78744287386E+02 0.  0.
         13    1    3    3    0    0 -0.35231495928E+02  0.23374011089E+03  0.62263923765E+03  0.66599948799E+03  0.00000000000E+00 0. -1.
        -13    1    3    3    0    0  0.48038465624E+02  0.22799071782E+03  0.71111699158E+03  0.74831466463E+03  0.00000000000E+00 0.  1.
          4    1    6    6  502    0 -0.23524709574E+03 -0.39873029858E+03  0.54614507635E+02  0.46616498314E+03  0.00000000000E+00 0. -1.
          1    1    5    5  503    0  0.22655525171E+03  0.48474991634E+02  0.28347507319E+03  0.36610821353E+03  0.00000000000E+00 0. -1.
         -2    1    5    5    0  503  0.40363631817E+02  0.49156141991E+02  0.68339244036E+02  0.93358456201E+02  0.00000000000E+00 0.  1.
         -3    1    6    6    0  502 -0.44478757480E+02 -0.16063166375E+03  0.16433997027E+01  0.16668410850E+03  0.00000000000E+00 0.  1.
<mgrwt>
<rscale>  0 0.18025613E+04</rscale>
<asrwt>0</asrwt>
<pdfrwt beam="1">  1        2 0.58830883E-01 0.18025613E+04</pdfrwt>
<pdfrwt beam="2">  1       -2 0.32680448E+00 0.18025613E+04</pdfrwt>
<totfact> 0.17206938E+00</totfact>
</mgrwt>
</event>
<event>
12    1  0.1495204E-007  0.1343516E+04  0.7818608E-02  0.8995751E-01
          3   -1    0    0  501    0  0.00000000000E+00  0.00000000000E+00  0.20302963320E+03  0.20302963320E+03  0.00000000000E+00 0. -1.
         -3   -1    0    0    0  501 -0.00000000000E+00 -0.00000000000E+00 -0.22226258157E+04  0.22226258157E+04  0.00000000000E+00 0.  1.
         23    2    1    2    0    0  0.34277603710E+02  0.15658633822E+03 -0.11663117081E+04  0.11808208312E+04  0.91436314123E+02 0.  0.
        254    2    1    2    0    0 -0.34277603710E+02 -0.15658633822E+03 -0.85328447439E+03  0.12448346177E+04  0.89209001546E+03 0.  0.
        -24    2    4    4    0    0  0.23438520910E+03  0.24289554237E+02 -0.87609938950E+03  0.91067203872E+03  0.79038048599E+02 0.  0.
         24    2    4    4    0    0 -0.26866281281E+03 -0.18087589246E+03  0.22814915107E+02  0.33416257896E+03  0.79046273583E+02 0.  0.
         11    1    3    3    0    0 -0.15652968019E+02  0.20901135869E+02 -0.64838400941E+02  0.69899149673E+02  0.00000000000E+00 0. -1.
        -11    1    3    3    0    0  0.49930571730E+02  0.13568520235E+03 -0.11014733072E+04  0.11109216815E+04  0.00000000000E+00 0.  1.
          2    1    6    6  502    0 -0.26547198628E+03 -0.18368023350E+03  0.12563668860E+02  0.32306601408E+03  0.00000000000E+00 0. -1.
          3    1    5    5  503    0  0.20473739307E+03  0.17490751197E+02 -0.83267382695E+03  0.85765320998E+03  0.00000000000E+00 0. -1.
         -2    1    5    5    0  503  0.29647816023E+02  0.67988030399E+01 -0.43425562550E+02  0.53018828736E+02  0.00000000000E+00 0.  1.
         -1    1    6    6    0  502 -0.31908265300E+01  0.28043410382E+01  0.10251246247E+02  0.11096564884E+02  0.00000000000E+00 0.  1.
<mgrwt>
<rscale>  0 0.13435161E+04</rscale>
<asrwt>0</asrwt>
<pdfrwt beam="1">  1        3 0.31235330E-01 0.13435161E+04</pdfrwt>
<pdfrwt beam="2">  1       -3 0.34194241E+00 0.13435161E+04</pdfrwt>
<totfact> 0.57662270E-01</totfact>
</mgrwt>
</event>
<event>
12    1  0.1495204E-007  0.2693604E+04  0.7818608E-02  0.8337083E-01
          1   -1    0    0  501    0  0.00000000000E+00  0.00000000000E+00  0.15576696637E+04  0.15576696637E+04  0.00000000000E+00 0. -1.
         -1   -1    0    0    0  501 -0.00000000000E+00 -0.00000000000E+00 -0.11644807066E+04  0.11644807066E+04  0.00000000000E+00 0.  1.
         23    2    1    2    0    0 -0.55610335666E+03 -0.28886402578E+03 -0.85216704335E+03  0.10612645757E+04  0.86025932880E+02 0.  0.
        254    2    1    2    0    0  0.55610335666E+03  0.28886402578E+03  0.12453560004E+04  0.16608857945E+04  0.90273843722E+03 0.  0.
        -24    2    4    4    0    0  0.36261625345E+03  0.44955697917E+03  0.25579484778E+03  0.63670473837E+03  0.79811621462E+02 0.  0.
         24    2    4    4    0    0  0.19348710321E+03 -0.16069295339E+03  0.98956115266E+03  0.10241810562E+04  0.80349714417E+02 0.  0.
         11    1    3    3    0    0 -0.55019378449E+03 -0.28843182403E+03 -0.82098947135E+03  0.10295289358E+04  0.00000000000E+00 0.  1.
        -11    1    3    3    0    0 -0.59095721729E+01 -0.43220174613E+00 -0.31177572003E+02  0.31735639865E+02  0.00000000000E+00 0. -1.
          2    1    6    6  502    0  0.78455994310E+02 -0.11236164018E+03  0.58381946846E+03  0.59968796301E+03  0.00000000000E+00 0. -1.
          1    1    5    5  503    0  0.26925953515E+03  0.28054381071E+03  0.18940339793E+03  0.43252650109E+03  0.00000000000E+00 0. -1.
         -2    1    5    5    0  503  0.93356718308E+02  0.16901316846E+03  0.66391449843E+02  0.20417823728E+03  0.00000000000E+00 0.  1.
         -1    1    6    6    0  502  0.11503110890E+03 -0.48331313209E+02  0.40574168420E+03  0.42449309317E+03  0.00000000000E+00 0.  1.
<mgrwt>
<rscale>  0 0.26936045E+04</rscale>
<asrwt>0</asrwt>
<pdfrwt beam="1">  1        1 0.23964149E+00 0.26936045E+04</pdfrwt>
<pdfrwt beam="2">  1       -1 0.17915088E+00 0.26936045E+04</pdfrwt>
<totfact> 0.11003918E+00</totfact>
</mgrwt>
</event>
<event>
12    1  0.1495204E-007  0.1793450E+04  0.7818608E-02  0.8709790E-01
         -2   -1    0    0    0  501 -0.00000000000E+00  0.00000000000E+00  0.40359174413E+03  0.40359174413E+03  0.00000000000E+00 0.  1.
          2   -1    0    0  501    0  0.00000000000E+00 -0.00000000000E+00 -0.19923997738E+04  0.19923997738E+04  0.00000000000E+00 0. -1.
         23    2    1    2    0    0  0.21116397723E+02 -0.23722935967E+02 -0.14826121889E+04  0.14860251478E+04  0.95515220412E+02 0.  0.
        254    2    1    2    0    0 -0.21116397723E+02  0.23722935967E+02 -0.10619584084E+03  0.90996637018E+03  0.90319021159E+03 0.  0.
        -24    2    4    4    0    0  0.59158212253E+02  0.45048381975E+03 -0.31236195497E+02  0.46222978170E+03  0.79027243723E+02 0.  0.
         24    2    4    4    0    0 -0.80274609976E+02 -0.42676088378E+03 -0.74959645348E+02  0.44773658848E+03  0.79247960895E+02 0.  0.
         11    1    3    3    0    0  0.37170797151E+01  0.20105687904E+02 -0.11399618031E+04  0.11401451521E+04  0.00000000000E+00 0. -1.
        -11    1    3    3    0    0  0.17399318008E+02 -0.43828623871E+02 -0.34265038574E+03  0.34587999565E+03  0.00000000000E+00 0.  1.
          4    1    6    6  502    0  0.13605557148E+02 -0.65370002168E+02 -0.23682704581E+02  0.70846445677E+02  0.00000000000E+00 0. -1.
          3    1    5    5  503    0  0.95712328323E+01  0.13411171243E+02 -0.14639134063E+02  0.22040241790E+02  0.00000000000E+00 0. -1.
         -4    1    5    5    0  503  0.49586979421E+02  0.43707264850E+03 -0.16597061434E+02  0.44018953991E+03  0.00000000000E+00 0.  1.
         -3    1    6    6    0  502 -0.93880167124E+02 -0.36139088161E+03 -0.51276940766E+02  0.37689014281E+03  0.00000000000E+00 0.  1.
<mgrwt>
<rscale>  0 0.17934504E+04</rscale>
<asrwt>0</asrwt>
<pdfrwt beam="1">  1        2 0.30652304E+00 0.17934504E+04</pdfrwt>
<pdfrwt beam="2">  1       -2 0.62091037E-01 0.17934504E+04</pdfrwt>
<totfact> 0.15345985E+01</totfact>
</mgrwt>
</event>
<event>
12    1  0.1495204E-007  0.2777616E+04  0.7818608E-02  0.8310251E-01
         -1   -1    0    0    0  501 -0.00000000000E+00  0.00000000000E+00  0.12071986840E+04  0.12071986840E+04  0.00000000000E+00 0.  1.
          1   -1    0    0  501    0  0.00000000000E+00 -0.00000000000E+00 -0.15977387049E+04  0.15977387049E+04  0.00000000000E+00 0. -1.
         23    2    1    2    0    0  0.72986217718E+03  0.99473742554E+03 -0.29553493388E+02  0.12373184123E+04  0.88781196997E+02 0.  0.
        254    2    1    2    0    0 -0.72986217718E+03 -0.99473742554E+03 -0.36098652753E+03  0.15676189767E+04  0.89717146603E+03 0.  0.
        -24    2    4    4    0    0 -0.63370118540E+03 -0.65815678380E+03 -0.63621891095E+03  0.11162908632E+04  0.81137193877E+02 0.  0.
         24    2    4    4    0    0 -0.96160991777E+02 -0.33658064174E+03  0.27523238342E+03  0.45132811342E+03  0.73557707650E+02 0.  0.
         11    1    3    3    0    0  0.13062536532E+03  0.13388107268E+03 -0.22619092319E+02  0.18841112235E+03  0.00000000000E+00 0. -1.
        -11    1    3    3    0    0  0.59923681186E+03  0.86085635286E+03 -0.69344010694E+01  0.10489072899E+04  0.00000000000E+00 0.  1.
          2    1    6    6  502    0 -0.59257018546E+02 -0.29592625838E+03  0.24445808833E+03  0.38838576389E+03  0.00000000000E+00 0. -1.
          3    1    5    5  503    0 -0.26619693769E+03 -0.22006706808E+03 -0.24418035240E+03  0.42298270483E+03  0.00000000000E+00 0. -1.
         -4    1    5    5    0  503 -0.36750424771E+03 -0.43808971572E+03 -0.39203855855E+03  0.69330815839E+03  0.00000000000E+00 0.  1.
         -1    1    6    6    0  502 -0.36903973231E+02 -0.40654383354E+02  0.30774295090E+02  0.62942349531E+02  0.00000000000E+00 0.  1.
<mgrwt>
<rscale>  0 0.27776163E+04</rscale>
<asrwt>0</asrwt>
<pdfrwt beam="1">  1        1 0.24580595E+00 0.27776163E+04</pdfrwt>
<pdfrwt beam="2">  1       -1 0.18572288E+00 0.27776163E+04</pdfrwt>
<totfact> 0.92014854E-01</totfact>
</mgrwt>
</event>
<event>
12    1  0.1495204E-007  0.1384090E+04  0.7818608E-02  0.8965416E-01
         -1   -1    0    0    0  501 -0.00000000000E+00  0.00000000000E+00  0.56504774191E+03  0.56504774191E+03  0.00000000000E+00 0.  1.
          1   -1    0    0  501    0  0.00000000000E+00 -0.00000000000E+00 -0.84758501826E+03  0.84758501826E+03  0.00000000000E+00 0. -1.
         23    2    1    2    0    0 -0.65891201917E+02  0.17313805289E+03 -0.46057725939E+03  0.50454718377E+03  0.90100016312E+02 0.  0.
        254    2    1    2    0    0  0.65891201917E+02 -0.17313805289E+03  0.17803998304E+03  0.90808557639E+03  0.87097803798E+03 0.  0.
        -24    2    4    4    0    0 -0.47584900250E+02  0.31632404682E+03  0.22219270830E+03  0.39745095522E+03  0.79198717543E+02 0.  0.
         24    2    4    4    0    0  0.11347610217E+03 -0.48946209971E+03 -0.44152725262E+02  0.51063462117E+03  0.79676096600E+02 0.  0.
         13    1    3    3    0    0 -0.50417504313E+02  0.18055557509E+03 -0.43579033196E+03  0.47440009893E+03  0.00000000000E+00 0. -1.
        -13    1    3    3    0    0 -0.15473697604E+02 -0.74175221984E+01 -0.24786927426E+02  0.30147084840E+02  0.00000000000E+00 0.  1.
          2    1    6    6  502    0 -0.11995460967E+02 -0.32475412040E+02  0.62098131646E+00  0.34625555429E+02  0.00000000000E+00 0. -1.
          3    1    5    5  503    0  0.10373375529E+02  0.17468880030E+03  0.13742670592E+03  0.22250816473E+03  0.00000000000E+00 0. -1.
         -4    1    5    5    0  503 -0.57958275779E+02  0.14163524652E+03  0.84766002374E+02  0.17494279050E+03  0.00000000000E+00 0.  1.
         -1    1    6    6    0  502  0.12547156313E+03 -0.45698668767E+03 -0.44773706579E+02  0.47600906574E+03  0.00000000000E+00 0.  1.
<mgrwt>
<rscale>  0 0.13840896E+04</rscale>
<asrwt>0</asrwt>
<pdfrwt beam="1">  1        1 0.13039770E+00 0.13840896E+04</pdfrwt>
<pdfrwt beam="2">  1       -1 0.86930422E-01 0.13840896E+04</pdfrwt>
<totfact> 0.25620487E+01</totfact>
</mgrwt>
</event>
<event>
12    1  0.1495204E-007  0.1443887E+04  0.7818608E-02  0.8922649E-01
          2   -1    0    0  501    0  0.00000000000E+00  0.00000000000E+00  0.77663878939E+03  0.77663878939E+03  0.00000000000E+00 0. -1.
         -2   -1    0    0    0  501 -0.00000000000E+00 -0.00000000000E+00 -0.67110047344E+03  0.67110047344E+03  0.00000000000E+00 0.  1.
         23    2    1    2    0    0 -0.39835385836E+03 -0.16707010778E+03  0.10561173511E+03  0.45402842249E+03  0.91595591880E+02 0.  0.
        254    2    1    2    0    0  0.39835385836E+03  0.16707010778E+03 -0.73419154924E-01  0.99371084035E+03  0.89490949903E+03 0.  0.
        -24    2    4    4    0    0 -0.17961047046E+03 -0.20369356891E+03  0.88476893504E+02  0.29673617831E+03  0.80456247236E+02 0.  0.
         24    2    4    4    0    0  0.57796432882E+03  0.37076367670E+03 -0.88550312659E+02  0.69697466204E+03  0.80150185932E+02 0.  0.
         11    1    3    3    0    0 -0.29208255787E+02 -0.37102312124E+02  0.28478878646E+02  0.55142998648E+02  0.00000000000E+00 0.  1.
        -11    1    3    3    0    0 -0.36914560257E+03 -0.12996779566E+03  0.77132856460E+02  0.39888542384E+03  0.00000000000E+00 0. -1.
          4    1    6    6  502    0  0.47754973592E+02  0.29212687704E+02 -0.30137464480E+02  0.63578183293E+02  0.00000000000E+00 0. -1.
          1    1    5    5  503    0 -0.19690894974E+02 -0.53454379507E+02  0.46047514980E+02  0.73249407296E+02  0.00000000000E+00 0. -1.
         -2    1    5    5    0  503 -0.15991957549E+03 -0.15023918941E+03  0.42429378524E+02  0.22348677102E+03  0.00000000000E+00 0.  1.
         -3    1    6    6    0  502  0.53020935523E+03  0.34155098899E+03 -0.58412848179E+02  0.63339647874E+03  0.00000000000E+00 0.  1.
<mgrwt>
<rscale>  0 0.14438873E+04</rscale>
<asrwt>0</asrwt>
<pdfrwt beam="1">  1        2 0.11948289E+00 0.14438873E+04</pdfrwt>
<pdfrwt beam="2">  1       -2 0.10324623E+00 0.14438873E+04</pdfrwt>
<totfact> 0.26608908E+01</totfact>
</mgrwt>
</event>
<event>
12    1  0.1495204E-007  0.1641931E+04  0.7818608E-02  0.8795194E-01
          1   -1    0    0  501    0  0.00000000000E+00  0.00000000000E+00  0.56417514150E+03  0.56417514150E+03  0.00000000000E+00 0. -1.
         -1   -1    0    0    0  501 -0.00000000000E+00 -0.00000000000E+00 -0.11946369185E+04  0.11946369185E+04  0.00000000000E+00 0.  1.
         23    2    1    2    0    0  0.10027977323E+03  0.11929923687E+03  0.36077533288E+03  0.40366689340E+03  0.92194246992E+02 0.  0.
        254    2    1    2    0    0 -0.10027977323E+03 -0.11929923687E+03 -0.99123710988E+03  0.13551451666E+04  0.91081231530E+03 0.  0.
        -24    2    4    4    0    0  0.24217899751E+03  0.14981323645E+03 -0.29123159745E+02  0.29634494081E+03  0.76664808492E+02 0.  0.
         24    2    4    4    0    0 -0.34245877073E+03 -0.26911247331E+03 -0.96211395014E+03  0.10588002258E+04  0.75466099199E+02 0.  0.
         11    1    3    3    0    0  0.50971283966E+02  0.15599263546E+02  0.19396269643E+03  0.20115401169E+03  0.00000000000E+00 0. -1.
        -11    1    3    3    0    0  0.49308489262E+02  0.10369997332E+03  0.16681263645E+03  0.20251288171E+03  0.00000000000E+00 0.  1.
          2    1    6    6  502    0 -0.49480112944E+02 -0.32914272054E+02 -0.79106245491E+02  0.98941543133E+02  0.00000000000E+00 0. -1.
          1    1    5    5  503    0 -0.44888287145E+01  0.10464627504E+02  0.10515209967E+01  0.11435196038E+02  0.00000000000E+00 0. -1.
         -2    1    5    5    0  503  0.24666782622E+03  0.13934860894E+03 -0.30174680742E+02  0.28490974477E+03  0.00000000000E+00 0.  1.
         -1    1    6    6    0  502 -0.29297865779E+03 -0.23619820126E+03 -0.88300770464E+03  0.95985868265E+03  0.00000000000E+00 0.  1.
<mgrwt>
<rscale>  0 0.16419311E+04</rscale>
<asrwt>0</asrwt>
<pdfrwt beam="1">  1        1 0.86796176E-01 0.16419311E+04</pdfrwt>
<pdfrwt beam="2">  1       -1 0.18379029E+00 0.16419311E+04</pdfrwt>
<totfact> 0.69935690E+00</totfact>
</mgrwt>
</event>
<event>
12    1  0.1495204E-007  0.2315795E+04  0.7818608E-02  0.8471719E-01
         -2   -1    0    0    0  501 -0.00000000000E+00  0.00000000000E+00  0.98907085829E+03  0.98907085829E+03  0.00000000000E+00 0.  1.
          2   -1    0    0  501    0  0.00000000000E+00 -0.00000000000E+00 -0.13555419081E+04  0.13555419081E+04  0.00000000000E+00 0. -1.
         23    2    1    2    0    0  0.54779384852E+03 -0.76327165824E+03 -0.47705777804E+03  0.10576997979E+04  0.92103279201E+02 0.  0.
        254    2    1    2    0    0 -0.54779384852E+03  0.76327165824E+03  0.11058672828E+03  0.12869129685E+04  0.87249861849E+03 0.  0.
        -24    2    4    4    0    0 -0.15816465413E+03 -0.13347808850E+03  0.20607819303E+03  0.30112366760E+03  0.73312915796E+02 0.  0.
         24    2    4    4    0    0 -0.38962919440E+03  0.89674974674E+03 -0.95491464754E+02  0.98578930089E+03  0.81797973796E+02 0.  0.
         13    1    3    3    0    0  0.12949273116E+03 -0.19443544948E+03 -0.16341165896E+03  0.28509100603E+03  0.00000000000E+00 0.  1.
        -13    1    3    3    0    0  0.41830111736E+03 -0.56883620876E+03 -0.31364611909E+03  0.77260879182E+03  0.00000000000E+00 0. -1.
          4    1    6    6  502    0 -0.14716148017E+03  0.36908762478E+03 -0.77341652494E+02  0.40480107118E+03  0.00000000000E+00 0. -1.
          3    1    5    5  503    0 -0.10093511380E+03 -0.83212109586E+02  0.17586145078E+03  0.21917892747E+03  0.00000000000E+00 0. -1.
         -4    1    5    5    0  503 -0.57229540327E+02 -0.50265978912E+02  0.30216742256E+02  0.81944740128E+02  0.00000000000E+00 0.  1.
         -3    1    6    6    0  502 -0.24246771422E+03  0.52766212195E+03 -0.18149812260E+02  0.58098822972E+03  0.00000000000E+00 0.  1.
<mgrwt>
<rscale>  0 0.23157953E+04</rscale>
<asrwt>0</asrwt>
<pdfrwt beam="1">  1        2 0.20854491E+00 0.23157953E+04</pdfrwt>
<pdfrwt beam="2">  1       -2 0.15216475E+00 0.23157953E+04</pdfrwt>
<totfact> 0.40087002E+00</totfact>
</mgrwt>
</event>
<event>
12    1  0.1495204E-007  0.2472195E+04  0.7818608E-02  0.8412959E-01
          2   -1    0    0  501    0  0.00000000000E+00  0.00000000000E+00  0.12509871955E+04  0.12509871955E+04  0.00000000000E+00 0. -1.
         -2   -1    0    0    0  501 -0.00000000000E+00 -0.00000000000E+00 -0.12213851022E+04  0.12213851022E+04  0.00000000000E+00 0.  1.
         23    2    1    2    0    0 -0.30189962987E+03 -0.33163943689E+03  0.10210818746E+04  0.11190074698E+04  0.91877201635E+02 0.  0.
        254    2    1    2    0    0  0.30189962987E+03  0.33163943689E+03 -0.99147978136E+03  0.13533648280E+04  0.80463413926E+03 0.  0.
        -24    2    4    4    0    0  0.54766091231E+03  0.26812779236E+03 -0.85871751935E+03  0.10561938962E+04  0.79528488367E+02 0.  0.
         24    2    4    4    0    0 -0.24576128244E+03  0.63511644521E+02 -0.13276226201E+03  0.29717093173E+03  0.79072166493E+02 0.  0.
         13    1    3    3    0    0 -0.10211470746E+03 -0.16189767438E+03  0.35749110874E+03  0.40550975731E+03  0.00000000000E+00 0. -1.
        -13    1    3    3    0    0 -0.19978492241E+03 -0.16974176250E+03  0.66359076591E+03  0.71349771252E+03  0.00000000000E+00 0.  1.
          4    1    6    6  502    0 -0.38521203100E+02  0.42163261202E+02 -0.35538012868E+02  0.67264954040E+02  0.00000000000E+00 0. -1.
          3    1    5    5  503    0  0.25500273636E+03  0.85781676093E+02 -0.34553948147E+03  0.43792970299E+03  0.00000000000E+00 0. -1.
         -4    1    5    5    0  503  0.29265817595E+03  0.18234611627E+03 -0.51317803789E+03  0.61826419324E+03  0.00000000000E+00 0.  1.
         -3    1    6    6    0  502 -0.20724007934E+03  0.21348383319E+02 -0.97224249141E+02  0.22990597769E+03  0.00000000000E+00 0.  1.
<mgrwt>
<rscale>  0 0.24721951E+04</rscale>
<asrwt>0</asrwt>
<pdfrwt beam="1">  1        2 0.19245957E+00 0.24721951E+04</pdfrwt>
<pdfrwt beam="2">  1       -2 0.18790540E+00 0.24721951E+04</pdfrwt>
<totfact> 0.25283598E+00</totfact>
</mgrwt>
</event>
<event>
12    1  0.1495204E-007  0.1990224E+04  0.7818608E-02  0.8611205E-01
          2   -1    0    0  501    0  0.00000000000E+00  0.00000000000E+00  0.29880100129E+04  0.29880100129E+04  0.00000000000E+00 0.  1.
         -2   -1    0    0    0  501 -0.00000000000E+00 -0.00000000000E+00 -0.33140709359E+03  0.33140709359E+03  0.00000000000E+00 0. -1.
         23    2    1    2    0    0  0.29807799666E+03 -0.17379041612E+03 -0.80266958511E+02  0.36573787746E+03  0.90927496108E+02 0.  0.
        254    2    1    2    0    0 -0.29807799666E+03  0.17379041612E+03  0.27368698778E+04  0.29536792291E+04  0.10557985883E+04 0.  0.
        -24    2    4    4    0    0  0.74330685092E+01  0.51672496668E+03  0.76086006673E+03  0.92344001809E+03  0.82301179660E+02 0.  0.
         24    2    4    4    0    0 -0.30551106517E+03 -0.34293455056E+03  0.19760098111E+04  0.20302392110E+04  0.79469259557E+02 0.  0.
         11    1    3    3    0    0  0.81194588202E+02 -0.20296352680E+02  0.11830269871E+02  0.84524897933E+02  0.00000000000E+00 0.  1.
        -11    1    3    3    0    0  0.21688340846E+03 -0.15349406344E+03 -0.92097228382E+02  0.28121297952E+03  0.00000000000E+00 0. -1.
          4    1    6    6  502    0 -0.17672638285E+02 -0.31754006703E+01  0.13254538665E+03  0.13375606467E+03  0.00000000000E+00 0. -1.
          1    1    5    5  503    0 -0.18406176989E+02  0.37239830551E+02  0.43009036138E+02  0.59794393720E+02  0.00000000000E+00 0. -1.
         -2    1    5    5    0  503  0.25839245499E+02  0.47948513613E+03  0.71785103059E+03  0.86364562437E+03  0.00000000000E+00 0.  1.
         -3    1    6    6    0  502 -0.28783842689E+03 -0.33975914989E+03  0.18434644245E+04  0.18964831463E+04  0.00000000000E+00 0.  1.
<mgrwt>
<rscale>  0 0.19902238E+04</rscale>
<asrwt>0</asrwt>
<pdfrwt beam="1">  1        2 0.45969383E+00 0.19902238E+04</pdfrwt>
<pdfrwt beam="2">  1       -2 0.50985709E-01 0.19902238E+04</pdfrwt>
<totfact> 0.60034836E+00</totfact>
</mgrwt>
</event>
<event>
12    1  0.1495204E-007  0.1742840E+04  0.7818608E-02  0.8737302E-01
          2   -1    0    0  501    0  0.00000000000E+00  0.00000000000E+00  0.12201731699E+04  0.12201731699E+04  0.00000000000E+00 0. -1.
         -2   -1    0    0    0  501 -0.00000000000E+00 -0.00000000000E+00 -0.62234813229E+03  0.62234813229E+03  0.00000000000E+00 0.  1.
         23    2    1    2    0    0  0.31344128298E+03 -0.16151117711E+03 -0.33746550939E+03  0.49634037970E+03  0.90219201330E+02 0.  0.
        254    2    1    2    0    0 -0.31344128298E+03  0.16151117711E+03  0.93529054701E+03  0.13461809225E+04  0.90172244653E+03 0.  0.
        -24    2    4    4    0    0 -0.36048777489E+03  0.26866553449E+03  0.60645180654E+02  0.46031150328E+03  0.77950220294E+02 0.  0.
         24    2    4    4    0    0  0.47046491912E+02 -0.10715435739E+03  0.87464536636E+03  0.88586941922E+03  0.77876070239E+02 0.  0.
         13    1    3    3    0    0  0.65554648786E+02 -0.90657871989E+01 -0.10392404107E+03  0.12320635855E+03  0.00000000000E+00 0. -1.
        -13    1    3    3    0    0  0.24788663419E+03 -0.15244538991E+03 -0.23354146832E+03  0.37313402115E+03  0.00000000000E+00 0.  1.
          2    1    6    6  502    0  0.13874951247E+02 -0.74951129251E+02  0.30611851307E+03  0.31546589371E+03  0.00000000000E+00 0. -1.
          1    1    5    5  503    0 -0.95242286656E+02  0.11654531228E+03  0.21830240379E+02  0.15208702238E+03  0.00000000000E+00 0. -1.
         -2    1    5    5    0  503 -0.26524548823E+03  0.15212022221E+03  0.38814940275E+02  0.30822448089E+03  0.00000000000E+00 0.  1.
         -1    1    6    6    0  502  0.33171540665E+02 -0.32203228135E+02  0.56852685328E+03  0.57040352551E+03  0.00000000000E+00 0.  1.
<mgrwt>
<rscale>  0 0.17428396E+04</rscale>
<asrwt>0</asrwt>
<pdfrwt beam="1">  1        2 0.18771895E+00 0.17428396E+04</pdfrwt>
<pdfrwt beam="2">  1       -2 0.95745867E-01 0.17428396E+04</pdfrwt>
<totfact> 0.15990708E+01</totfact>
</mgrwt>
</event>
<event>
12    1  0.1495204E-007  0.1617871E+04  0.7818608E-02  0.8809644E-01
         -1   -1    0    0    0  501 -0.00000000000E+00  0.00000000000E+00  0.41520418329E+03  0.41520418329E+03  0.00000000000E+00 0.  1.
          1   -1    0    0  501    0  0.00000000000E+00 -0.00000000000E+00 -0.15760363159E+04  0.15760363159E+04  0.00000000000E+00 0. -1.
         23    2    1    2    0    0 -0.47488065686E+03 -0.26549243460E+03 -0.54246623287E+03  0.77354776450E+03  0.90048093106E+02 0.  0.
        254    2    1    2    0    0  0.47488065686E+03  0.26549243460E+03 -0.61836589970E+03  0.12176927346E+04  0.89688423947E+03 0.  0.
        -24    2    4    4    0    0  0.14219355830E+03  0.42091264475E+03  0.46817788004E+02  0.45366741700E+03  0.78966812263E+02 0.  0.
         24    2    4    4    0    0  0.33268709856E+03 -0.15542021015E+03 -0.66518368770E+03  0.76402531765E+03  0.80182294552E+02 0.  0.
         13    1    3    3    0    0 -0.34881441739E+03 -0.15540491982E+03 -0.34433895246E+03  0.51419014096E+03  0.00000000000E+00 0. -1.
        -13    1    3    3    0    0 -0.12606623947E+03 -0.11008751478E+03 -0.19812728041E+03  0.25935762354E+03  0.00000000000E+00 0.  1.
          4    1    6    6  502    0  0.20514050421E+03 -0.13418813667E+03 -0.40313667860E+03  0.47181380239E+03  0.00000000000E+00 0. -1.
          1    1    5    5  503    0  0.94023772764E+02  0.35293281514E+03  0.57245020822E+02  0.36970127705E+03  0.00000000000E+00 0. -1.
         -2    1    5    5    0  503  0.48169785540E+02  0.67979829612E+02 -0.10427232818E+02  0.83966139945E+02  0.00000000000E+00 0.  1.
         -3    1    6    6    0  502  0.12754659435E+03 -0.21232073475E+02 -0.26204700910E+03  0.29221151526E+03  0.00000000000E+00 0.  1.
<mgrwt>
<rscale>  0 0.16178713E+04</rscale>
<asrwt>0</asrwt>
<pdfrwt beam="1">  1        1 0.24246713E+00 0.16178713E+04</pdfrwt>
<pdfrwt beam="2">  1       -1 0.63877567E-01 0.16178713E+04</pdfrwt>
<totfact> 0.13801882E+01</totfact>
</mgrwt>
</event>
<event>
12    1  0.1495204E-007  0.1634147E+04  0.7818608E-02  0.8799840E-01
         -1   -1    0    0    0  501 -0.00000000000E+00  0.00000000000E+00  0.39159027854E+03  0.39159027854E+03  0.00000000000E+00 0.  1.
          1   -1    0    0  501    0  0.00000000000E+00 -0.00000000000E+00 -0.17048674092E+04  0.17048674092E+04  0.00000000000E+00 0. -1.
         23    2    1    2    0    0 -0.21085144740E+03 -0.30365698675E+03  0.81301138384E+02  0.39679410621E+03  0.11903692345E+03 0.  0.
        254    2    1    2    0    0  0.21085144740E+03  0.30365698675E+03 -0.13945782691E+04  0.16996635816E+04  0.89852203281E+03 0.  0.
        -24    2    4    4    0    0  0.38432453261E+03  0.56575631896E+02 -0.16238291783E+03  0.42852170674E+03  0.79727615336E+02 0.  0.
         24    2    4    4    0    0 -0.17347308522E+03  0.24708135486E+03 -0.12321953512E+04  0.12711418748E+04  0.79713079969E+02 0.  0.
         11    1    3    3    0    0 -0.12089818179E+03 -0.26139690589E+03  0.72710246053E+02  0.29703786400E+03  0.00000000000E+00 0.  1.
        -11    1    3    3    0    0 -0.89953265610E+02 -0.42260080868E+02  0.85908923312E+01  0.99756242211E+02  0.00000000000E+00 0. -1.
          2    1    6    6  502    0 -0.16814032756E+03  0.18557444431E+03 -0.97622267749E+03  0.10078292317E+04  0.00000000000E+00 0. -1.
          3    1    5    5  503    0  0.21741151678E+03  0.70064107636E+02 -0.10608204727E+03  0.25185342476E+03  0.00000000000E+00 0. -1.
         -4    1    5    5    0  503  0.16691301583E+03 -0.13488475740E+02 -0.56300870564E+02  0.17666828198E+03  0.00000000000E+00 0.  1.
         -1    1    6    6    0  502 -0.53327576565E+01  0.61506910552E+02 -0.25597267373E+03  0.26331264316E+03  0.00000000000E+00 0.  1.
<mgrwt>
<rscale>  0 0.16341475E+04</rscale>
<asrwt>0</asrwt>
<pdfrwt beam="1">  1        1 0.26228729E+00 0.16341475E+04</pdfrwt>
<pdfrwt beam="2">  1       -1 0.60244660E-01 0.16341475E+04</pdfrwt>
<totfact> 0.12643909E+01</totfact>
</mgrwt>
</event>
<event>
12    1  0.1495204E-007  0.1215046E+04  0.7818608E-02  0.9099787E-01
         -2   -1    0    0    0  501 -0.00000000000E+00  0.00000000000E+00  0.19680090923E+03  0.19680090923E+03  0.00000000000E+00 0. -1.
          2   -1    0    0  501    0  0.00000000000E+00 -0.00000000000E+00 -0.18754205326E+04  0.18754205326E+04  0.00000000000E+00 0.  1.
         23    2    1    2    0    0 -0.16583255793E+03  0.21105823801E+03 -0.50388906422E+03  0.57837841092E+03  0.92581748088E+02 0.  0.
        254    2    1    2    0    0  0.16583255793E+03 -0.21105823801E+03 -0.11747305591E+04  0.14938430309E+04  0.88290945021E+03 0.  0.
        -24    2    4    4    0    0 -0.50399236346E+02  0.23338610677E+03 -0.42313179336E+02  0.25591927362E+03  0.81823661647E+02 0.  0.
         24    2    4    4    0    0  0.21623179428E+03 -0.44444434478E+03 -0.11324173798E+04  0.12379237573E+04  0.76152099677E+02 0.  0.
         11    1    3    3    0    0 -0.46188197842E+02  0.60504235056E+02 -0.68466974449E+02  0.10238085109E+03  0.00000000000E+00 0.  1.
        -11    1    3    3    0    0 -0.11964436009E+03  0.15055400295E+03 -0.43542208977E+03  0.47599755983E+03  0.00000000000E+00 0. -1.
          2    1    6    6  502    0  0.92734937125E+02 -0.17347111825E+03 -0.36261593319E+03  0.41253158961E+03  0.00000000000E+00 0. -1.
          3    1    5    5  503    0 -0.12656725054E+02  0.17808671467E+03 -0.56925678642E+02  0.18739157804E+03  0.00000000000E+00 0. -1.
         -4    1    5    5    0  503 -0.37742511292E+02  0.55299392103E+02  0.14612499306E+02  0.68527695580E+02  0.00000000000E+00 0.  1.
         -1    1    6    6    0  502  0.12349685715E+03 -0.27097322653E+03 -0.76980144659E+03  0.82539216764E+03  0.00000000000E+00 0.  1.
<mgrwt>
<rscale>  0 0.12150464E+04</rscale>
<asrwt>0</asrwt>
<pdfrwt beam="1">  1        2 0.28852624E+00 0.12150464E+04</pdfrwt>
<pdfrwt beam="2">  1       -2 0.30277063E-01 0.12150464E+04</pdfrwt>
<totfact> 0.77902509E+01</totfact>
</mgrwt>
</event>
<event>
12    1  0.1495204E-007  0.1874192E+04  0.7818608E-02  0.8667810E-01
          2   -1    0    0  501    0  0.00000000000E+00  0.00000000000E+00  0.26510258544E+04  0.26510258544E+04  0.00000000000E+00 0. -1.
         -2   -1    0    0    0  501 -0.00000000000E+00 -0.00000000000E+00 -0.33124865005E+03  0.33124865005E+03  0.00000000000E+00 0.  1.
         23    2    1    2    0    0 -0.27173220931E+02 -0.51794366621E+03  0.16865571800E+04  0.17668484662E+04  0.90963486718E+02 0.  0.
        254    2    1    2    0    0  0.27173220931E+02  0.51794366621E+03  0.63322002443E+03  0.12154260383E+04  0.89849253192E+03 0.  0.
        -24    2    4    4    0    0 -0.36912964472E+03  0.32747989213E+03  0.57989939125E+03  0.76569483053E+03  0.80656649857E+02 0.  0.
         24    2    4    4    0    0  0.39630286565E+03  0.19046377407E+03  0.53320633174E+02  0.44973120776E+03  0.77991401789E+02 0.  0.
         13    1    3    3    0    0 -0.22279301790E+02 -0.30315279711E+02  0.92169038652E+02  0.99551570346E+02  0.00000000000E+00 0.  1.
        -13    1    3    3    0    0 -0.48939191415E+01 -0.48762838649E+03  0.15943881413E+04  0.16672968958E+04  0.00000000000E+00 0. -1.
          4    1    6    6  502    0  0.34956775140E+03  0.15140830807E+03  0.68269438148E+02  0.38701783519E+03  0.00000000000E+00 0. -1.
          1    1    5    5  503    0 -0.37269764672E+03  0.32687186483E+03  0.57147947876E+03  0.75652993763E+03  0.00000000000E+00 0. -1.
         -2    1    5    5    0  503  0.35680020010E+01  0.60802729972E+00  0.84199124921E+01  0.91648928990E+01  0.00000000000E+00 0.  1.
         -3    1    6    6    0  502  0.46735114253E+02  0.39055465999E+02 -0.14948804974E+02  0.62713372568E+02  0.00000000000E+00 0.  1.
<mgrwt>
<rscale>  0 0.18741918E+04</rscale>
<asrwt>0</asrwt>
<pdfrwt beam="1">  1        2 0.40785012E+00 0.18741918E+04</pdfrwt>
<pdfrwt beam="2">  1       -2 0.50961333E-01 0.18741918E+04</pdfrwt>
<totfact> 0.97131258E+00</totfact>
</mgrwt>
</event>
<event>
12    1  0.1495204E-007  0.1870465E+04  0.7818608E-02  0.8669699E-01
          2   -1    0    0  501    0  0.00000000000E+00  0.00000000000E+00  0.16098088302E+04  0.16098088302E+04  0.00000000000E+00 0. -1.
         -2   -1    0    0    0  501 -0.00000000000E+00 -0.00000000000E+00 -0.54333146335E+03  0.54333146335E+03  0.00000000000E+00 0.  1.
         23    2    1    2    0    0 -0.66315213571E+03 -0.25863266215E+03  0.45448430146E+03  0.84941039199E+03  0.90996839097E+02 0.  0.
        254    2    1    2    0    0  0.66315213571E+03  0.25863266215E+03  0.61199306536E+03  0.13037299015E+04  0.90471793121E+03 0.  0.
        -24    2    4    4    0    0  0.25010985145E+03  0.92215670105E+02 -0.22146947748E+03  0.35536032277E+03  0.78572017549E+02 0.  0.
         24    2    4    4    0    0  0.41304228426E+03  0.16641699205E+03  0.83346254284E+03  0.94836957875E+03  0.80290122419E+02 0.  0.
         11    1    3    3    0    0 -0.85985810324E+02 -0.51931882231E+02  0.97484331891E+02  0.13997740865E+03  0.00000000000E+00 0.  1.
        -11    1    3    3    0    0 -0.57716632538E+03 -0.20670077992E+03  0.35699996957E+03  0.70943298334E+03  0.00000000000E+00 0. -1.
          2    1    6    6  502    0  0.41374233916E+03  0.17015922130E+03  0.83119144832E+03  0.94393649552E+03  0.00000000000E+00 0. -1.
          3    1    5    5  503    0  0.23712316049E+03  0.10120164674E+03 -0.22097965191E+03  0.33956026431E+03  0.00000000000E+00 0. -1.
         -4    1    5    5    0  503  0.12986690962E+02 -0.89859766343E+01 -0.48982556708E+00  0.15800058459E+02  0.00000000000E+00 0.  1.
         -1    1    6    6    0  502 -0.70005490168E+00 -0.37422292539E+01  0.22710945189E+01  0.44330832350E+01  0.00000000000E+00 0.  1.
<mgrwt>
<rscale>  0 0.18704650E+04</rscale>
<asrwt>0</asrwt>
<pdfrwt beam="1">  1        2 0.24766289E+00 0.18704650E+04</pdfrwt>
<pdfrwt beam="2">  1       -2 0.83589457E-01 0.18704650E+04</pdfrwt>
<totfact> 0.12938947E+01</totfact>
</mgrwt>
</event>
<event>
12    1  0.1568710E-007  0.1946861E+04  0.7818608E-02  0.8631876E-01
         -1   -1    0    0    0  501 -0.00000000000E+00  0.00000000000E+00  0.37089422556E+03  0.37089422556E+03  0.00000000000E+00 0.  1.
          1   -1    0    0  501    0  0.00000000000E+00 -0.00000000000E+00 -0.25548172427E+04  0.25548172427E+04  0.00000000000E+00 0. -1.
         23    2    1    2    0    0 -0.73683878818E+03  0.74881262601E+02 -0.11346883346E+04  0.13579222470E+04  0.88862865201E+02 0.  0.
        254    2    1    2    0    0  0.73683878818E+03 -0.74881262601E+02 -0.10492346825E+04  0.15677892213E+04  0.89918352972E+03 0.  0.
        -24    2    4    4    0    0  0.88104280427E+03  0.94476385519E+02 -0.64767409827E+03  0.11005075214E+04  0.80454066235E+02 0.  0.
         24    2    4    4    0    0 -0.14420401609E+03 -0.16935764812E+03 -0.40156058420E+03  0.46728169982E+03  0.87318228188E+02 0.  0.
         11    1    3    3    0    0 -0.68441990403E+03  0.88414082480E+02 -0.10738917650E+04  0.12765152478E+04  0.00000000000E+00 0. -1.
        -11    1    3    3    0    0 -0.52418884151E+02 -0.13532819878E+02 -0.60796569615E+02  0.81406999125E+02  0.00000000000E+00 0.  1.
          4    1    6    6  502    0 -0.69600772059E+01 -0.16812320367E+01 -0.75191809076E+02  0.75531962559E+02  0.00000000000E+00 0. -1.
          1    1    5    5  503    0  0.11768929731E+03 -0.99834064585E+01 -0.67615750622E+02  0.13609676278E+03  0.00000000000E+00 0. -1.
         -2    1    5    5    0  503  0.76335350696E+03  0.10445979198E+03 -0.58005834765E+03  0.96441075865E+03  0.00000000000E+00 0.  1.
         -3    1    6    6    0  502 -0.13724393889E+03 -0.16767641608E+03 -0.32636877512E+03  0.39174973726E+03  0.00000000000E+00 0.  1.
<mgrwt>
<rscale>  0 0.19468610E+04</rscale>
<asrwt>0</asrwt>
<pdfrwt beam="1">  1        1 0.39304881E+00 0.19468610E+04</pdfrwt>
<pdfrwt beam="2">  1       -1 0.57060649E-01 0.19468610E+04</pdfrwt>
<totfact> 0.35984902E+00</totfact>
</mgrwt>
</event>
<event>
12    1  0.1495204E-007  0.3306749E+04  0.7818608E-02  0.8161180E-01
         -2   -1    0    0    0  501 -0.00000000000E+00  0.00000000000E+00  0.10190080578E+04  0.10190080578E+04  0.00000000000E+00 0.  1.
          2   -1    0    0  501    0  0.00000000000E+00 -0.00000000000E+00 -0.26826546608E+04  0.26826546608E+04  0.00000000000E+00 0. -1.
         23    2    1    2    0    0  0.56030858315E+03 -0.17662566695E+03  0.80942390771E+03  0.10042432594E+04  0.90526941056E+02 0.  0.
        254    2    1    2    0    0 -0.56030858315E+03  0.17662566695E+03 -0.24730705107E+04  0.26974194593E+04  0.90269133908E+03 0.  0.
        -24    2    4    4    0    0 -0.72286875379E+03  0.11133982298E+03 -0.11824804301E+04  0.13926271646E+04  0.78833118917E+02 0.  0.
         24    2    4    4    0    0  0.16256017064E+03  0.65285843977E+02 -0.12905900806E+04  0.13047922947E+04  0.78562876139E+02 0.  0.
         11    1    3    3    0    0  0.28615346682E+02 -0.15396097458E+02  0.87045068604E+02  0.92912441853E+02  0.00000000000E+00 0. -1.
        -11    1    3    3    0    0  0.53169323647E+03 -0.16122956950E+03  0.72237883910E+03  0.91133081752E+03  0.00000000000E+00 0.  1.
          4    1    6    6  502    0  0.50045963528E+02  0.30180690354E+02 -0.70747394180E+03  0.70988368826E+03  0.00000000000E+00 0. -1.
          3    1    5    5  503    0 -0.57865958910E+03  0.72764761189E+02 -0.88667877262E+03  0.10612920787E+04  0.00000000000E+00 0. -1.
         -4    1    5    5    0  503 -0.14420916469E+03  0.38575061787E+02 -0.29580165750E+03  0.33133508591E+03  0.00000000000E+00 0.  1.
         -3    1    6    6    0  502  0.11251420711E+03  0.35105153623E+02 -0.58311613882E+03  0.59490860639E+03  0.00000000000E+00 0.  1.
<mgrwt>
<rscale>  0 0.33067487E+04</rscale>
<asrwt>0</asrwt>
<pdfrwt beam="1">  1        2 0.41271609E+00 0.33067487E+04</pdfrwt>
<pdfrwt beam="2">  1       -2 0.15677047E+00 0.33067487E+04</pdfrwt>
<totfact> 0.60415593E-01</totfact>
</mgrwt>
</event>
<event>
12    1  0.1495204E-007  0.1295899E+04  0.7818608E-02  0.9032824E-01
          2   -1    0    0  501    0  0.00000000000E+00  0.00000000000E+00  0.11320453440E+04  0.11320453440E+04  0.00000000000E+00 0. -1.
         -2   -1    0    0    0  501 -0.00000000000E+00 -0.00000000000E+00 -0.37086722835E+03  0.37086722835E+03  0.00000000000E+00 0.  1.
         23    2    1    2    0    0  0.21820656364E+03 -0.20619470732E+03  0.51996881252E+02  0.31799373615E+03  0.91027352097E+02 0.  0.
        254    2    1    2    0    0 -0.21820656364E+03  0.20619470732E+03  0.70918123440E+03  0.11849188362E+04  0.90053554256E+03 0.  0.
        -24    2    4    4    0    0  0.26376061084E+03  0.30213276154E+03  0.49740477217E+03  0.64382267937E+03  0.79008035452E+02 0.  0.
         24    2    4    4    0    0 -0.48196717448E+03 -0.95938054228E+02  0.21177646223E+03  0.54109615683E+03  0.80245332876E+02 0.  0.
         13    1    3    3    0    0  0.84587159114E+02 -0.75298791164E+02 -0.24565314157E+02  0.11588075810E+03  0.00000000000E+00 0.  1.
        -13    1    3    3    0    0  0.13361940453E+03 -0.13089591615E+03  0.76562195409E+02  0.20211297805E+03  0.00000000000E+00 0. -1.
          4    1    6    6  502    0 -0.41346188010E+03 -0.10499735384E+03  0.16370585203E+03  0.45691878556E+03  0.00000000000E+00 0. -1.
          3    1    5    5  503    0  0.24300917624E+03  0.29292288567E+03  0.43818071269E+03  0.58039608343E+03  0.00000000000E+00 0. -1.
         -4    1    5    5    0  503  0.20751434599E+02  0.92098758723E+01  0.59224059473E+02  0.63426595936E+02  0.00000000000E+00 0.  1.
         -3    1    6    6    0  502 -0.68505294382E+02  0.90592996135E+01  0.48070610200E+02  0.84177371264E+02  0.00000000000E+00 0.  1.
<mgrwt>
<rscale>  0 0.12958989E+04</rscale>
<asrwt>0</asrwt>
<pdfrwt beam="1">  1        2 0.17416082E+00 0.12958989E+04</pdfrwt>
<pdfrwt beam="2">  1       -2 0.57056497E-01 0.12958989E+04</pdfrwt>
<totfact> 0.58777139E+01</totfact>
</mgrwt>
</event>
<event>
12    1  0.1495204E-007  0.3035895E+04  0.7818608E-02  0.8233555E-01
          1   -1    0    0  501    0  0.00000000000E+00  0.00000000000E+00  0.26991365149E+04  0.26991365149E+04  0.00000000000E+00 0. -1.
         -1   -1    0    0    0  501 -0.00000000000E+00 -0.00000000000E+00 -0.85366724033E+03  0.85366724033E+03  0.00000000000E+00 0.  1.
         23    2    1    2    0    0  0.89806993594E+03  0.70346611179E+03 -0.81926374615E+02  0.11473387227E+04  0.90994688896E+02 0.  0.
        254    2    1    2    0    0 -0.89806993594E+03 -0.70346611179E+03  0.19273956492E+04  0.24054650326E+04  0.87750433279E+03 0.  0.
        -24    2    4    4    0    0 -0.33469482350E+03 -0.20288424341E+03  0.78087372174E+02  0.40691235761E+03  0.79356083463E+02 0.  0.
         24    2    4    4    0    0 -0.56337511244E+03 -0.50058186838E+03  0.18493082770E+04  0.19985526750E+04  0.79359730568E+02 0.  0.
         13    1    3    3    0    0  0.64696311780E+03  0.48513888465E+03 -0.95753873369E+02  0.81430327118E+03  0.00000000000E+00 0.  1.
        -13    1    3    3    0    0  0.25110681815E+03  0.21832722714E+03  0.13827498754E+02  0.33303545149E+03  0.00000000000E+00 0. -1.
          2    1    6    6  502    0 -0.18295569075E+03 -0.16525848267E+03  0.51033758737E+03  0.56676944515E+03  0.00000000000E+00 0. -1.
          1    1    5    5  503    0 -0.92923766527E+02 -0.98536030854E+02  0.36947427337E+02  0.14038977224E+03  0.00000000000E+00 0. -1.
         -2    1    5    5    0  503 -0.24177105697E+03 -0.10434821255E+03  0.41139944838E+02  0.26652258537E+03  0.00000000000E+00 0.  1.
         -1    1    6    6    0  502 -0.38041942169E+03 -0.33532338571E+03  0.13389706897E+04  0.14317832298E+04  0.00000000000E+00 0.  1.
<mgrwt>
<rscale>  0 0.30358949E+04</rscale>
<asrwt>0</asrwt>
<pdfrwt beam="1">  1        1 0.41525177E+00 0.30358949E+04</pdfrwt>
<pdfrwt beam="2">  1       -1 0.13133342E+00 0.30358949E+04</pdfrwt>
<totfact> 0.41184468E-01</totfact>
</mgrwt>
</event>
<event>
12    1  0.1495204E-007  0.1389476E+04  0.7818608E-02  0.8961472E-01
         -1   -1    0    0    0  501 -0.00000000000E+00  0.00000000000E+00  0.37191932070E+03  0.37191932070E+03  0.00000000000E+00 0.  1.
          1   -1    0    0  501    0  0.00000000000E+00 -0.00000000000E+00 -0.12977574315E+04  0.12977574315E+04  0.00000000000E+00 0. -1.
         23    2    1    2    0    0  0.12036476708E+03 -0.21487559537E+03  0.95762804602E+02  0.27915735149E+03  0.89995074885E+02 0.  0.
        254    2    1    2    0    0 -0.12036476708E+03  0.21487559537E+03 -0.10216009154E+04  0.13905194007E+04  0.91061329593E+03 0.  0.
        -24    2    4    4    0    0  0.10657950198E+03  0.51828756116E+03 -0.73741401577E+03  0.91103738025E+03  0.78920791080E+02 0.  0.
         24    2    4    4    0    0 -0.22694426905E+03 -0.30341196579E+03 -0.28418689960E+03  0.47948202042E+03  0.74687962667E+02 0.  0.
         13    1    3    3    0    0  0.12676699786E+03 -0.18738105768E+03  0.10505737002E+03  0.24943653205E+03  0.00000000000E+00 0.  1.
        -13    1    3    3    0    0 -0.64022307855E+01 -0.27494537692E+02 -0.92945654152E+01  0.29720819440E+02  0.00000000000E+00 0. -1.
          4    1    6    6  502    0 -0.37539464859E+02 -0.10523464722E+03 -0.73459360792E+02  0.13371544446E+03  0.00000000000E+00 0. -1.
          1    1    5    5  503    0 -0.12991353948E+02  0.50328093968E+02 -0.69722616033E+02  0.86965139604E+02  0.00000000000E+00 0. -1.
         -2    1    5    5    0  503  0.11957085592E+03  0.46795946719E+03 -0.66769139974E+03  0.82407224065E+03  0.00000000000E+00 0.  1.
         -3    1    6    6    0  502 -0.18940480420E+03 -0.19817731856E+03 -0.21072753881E+03  0.34576657597E+03  0.00000000000E+00 0.  1.
<mgrwt>
<rscale>  0 0.13894763E+04</rscale>
<asrwt>0</asrwt>
<pdfrwt beam="1">  1        1 0.19965499E+00 0.13894763E+04</pdfrwt>
<pdfrwt beam="2">  1       -1 0.57218357E-01 0.13894763E+04</pdfrwt>
<totfact> 0.27400911E+01</totfact>
</mgrwt>
</event>
<event>
12    1  0.1495204E-007  0.2630984E+04  0.7818608E-02  0.8357752E-01
          2   -1    0    0  501    0  0.00000000000E+00  0.00000000000E+00  0.31145833985E+04  0.31145833985E+04  0.00000000000E+00 0. -1.
         -2   -1    0    0    0  501 -0.00000000000E+00 -0.00000000000E+00 -0.55561818076E+03  0.55561818076E+03  0.00000000000E+00 0.  1.
         23    2    1    2    0    0 -0.85866348713E+03 -0.46603100627E+03  0.19878965263E+04  0.22169182116E+04  0.92227299374E+02 0.  0.
        254    2    1    2    0    0  0.85866348713E+03  0.46603100627E+03  0.57106869142E+03  0.14532833676E+04  0.91182520991E+03 0.  0.
        -24    2    4    4    0    0  0.62832159078E+03  0.10637275241E+03  0.74636229571E+03  0.98466211454E+03  0.79997621646E+02 0.  0.
         24    2    4    4    0    0  0.23034189635E+03  0.35965825386E+03 -0.17529360428E+03  0.46862125310E+03  0.80415063123E+02 0.  0.
         11    1    3    3    0    0 -0.33879628326E+03 -0.20087355532E+03  0.70607270504E+03  0.80849970413E+03  0.00000000000E+00 0. -1.
        -11    1    3    3    0    0 -0.51986720387E+03 -0.26515745096E+03  0.12818238213E+04  0.14084185075E+04  0.00000000000E+00 0.  1.
          2    1    6    6  502    0  0.51902709407E+02  0.14039487475E+03 -0.83493759697E+02  0.17139375720E+03  0.00000000000E+00 0. -1.
          3    1    5    5  503    0  0.61302478296E+03  0.90347392447E+02  0.71324196271E+03  0.94481539637E+03  0.00000000000E+00 0. -1.
         -4    1    5    5    0  503  0.15296807823E+02  0.16025359967E+02  0.33120332998E+02  0.39846718178E+02  0.00000000000E+00 0.  1.
         -1    1    6    6    0  502  0.17843918694E+03  0.21926337911E+03 -0.91799844588E+02  0.29722749590E+03  0.00000000000E+00 0.  1.
<mgrwt>
<rscale>  0 0.26309840E+04</rscale>
<asrwt>0</asrwt>
<pdfrwt beam="1">  1        2 0.47916667E+00 0.26309840E+04</pdfrwt>
<pdfrwt beam="2">  1       -2 0.85479722E-01 0.26309840E+04</pdfrwt>
<totfact> 0.15456905E+00</totfact>
</mgrwt>
</event>
<event>
12    1  0.1495204E-007  0.1446846E+04  0.7818608E-02  0.8920590E-01
         -2   -1    0    0    0  501 -0.00000000000E+00  0.00000000000E+00  0.31504374055E+03  0.31504374055E+03  0.00000000000E+00 0. -1.
          2   -1    0    0  501    0  0.00000000000E+00 -0.00000000000E+00 -0.16611683346E+04  0.16611683346E+04  0.00000000000E+00 0.  1.
         23    2    1    2    0    0  0.16625443329E+03 -0.15712737743E+02  0.13407998825E+03  0.23282024889E+03  0.91325781302E+02 0.  0.
        254    2    1    2    0    0 -0.16625443329E+03  0.15712737743E+02 -0.14802045823E+04  0.17433918263E+04  0.90582670953E+03 0.  0.
        -24    2    4    4    0    0  0.11048152396E+01  0.44014034374E+03 -0.60028241237E+03  0.74929591398E+03  0.85910705360E+02 0.  0.
         24    2    4    4    0    0 -0.16735924853E+03 -0.42442760599E+03 -0.87992216995E+03  0.99409591230E+03  0.76261044390E+02 0.  0.
         13    1    3    3    0    0 -0.30910342349E+01  0.96610741639E+01  0.31766131174E+02  0.33346333178E+02  0.00000000000E+00 0.  1.
        -13    1    3    3    0    0  0.16934546752E+03 -0.25373811907E+02  0.10231385707E+03  0.19947391571E+03  0.00000000000E+00 0. -1.
          4    1    6    6  502    0 -0.46476757715E+02 -0.92686668526E+02 -0.27179205840E+03  0.29089831650E+03  0.00000000000E+00 0. -1.
          3    1    5    5  503    0  0.27953712707E+02  0.76649970547E+02 -0.81905342670E+02  0.11560758278E+03  0.00000000000E+00 0. -1.
         -4    1    5    5    0  503 -0.26848897468E+02  0.36349037319E+03 -0.51837706970E+03  0.63368833119E+03  0.00000000000E+00 0.  1.
         -3    1    6    6    0  502 -0.12088249081E+03 -0.33174093747E+03 -0.60813011155E+03  0.70319759581E+03  0.00000000000E+00 0.  1.
<mgrwt>
<rscale>  0 0.14468458E+04</rscale>
<asrwt>0</asrwt>
<pdfrwt beam="1">  1        2 0.25556436E+00 0.14468458E+04</pdfrwt>
<pdfrwt beam="2">  1       -2 0.48468268E-01 0.14468458E+04</pdfrwt>
<totfact> 0.40307114E+01</totfact>
</mgrwt>
</event>
<event>
12    1  0.1495204E-007  0.1153795E+04  0.7818608E-02  0.9154290E-01
         -2   -1    0    0    0  501 -0.00000000000E+00  0.00000000000E+00  0.39861364058E+03  0.39861364058E+03  0.00000000000E+00 0.  1.
          2   -1    0    0  501    0  0.00000000000E+00 -0.00000000000E+00 -0.83491992228E+03  0.83491992228E+03  0.00000000000E+00 0. -1.
         23    2    1    2    0    0 -0.16897530632E+03  0.59648275946E+02  0.53612418356E+01  0.20147424169E+03  0.91937784285E+02 0.  0.
        254    2    1    2    0    0  0.16897530632E+03 -0.59648275946E+02 -0.44166752354E+03  0.10320593212E+04  0.91540464829E+03 0.  0.
        -24    2    4    4    0    0 -0.24115733545E+03  0.29045341528E+03 -0.14903391205E+03  0.41339203332E+03  0.78497257178E+02 0.  0.
         24    2    4    4    0    0  0.41013264177E+03 -0.35010169122E+03 -0.29263361149E+03  0.61866728786E+03  0.79591484764E+02 0.  0.
         13    1    3    3    0    0 -0.24105038794E+02  0.56194423195E+01 -0.33877032562E+02  0.41955742902E+02  0.00000000000E+00 0. -1.
        -13    1    3    3    0    0 -0.14487026753E+03  0.54028833626E+02  0.39238274398E+02  0.15951849878E+03  0.00000000000E+00 0.  1.
          4    1    6    6  502    0  0.24967712047E+03 -0.20802943582E+03 -0.13170171834E+03  0.35065688824E+03  0.00000000000E+00 0. -1.
          3    1    5    5  503    0 -0.16859877840E+03  0.24491022156E+03 -0.13514919016E+03  0.32660659562E+03  0.00000000000E+00 0. -1.
         -4    1    5    5    0  503 -0.72558557047E+02  0.45543193722E+02 -0.13884721894E+02  0.86785437703E+02  0.00000000000E+00 0.  1.
         -3    1    6    6    0  502  0.16045552130E+03 -0.14207225540E+03 -0.16093189315E+03  0.26801039962E+03  0.00000000000E+00 0.  1.
<mgrwt>
<rscale>  0 0.11537946E+04</rscale>
<asrwt>0</asrwt>
<pdfrwt beam="1">  1        2 0.12844922E+00 0.11537946E+04</pdfrwt>
<pdfrwt beam="2">  1       -2 0.61325175E-01 0.11537946E+04</pdfrwt>
<totfact> 0.79607613E+01</totfact>
</mgrwt>
</event>
<event>
12    1  0.1495204E-007  0.1450888E+04  0.7818608E-02  0.8917785E-01
         -1   -1    0    0    0  501 -0.00000000000E+00  0.00000000000E+00  0.38499016244E+03  0.38499016244E+03  0.00000000000E+00 0.  1.
          1   -1    0    0  501    0  0.00000000000E+00 -0.00000000000E+00 -0.13669675432E+04  0.13669675432E+04  0.00000000000E+00 0. -1.
         23    2    1    2    0    0 -0.32167027120E+03  0.23822475682E+03 -0.28834937774E+03  0.50144448932E+03  0.89879998329E+02 0.  0.
        254    2    1    2    0    0  0.32167027120E+03 -0.23822475682E+03 -0.69362800298E+03  0.12505132163E+04  0.96043776448E+03 0.  0.
        -24    2    4    4    0    0  0.53045321285E+03  0.17784574245E+03 -0.33455752002E+03  0.65677748804E+03  0.80113765745E+02 0.  0.
         24    2    4    4    0    0 -0.20878294165E+03 -0.41607049926E+03 -0.35907048296E+03  0.59373572825E+03  0.82979070728E+02 0.  0.
         11    1    3    3    0    0  0.57013834019E+00 -0.41305021715E+01 -0.11793221539E+02  0.12508644219E+02  0.00000000000E+00 0.  1.
        -11    1    3    3    0    0 -0.32224040954E+03  0.24235525899E+03 -0.27655615620E+03  0.48893584511E+03  0.00000000000E+00 0. -1.
          4    1    6    6  502    0 -0.16072958003E+02 -0.98887135548E+02 -0.96561505742E+02  0.13914427745E+03  0.00000000000E+00 0. -1.
          1    1    5    5  503    0  0.13526056216E+03  0.76279995990E+02 -0.68925460809E+02  0.16989637021E+03  0.00000000000E+00 0. -1.
         -2    1    5    5    0  503  0.39519265069E+03  0.10156574646E+03 -0.26563205921E+03  0.48688111783E+03  0.00000000000E+00 0.  1.
         -3    1    6    6    0  502 -0.19270998365E+03 -0.31718336372E+03 -0.26250897722E+03  0.45459145080E+03  0.00000000000E+00 0.  1.
<mgrwt>
<rscale>  0 0.14508881E+04</rscale>
<asrwt>0</asrwt>
<pdfrwt beam="1">  1        1 0.21030270E+00 0.14508881E+04</pdfrwt>
<pdfrwt beam="2">  1       -1 0.59229254E-01 0.14508881E+04</pdfrwt>
<totfact> 0.22746053E+01</totfact>
</mgrwt>
</event>
<event>
12    1  0.1495204E-007  0.1923678E+04  0.7818608E-02  0.8643159E-01
         -2   -1    0    0    0  501 -0.00000000000E+00  0.00000000000E+00  0.10768605813E+04  0.10768605813E+04  0.00000000000E+00 0.  1.
          2   -1    0    0  501    0  0.00000000000E+00 -0.00000000000E+00 -0.85910338939E+03  0.85910338939E+03  0.00000000000E+00 0. -1.
         23    2    1    2    0    0  0.34511908705E+03  0.65400960320E+03  0.17824665810E+03  0.76598673008E+03  0.90155722012E+02 0.  0.
        254    2    1    2    0    0 -0.34511908705E+03 -0.65400960320E+03  0.39510533851E+02  0.11699772406E+04  0.90578690430E+03 0.  0.
        -24    2    4    4    0    0  0.21259328555E+03 -0.49458552211E+03  0.16913866882E+03  0.56985662569E+03  0.79485475410E+02 0.  0.
         24    2    4    4    0    0 -0.55771237261E+03 -0.15942408108E+03 -0.12962813497E+03  0.60012061495E+03  0.82958850810E+02 0.  0.
         13    1    3    3    0    0  0.18406389796E+03  0.38787372273E+03  0.14492902733E+03  0.45313349720E+03  0.00000000000E+00 0.  1.
        -13    1    3    3    0    0  0.16105518910E+03  0.26613588047E+03  0.33317630764E+02  0.31285323288E+03  0.00000000000E+00 0. -1.
          2    1    6    6  502    0 -0.55654613532E+02 -0.19000765475E+02 -0.40059340788E+02  0.71156277871E+02  0.00000000000E+00 0. -1.
          3    1    5    5  503    0  0.47867283023E+02 -0.17521463861E+03  0.27988656571E+02  0.18377924601E+03  0.00000000000E+00 0. -1.
         -4    1    5    5    0  503  0.16472600253E+03 -0.31937088350E+03  0.14115001225E+03  0.38607737967E+03  0.00000000000E+00 0.  1.
         -3    1    6    6    0  502 -0.50205775907E+03 -0.14042331561E+03 -0.89568794182E+02  0.52896433708E+03  0.00000000000E+00 0.  1.
<mgrwt>
<rscale>  0 0.19236783E+04</rscale>
<asrwt>0</asrwt>
<pdfrwt beam="1">  1        2 0.13216975E+00 0.19236783E+04</pdfrwt>
<pdfrwt beam="2">  1       -2 0.16567086E+00 0.19236783E+04</pdfrwt>
<totfact> 0.66914285E+00</totfact>
</mgrwt>
</event>
<event>
12    1  0.1495204E-007  0.1810014E+04  0.7818608E-02  0.8700992E-01
         -1   -1    0    0    0  501 -0.00000000000E+00  0.00000000000E+00  0.35239517186E+03  0.35239517186E+03  0.00000000000E+00 0.  1.
          1   -1    0    0  501    0  0.00000000000E+00 -0.00000000000E+00 -0.23242034365E+04  0.23242034365E+04  0.00000000000E+00 0. -1.
         23    2    1    2    0    0 -0.59025204924E+03 -0.20294488253E+03 -0.11105109426E+04  0.12778382276E+04  0.10025904106E+03 0.  0.
        254    2    1    2    0    0  0.59025204924E+03  0.20294488253E+03 -0.86129732210E+03  0.13987603808E+04  0.90835753914E+03 0.  0.
        -24    2    4    4    0    0  0.67726793859E+03  0.30133667745E+03 -0.27910605475E+03  0.79597370169E+03  0.78602100210E+02 0.  0.
         24    2    4    4    0    0 -0.87015889357E+02 -0.98391794922E+02 -0.58219126734E+03  0.60278667912E+03  0.84571853757E+02 0.  0.
         11    1    3    3    0    0 -0.59144066296E+03 -0.19940795135E+03 -0.11107490724E+04  0.12740993253E+04  0.00000000000E+00 0. -1.
        -11    1    3    3    0    0  0.11886137211E+01 -0.35369311803E+01  0.23812979525E+00  0.37389023191E+01  0.00000000000E+00 0.  1.
          4    1    6    6  502    0  0.17362602599E+01 -0.41585051193E+02 -0.27246566377E+03  0.27562632134E+03  0.00000000000E+00 0. -1.
          3    1    5    5  503    0  0.66555826351E+03  0.29781622672E+03 -0.26168099150E+03  0.77468654844E+03  0.00000000000E+00 0. -1.
         -4    1    5    5    0  503  0.11709675082E+02  0.35204507324E+01 -0.17425063258E+02  0.21287153249E+02  0.00000000000E+00 0.  1.
         -3    1    6    6    0  502 -0.88752149616E+02 -0.56806743729E+02 -0.30972560358E+03  0.32716035778E+03  0.00000000000E+00 0.  1.
<mgrwt>
<rscale>  0 0.18100144E+04</rscale>
<asrwt>0</asrwt>
<pdfrwt beam="1">  1        1 0.35756976E+00 0.18100144E+04</pdfrwt>
<pdfrwt beam="2">  1       -1 0.54214642E-01 0.18100144E+04</pdfrwt>
<totfact> 0.58060096E+00</totfact>
</mgrwt>
</event>
<event>
12    1  0.1495204E-007  0.1511966E+04  0.7818608E-02  0.8876534E-01
         -4   -1    0    0    0  501 -0.00000000000E+00  0.00000000000E+00  0.58943078993E+03  0.58943078993E+03  0.00000000000E+00 0. -1.
          4   -1    0    0  501    0  0.00000000000E+00 -0.00000000000E+00 -0.96959757887E+03  0.96959757887E+03  0.00000000000E+00 0.  1.
         23    2    1    2    0    0 -0.44264000429E+02  0.46093946010E+03 -0.24180879397E+03  0.52973914196E+03  0.87906644064E+02 0.  0.
        254    2    1    2    0    0  0.44264000429E+02 -0.46093946010E+03 -0.13835799498E+03  0.10292892268E+04  0.90877328862E+03 0.  0.
        -24    2    4    4    0    0 -0.29298606919E+03 -0.56445592677E+03 -0.18080869727E+03  0.66510521399E+03  0.72262235440E+02 0.  0.
         24    2    4    4    0    0  0.33725006962E+03  0.10351646666E+03  0.42450702288E+02  0.36418401285E+03  0.79841497749E+02 0.  0.
         11    1    3    3    0    0 -0.60944671844E+02  0.41737712655E+03 -0.19885183231E+03  0.46632603402E+03  0.00000000000E+00 0.  1.
        -11    1    3    3    0    0  0.16680671415E+02  0.43562333550E+02 -0.42956961659E+02  0.63413107937E+02  0.00000000000E+00 0. -1.
          2    1    6    6  502    0  0.14624356163E+03  0.84587368737E+02  0.76873336272E+01  0.16911918096E+03  0.00000000000E+00 0. -1.
          1    1    5    5  503    0 -0.24484004145E+03 -0.49945455406E+03 -0.13595937365E+03  0.57261369941E+03  0.00000000000E+00 0. -1.
         -2    1    5    5    0  503 -0.48146027739E+02 -0.65001372709E+02 -0.44849323618E+02  0.92491514584E+02  0.00000000000E+00 0.  1.
         -1    1    6    6    0  502  0.19100650799E+03  0.18929097925E+02  0.34763368661E+02  0.19506483189E+03  0.00000000000E+00 0.  1.
<mgrwt>
<rscale>  0 0.15119665E+04</rscale>
<asrwt>0</asrwt>
<pdfrwt beam="1">  1        4 0.14916886E+00 0.15119665E+04</pdfrwt>
<pdfrwt beam="2">  1       -4 0.90681660E-01 0.15119665E+04</pdfrwt>
<totfact> 0.60679283E-01</totfact>
</mgrwt>
</event>
<event>
12    1  0.1495204E-007  0.1092426E+04  0.7818608E-02  0.9212606E-01
         -1   -1    0    0    0  501 -0.00000000000E+00  0.00000000000E+00  0.11667103858E+04  0.11667103858E+04  0.00000000000E+00 0.  1.
          1   -1    0    0  501    0  0.00000000000E+00 -0.00000000000E+00 -0.25571763339E+03  0.25571763339E+03  0.00000000000E+00 0. -1.
         23    2    1    2    0    0 -0.12129593430E+03  0.30310531319E+02  0.32553148505E+03  0.36093041559E+03  0.93105236983E+02 0.  0.
        254    2    1    2    0    0  0.12129593430E+03 -0.30310531319E+02  0.58546126740E+03  0.10614976036E+04  0.87657334827E+03 0.  0.
        -24    2    4    4    0    0  0.32374819588E+03 -0.31590378357E+03  0.52382376244E+03  0.69673683541E+03  0.80266985189E+02 0.  0.
         24    2    4    4    0    0 -0.20245226158E+03  0.28559325225E+03  0.61637504952E+02  0.36476076822E+03  0.81858488069E+02 0.  0.
         11    1    3    3    0    0 -0.27698264413E+02  0.27381900953E+02  0.20305452581E+03  0.20675614332E+03  0.00000000000E+00 0.  1.
        -11    1    3    3    0    0 -0.93597669887E+02  0.29286303667E+01  0.12247695924E+03  0.15417427227E+03  0.00000000000E+00 0. -1.
          4    1    6    6  502    0 -0.11340793646E+02  0.58450889135E+02  0.28689330909E+02  0.66092342591E+02  0.00000000000E+00 0. -1.
          3    1    5    5  503    0  0.38176330040E+02 -0.77505650886E+02  0.11746914949E+03  0.14582029755E+03  0.00000000000E+00 0. -1.
         -4    1    5    5    0  503  0.28557186584E+03 -0.23839813268E+03  0.40635461295E+03  0.55091653786E+03  0.00000000000E+00 0.  1.
         -3    1    6    6    0  502 -0.19111146793E+03  0.22714236311E+03  0.32948174042E+02  0.29866842563E+03  0.00000000000E+00 0.  1.
<mgrwt>
<rscale>  0 0.10924256E+04</rscale>
<asrwt>0</asrwt>
<pdfrwt beam="1">  1        1 0.39341175E-01 0.10924256E+04</pdfrwt>
<pdfrwt beam="2">  1       -1 0.17949390E+00 0.10924256E+04</pdfrwt>
<totfact> 0.22599784E+01</totfact>
</mgrwt>
</event>
<event>
12    1  0.1495204E-007  0.1354826E+04  0.7818608E-02  0.8987183E-01
          2   -1    0    0  501    0  0.00000000000E+00  0.00000000000E+00  0.65713770156E+03  0.65713770156E+03  0.00000000000E+00 0.  1.
         -2   -1    0    0    0  501 -0.00000000000E+00 -0.00000000000E+00 -0.69831424476E+03  0.69831424476E+03  0.00000000000E+00 0. -1.
         23    2    1    2    0    0 -0.29875519269E+03 -0.20150421295E+03 -0.11704792388E+03  0.38984679813E+03  0.91769801837E+02 0.  0.
        254    2    1    2    0    0  0.29875519269E+03  0.20150421295E+03  0.75871380680E+02  0.96560514819E+03  0.89262434586E+03 0.  0.
        -24    2    4    4    0    0 -0.25266349274E+03 -0.50653882323E+02 -0.15569392820E+03  0.31185857516E+03  0.81305075256E+02 0.  0.
         24    2    4    4    0    0  0.55141868543E+03  0.25215809527E+03  0.23156530888E+03  0.65374657303E+03  0.78203694393E+02 0.  0.
         13    1    3    3    0    0 -0.28962281031E+03 -0.18336801769E+03 -0.12902897619E+03  0.36626995353E+03  0.00000000000E+00 0.  1.
        -13    1    3    3    0    0 -0.91323823775E+01 -0.18136195265E+02  0.11981052311E+02  0.23576844595E+02  0.00000000000E+00 0. -1.
          4    1    6    6  502    0  0.14928812507E+03  0.35622841816E+02  0.75920817730E+02  0.17123055133E+03  0.00000000000E+00 0. -1.
          3    1    5    5  503    0 -0.32517925247E+01  0.12158482207E+02 -0.11213246632E+02  0.16856445184E+02  0.00000000000E+00 0. -1.
         -4    1    5    5    0  503 -0.24941170022E+03 -0.62812364530E+02 -0.14448068157E+03  0.29500212998E+03  0.00000000000E+00 0.  1.
         -3    1    6    6    0  502  0.40213056037E+03  0.21653525346E+03  0.15564449115E+03  0.48251602170E+03  0.00000000000E+00 0.  1.
<mgrwt>
<rscale>  0 0.13548264E+04</rscale>
<asrwt>0</asrwt>
<pdfrwt beam="1">  1        2 0.10109811E+00 0.13548264E+04</pdfrwt>
<pdfrwt beam="2">  1       -2 0.10743296E+00 0.13548264E+04</pdfrwt>
<totfact> 0.30132393E+01</totfact>
</mgrwt>
</event>
<event>
12    1  0.1495204E-007  0.2372123E+04  0.7818608E-02  0.8450014E-01
         -1   -1    0    0    0  501 -0.00000000000E+00  0.00000000000E+00  0.68432906305E+03  0.68432906305E+03  0.00000000000E+00 0.  1.
          1   -1    0    0  501    0  0.00000000000E+00 -0.00000000000E+00 -0.20556518909E+04  0.20556518909E+04  0.00000000000E+00 0. -1.
         23    2    1    2    0    0 -0.67351271042E+03  0.77014381153E+03 -0.60658326464E+03  0.11928658199E+04  0.90800583190E+02 0.  0.
        254    2    1    2    0    0  0.67351271042E+03 -0.77014381153E+03 -0.76473956323E+03  0.15471151340E+04  0.87292484033E+03 0.  0.
        -24    2    4    4    0    0  0.27801185100E+03 -0.84388411791E+03 -0.33409648513E+03  0.95255244585E+03  0.79402184869E+02 0.  0.
         24    2    4    4    0    0  0.39550085941E+03  0.73740306377E+02 -0.43064307811E+03  0.59456268819E+03  0.78694135031E+02 0.  0.
         11    1    3    3    0    0 -0.56136710705E+03  0.68781035820E+03 -0.51656174385E+03  0.10271573165E+04  0.00000000000E+00 0.  1.
        -11    1    3    3    0    0 -0.11214560337E+03  0.82333453333E+02 -0.90021520784E+02  0.16570850339E+03  0.00000000000E+00 0. -1.
          4    1    6    6  502    0  0.20670177353E+03  0.46848927038E+02 -0.17053377269E+03  0.27203347730E+03  0.00000000000E+00 0. -1.
          1    1    5    5  503    0  0.24411165019E+03 -0.80082917893E+03 -0.31551730563E+03  0.89468935488E+03  0.00000000000E+00 0. -1.
         -2    1    5    5    0  503  0.33900200815E+02 -0.43054938981E+02 -0.18579179494E+02  0.57863090971E+02  0.00000000000E+00 0.  1.
         -3    1    6    6    0  502  0.18879908588E+03  0.26891379339E+02 -0.26010930542E+03  0.32252921089E+03  0.00000000000E+00 0.  1.
<mgrwt>
<rscale>  0 0.23721234E+04</rscale>
<asrwt>0</asrwt>
<pdfrwt beam="1">  1        1 0.31625413E+00 0.23721234E+04</pdfrwt>
<pdfrwt beam="2">  1       -1 0.10528140E+00 0.23721234E+04</pdfrwt>
<totfact> 0.20755991E+00</totfact>
</mgrwt>
</event>
<event>
12    1  0.1495204E-007  0.2282248E+04  0.7818608E-02  0.8484954E-01
         -1   -1    0    0    0  501 -0.00000000000E+00  0.00000000000E+00  0.95764299691E+03  0.95764299691E+03  0.00000000000E+00 0.  1.
          1   -1    0    0  501    0  0.00000000000E+00 -0.00000000000E+00 -0.13597592613E+04  0.13597592613E+04  0.00000000000E+00 0. -1.
         23    2    1    2    0    0 -0.71806186810E+03  0.55784537904E+03  0.14724452821E+03  0.92612786563E+03  0.96060184610E+02 0.  0.
        254    2    1    2    0    0  0.71806186810E+03 -0.55784537904E+03 -0.54936079263E+03  0.13912743926E+04  0.89835563209E+03 0.  0.
        -24    2    4    4    0    0  0.55112051343E+03 -0.77429974131E+03 -0.26897175364E+03  0.99131785549E+03  0.84210311900E+02 0.  0.
         24    2    4    4    0    0  0.16694135466E+03  0.21645436227E+03 -0.28038903899E+03  0.39995653712E+03  0.81396016839E+02 0.  0.
         13    1    3    3    0    0 -0.42700673508E+03  0.31205050392E+03  0.13082662405E+03  0.54481728530E+03  0.00000000000E+00 0. -1.
        -13    1    3    3    0    0 -0.29105513302E+03  0.24579487513E+03  0.16417904159E+02  0.38131058033E+03  0.00000000000E+00 0.  1.
          4    1    6    6  502    0  0.25286096937E+02  0.70708108505E+02 -0.11771650800E+03  0.13962879202E+03  0.00000000000E+00 0. -1.
          1    1    5    5  503    0  0.51321749560E+03 -0.67686637713E+03 -0.23398489817E+03  0.88107276819E+03  0.00000000000E+00 0. -1.
         -2    1    5    5    0  503  0.37903017829E+02 -0.97433364188E+02 -0.34986855471E+02  0.11024508730E+03  0.00000000000E+00 0.  1.
         -3    1    6    6    0  502  0.14165525773E+03  0.14574625377E+03 -0.16267253099E+03  0.26032774510E+03  0.00000000000E+00 0.  1.
<mgrwt>
<rscale>  0 0.22822480E+04</rscale>
<asrwt>0</asrwt>
<pdfrwt beam="1">  1        1 0.20919373E+00 0.22822480E+04</pdfrwt>
<pdfrwt beam="2">  1       -1 0.14732969E+00 0.22822480E+04</pdfrwt>
<totfact> 0.27189198E+00</totfact>
</mgrwt>
</event>
<event>
12    1  0.1495204E-007  0.2228228E+04  0.7818608E-02  0.8506770E-01
          1   -1    0    0  501    0  0.00000000000E+00  0.00000000000E+00  0.22818726882E+04  0.22818726882E+04  0.00000000000E+00 0. -1.
         -1   -1    0    0    0  501 -0.00000000000E+00 -0.00000000000E+00 -0.54396135504E+03  0.54396135504E+03  0.00000000000E+00 0.  1.
         23    2    1    2    0    0  0.29310612225E+02  0.61619475236E+03 -0.15193227635E+03  0.64171777128E+03  0.90350409841E+02 0.  0.
        254    2    1    2    0    0 -0.29310612225E+02 -0.61619475236E+03  0.18898436095E+04  0.21841162719E+04  0.90459932354E+03 0.  0.
        -24    2    4    4    0    0 -0.41968150737E+03 -0.28228288134E+03  0.57312937700E+03  0.76865835714E+03  0.80883833315E+02 0.  0.
         24    2    4    4    0    0  0.39037089515E+03 -0.33391187102E+03  0.13167142325E+04  0.14154579148E+04  0.76799512541E+02 0.  0.
         13    1    3    3    0    0  0.51573060415E+02  0.20550440258E+03 -0.42211334329E+02  0.21604082204E+03  0.00000000000E+00 0. -1.
        -13    1    3    3    0    0 -0.22262448190E+02  0.41069034978E+03 -0.10972094202E+03  0.42567694924E+03  0.00000000000E+00 0.  1.
          2    1    6    6  502    0  0.46420421467E+02 -0.11169381005E+02  0.12192503330E+03  0.13094015559E+03  0.00000000000E+00 0. -1.
          3    1    5    5  503    0 -0.19720305956E+03 -0.17026952616E+03  0.25439150514E+03  0.36413705679E+03  0.00000000000E+00 0. -1.
         -4    1    5    5    0  503 -0.22247844781E+03 -0.11201335517E+03  0.31873787186E+03  0.40452130035E+03  0.00000000000E+00 0.  1.
         -1    1    6    6    0  502  0.34395047368E+03 -0.32274249002E+03  0.11947891992E+04  0.12845177592E+04  0.00000000000E+00 0.  1.
<mgrwt>
<rscale>  0 0.22282285E+04</rscale>
<asrwt>0</asrwt>
<pdfrwt beam="1">  1        1 0.35105733E+00 0.22282285E+04</pdfrwt>
<pdfrwt beam="2">  1       -1 0.83686363E-01 0.22282285E+04</pdfrwt>
<totfact> 0.24661592E+00</totfact>
</mgrwt>
</event>
<event>
12    1  0.1495204E-007  0.3952280E+04  0.7818608E-02  0.8014243E-01
          1   -1    0    0  501    0  0.00000000000E+00  0.00000000000E+00  0.30455453410E+04  0.30455453410E+04  0.00000000000E+00 0. -1.
         -1   -1    0    0    0  501 -0.00000000000E+00 -0.00000000000E+00 -0.12822431754E+04  0.12822431754E+04  0.00000000000E+00 0.  1.
         23    2    1    2    0    0  0.14385101399E+04  0.11568425556E+04  0.10731252065E+04  0.21371615857E+04  0.90916519104E+02 0.  0.
        254    2    1    2    0    0 -0.14385101399E+04 -0.11568425556E+04  0.69017695914E+03  0.21906269308E+04  0.95650718453E+03 0.  0.
        -24    2    4    4    0    0 -0.10801296281E+03 -0.43261927475E+03 -0.12262166171E+03  0.46924082160E+03  0.79527603447E+02 0.  0.
         24    2    4    4    0    0 -0.13304971771E+04 -0.72422328084E+03  0.81279862086E+03  0.17213861092E+04  0.88354061609E+02 0.  0.
         13    1    3    3    0    0  0.28036656537E+03  0.20719380378E+03  0.24103130333E+03  0.42382870654E+03  0.00000000000E+00 0.  1.
        -13    1    3    3    0    0  0.11581435745E+04  0.94964875181E+03  0.83209390316E+03  0.17133328791E+04  0.00000000000E+00 0. -1.
          4    1    6    6  502    0 -0.85898787978E+03 -0.48220708579E+03  0.57362403141E+03  0.11399247259E+04  0.00000000000E+00 0. -1.
          3    1    5    5  503    0 -0.12034970756E+03 -0.38283606940E+03 -0.10288980203E+03  0.41428712207E+03  0.00000000000E+00 0. -1.
         -4    1    5    5    0  503  0.12336744751E+02 -0.49783205350E+02 -0.19731859680E+02  0.54953699533E+02  0.00000000000E+00 0.  1.
         -3    1    6    6    0  502 -0.47150929728E+03 -0.24201619504E+03  0.23917458944E+03  0.58146138335E+03  0.00000000000E+00 0.  1.
<mgrwt>
<rscale>  0 0.39522802E+04</rscale>
<asrwt>0</asrwt>
<pdfrwt beam="1">  1        1 0.46854543E+00 0.39522802E+04</pdfrwt>
<pdfrwt beam="2">  1       -1 0.19726818E+00 0.39522802E+04</pdfrwt>
<totfact> 0.68328306E-02</totfact>
</mgrwt>
</event>
<event>
12    1  0.1495204E-007  0.1306970E+04  0.7818608E-02  0.9024056E-01
          1   -1    0    0  501    0  0.00000000000E+00  0.00000000000E+00  0.22494313573E+04  0.22494313573E+04  0.00000000000E+00 0. -1.
         -1   -1    0    0    0  501 -0.00000000000E+00 -0.00000000000E+00 -0.18984484580E+03  0.18984484580E+03  0.00000000000E+00 0.  1.
         23    2    1    2    0    0  0.27161359474E+03  0.44491305511E+02  0.19409270311E+03  0.34967900971E+03  0.94074498778E+02 0.  0.
        254    2    1    2    0    0 -0.27161359474E+03 -0.44491305511E+02  0.18654938083E+04  0.20895971933E+04  0.90033097268E+03 0.  0.
        -24    2    4    4    0    0 -0.92586673498E+02  0.30206758275E+03  0.15430464410E+04  0.15770903647E+04  0.80028635396E+02 0.  0.
         24    2    4    4    0    0 -0.17902692124E+03 -0.34655888826E+03  0.32244736732E+03  0.51250682869E+03  0.80853220085E+02 0.  0.
         13    1    3    3    0    0  0.83558009606E+02  0.58230346376E+02  0.77578493152E+02  0.12802787512E+03  0.00000000000E+00 0. -1.
        -13    1    3    3    0    0  0.18805558513E+03 -0.13739040865E+02  0.11651420995E+03  0.22165113459E+03  0.00000000000E+00 0.  1.
          2    1    6    6  502    0 -0.70491941326E+01 -0.55943454811E+01  0.30537439474E+02  0.31835876757E+02  0.00000000000E+00 0. -1.
          1    1    5    5  503    0 -0.13086757739E+02  0.10514310903E+03  0.36551529661E+03  0.38056243727E+03  0.00000000000E+00 0. -1.
         -2    1    5    5    0  503 -0.79499915759E+02  0.19692447372E+03  0.11775311444E+04  0.11965279274E+04  0.00000000000E+00 0.  1.
         -1    1    6    6    0  502 -0.17197772711E+03 -0.34096454278E+03  0.29190992784E+03  0.48067095193E+03  0.00000000000E+00 0.  1.
<mgrwt>
<rscale>  0 0.13069705E+04</rscale>
<asrwt>0</asrwt>
<pdfrwt beam="1">  1        1 0.34606634E+00 0.13069705E+04</pdfrwt>
<pdfrwt beam="2">  1       -1 0.29206901E-01 0.13069705E+04</pdfrwt>
<totfact> 0.21225716E+01</totfact>
</mgrwt>
</event>
<event>
12    1  0.1495204E-007  0.1928628E+04  0.7818608E-02  0.8640736E-01
          1   -1    0    0  501    0  0.00000000000E+00  0.00000000000E+00  0.25016867941E+04  0.25016867941E+04  0.00000000000E+00 0. -1.
         -1   -1    0    0    0  501 -0.00000000000E+00 -0.00000000000E+00 -0.37170986658E+03  0.37170986658E+03  0.00000000000E+00 0.  1.
         23    2    1    2    0    0  0.25707740212E+02 -0.59673467514E+02 -0.27908932974E+03  0.30149506891E+03  0.93736929582E+02 0.  0.
        254    2    1    2    0    0 -0.25707740212E+02  0.59673467514E+02  0.24090662573E+04  0.25719015918E+04  0.89825149889E+03 0.  0.
        -24    2    4    4    0    0 -0.35628330586E+03  0.30915793264E+03  0.13107931359E+04  0.13954595471E+04  0.81315934142E+02 0.  0.
         24    2    4    4    0    0  0.33057556565E+03 -0.24948446513E+03  0.10982731213E+04  0.11764420447E+04  0.79305311343E+02 0.  0.
         13    1    3    3    0    0 -0.90289351558E+01 -0.33729781578E+02 -0.23115154714E+02  0.41875174183E+02  0.00000000000E+00 0. -1.
        -13    1    3    3    0    0  0.34736675368E+02 -0.25943685936E+02 -0.25597417503E+03  0.25961989473E+03  0.00000000000E+00 0.  1.
          2    1    6    6  502    0  0.49700351696E+01  0.57965226115E+01  0.14725089055E+02  0.16587018166E+02  0.00000000000E+00 0. -1.
          3    1    5    5  503    0 -0.14955257439E+03  0.17186020223E+03  0.55396968871E+03  0.59898607466E+03  0.00000000000E+00 0. -1.
         -4    1    5    5    0  503 -0.20673073147E+03  0.13729773041E+03  0.75682344723E+03  0.79647347249E+03  0.00000000000E+00 0.  1.
         -1    1    6    6    0  502  0.32560553048E+03 -0.25528098774E+03  0.10835480323E+04  0.11598550265E+04  0.00000000000E+00 0.  1.
<mgrwt>
<rscale>  0 0.19286282E+04</rscale>
<asrwt>0</asrwt>
<pdfrwt beam="1">  1        1 0.38487488E+00 0.19286282E+04</pdfrwt>
<pdfrwt beam="2">  1       -1 0.57186135E-01 0.19286282E+04</pdfrwt>
<totfact> 0.39072250E+00</totfact>
</mgrwt>
</event>
<event>
12    1  0.1495204E-007  0.3382071E+04  0.7818608E-02  0.8142321E-01
          1   -1    0    0  501    0  0.00000000000E+00  0.00000000000E+00  0.14628381171E+04  0.14628381171E+04  0.00000000000E+00 0. -1.
         -1   -1    0    0    0  501 -0.00000000000E+00 -0.00000000000E+00 -0.19548312857E+04  0.19548312857E+04  0.00000000000E+00 0.  1.
         23    2    1    2    0    0 -0.11355401365E+03 -0.45127024580E+03  0.12864653719E+04  0.13710222358E+04  0.90385116851E+02 0.  0.
        254    2    1    2    0    0  0.11355401365E+03  0.45127024580E+03 -0.17784585404E+04  0.20466471670E+04  0.89961686144E+03 0.  0.
        -24    2    4    4    0    0 -0.13464473657E+03  0.65947434787E+03 -0.12502460695E+04  0.14218060167E+04  0.73358669213E+02 0.  0.
         24    2    4    4    0    0  0.24819875022E+03 -0.20820410208E+03 -0.52821247097E+03  0.62484115029E+03  0.80414432038E+02 0.  0.
         13    1    3    3    0    0 -0.15930085633E+02 -0.78118404161E+01  0.79794384994E+02  0.81743111976E+02  0.00000000000E+00 0.  1.
        -13    1    3    3    0    0 -0.97623928021E+02 -0.44345840538E+03  0.12066709869E+04  0.12892791238E+04  0.00000000000E+00 0. -1.
          4    1    6    6  502    0  0.29138109014E+02 -0.25352015206E+02 -0.12531424337E+03  0.13113128407E+03  0.00000000000E+00 0. -1.
          1    1    5    5  503    0 -0.64580037890E+02  0.18079168652E+03 -0.31645742744E+03  0.37013716186E+03  0.00000000000E+00 0. -1.
         -2    1    5    5    0  503 -0.70064698676E+02  0.47868266135E+03 -0.93378864205E+03  0.10516688549E+04  0.00000000000E+00 0.  1.
         -3    1    6    6    0  502  0.21906064121E+03 -0.18285208687E+03 -0.40289822760E+03  0.49370986622E+03  0.00000000000E+00 0.  1.
<mgrwt>
<rscale>  0 0.33820714E+04</rscale>
<asrwt>0</asrwt>
<pdfrwt beam="1">  1        1 0.22505202E+00 0.33820714E+04</pdfrwt>
<pdfrwt beam="2">  1       -1 0.30074327E+00 0.33820714E+04</pdfrwt>
<totfact> 0.18680360E-01</totfact>
</mgrwt>
</event>
<event>
12    1  0.1495204E-007  0.1330462E+04  0.7818608E-02  0.9005752E-01
          1   -1    0    0  501    0  0.00000000000E+00  0.00000000000E+00  0.37214585168E+03  0.37214585168E+03  0.00000000000E+00 0.  1.
         -1   -1    0    0    0  501 -0.00000000000E+00 -0.00000000000E+00 -0.11891358913E+04  0.11891358913E+04  0.00000000000E+00 0. -1.
         23    2    1    2    0    0  0.30695476962E+03 -0.54508965522E+02 -0.43357929965E+02  0.33058754460E+03  0.10107302624E+03 0.  0.
        254    2    1    2    0    0 -0.30695476962E+03  0.54508965522E+02 -0.77363210962E+03  0.12306941984E+04  0.90493597062E+03 0.  0.
        -24    2    4    4    0    0 -0.48827094915E+03  0.17855021097E+03 -0.83768319329E+03  0.98860958406E+03  0.73123728950E+02 0.  0.
         24    2    4    4    0    0  0.18131617953E+03 -0.12404124545E+03  0.64051083670E+02  0.24208461431E+03  0.78997668526E+02 0.  0.
         11    1    3    3    0    0  0.27891280101E+03 -0.77966429312E+02 -0.48597891693E+02  0.29365433718E+03  0.00000000000E+00 0. -1.
        -11    1    3    3    0    0  0.28041968614E+02  0.23457463790E+02  0.52399617283E+01  0.36933207417E+02  0.00000000000E+00 0.  1.
          4    1    6    6  502    0  0.10472766485E+02  0.11297383279E+02  0.25033737663E+01  0.15606940348E+02  0.00000000000E+00 0. -1.
          3    1    5    5  503    0 -0.39401872025E+02  0.34131940725E+02 -0.10643339576E+03  0.11851398496E+03  0.00000000000E+00 0. -1.
         -4    1    5    5    0  503 -0.44886907713E+03  0.14441827025E+03 -0.73124979753E+03  0.87009559910E+03  0.00000000000E+00 0.  1.
         -3    1    6    6    0  502  0.17084341304E+03 -0.13533862873E+03  0.61547709904E+02  0.22647767396E+03  0.00000000000E+00 0.  1.
<mgrwt>
<rscale>  0 0.13304616E+04</rscale>
<asrwt>0</asrwt>
<pdfrwt beam="1">  1        1 0.57253207E-01 0.13304616E+04</pdfrwt>
<pdfrwt beam="2">  1       -1 0.18294398E+00 0.13304616E+04</pdfrwt>
<totfact> 0.12832807E+01</totfact>
</mgrwt>
</event>
<event>
12    1  0.1495204E-007  0.1450178E+04  0.7818608E-02  0.8918277E-01
          2   -1    0    0  501    0  0.00000000000E+00  0.00000000000E+00  0.98373418940E+03  0.98373418940E+03  0.00000000000E+00 0. -1.
         -2   -1    0    0    0  501 -0.00000000000E+00 -0.00000000000E+00 -0.53444730629E+03  0.53444730629E+03  0.00000000000E+00 0.  1.
         23    2    1    2    0    0  0.11703273091E+03  0.14218164737E+03 -0.28288038127E+03  0.34960873521E+03  0.91064134958E+02 0.  0.
        254    2    1    2    0    0 -0.11703273091E+03 -0.14218164737E+03  0.73216726438E+03  0.11685727605E+04  0.89195353720E+03 0.  0.
        -24    2    4    4    0    0  0.39964178901E+02 -0.44377489382E+03  0.12697012605E+03  0.46985588905E+03  0.78165539642E+02 0.  0.
         24    2    4    4    0    0 -0.15699690981E+03  0.30159324645E+03  0.60519713834E+03  0.69871687142E+03  0.79593807273E+02 0.  0.
         13    1    3    3    0    0 -0.14083557241E+02  0.12890815667E+02 -0.13816011477E+02  0.23566965996E+02  0.00000000000E+00 0. -1.
        -13    1    3    3    0    0  0.13111628815E+03  0.12929083170E+03 -0.26906436980E+03  0.32604176922E+03  0.00000000000E+00 0.  1.
          2    1    6    6  502    0 -0.15423044956E+02  0.39234779625E+02  0.33080254863E+02  0.53586766181E+02  0.00000000000E+00 0. -1.
          3    1    5    5  503    0 -0.20031269882E+02 -0.65747745385E+02  0.30074856461E+02  0.75023428257E+02  0.00000000000E+00 0. -1.
         -4    1    5    5    0  503  0.59995448782E+02 -0.37802714844E+03  0.96895269584E+02  0.39483246079E+03  0.00000000000E+00 0.  1.
         -1    1    6    6    0  502 -0.14157386486E+03  0.26235846683E+03  0.57211688348E+03  0.64513010524E+03  0.00000000000E+00 0.  1.
<mgrwt>
<rscale>  0 0.14501780E+04</rscale>
<asrwt>0</asrwt>
<pdfrwt beam="1">  1        2 0.15134372E+00 0.14501780E+04</pdfrwt>
<pdfrwt beam="2">  1       -2 0.82222663E-01 0.14501780E+04</pdfrwt>
<totfact> 0.32525167E+01</totfact>
</mgrwt>
</event>
<event>
12    1  0.1495204E-007  0.1382952E+04  0.7818608E-02  0.8966252E-01
          1   -1    0    0  501    0  0.00000000000E+00  0.00000000000E+00  0.15713597345E+04  0.15713597345E+04  0.00000000000E+00 0. -1.
         -1   -1    0    0    0  501 -0.00000000000E+00 -0.00000000000E+00 -0.30428343783E+03  0.30428343783E+03  0.00000000000E+00 0.  1.
         23    2    1    2    0    0 -0.33540949392E+03  0.76979204290E+02  0.12489867813E+03  0.37709051284E+03  0.90400489874E+02 0.  0.
        254    2    1    2    0    0  0.33540949392E+03 -0.76979204290E+02  0.11421776186E+04  0.14985526595E+04  0.90700883924E+03 0.  0.
        -24    2    4    4    0    0  0.16752574328E+02  0.13134752536E+03  0.10959819184E+04  0.11069687844E+04  0.81674372763E+02 0.  0.
         24    2    4    4    0    0  0.31865691959E+03 -0.20832672965E+03  0.46195700174E+02  0.39158387505E+03  0.79130460593E+02 0.  0.
         11    1    3    3    0    0 -0.67605493946E+02 -0.73406908273E+01 -0.40639727473E+01  0.68124183870E+02  0.00000000000E+00 0. -1.
        -11    1    3    3    0    0 -0.26780399998E+03  0.84319895117E+02  0.12896265088E+03  0.30896632897E+03  0.00000000000E+00 0.  1.
          4    1    6    6  502    0  0.31322259027E+03 -0.18261468437E+03  0.43130641961E+02  0.36512568559E+03  0.00000000000E+00 0. -1.
          1    1    5    5  503    0 -0.26840554610E+02  0.86267430198E+02  0.74136233448E+03  0.74684710341E+03  0.00000000000E+00 0. -1.
         -2    1    5    5    0  503  0.43593128939E+02  0.45080095161E+02  0.35461958390E+03  0.36012168104E+03  0.00000000000E+00 0.  1.
         -3    1    6    6    0  502  0.54343293244E+01 -0.25712045278E+02  0.30650582129E+01  0.26458189458E+02  0.00000000000E+00 0.  1.
<mgrwt>
<rscale>  0 0.13829515E+04</rscale>
<asrwt>0</asrwt>
<pdfrwt beam="1">  1        1 0.24174765E+00 0.13829515E+04</pdfrwt>
<pdfrwt beam="2">  1       -1 0.46812838E-01 0.13829515E+04</pdfrwt>
<totfact> 0.25925018E+01</totfact>
</mgrwt>
</event>
<event>
12    1  0.1495204E-007  0.2093389E+04  0.7818608E-02  0.8564161E-01
          2   -1    0    0  501    0  0.00000000000E+00  0.00000000000E+00  0.17567933763E+04  0.17567933763E+04  0.00000000000E+00 0. -1.
         -2   -1    0    0    0  501 -0.00000000000E+00 -0.00000000000E+00 -0.62361864928E+03  0.62361864928E+03  0.00000000000E+00 0.  1.
         23    2    1    2    0    0 -0.12743754651E+03 -0.80616288874E+03  0.74382748166E+03  0.11098488898E+04  0.11111392499E+03 0.  0.
        254    2    1    2    0    0  0.12743754651E+03  0.80616288874E+03  0.38934724540E+03  0.12705631358E+04  0.89252477451E+03 0.  0.
        -24    2    4    4    0    0  0.49959191217E+03  0.48514351988E+03  0.30972299869E+03  0.76637474429E+03  0.80284489010E+02 0.  0.
         24    2    4    4    0    0 -0.37215436566E+03  0.32101936886E+03  0.79624246704E+02  0.50418839151E+03  0.79458205424E+02 0.  0.
         11    1    3    3    0    0 -0.53035988201E+02 -0.17466817382E+03  0.11608842098E+03  0.21632916696E+03  0.00000000000E+00 0.  1.
        -11    1    3    3    0    0 -0.74401558312E+02 -0.63149471492E+03  0.62773906068E+03  0.89351972287E+03  0.00000000000E+00 0. -1.
          2    1    6    6  502    0 -0.90331354174E+02  0.12628745810E+03  0.27675473769E+02  0.15771559044E+03  0.00000000000E+00 0. -1.
          3    1    5    5  503    0  0.55973071088E+02  0.80438431585E+02  0.66876998168E+02  0.11864172473E+03  0.00000000000E+00 0. -1.
         -4    1    5    5    0  503  0.44361884108E+03  0.40470508829E+03  0.24284600053E+03  0.64773301956E+03  0.00000000000E+00 0.  1.
         -1    1    6    6    0  502 -0.28182301148E+03  0.19473191076E+03  0.51948772935E+02  0.34647280107E+03  0.00000000000E+00 0.  1.
<mgrwt>
<rscale>  0 0.20933887E+04</rscale>
<asrwt>0</asrwt>
<pdfrwt beam="1">  1        2 0.27027590E+00 0.20933887E+04</pdfrwt>
<pdfrwt beam="2">  1       -2 0.95941332E-01 0.20933887E+04</pdfrwt>
<totfact> 0.76576124E+00</totfact>
</mgrwt>
</event>
<event>
12    1  0.1495204E-007  0.2571962E+04  0.7818608E-02  0.8377788E-01
          2   -1    0    0  501    0  0.00000000000E+00  0.00000000000E+00  0.18115097103E+04  0.18115097103E+04  0.00000000000E+00 0. -1.
         -2   -1    0    0    0  501 -0.00000000000E+00 -0.00000000000E+00 -0.91291115175E+03  0.91291115175E+03  0.00000000000E+00 0.  1.
         23    2    1    2    0    0 -0.71363157396E+03 -0.41922998622E+03 -0.40902267701E+03  0.92775674689E+03  0.91701834193E+02 0.  0.
        254    2    1    2    0    0  0.71363157396E+03  0.41922998622E+03  0.13076212355E+04  0.17966641151E+04  0.91274577092E+03 0.  0.
        -24    2    4    4    0    0 -0.11977406325E+03  0.22683186755E+03  0.68483982762E+03  0.73554705177E+03  0.78900909421E+02 0.  0.
         24    2    4    4    0    0  0.83340563721E+03  0.19239811867E+03  0.62278140791E+03  0.10611170634E+04  0.80813043168E+02 0.  0.
         11    1    3    3    0    0 -0.48920087303E+03 -0.26024945997E+03 -0.23231296118E+03  0.60084655905E+03  0.00000000000E+00 0.  1.
        -11    1    3    3    0    0 -0.22443070093E+03 -0.15898052625E+03 -0.17670971583E+03  0.32691018784E+03  0.00000000000E+00 0. -1.
          2    1    6    6  502    0  0.79111056723E+03  0.16374751948E+03  0.59062866509E+03  0.10007554145E+04  0.00000000000E+00 0. -1.
          3    1    5    5  503    0 -0.90520250001E+02  0.18881720889E+03  0.45664103770E+03  0.50236131553E+03  0.00000000000E+00 0. -1.
         -4    1    5    5    0  503 -0.29253813247E+02  0.38014658662E+02  0.22819878992E+03  0.23318573624E+03  0.00000000000E+00 0.  1.
         -1    1    6    6    0  502  0.42295069976E+02  0.28650599185E+02  0.32152742825E+02  0.60361648827E+02  0.00000000000E+00 0.  1.
<mgrwt>
<rscale>  0 0.25719622E+04</rscale>
<asrwt>0</asrwt>
<pdfrwt beam="1">  1        2 0.27869380E+00 0.25719622E+04</pdfrwt>
<pdfrwt beam="2">  1       -2 0.14044787E+00 0.25719622E+04</pdfrwt>
<totfact> 0.26855020E+00</totfact>
</mgrwt>
</event>
<event>
12    1  0.1495204E-007  0.2480750E+04  0.7818608E-02  0.8409876E-01
          3   -1    0    0  501    0  0.00000000000E+00  0.00000000000E+00  0.14152950823E+04  0.14152950823E+04  0.00000000000E+00 0. -1.
         -3   -1    0    0    0  501 -0.00000000000E+00 -0.00000000000E+00 -0.10870736719E+04  0.10870736719E+04  0.00000000000E+00 0.  1.
         23    2    1    2    0    0  0.17593190957E+03 -0.54124557242E+03  0.10656739336E+04  0.12111971634E+04  0.86248649699E+02 0.  0.
        254    2    1    2    0    0 -0.17593190957E+03  0.54124557242E+03 -0.73745252310E+03  0.12911715908E+04  0.89408559241E+03 0.  0.
        -24    2    4    4    0    0  0.13030754490E+03 -0.35700925747E+02  0.12722852868E+03  0.20452571672E+03  0.85959629672E+02 0.  0.
         24    2    4    4    0    0 -0.30623945446E+03  0.57694649817E+03 -0.86468105177E+03  0.10866458741E+04  0.80474027586E+02 0.  0.
         11    1    3    3    0    0  0.88176347769E+02 -0.39198850005E+03  0.77147570162E+03  0.86983033442E+03  0.00000000000E+00 0. -1.
        -11    1    3    3    0    0  0.87755561796E+02 -0.14925707237E+03  0.29419823194E+03  0.34136682902E+03  0.00000000000E+00 0.  1.
          2    1    6    6  502    0 -0.75994428962E+02  0.15085569102E+03 -0.28468491198E+03  0.33102581750E+03  0.00000000000E+00 0. -1.
          3    1    5    5  503    0 -0.57760417202E+01 -0.12064212871E+02 -0.40445127319E+01  0.13973760173E+02  0.00000000000E+00 0. -1.
         -4    1    5    5    0  503  0.13608358662E+03 -0.23636712876E+02  0.13127304141E+03  0.19055195654E+03  0.00000000000E+00 0.  1.
         -1    1    6    6    0  502 -0.23024502550E+03  0.42609080715E+03 -0.57999613980E+03  0.75562005657E+03  0.00000000000E+00 0.  1.
<mgrwt>
<rscale>  0 0.24807499E+04</rscale>
<asrwt>0</asrwt>
<pdfrwt beam="1">  1        3 0.21773771E+00 0.24807499E+04</pdfrwt>
<pdfrwt beam="2">  1       -3 0.16724210E+00 0.24807499E+04</pdfrwt>
<totfact> 0.64378407E-02</totfact>
</mgrwt>
</event>
<event>
12    1  0.1495204E-007  0.3882503E+04  0.7818608E-02  0.8028678E-01
          2   -1    0    0  501    0  0.00000000000E+00  0.00000000000E+00  0.34487849841E+04  0.34487849841E+04  0.00000000000E+00 0. -1.
         -2   -1    0    0    0  501 -0.00000000000E+00 -0.00000000000E+00 -0.10926910729E+04  0.10926910729E+04  0.00000000000E+00 0.  1.
         23    2    1    2    0    0  0.13291922260E+04  0.11351431835E+04  0.46311102288E+03  0.18112661198E+04  0.10445629074E+03 0.  0.
        254    2    1    2    0    0 -0.13291922260E+04 -0.11351431835E+04  0.18929828884E+04  0.27302099371E+04  0.90297290348E+03 0.  0.
        -24    2    4    4    0    0 -0.68204481032E+03 -0.78292406646E+03  0.50691546797E+03  0.11582715708E+04  0.80464419882E+02 0.  0.
         24    2    4    4    0    0 -0.64714741570E+03 -0.35221911701E+03  0.13860674204E+04  0.15719383664E+04  0.83362159681E+02 0.  0.
         11    1    3    3    0    0  0.17101355876E+03  0.10591614981E+03  0.66977893994E+02  0.21201392963E+03  0.00000000000E+00 0. -1.
        -11    1    3    3    0    0  0.11581786673E+04  0.10292270337E+04  0.39613312888E+03  0.15992521902E+04  0.00000000000E+00 0.  1.
          4    1    6    6  502    0 -0.62768151380E+03 -0.33522398805E+03  0.13617024506E+04  0.15364220673E+04  0.00000000000E+00 0. -1.
          3    1    5    5  503    0 -0.57328902258E+03 -0.61363901500E+03  0.42262896679E+03  0.94012147498E+03  0.00000000000E+00 0. -1.
         -4    1    5    5    0  503 -0.10875578773E+03 -0.16928505146E+03  0.84286501181E+02  0.21815009580E+03  0.00000000000E+00 0.  1.
         -3    1    6    6    0  502 -0.19465901904E+02 -0.16995128961E+02  0.24364969861E+02  0.35516299099E+02  0.00000000000E+00 0.  1.
<mgrwt>
<rscale>  0 0.38825026E+04</rscale>
<asrwt>0</asrwt>
<pdfrwt beam="1">  1        2 0.53058230E+00 0.38825026E+04</pdfrwt>
<pdfrwt beam="2">  1       -2 0.16810632E+00 0.38825026E+04</pdfrwt>
<totfact> 0.15428792E-01</totfact>
</mgrwt>
</event>
<event>
12    1  0.1495204E-007  0.2644080E+04  0.7818608E-02  0.8353381E-01
         -1   -1    0    0    0  501 -0.00000000000E+00  0.00000000000E+00  0.52442778156E+03  0.52442778156E+03  0.00000000000E+00 0.  1.
          1   -1    0    0  501    0  0.00000000000E+00 -0.00000000000E+00 -0.33327552428E+04  0.33327552428E+04  0.00000000000E+00 0. -1.
         23    2    1    2    0    0  0.49025519111E+03 -0.10194972646E+04 -0.16790407395E+04  0.20265297978E+04  0.88996582583E+02 0.  0.
        254    2    1    2    0    0 -0.49025519111E+03  0.10194972646E+04 -0.11292867218E+04  0.18306532266E+04  0.89234405422E+03 0.  0.
        -24    2    4    4    0    0  0.14843754189E+03  0.40060765189E+03 -0.61701594818E+02  0.43919124152E+03  0.81004106304E+02 0.  0.
         24    2    4    4    0    0 -0.63869273299E+03  0.61888961268E+03 -0.10675851270E+04  0.13914619851E+04  0.73997923221E+02 0.  0.
         11    1    3    3    0    0  0.41189436223E+03 -0.77021867098E+03 -0.12939090213E+04  0.15611195733E+04  0.00000000000E+00 0.  1.
        -11    1    3    3    0    0  0.78360828880E+02 -0.24927859359E+03 -0.38513171813E+03  0.46541022447E+03  0.00000000000E+00 0. -1.
          4    1    6    6  502    0 -0.28641439434E+03  0.28042741250E+03 -0.42420752403E+03  0.58363067295E+03  0.00000000000E+00 0. -1.
          3    1    5    5  503    0  0.50771436891E+02  0.95051655960E+02 -0.48396254663E+02  0.11813023986E+03  0.00000000000E+00 0. -1.
         -4    1    5    5    0  503  0.97666104994E+02  0.30555599593E+03 -0.13305340155E+02  0.32106100166E+03  0.00000000000E+00 0.  1.
         -3    1    6    6    0  502 -0.35227833866E+03  0.33846220018E+03 -0.64337760297E+03  0.80783131212E+03  0.00000000000E+00 0.  1.
<mgrwt>
<rscale>  0 0.26440798E+04</rscale>
<asrwt>0</asrwt>
<pdfrwt beam="1">  1        1 0.51273160E+00 0.26440798E+04</pdfrwt>
<pdfrwt beam="2">  1       -1 0.80681194E-01 0.26440798E+04</pdfrwt>
<totfact> 0.45309322E-01</totfact>
</mgrwt>
</event>
<event>
12    1  0.1495204E-007  0.1413615E+04  0.7818608E-02  0.8944022E-01
          1   -1    0    0  501    0  0.00000000000E+00  0.00000000000E+00  0.56451085327E+03  0.56451085327E+03  0.00000000000E+00 0. -1.
         -1   -1    0    0    0  501 -0.00000000000E+00 -0.00000000000E+00 -0.88497256941E+03  0.88497256941E+03  0.00000000000E+00 0.  1.
         23    2    1    2    0    0 -0.33715241730E+03  0.11969739142E+03 -0.30332198922E+03  0.47773555919E+03  0.90707317033E+02 0.  0.
        254    2    1    2    0    0  0.33715241730E+03 -0.11969739142E+03 -0.17139726912E+02  0.97174786349E+03  0.90332769356E+03 0.  0.
        -24    2    4    4    0    0  0.45431438267E+03 -0.42342817848E+03  0.56803046693E+02  0.62871091091E+03  0.79736081847E+02 0.  0.
         24    2    4    4    0    0 -0.11716196538E+03  0.30373078706E+03 -0.73942773605E+02  0.34303695258E+03  0.78914510262E+02 0.  0.
         13    1    3    3    0    0 -0.94960492300E+01  0.20307923842E+02 -0.39762538567E+02  0.45646973558E+02  0.00000000000E+00 0.  1.
        -13    1    3    3    0    0 -0.32765636807E+03  0.99389467581E+02 -0.26355945066E+03  0.43208858563E+03  0.00000000000E+00 0. -1.
          2    1    6    6  502    0 -0.29560727410E+02  0.45296704537E+02  0.14825486349E+02  0.56084071646E+02  0.00000000000E+00 0. -1.
          3    1    5    5  503    0  0.15400325406E+03 -0.11948247642E+03  0.50622155039E+02  0.20138437629E+03  0.00000000000E+00 0. -1.
         -4    1    5    5    0  503  0.30031112862E+03 -0.30394570206E+03  0.61808916544E+01  0.42732653462E+03  0.00000000000E+00 0.  1.
         -1    1    6    6    0  502 -0.87601237965E+02  0.25843408252E+03 -0.88768259954E+02  0.28695288093E+03  0.00000000000E+00 0.  1.
<mgrwt>
<rscale>  0 0.14136147E+04</rscale>
<asrwt>0</asrwt>
<pdfrwt beam="1">  1        1 0.86847824E-01 0.14136147E+04</pdfrwt>
<pdfrwt beam="2">  1       -1 0.13614963E+00 0.14136147E+04</pdfrwt>
<totfact> 0.16414265E+01</totfact>
</mgrwt>
</event>
<event>
12    1  0.1495204E-007  0.1481113E+04  0.7818608E-02  0.8897111E-01
          1   -1    0    0  501    0  0.00000000000E+00  0.00000000000E+00  0.13156549104E+04  0.13156549104E+04  0.00000000000E+00 0. -1.
         -1   -1    0    0    0  501 -0.00000000000E+00 -0.00000000000E+00 -0.41684459367E+03  0.41684459367E+03  0.00000000000E+00 0.  1.
         23    2    1    2    0    0 -0.12630052457E+02 -0.20968450086E+03 -0.19430676140E+03  0.30103628475E+03  0.93491278123E+02 0.  0.
        254    2    1    2    0    0  0.12630052457E+02  0.20968450086E+03  0.10931170781E+04  0.14314632193E+04  0.90003049596E+03 0.  0.
        -24    2    4    4    0    0 -0.15205391507E+03 -0.29615050189E+03  0.64885267509E+03  0.73339089724E+03  0.77633120103E+02 0.  0.
         24    2    4    4    0    0  0.16468396752E+03  0.50583500275E+03  0.44426440303E+03  0.69807232207E+03  0.83332153946E+02 0.  0.
         13    1    3    3    0    0  0.33700373723E+02 -0.35020778597E+02 -0.32419213080E+02  0.58422388682E+02  0.00000000000E+00 0. -1.
        -13    1    3    3    0    0 -0.46330426180E+02 -0.17466372226E+03 -0.16188754832E+03  0.24261389607E+03  0.00000000000E+00 0.  1.
          4    1    6    6  502    0  0.20793759316E+02  0.76713975618E+02  0.31432345475E+02  0.85471672639E+02  0.00000000000E+00 0. -1.
          3    1    5    5  503    0 -0.68749838840E+02 -0.16205151956E+03  0.41971744833E+03  0.45513731089E+03  0.00000000000E+00 0. -1.
         -2    1    5    5    0  503 -0.83304076227E+02 -0.13409898233E+03  0.22913522676E+03  0.27825358636E+03  0.00000000000E+00 0.  1.
         -3    1    6    6    0  502  0.14389020821E+03  0.42912102713E+03  0.41283205755E+03  0.61260064943E+03  0.00000000000E+00 0.  1.
<mgrwt>
<rscale>  0 0.14811126E+04</rscale>
<asrwt>0</asrwt>
<pdfrwt beam="1">  1        1 0.20240845E+00 0.14811126E+04</pdfrwt>
<pdfrwt beam="2">  1       -1 0.64129938E-01 0.14811126E+04</pdfrwt>
<totfact> 0.21059148E+01</totfact>
</mgrwt>
</event>
<event>
12    1  0.1495204E-007  0.2551391E+04  0.7818608E-02  0.8384903E-01
         -1   -1    0    0    0  501 -0.00000000000E+00  0.00000000000E+00  0.94259363448E+03  0.94259363448E+03  0.00000000000E+00 0.  1.
          1   -1    0    0  501    0  0.00000000000E+00 -0.00000000000E+00 -0.17265117545E+04  0.17265117545E+04  0.00000000000E+00 0. -1.
         23    2    1    2    0    0 -0.79812177673E+03  0.15150031598E+03 -0.11409083428E+04  0.14035315731E+04  0.90985239180E+02 0.  0.
        254    2    1    2    0    0  0.79812177673E+03 -0.15150031598E+03  0.35699022274E+03  0.12655738159E+04  0.90237705433E+03 0.  0.
        -24    2    4    4    0    0  0.90020639634E+03 -0.17754934947E+03  0.39763232909E+02  0.92184763383E+03  0.79540038904E+02 0.  0.
         24    2    4    4    0    0 -0.10208461961E+03  0.26049033497E+02  0.31722698984E+03  0.34372618209E+03  0.80093092516E+02 0.  0.
         13    1    3    3    0    0 -0.70018888358E+03  0.10580908913E+03 -0.96225844101E+03  0.11947390273E+04  0.00000000000E+00 0. -1.
        -13    1    3    3    0    0 -0.97932893151E+02  0.45691226845E+02 -0.17864990178E+03  0.20879254579E+03  0.00000000000E+00 0.  1.
          2    1    6    6  502    0 -0.10855802240E+03  0.32280397372E+01  0.25829512779E+03  0.28019928178E+03  0.00000000000E+00 0. -1.
          1    1    5    5  503    0  0.75144195375E+03 -0.13045607591E+03  0.86256952314E+01  0.76273075211E+03  0.00000000000E+00 0. -1.
         -2    1    5    5    0  503  0.14876444260E+03 -0.47093273566E+02  0.31137537678E+02  0.15911688172E+03  0.00000000000E+00 0.  1.
         -1    1    6    6    0  502  0.64734027860E+01  0.22820993760E+02  0.58931862045E+02  0.63526900317E+02  0.00000000000E+00 0.  1.
<mgrwt>
<rscale>  0 0.25513910E+04</rscale>
<asrwt>0</asrwt>
<pdfrwt beam="1">  1        1 0.26561719E+00 0.25513910E+04</pdfrwt>
<pdfrwt beam="2">  1       -1 0.14501441E+00 0.25513910E+04</pdfrwt>
<totfact> 0.15444369E+00</totfact>
</mgrwt>
</event>
<event>
12    1  0.1495204E-007  0.1364064E+04  0.7818608E-02  0.8980250E-01
          2   -1    0    0  501    0  0.00000000000E+00  0.00000000000E+00  0.18353528898E+04  0.18353528898E+04  0.00000000000E+00 0.  1.
         -2   -1    0    0    0  501 -0.00000000000E+00 -0.00000000000E+00 -0.25344857188E+03  0.25344857188E+03  0.00000000000E+00 0. -1.
         23    2    1    2    0    0  0.36093785715E+03  0.21166826216E+02  0.61739075964E+03  0.72111397197E+03  0.90054645741E+02 0.  0.
        254    2    1    2    0    0 -0.36093785715E+03 -0.21166826216E+02  0.96451355831E+03  0.13676874898E+04  0.89975468558E+03 0.  0.
        -24    2    4    4    0    0 -0.24706492062E+03 -0.36789954526E+03  0.87412879064E+03  0.98343883290E+03  0.81606648159E+02 0.  0.
         24    2    4    4    0    0 -0.11387293653E+03  0.34673271904E+03  0.90384767672E+02  0.38424865686E+03  0.79290604379E+02 0.  0.
         13    1    3    3    0    0  0.28681967049E+03  0.16742351378E+02  0.55146742034E+03  0.62182163472E+03  0.00000000000E+00 0. -1.
        -13    1    3    3    0    0  0.74118186658E+02  0.44244748374E+01  0.65923339301E+02  0.99292337245E+02  0.00000000000E+00 0.  1.
          4    1    6    6  502    0 -0.72104519146E+02  0.10717259336E+03  0.45611925748E+02  0.13698713158E+03  0.00000000000E+00 0. -1.
          3    1    5    5  503    0 -0.51158289945E+02 -0.93019380134E+02  0.14249064729E+03  0.17768894247E+03  0.00000000000E+00 0. -1.
         -2    1    5    5    0  503 -0.19590663067E+03 -0.27488016513E+03  0.73163814335E+03  0.80574989043E+03  0.00000000000E+00 0.  1.
         -3    1    6    6    0  502 -0.41768417381E+02  0.23956012569E+03  0.44772841924E+02  0.24726152528E+03  0.00000000000E+00 0.  1.
<mgrwt>
<rscale>  0 0.13640639E+04</rscale>
<asrwt>0</asrwt>
<pdfrwt beam="1">  1        2 0.28236197E+00 0.13640639E+04</pdfrwt>
<pdfrwt beam="2">  1       -2 0.38992089E-01 0.13640639E+04</pdfrwt>
<totfact> 0.50041609E+01</totfact>
</mgrwt>
</event>
<event>
12    1  0.1495204E-007  0.1333203E+04  0.7818608E-02  0.9003641E-01
          1   -1    0    0  501    0  0.00000000000E+00  0.00000000000E+00  0.29952655939E+03  0.29952655939E+03  0.00000000000E+00 0. -1.
         -1   -1    0    0    0  501 -0.00000000000E+00 -0.00000000000E+00 -0.14835336845E+04  0.14835336845E+04  0.00000000000E+00 0.  1.
         23    2    1    2    0    0  0.12232897132E+03 -0.13427276082E+03 -0.72889067290E+03  0.75637478727E+03  0.88474031564E+02 0.  0.
        254    2    1    2    0    0 -0.12232897132E+03  0.13427276082E+03 -0.45511645220E+03  0.10266854566E+04  0.90219648095E+03 0.  0.
        -24    2    4    4    0    0  0.37947423230E+03  0.14511846553E+03 -0.20656401378E+03  0.46159488161E+03  0.73082699122E+02 0.  0.
         24    2    4    4    0    0 -0.50180320363E+03 -0.10845704713E+02 -0.24855243841E+03  0.56509057501E+03  0.74999725596E+02 0.  0.
         13    1    3    3    0    0  0.25770162210E+02 -0.19031716097E+02 -0.39891908811E+02  0.51163188588E+02  0.00000000000E+00 0. -1.
        -13    1    3    3    0    0  0.96558809112E+02 -0.11524104472E+03 -0.68899876409E+03  0.70521159868E+03  0.00000000000E+00 0.  1.
          2    1    6    6  502    0 -0.41744663611E+03 -0.26502775989E+02 -0.18045196281E+03  0.45555131655E+03  0.00000000000E+00 0. -1.
          3    1    5    5  503    0  0.27216162529E+03  0.80093301193E+02 -0.11436010992E+03  0.30588416422E+03  0.00000000000E+00 0. -1.
         -4    1    5    5    0  503  0.10731260701E+03  0.65025164342E+02 -0.92203903868E+02  0.15571071739E+03  0.00000000000E+00 0.  1.
         -1    1    6    6    0  502 -0.84356567517E+02  0.15657071276E+02 -0.68100475608E+02  0.10953925845E+03  0.00000000000E+00 0.  1.
<mgrwt>
<rscale>  0 0.13332033E+04</rscale>
<asrwt>0</asrwt>
<pdfrwt beam="1">  1        1 0.46081009E-01 0.13332033E+04</pdfrwt>
<pdfrwt beam="2">  1       -1 0.22823595E+00 0.13332033E+04</pdfrwt>
<totfact> 0.83546900E+00</totfact>
</mgrwt>
</event>
<event>
12    1  0.1495204E-007  0.1288076E+04  0.7818608E-02  0.9039075E-01
         -2   -1    0    0    0  501 -0.00000000000E+00  0.00000000000E+00  0.39341821466E+03  0.39341821466E+03  0.00000000000E+00 0.  1.
          2   -1    0    0  501    0  0.00000000000E+00 -0.00000000000E+00 -0.10543107559E+04  0.10543107559E+04  0.00000000000E+00 0. -1.
         23    2    1    2    0    0 -0.83038079502E+02 -0.97275842820E+02  0.15807525018E+03  0.22346709485E+03  0.92692208495E+02 0.  0.
        254    2    1    2    0    0  0.83038079502E+02  0.97275842820E+02 -0.81896779141E+03  0.12242618757E+04  0.90097224413E+03 0.  0.
        -24    2    4    4    0    0 -0.21391769802E+03  0.25390082772E+03 -0.63012996925E+01  0.34140375450E+03  0.79312075798E+02 0.  0.
         24    2    4    4    0    0  0.29695577753E+03 -0.15662498490E+03 -0.81266649172E+03  0.88285812120E+03  0.79356888215E+02 0.  0.
         11    1    3    3    0    0 -0.34222296529E+02 -0.82626168717E+02  0.14579930132E+03  0.17104293497E+03  0.00000000000E+00 0.  1.
        -11    1    3    3    0    0 -0.48815782973E+02 -0.14649674103E+02  0.12275948860E+02  0.52424159879E+02  0.00000000000E+00 0. -1.
          4    1    6    6  502    0  0.72678947650E+02 -0.57576697398E+01 -0.13834698649E+03  0.15638180477E+03  0.00000000000E+00 0. -1.
          1    1    5    5  503    0 -0.12974484424E+03  0.12398608201E+03  0.31134693529E+02  0.18214181915E+03  0.00000000000E+00 0. -1.
         -2    1    5    5    0  503 -0.84172853779E+02  0.12991474571E+03 -0.37435993221E+02  0.15926193536E+03  0.00000000000E+00 0.  1.
         -3    1    6    6    0  502  0.22427682988E+03 -0.15086731516E+03 -0.67431950523E+03  0.72647631643E+03  0.00000000000E+00 0.  1.
<mgrwt>
<rscale>  0 0.12880762E+04</rscale>
<asrwt>0</asrwt>
<pdfrwt beam="1">  1        2 0.16220165E+00 0.12880762E+04</pdfrwt>
<pdfrwt beam="2">  1       -2 0.60525879E-01 0.12880762E+04</pdfrwt>
<totfact> 0.58024741E+01</totfact>
</mgrwt>
</event>
<event>
12    1  0.1495204E-007  0.1666816E+04  0.7818608E-02  0.8780520E-01
         -1   -1    0    0    0  501 -0.00000000000E+00  0.00000000000E+00  0.36102402813E+03  0.36102402813E+03  0.00000000000E+00 0.  1.
          1   -1    0    0  501    0  0.00000000000E+00 -0.00000000000E+00 -0.19238851475E+04  0.19238851475E+04  0.00000000000E+00 0. -1.
         23    2    1    2    0    0 -0.46135313908E+03 -0.31855812842E+03 -0.32102283163E+03  0.65272791213E+03  0.93123942850E+02 0.  0.
        254    2    1    2    0    0  0.46135313908E+03  0.31855812842E+03 -0.12418382877E+04  0.16321812635E+04  0.89862525218E+03 0.  0.
        -24    2    4    4    0    0  0.53921121655E+02  0.28054658078E+02  0.13337226563E+03  0.16653845680E+03  0.79071772168E+02 0.  0.
         24    2    4    4    0    0  0.40743201742E+03  0.29050347034E+03 -0.13752105534E+04  0.14656428067E+04  0.80694830107E+02 0.  0.
         11    1    3    3    0    0 -0.26575170145E+03 -0.22292141514E+03 -0.16038803687E+03  0.38215474160E+03  0.00000000000E+00 0.  1.
        -11    1    3    3    0    0 -0.19560143763E+03 -0.95636713278E+02 -0.16063479475E+03  0.27057317053E+03  0.00000000000E+00 0. -1.
          2    1    6    6  502    0  0.25492937213E+03  0.17383256494E+03 -0.95573967366E+03  0.10043132326E+04  0.00000000000E+00 0. -1.
          3    1    5    5  503    0  0.27257641185E+02  0.64493387023E+01  0.12892587686E+03  0.13193352378E+03  0.00000000000E+00 0. -1.
         -4    1    5    5    0  503  0.26663480470E+02  0.21605319376E+02  0.44463887663E+01  0.34604933018E+02  0.00000000000E+00 0.  1.
         -1    1    6    6    0  502  0.15250264529E+03  0.11667090540E+03 -0.41947087970E+03  0.46132957407E+03  0.00000000000E+00 0.  1.
<mgrwt>
<rscale>  0 0.16668158E+04</rscale>
<asrwt>0</asrwt>
<pdfrwt beam="1">  1        1 0.29598233E+00 0.16668158E+04</pdfrwt>
<pdfrwt beam="2">  1       -1 0.55542158E-01 0.16668158E+04</pdfrwt>
<totfact> 0.10500941E+01</totfact>
</mgrwt>
</event>
<event>
12    1  0.1495204E-007  0.4343256E+04  0.7818608E-02  0.7938668E-01
         -2   -1    0    0    0  501 -0.00000000000E+00  0.00000000000E+00  0.38519004056E+04  0.38519004056E+04  0.00000000000E+00 0.  1.
          2   -1    0    0  501    0  0.00000000000E+00 -0.00000000000E+00 -0.12243224993E+04  0.12243224993E+04  0.00000000000E+00 0. -1.
         23    2    1    2    0    0 -0.81005895044E+03  0.50926883686E+03 -0.89772954078E+03  0.13151858959E+04  0.90803969712E+02 0.  0.
        254    2    1    2    0    0  0.81005895044E+03 -0.50926883686E+03  0.35253074470E+04  0.37610370091E+04  0.89557609175E+03 0.  0.
        -24    2    4    4    0    0  0.98290025781E+03 -0.39122170176E+03  0.25798384011E+04  0.27894328478E+04  0.78880291328E+02 0.  0.
         24    2    4    4    0    0 -0.17284130737E+03 -0.11804713509E+03  0.94546904598E+03  0.97160416123E+03  0.79332752183E+02 0.  0.
         13    1    3    3    0    0 -0.76070061837E+03  0.46770061110E+03 -0.86326442758E+03  0.12420284877E+04  0.00000000000E+00 0. -1.
        -13    1    3    3    0    0 -0.49358332064E+02  0.41568225752E+02 -0.34465113200E+02  0.73157408129E+02  0.00000000000E+00 0.  1.
          2    1    6    6  502    0 -0.12304255679E+03 -0.10952598915E+03  0.81929000270E+03  0.83568625788E+03  0.00000000000E+00 0. -1.
          1    1    5    5  503    0  0.90292271946E+03 -0.37952713516E+03  0.23578763719E+04  0.25532119514E+04  0.00000000000E+00 0. -1.
         -2    1    5    5    0  503  0.79977538343E+02 -0.11694566602E+02  0.22196202919E+03  0.23622089648E+03  0.00000000000E+00 0.  1.
         -1    1    6    6    0  502 -0.49798750584E+02 -0.85211459466E+01  0.12617904328E+03  0.13591790335E+03  0.00000000000E+00 0.  1.
<mgrwt>
<rscale>  0 0.43432561E+04</rscale>
<asrwt>0</asrwt>
<pdfrwt beam="1">  1        2 0.18835731E+00 0.43432561E+04</pdfrwt>
<pdfrwt beam="2">  1       -2 0.59260006E+00 0.43432561E+04</pdfrwt>
<totfact> 0.76640297E-03</totfact>
</mgrwt>
</event>
<event>
12    1  0.1495204E-007  0.1500394E+04  0.7818608E-02  0.8884191E-01
         -2   -1    0    0    0  501 -0.00000000000E+00  0.00000000000E+00  0.32443229586E+03  0.32443229586E+03  0.00000000000E+00 0.  1.
          2   -1    0    0  501    0  0.00000000000E+00 -0.00000000000E+00 -0.17347081651E+04  0.17347081651E+04  0.00000000000E+00 0. -1.
         23    2    1    2    0    0 -0.11500648299E+03  0.40621881783E+03 -0.73916848928E+03  0.85626618140E+03  0.92636379273E+02 0.  0.
        254    2    1    2    0    0  0.11500648299E+03 -0.40621881783E+03 -0.67110737992E+03  0.12028742795E+04  0.90458896627E+03 0.  0.
        -24    2    4    4    0    0  0.66703701248E+02  0.26698731134E+03 -0.34599761443E+03  0.44930528607E+03  0.80182808123E+02 0.  0.
         24    2    4    4    0    0  0.48302781741E+02 -0.67320612917E+03 -0.32510976548E+03  0.75356899346E+03  0.81426145744E+02 0.  0.
         13    1    3    3    0    0 -0.29809665036E+02  0.10558385011E+03 -0.11920203886E+03  0.16200522091E+03  0.00000000000E+00 0. -1.
        -13    1    3    3    0    0 -0.85196817953E+02  0.30063496772E+03 -0.61996645042E+03  0.69426096049E+03  0.00000000000E+00 0.  1.
          2    1    6    6  502    0  0.39185424257E+02 -0.30503636496E+03 -0.10744113271E+03  0.32577028474E+03  0.00000000000E+00 0. -1.
          1    1    5    5  503    0  0.61189338210E+02  0.26526549703E+03 -0.34914028182E+03  0.44272887348E+03  0.00000000000E+00 0. -1.
         -2    1    5    5    0  503  0.55143630380E+01  0.17218143155E+01  0.31426673862E+01  0.65764125899E+01  0.00000000000E+00 0.  1.
         -1    1    6    6    0  502  0.91173574842E+01 -0.36816976422E+03 -0.21766863277E+03  0.42779870872E+03  0.00000000000E+00 0.  1.
<mgrwt>
<rscale>  0 0.15003938E+04</rscale>
<asrwt>0</asrwt>
<pdfrwt beam="1">  1        2 0.26687818E+00 0.15003938E+04</pdfrwt>
<pdfrwt beam="2">  1       -2 0.49912661E-01 0.15003938E+04</pdfrwt>
<totfact> 0.34416127E+01</totfact>
</mgrwt>
</event>
<event>
12    1  0.1495204E-007  0.1872691E+04  0.7818608E-02  0.8668570E-01
         -1   -1    0    0    0  501 -0.00000000000E+00  0.00000000000E+00  0.65083804032E+03  0.65083804032E+03  0.00000000000E+00 0.  1.
          1   -1    0    0  501    0  0.00000000000E+00 -0.00000000000E+00 -0.13470987132E+04  0.13470987132E+04  0.00000000000E+00 0. -1.
         23    2    1    2    0    0 -0.37951757846E+03 -0.60613792015E+03 -0.20371157218E+03  0.74889605650E+03  0.88938901479E+02 0.  0.
        254    2    1    2    0    0  0.37951757846E+03  0.60613792015E+03 -0.49254910066E+03  0.12490406970E+04  0.89780915318E+03 0.  0.
        -24    2    4    4    0    0  0.53395914162E+03  0.62070111224E+03 -0.62283351192E+03  0.10318660436E+04  0.80272740167E+02 0.  0.
         24    2    4    4    0    0 -0.15444156316E+03 -0.14563192090E+02  0.13028441126E+03  0.21717465333E+03  0.78272084662E+02 0.  0.
         11    1    3    3    0    0 -0.10404047964E+03 -0.10103942439E+03 -0.49609007051E+02  0.15327896224E+03  0.00000000000E+00 0. -1.
        -11    1    3    3    0    0 -0.27547709882E+03 -0.50509849576E+03 -0.15410256513E+03  0.59561709426E+03  0.00000000000E+00 0.  1.
          2    1    6    6  502    0 -0.13724575608E+03  0.89004095334E+01  0.80074028290E+02  0.15914604883E+03  0.00000000000E+00 0. -1.
          1    1    5    5  503    0  0.52444315921E+03  0.60751537038E+03 -0.62235344621E+03  0.10155980329E+04  0.00000000000E+00 0. -1.
         -2    1    5    5    0  503  0.95159824074E+01  0.13185741858E+02 -0.48006571031E+00  0.16268010715E+02  0.00000000000E+00 0.  1.
         -1    1    6    6    0  502 -0.17195807076E+02 -0.23463601623E+02  0.50210382967E+02  0.58028604497E+02  0.00000000000E+00 0.  1.
<mgrwt>
<rscale>  0 0.18726912E+04</rscale>
<asrwt>0</asrwt>
<pdfrwt beam="1">  1        1 0.20724595E+00 0.18726912E+04</pdfrwt>
<pdfrwt beam="2">  1       -1 0.10012893E+00 0.18726912E+04</pdfrwt>
<totfact> 0.74622211E+00</totfact>
</mgrwt>
</event>
<event>
12    1  0.1495204E-007  0.2097192E+04  0.7818608E-02  0.8562481E-01
          2   -1    0    0  501    0  0.00000000000E+00  0.00000000000E+00  0.16170635753E+04  0.16170635753E+04  0.00000000000E+00 0. -1.
         -2   -1    0    0    0  501 -0.00000000000E+00 -0.00000000000E+00 -0.67996920467E+03  0.67996920467E+03  0.00000000000E+00 0.  1.
         23    2    1    2    0    0 -0.29925715943E+03 -0.18775118876E+03  0.12181509752E+04  0.12715676816E+04  0.90483226370E+02 0.  0.
        254    2    1    2    0    0  0.29925715943E+03  0.18775118876E+03 -0.28105660457E+03  0.10254650983E+04  0.92074996420E+03 0.  0.
        -24    2    4    4    0    0  0.59958924589E+03  0.23804787250E+01 -0.77130488863E+02  0.61027109175E+03  0.83479115036E+02 0.  0.
         24    2    4    4    0    0 -0.30033208646E+03  0.18537071004E+03 -0.20392611571E+03  0.41519400658E+03  0.78984429739E+02 0.  0.
         11    1    3    3    0    0 -0.19213005862E+03 -0.68651250414E+02  0.65036397018E+03  0.68161590893E+03  0.00000000000E+00 0. -1.
        -11    1    3    3    0    0 -0.10712710081E+03 -0.11909993835E+03  0.56778700503E+03  0.58995177271E+03  0.00000000000E+00 0.  1.
          2    1    6    6  502    0 -0.42402393676E+02  0.30159913358E+02 -0.79477438799E+00  0.52040513348E+02  0.00000000000E+00 0. -1.
          1    1    5    5  503    0  0.30400446637E+03  0.36496663823E+02 -0.61576284327E+02  0.31231772418E+03  0.00000000000E+00 0. -1.
         -4    1    5    5    0  503  0.29558477952E+03 -0.34116185098E+02 -0.15554204536E+02  0.29795336757E+03  0.00000000000E+00 0.  1.
         -1    1    6    6    0  502 -0.25792969278E+03  0.15521079668E+03 -0.20313134132E+03  0.36315349324E+03  0.00000000000E+00 0.  1.
<mgrwt>
<rscale>  0 0.20971919E+04</rscale>
<asrwt>0</asrwt>
<pdfrwt beam="1">  1        2 0.24877901E+00 0.20971919E+04</pdfrwt>
<pdfrwt beam="2">  1       -2 0.10461065E+00 0.20971919E+04</pdfrwt>
<totfact> 0.74588012E+00</totfact>
</mgrwt>
</event>
<event>
12    1  0.1495204E-007  0.2456375E+04  0.7818608E-02  0.8418694E-01
          1   -1    0    0  501    0  0.00000000000E+00  0.00000000000E+00  0.80111808503E+03  0.80111808503E+03  0.00000000000E+00 0. -1.
         -1   -1    0    0    0  501 -0.00000000000E+00 -0.00000000000E+00 -0.18829236339E+04  0.18829236339E+04  0.00000000000E+00 0.  1.
         23    2    1    2    0    0  0.28354755071E+03 -0.65964094343E+03 -0.13284662417E+04  0.15128492351E+04  0.91459636407E+02 0.  0.
        254    2    1    2    0    0 -0.28354755071E+03  0.65964094343E+03  0.24666069282E+03  0.11711924838E+04  0.89180992874E+03 0.  0.
        -24    2    4    4    0    0 -0.60693022994E+02 -0.21330806074E+03  0.95157814610E+02  0.25421117153E+03  0.79902053986E+02 0.  0.
         24    2    4    4    0    0 -0.22285452772E+03  0.87294900417E+03  0.15150287821E+03  0.91698131229E+03  0.78724205787E+02 0.  0.
         11    1    3    3    0    0  0.12170551194E+03 -0.18420466054E+03 -0.37356622629E+03  0.43393007965E+03  0.00000000000E+00 0. -1.
        -11    1    3    3    0    0  0.16184203878E+03 -0.47543628289E+03 -0.95490001540E+03  0.10789191555E+04  0.00000000000E+00 0.  1.
          4    1    6    6  502    0 -0.19055658018E+03  0.73120120582E+03  0.97470132766E+02  0.76188413845E+03  0.00000000000E+00 0. -1.
          3    1    5    5  503    0 -0.78452323537E+02 -0.18908061010E+03  0.74913151618E+02  0.21798675297E+03  0.00000000000E+00 0. -1.
         -4    1    5    5    0  503  0.17759300543E+02 -0.24227450640E+02  0.20244662992E+02  0.36224418559E+02  0.00000000000E+00 0.  1.
         -3    1    6    6    0  502 -0.32297947542E+02  0.14174779835E+03  0.54032745447E+02  0.15509717384E+03  0.00000000000E+00 0.  1.
<mgrwt>
<rscale>  0 0.24563747E+04</rscale>
<asrwt>0</asrwt>
<pdfrwt beam="1">  1        1 0.12324894E+00 0.24563747E+04</pdfrwt>
<pdfrwt beam="2">  1       -1 0.28968056E+00 0.24563747E+04</pdfrwt>
<totfact> 0.75790011E-01</totfact>
</mgrwt>
</event>
<event>
12    1  0.1495204E-007  0.2214808E+04  0.7818608E-02  0.8512290E-01
         -2   -1    0    0    0  501 -0.00000000000E+00  0.00000000000E+00  0.56407507580E+03  0.56407507580E+03  0.00000000000E+00 0.  1.
          2   -1    0    0  501    0  0.00000000000E+00 -0.00000000000E+00 -0.21740790351E+04  0.21740790351E+04  0.00000000000E+00 0. -1.
         23    2    1    2    0    0  0.71994200096E+02 -0.14535676538E+03 -0.17967810225E+04  0.18063390642E+04  0.90149973902E+02 0.  0.
        254    2    1    2    0    0 -0.71994200096E+02  0.14535676538E+03  0.18677706327E+03  0.93181504668E+03  0.89837734598E+03 0.  0.
        -24    2    4    4    0    0 -0.22893236683E+03  0.39147933166E+03 -0.14344424117E+03  0.48374320138E+03  0.88120025261E+02 0.  0.
         24    2    4    4    0    0  0.15693816674E+03 -0.24612256629E+03  0.33022130444E+03  0.44807184530E+03  0.80723991707E+02 0.  0.
         13    1    3    3    0    0  0.93570044521E+01  0.10253738180E+02 -0.65742659477E+02  0.67192186704E+02  0.00000000000E+00 0.  1.
        -13    1    3    3    0    0  0.62637195644E+02 -0.15561050356E+03 -0.17310383631E+04  0.17391468775E+04  0.00000000000E+00 0. -1.
          4    1    6    6  502    0  0.10695581935E+03 -0.10009178266E+03  0.18670138192E+03  0.23730848754E+03  0.00000000000E+00 0. -1.
          1    1    5    5  503    0 -0.42753005858E+02  0.81650847415E+02 -0.67878411421E+02  0.11446466324E+03  0.00000000000E+00 0. -1.
         -2    1    5    5    0  503 -0.18617936098E+03  0.30982848425E+03 -0.75565829749E+02  0.36927853814E+03  0.00000000000E+00 0.  1.
         -3    1    6    6    0  502  0.49982347387E+02 -0.14603078362E+03  0.14351992252E+03  0.21076335776E+03  0.00000000000E+00 0.  1.
<mgrwt>
<rscale>  0 0.22148082E+04</rscale>
<asrwt>0</asrwt>
<pdfrwt beam="1">  1        2 0.33447369E+00 0.22148082E+04</pdfrwt>
<pdfrwt beam="2">  1       -2 0.86780783E-01 0.22148082E+04</pdfrwt>
<totfact> 0.56016067E+00</totfact>
</mgrwt>
</event>
<event>
12    1  0.1495204E-007  0.4111120E+04  0.7818608E-02  0.7982498E-01
          2   -1    0    0  501    0  0.00000000000E+00  0.00000000000E+00  0.29153377757E+04  0.29153377757E+04  0.00000000000E+00 0. -1.
         -2   -1    0    0    0  501 -0.00000000000E+00 -0.00000000000E+00 -0.14493438643E+04  0.14493438643E+04  0.00000000000E+00 0.  1.
         23    2    1    2    0    0 -0.15719879671E+04 -0.67982150553E+03 -0.29668191366E+03  0.17406107393E+04  0.91663186662E+02 0.  0.
        254    2    1    2    0    0  0.15719879671E+04  0.67982150553E+03  0.17626758250E+04  0.26240709007E+04  0.91946646488E+03 0.  0.
        -24    2    4    4    0    0  0.28433181155E+03 -0.22257216068E+03  0.36332339935E+03  0.51766547132E+03  0.74770996465E+02 0.  0.
         24    2    4    4    0    0  0.12876561555E+04  0.90239366621E+03  0.13993524257E+04  0.21064054294E+04  0.79899425773E+02 0.  0.
         13    1    3    3    0    0 -0.19689856213E+03 -0.11906355679E+03 -0.37795999096E+02  0.23318171427E+03  0.00000000000E+00 0. -1.
        -13    1    3    3    0    0 -0.13750894049E+04 -0.56075794875E+03 -0.25888591457E+03  0.15074290250E+04  0.00000000000E+00 0.  1.
          4    1    6    6  502    0  0.48524186733E+03  0.35606544334E+03  0.58484345818E+03  0.83921638469E+03  0.00000000000E+00 0. -1.
          3    1    5    5  503    0  0.23827436655E+03 -0.20797648561E+03  0.28555552974E+03  0.42611131514E+03  0.00000000000E+00 0. -1.
         -4    1    5    5    0  503  0.46057445007E+02 -0.14595675063E+02  0.77767869608E+02  0.91554156183E+02  0.00000000000E+00 0.  1.
         -3    1    6    6    0  502  0.80241428817E+03  0.54632822287E+03  0.81450896747E+03  0.12671890447E+04  0.00000000000E+00 0.  1.
<mgrwt>
<rscale>  0 0.41111200E+04</rscale>
<asrwt>0</asrwt>
<pdfrwt beam="1">  1        2 0.44851351E+00 0.41111200E+04</pdfrwt>
<pdfrwt beam="2">  1       -2 0.22297598E+00 0.41111200E+04</pdfrwt>
<totfact> 0.14539694E-01</totfact>
</mgrwt>
</event>
<event>
12    1  0.1766759E-007  0.1518410E+04  0.7818608E-02  0.8872302E-01
         -1   -1    0    0    0  501 -0.00000000000E+00  0.00000000000E+00  0.58510132380E+03  0.58510132380E+03  0.00000000000E+00 0.  1.
          1   -1    0    0  501    0  0.00000000000E+00 -0.00000000000E+00 -0.98511493483E+03  0.98511493483E+03  0.00000000000E+00 0. -1.
         23    2    1    2    0    0 -0.39897605950E+03  0.16818081265E+03 -0.34839913543E+03  0.56315812408E+03  0.91095737296E+02 0.  0.
        254    2    1    2    0    0  0.39897605950E+03 -0.16818081265E+03 -0.51614475602E+02  0.10070581345E+04  0.90776392882E+03 0.  0.
        -24    2    4    4    0    0 -0.25100680247E+03 -0.16041127596E+03 -0.15341545245E+03  0.34439552632E+03  0.79597645448E+02 0.  0.
         24    2    4    4    0    0  0.64998286196E+03 -0.77695366957E+01  0.10180097685E+03  0.66266260822E+03  0.78868288322E+02 0.  0.
         11    1    3    3    0    0 -0.30588086962E+03  0.11627476512E+03 -0.30734785158E+03  0.44893833572E+03  0.00000000000E+00 0. -1.
        -11    1    3    3    0    0 -0.93095189871E+02  0.51906047537E+02 -0.41051283850E+02  0.11421978836E+03  0.00000000000E+00 0.  1.
          2    1    6    6  502    0  0.39449938676E+02  0.18649109093E+02  0.89598107222E+01  0.44546213528E+02  0.00000000000E+00 0. -1.
          1    1    5    5  503    0  0.42047846198E+01 -0.12649250190E+02 -0.48372424240E+01  0.14180361714E+02  0.00000000000E+00 0. -1.
         -2    1    5    5    0  503 -0.25521158709E+03 -0.14776202577E+03 -0.14857821003E+03  0.33021516461E+03  0.00000000000E+00 0.  1.
         -1    1    6    6    0  502  0.61053292329E+03 -0.26418645788E+02  0.92841166130E+02  0.61811639470E+03  0.00000000000E+00 0.  1.
<mgrwt>
<rscale>  0 0.15184098E+04</rscale>
<asrwt>0</asrwt>
<pdfrwt beam="1">  1        1 0.15155614E+00 0.15184098E+04</pdfrwt>
<pdfrwt beam="2">  1       -1 0.90015590E-01 0.15184098E+04</pdfrwt>
<totfact> 0.18133726E+01</totfact>
</mgrwt>
</event>
<event>
12    1  0.1495204E-007  0.1282520E+04  0.7818608E-02  0.9043543E-01
          2   -1    0    0  501    0  0.00000000000E+00  0.00000000000E+00  0.60641753439E+03  0.60641753439E+03  0.00000000000E+00 0. -1.
         -2   -1    0    0    0  501 -0.00000000000E+00 -0.00000000000E+00 -0.67810489038E+03  0.67810489038E+03  0.00000000000E+00 0.  1.
         23    2    1    2    0    0 -0.10616420493E+03 -0.13382893069E+03 -0.28060572145E+03  0.34088835383E+03  0.91018007943E+02 0.  0.
        254    2    1    2    0    0  0.10616420493E+03  0.13382893069E+03  0.20891836546E+03  0.94363407094E+03  0.90422196131E+03 0.  0.
        -24    2    4    4    0    0  0.44630693976E+03 -0.81249686627E+02 -0.40598640749E+02  0.46346444373E+03  0.85788372866E+02 0.  0.
         24    2    4    4    0    0 -0.34014273483E+03  0.21507861732E+03  0.24951700621E+03  0.48016962721E+03  0.79675860979E+02 0.  0.
         11    1    3    3    0    0 -0.11077703854E+03 -0.14366141544E+03 -0.25382564038E+03  0.31198975988E+03  0.00000000000E+00 0.  1.
        -11    1    3    3    0    0  0.46128336155E+01  0.98324847504E+01 -0.26780081072E+02  0.28898593955E+02  0.00000000000E+00 0. -1.
          2    1    6    6  502    0 -0.29686013178E+03  0.19396406198E+03  0.24659569373E+03  0.43192294607E+03  0.00000000000E+00 0. -1.
          3    1    5    5  503    0  0.41554772072E+03 -0.57601012091E+02 -0.52708729654E+02  0.42281910432E+03  0.00000000000E+00 0. -1.
         -4    1    5    5    0  503  0.30759219035E+02 -0.23648674536E+02  0.12110088905E+02  0.40645339416E+02  0.00000000000E+00 0.  1.
         -1    1    6    6    0  502 -0.43282603053E+02  0.21114555343E+02  0.29213124792E+01  0.48246681140E+02  0.00000000000E+00 0.  1.
<mgrwt>
<rscale>  0 0.12825205E+04</rscale>
<asrwt>0</asrwt>
<pdfrwt beam="1">  1        2 0.93295006E-01 0.12825205E+04</pdfrwt>
<pdfrwt beam="2">  1       -2 0.10432383E+00 0.12825205E+04</pdfrwt>
<totfact> 0.35876037E+01</totfact>
</mgrwt>
</event>
<event>
12    1  0.1495204E-007  0.1218043E+04  0.7818608E-02  0.9097209E-01
         -2   -1    0    0    0  501 -0.00000000000E+00  0.00000000000E+00  0.54087470352E+03  0.54087470352E+03  0.00000000000E+00 0.  1.
          2   -1    0    0  501    0  0.00000000000E+00 -0.00000000000E+00 -0.68575437547E+03  0.68575437547E+03  0.00000000000E+00 0. -1.
         23    2    1    2    0    0 -0.64547396967E+02  0.10799045009E+03  0.19625632945E+03  0.25915001648E+03  0.11319841177E+03 0.  0.
        254    2    1    2    0    0  0.64547396967E+02 -0.10799045009E+03 -0.34113600140E+03  0.96747906250E+03  0.89655655771E+03 0.  0.
        -24    2    4    4    0    0  0.31410555857E+03 -0.39419649947E+03 -0.25269319224E+03  0.56955572289E+03  0.80539989808E+02 0.  0.
         24    2    4    4    0    0 -0.24955816160E+03  0.28620604938E+03 -0.88442809158E+02  0.39792333961E+03  0.79546684353E+02 0.  0.
         11    1    3    3    0    0 -0.82567848823E+02  0.10992036587E+03  0.19788539027E+03  0.24095344815E+03  0.00000000000E+00 0.  1.
        -11    1    3    3    0    0  0.18020451856E+02 -0.19299157746E+01 -0.16290608189E+01  0.18196568335E+02  0.00000000000E+00 0. -1.
          2    1    6    6  502    0 -0.17444163705E+03  0.23623810203E+03 -0.91696055121E+02  0.30764670014E+03  0.00000000000E+00 0. -1.
          1    1    5    5  503    0  0.13257692757E+03 -0.11213082170E+03 -0.10613014020E+03  0.20350324213E+03  0.00000000000E+00 0. -1.
         -2    1    5    5    0  503  0.18152863100E+03 -0.28206567777E+03 -0.14656305204E+03  0.36605248076E+03  0.00000000000E+00 0.  1.
         -1    1    6    6    0  502 -0.75116524557E+02  0.49967947350E+02  0.32532459632E+01  0.90276639466E+02  0.00000000000E+00 0.  1.
<mgrwt>
<rscale>  0 0.12180430E+04</rscale>
<asrwt>0</asrwt>
<pdfrwt beam="1">  1        2 0.10550067E+00 0.12180430E+04</pdfrwt>
<pdfrwt beam="2">  1       -2 0.83211492E-01 0.12180430E+04</pdfrwt>
<totfact> 0.52438534E+01</totfact>
</mgrwt>
</event>
<event>
12    1  0.1495204E-007  0.1611585E+04  0.7818608E-02  0.8813462E-01
          1   -1    0    0  501    0  0.00000000000E+00  0.00000000000E+00  0.11967857579E+04  0.11967857579E+04  0.00000000000E+00 0. -1.
         -1   -1    0    0    0  501 -0.00000000000E+00 -0.00000000000E+00 -0.54253782532E+03  0.54253782532E+03  0.00000000000E+00 0.  1.
         23    2    1    2    0    0  0.26225197665E+02 -0.37763209721E+03  0.65649579567E+03  0.76309667718E+03  0.89644002348E+02 0.  0.
        254    2    1    2    0    0 -0.26225197665E+02  0.37763209721E+03 -0.22478631270E+01  0.97622690600E+03  0.89984451839E+03 0.  0.
        -24    2    4    4    0    0 -0.62773301499E+02 -0.24011581994E+03 -0.18944277921E+03  0.32391784174E+03  0.86244462056E+02 0.  0.
         24    2    4    4    0    0  0.36548103834E+02  0.61774791715E+03  0.18719491608E+03  0.65230906426E+03  0.86700205757E+02 0.  0.
         11    1    3    3    0    0  0.17296375175E+02 -0.33271825333E+03  0.62254942813E+03  0.70609375522E+03  0.00000000000E+00 0. -1.
        -11    1    3    3    0    0  0.89288224904E+01 -0.44913843879E+02  0.33946367538E+02  0.57002921960E+02  0.00000000000E+00 0.  1.
          4    1    6    6  502    0  0.13846399874E+01  0.53407846046E+03  0.15761058082E+03  0.55685080080E+03  0.00000000000E+00 0. -1.
          1    1    5    5  503    0  0.20022677639E+02 -0.61280154265E+02 -0.60501589812E+02  0.88411578972E+02  0.00000000000E+00 0. -1.
         -2    1    5    5    0  503 -0.82795979138E+02 -0.17883566567E+03 -0.12894118940E+03  0.23550626276E+03  0.00000000000E+00 0.  1.
         -3    1    6    6    0  502  0.35163463847E+02  0.83669456685E+02  0.29584335263E+02  0.95458263469E+02  0.00000000000E+00 0.  1.
<mgrwt>
<rscale>  0 0.16115850E+04</rscale>
<asrwt>0</asrwt>
<pdfrwt beam="1">  1        1 0.18412088E+00 0.16115850E+04</pdfrwt>
<pdfrwt beam="2">  1       -1 0.83467358E-01 0.16115850E+04</pdfrwt>
<totfact> 0.14668784E+01</totfact>
</mgrwt>
</event>
<event>
12    1  0.1495204E-007  0.1801480E+04  0.7818608E-02  0.8705513E-01
         -1   -1    0    0    0  501 -0.00000000000E+00  0.00000000000E+00  0.51115922881E+03  0.51115922881E+03  0.00000000000E+00 0.  1.
          1   -1    0    0  501    0  0.00000000000E+00 -0.00000000000E+00 -0.15872409178E+04  0.15872409178E+04  0.00000000000E+00 0. -1.
         23    2    1    2    0    0  0.53739765423E+03  0.16041085493E+03 -0.26028721179E+02  0.56890003303E+03  0.91879661038E+02 0.  0.
        254    2    1    2    0    0 -0.53739765423E+03 -0.16041085493E+03 -0.10500529678E+04  0.15295001136E+04  0.96032884006E+03 0.  0.
        -24    2    4    4    0    0  0.21240589125E+03  0.25094188867E+02 -0.57719471747E+03  0.62075285824E+03  0.80214638180E+02 0.  0.
         24    2    4    4    0    0 -0.74980354547E+03 -0.18550504380E+03 -0.47285825035E+03  0.90874725534E+03  0.74894399593E+02 0.  0.
         13    1    3    3    0    0  0.23468406484E+02  0.22459757829E+02  0.13791125752E+02  0.35290253246E+02  0.00000000000E+00 0. -1.
        -13    1    3    3    0    0  0.51392924774E+03  0.13795109710E+03 -0.39819846931E+02  0.53360977979E+03  0.00000000000E+00 0.  1.
          2    1    6    6  502    0 -0.71482692237E+03 -0.17359660219E+03 -0.46704021725E+03  0.87134371735E+03  0.00000000000E+00 0. -1.
          1    1    5    5  503    0  0.15483126135E+03  0.64779845532E+01 -0.49497967903E+03  0.51867096162E+03  0.00000000000E+00 0. -1.
         -2    1    5    5    0  503  0.57574629893E+02  0.18616204313E+02 -0.82215038444E+02  0.10208189662E+03  0.00000000000E+00 0.  1.
         -1    1    6    6    0  502 -0.34976623105E+02 -0.11908441606E+02 -0.58180331007E+01  0.37403537994E+02  0.00000000000E+00 0.  1.
<mgrwt>
<rscale>  0 0.18014803E+04</rscale>
<asrwt>0</asrwt>
<pdfrwt beam="1">  1        1 0.24419090E+00 0.18014803E+04</pdfrwt>
<pdfrwt beam="2">  1       -1 0.78639883E-01 0.18014803E+04</pdfrwt>
<totfact> 0.86909790E+00</totfact>
</mgrwt>
</event>
<event>
12    1  0.1495204E-007  0.2165696E+04  0.7818608E-02  0.8532843E-01
          2   -1    0    0  501    0  0.00000000000E+00  0.00000000000E+00  0.98092838581E+03  0.98092838581E+03  0.00000000000E+00 0. -1.
         -2   -1    0    0    0  501 -0.00000000000E+00 -0.00000000000E+00 -0.11953570425E+04  0.11953570425E+04  0.00000000000E+00 0.  1.
         23    2    1    2    0    0  0.62693893862E+03 -0.35961398764E+03 -0.62038969662E+03  0.95691263640E+03  0.91781071915E+02 0.  0.
        254    2    1    2    0    0 -0.62693893862E+03  0.35961398764E+03  0.40596103998E+03  0.12193727919E+04  0.89425443063E+03 0.  0.
        -24    2    4    4    0    0 -0.17604323523E+03  0.46550764825E+03 -0.11523886664E+03  0.51741811300E+03  0.82176128018E+02 0.  0.
         24    2    4    4    0    0 -0.45089570338E+03 -0.10589366061E+03  0.52119990662E+03  0.70195467887E+03  0.81059396968E+02 0.  0.
         13    1    3    3    0    0  0.44973628671E+02 -0.48231977276E+02 -0.34860323646E+02  0.74593518971E+02  0.00000000000E+00 0.  1.
        -13    1    3    3    0    0  0.58196530994E+03 -0.31138201037E+03 -0.58552937297E+03  0.88231911742E+03  0.00000000000E+00 0. -1.
          4    1    6    6  502    0 -0.26674859526E+03 -0.72836553438E+02  0.25194181651E+03  0.37407840822E+03  0.00000000000E+00 0. -1.
          1    1    5    5  503    0 -0.45961220406E+01  0.94500855407E+02 -0.84340134855E+01  0.94987728649E+02  0.00000000000E+00 0. -1.
         -2    1    5    5    0  503 -0.17144711319E+03  0.37100679285E+03 -0.10680485316E+03  0.42243038435E+03  0.00000000000E+00 0.  1.
         -3    1    6    6    0  502 -0.18414710812E+03 -0.33057107173E+02  0.26925809011E+03  0.32787627065E+03  0.00000000000E+00 0.  1.
<mgrwt>
<rscale>  0 0.21656959E+04</rscale>
<asrwt>0</asrwt>
<pdfrwt beam="1">  1        2 0.15091206E+00 0.21656959E+04</pdfrwt>
<pdfrwt beam="2">  1       -2 0.18390108E+00 0.21656959E+04</pdfrwt>
<totfact> 0.40481905E+00</totfact>
</mgrwt>
</event>
<event>
12    1  0.1495204E-007  0.1338747E+04  0.7818608E-02  0.8999391E-01
          2   -1    0    0  501    0  0.00000000000E+00  0.00000000000E+00  0.31043672775E+04  0.31043672775E+04  0.00000000000E+00 0. -1.
         -2   -1    0    0    0  501 -0.00000000000E+00 -0.00000000000E+00 -0.14433233903E+03  0.14433233903E+03  0.00000000000E+00 0.  1.
         23    2    1    2    0    0 -0.25874742410E+03 -0.25085862490E+03  0.71960786612E+03  0.80995304193E+03  0.91149163368E+02 0.  0.
        254    2    1    2    0    0  0.25874742410E+03  0.25085862490E+03  0.22404270723E+04  0.24387465746E+04  0.89335945142E+03 0.  0.
        -24    2    4    4    0    0  0.24786335671E+03  0.57412014704E+03  0.15053659467E+04  0.16320176741E+04  0.79403199575E+02 0.  0.
         24    2    4    4    0    0  0.10884067386E+02 -0.32326152214E+03  0.73506112560E+03  0.80672890050E+03  0.76682370306E+02 0.  0.
         13    1    3    3    0    0 -0.44594922726E+02 -0.94293364745E+01  0.13064123161E+03  0.13836455802E+03  0.00000000000E+00 0.  1.
        -13    1    3    3    0    0 -0.21415250137E+03 -0.24142928842E+03  0.58896663452E+03  0.67158848391E+03  0.00000000000E+00 0. -1.
          2    1    6    6  502    0  0.14045891687E+02 -0.21516778554E+03  0.56976404713E+03  0.60920073244E+03  0.00000000000E+00 0. -1.
          1    1    5    5  503    0  0.15256945933E+03  0.42293136784E+03  0.10159108028E+04  0.11109559582E+04  0.00000000000E+00 0. -1.
         -2    1    5    5    0  503  0.95293897384E+02  0.15118877919E+03  0.48945514389E+03  0.52106171584E+03  0.00000000000E+00 0.  1.
         -1    1    6    6    0  502 -0.31618243017E+01 -0.10809373660E+03  0.16529707846E+03  0.19752816805E+03  0.00000000000E+00 0.  1.
<mgrwt>
<rscale>  0 0.13387466E+04</rscale>
<asrwt>0</asrwt>
<pdfrwt beam="1">  1        2 0.47759491E+00 0.13387466E+04</pdfrwt>
<pdfrwt beam="2">  1       -2 0.22204978E-01 0.13387466E+04</pdfrwt>
<totfact> 0.26273575E+01</totfact>
</mgrwt>
</event>
<event>
12    1  0.1495204E-007  0.1702554E+04  0.7818608E-02  0.8759909E-01
         -1   -1    0    0    0  501 -0.00000000000E+00  0.00000000000E+00  0.37842680328E+03  0.37842680328E+03  0.00000000000E+00 0.  1.
          1   -1    0    0  501    0  0.00000000000E+00 -0.00000000000E+00 -0.19149610878E+04  0.19149610878E+04  0.00000000000E+00 0. -1.
         23    2    1    2    0    0  0.12275004535E+03 -0.28032080998E+03  0.15185538210E+03  0.35250553325E+03  0.86906638169E+02 0.  0.
        254    2    1    2    0    0 -0.12275004535E+03  0.28032080998E+03 -0.16883896667E+04  0.19408823579E+04  0.90703766759E+03 0.  0.
        -24    2    4    4    0    0 -0.11305603473E+03  0.50668198320E+02 -0.16910270165E+04  0.16975063907E+04  0.81281254803E+02 0.  0.
         24    2    4    4    0    0 -0.96940106191E+01  0.22965261166E+03  0.26373498834E+01  0.24337596719E+03  0.79941290362E+02 0.  0.
         11    1    3    3    0    0 -0.42235964976E+01 -0.36700894146E+02 -0.31373769035E+01  0.37076104600E+02  0.00000000000E+00 0. -1.
        -11    1    3    3    0    0  0.12697364184E+03 -0.24361991584E+03  0.15499275900E+03  0.31542942865E+03  0.00000000000E+00 0.  1.
          2    1    6    6  502    0 -0.37618178252E+02  0.60026508905E+02  0.86209304722E+01  0.71362662146E+02  0.00000000000E+00 0. -1.
          3    1    5    5  503    0 -0.54027394702E+02  0.28122275096E+02 -0.37088669015E+03  0.37585470419E+03  0.00000000000E+00 0. -1.
         -4    1    5    5    0  503 -0.59028640025E+02  0.22545923224E+02 -0.13201403264E+04  0.13216516865E+04  0.00000000000E+00 0.  1.
         -1    1    6    6    0  502  0.27924167633E+02  0.16962610276E+03 -0.59835805888E+01  0.17201330504E+03  0.00000000000E+00 0.  1.
<mgrwt>
<rscale>  0 0.17025541E+04</rscale>
<asrwt>0</asrwt>
<pdfrwt beam="1">  1        1 0.29460941E+00 0.17025541E+04</pdfrwt>
<pdfrwt beam="2">  1       -1 0.58219507E-01 0.17025541E+04</pdfrwt>
<totfact> 0.96812420E+00</totfact>
</mgrwt>
</event>
<event>
12    1  0.1495204E-007  0.2234932E+04  0.7818608E-02  0.8504028E-01
          1   -1    0    0  501    0  0.00000000000E+00  0.00000000000E+00  0.21380165918E+04  0.21380165918E+04  0.00000000000E+00 0. -1.
         -1   -1    0    0    0  501 -0.00000000000E+00 -0.00000000000E+00 -0.58406026188E+03  0.58406026188E+03  0.00000000000E+00 0.  1.
         23    2    1    2    0    0  0.40169116587E+03  0.27286732627E+03  0.16318275359E+04  0.17049307918E+04  0.90086222996E+02 0.  0.
        254    2    1    2    0    0 -0.40169116587E+03 -0.27286732627E+03 -0.77871206018E+02  0.10171460618E+04  0.89034252725E+03 0.  0.
        -24    2    4    4    0    0 -0.64925328494E+03 -0.19820808692E+03  0.10225230344E+03  0.69113530561E+03  0.79976267601E+02 0.  0.
         24    2    4    4    0    0  0.24756211907E+03 -0.74659239351E+02 -0.18012350946E+03  0.32601075619E+03  0.83531608834E+02 0.  0.
         11    1    3    3    0    0  0.33059006507E+03  0.25413311977E+03  0.14509807052E+04  0.15097080647E+04  0.00000000000E+00 0. -1.
        -11    1    3    3    0    0  0.71101100807E+02  0.18734206498E+02  0.18084683070E+03  0.19522272717E+03  0.00000000000E+00 0.  1.
          2    1    6    6  502    0  0.24236354766E+03 -0.79593845244E+02 -0.15191629593E+03  0.29690710736E+03  0.00000000000E+00 0. -1.
          3    1    5    5  503    0 -0.49714252519E+03 -0.16280730895E+03  0.11079298363E+03  0.53472609383E+03  0.00000000000E+00 0. -1.
         -4    1    5    5    0  503 -0.15211075975E+03 -0.35400777966E+02 -0.85406801899E+01  0.15640921178E+03  0.00000000000E+00 0.  1.
         -3    1    6    6    0  502  0.51985714112E+01  0.49346058929E+01 -0.28207213529E+02  0.29103648828E+02  0.00000000000E+00 0.  1.
<mgrwt>
<rscale>  0 0.22349322E+04</rscale>
<asrwt>0</asrwt>
<pdfrwt beam="1">  1        1 0.32892563E+00 0.22349322E+04</pdfrwt>
<pdfrwt beam="2">  1       -1 0.89855426E-01 0.22349322E+04</pdfrwt>
<totfact> 0.26452267E+00</totfact>
</mgrwt>
</event>
<event>
12    1  0.1495204E-007  0.1708423E+04  0.7818608E-02  0.8756575E-01
          1   -1    0    0  501    0  0.00000000000E+00  0.00000000000E+00  0.24861280083E+04  0.24861280083E+04  0.00000000000E+00 0. -1.
         -1   -1    0    0    0  501 -0.00000000000E+00 -0.00000000000E+00 -0.29349957981E+03  0.29349957981E+03  0.00000000000E+00 0.  1.
         23    2    1    2    0    0  0.57640992353E+03  0.43374902950E+02  0.11378045643E+04  0.12794403258E+04  0.90766394751E+02 0.  0.
        254    2    1    2    0    0 -0.57640992353E+03 -0.43374902950E+02  0.10548238641E+04  0.15001872623E+04  0.89653703523E+03 0.  0.
        -24    2    4    4    0    0 -0.76999175590E+03  0.71749155911E+02  0.97806619695E+03  0.12492870492E+04  0.77906355095E+02 0.  0.
         24    2    4    4    0    0  0.19358183237E+03 -0.11512405886E+03  0.76757667177E+02  0.25090021311E+03  0.79571997058E+02 0.  0.
         13    1    3    3    0    0  0.55584815062E+03  0.25466668077E+02  0.11011817500E+04  0.12337815707E+04  0.00000000000E+00 0.  1.
        -13    1    3    3    0    0  0.20561772902E+02  0.17908234873E+02  0.36622814312E+02  0.45658755012E+02  0.00000000000E+00 0. -1.
          4    1    6    6  502    0  0.12877659856E+03 -0.11284275971E+03  0.72427844277E+02  0.18591044452E+03  0.00000000000E+00 0. -1.
          3    1    5    5  503    0 -0.34319424382E+03  0.58483897563E+02  0.39393754193E+03  0.52572753609E+03  0.00000000000E+00 0. -1.
         -4    1    5    5    0  503 -0.42679751208E+03  0.13265258349E+02  0.58412865502E+03  0.72355951311E+03  0.00000000000E+00 0.  1.
         -3    1    6    6    0  502  0.64805233808E+02 -0.22812991519E+01  0.43298229001E+01  0.64989768587E+02  0.00000000000E+00 0.  1.
<mgrwt>
<rscale>  0 0.17084233E+04</rscale>
<asrwt>0</asrwt>
<pdfrwt beam="1">  1        1 0.38248122E+00 0.17084233E+04</pdfrwt>
<pdfrwt beam="2">  1       -1 0.45153783E-01 0.17084233E+04</pdfrwt>
<totfact> 0.64188944E+00</totfact>
</mgrwt>
</event>
<event>
12    1  0.1495204E-007  0.2816681E+04  0.7818608E-02  0.8298108E-01
          1   -1    0    0  501    0  0.00000000000E+00  0.00000000000E+00  0.40567822746E+04  0.40567822746E+04  0.00000000000E+00 0. -1.
         -1   -1    0    0    0  501 -0.00000000000E+00 -0.00000000000E+00 -0.48891545205E+03  0.48891545205E+03  0.00000000000E+00 0.  1.
         23    2    1    2    0    0 -0.11580915825E+04  0.11343923918E+03  0.82546813705E+03  0.14296357676E+04  0.91739894486E+02 0.  0.
        254    2    1    2    0    0  0.11580915825E+04 -0.11343923918E+03  0.27423986855E+04  0.31160619591E+04  0.91380906547E+03 0.  0.
        -24    2    4    4    0    0  0.12950479684E+04 -0.24424876901E+02  0.24060349317E+04  0.27337110503E+04  0.80163574776E+02 0.  0.
         24    2    4    4    0    0 -0.13695638593E+03 -0.89014362281E+02  0.33636375381E+03  0.38235090881E+03  0.79818758733E+02 0.  0.
         13    1    3    3    0    0 -0.57778783795E+03  0.84044022588E+02  0.45886152214E+03  0.74260088871E+03  0.00000000000E+00 0. -1.
        -13    1    3    3    0    0 -0.58030374454E+03  0.29395216594E+02  0.36660661491E+03  0.68703487887E+03  0.00000000000E+00 0.  1.
          2    1    6    6  502    0 -0.39407259564E+02 -0.40491778164E+01  0.15234496294E+03  0.15741129464E+03  0.00000000000E+00 0. -1.
          3    1    5    5  503    0  0.38027906995E+03  0.19325742680E+02  0.76039593222E+03  0.85040439152E+03  0.00000000000E+00 0. -1.
         -4    1    5    5    0  503  0.91476889848E+03 -0.43750619582E+02  0.16456389995E+04  0.18833066588E+04  0.00000000000E+00 0.  1.
         -3    1    6    6    0  502 -0.97549126371E+02 -0.84965184464E+02  0.18401879087E+03  0.22493961417E+03  0.00000000000E+00 0.  1.
<mgrwt>
<rscale>  0 0.28166814E+04</rscale>
<asrwt>0</asrwt>
<pdfrwt beam="1">  1        1 0.62412033E+00 0.28166814E+04</pdfrwt>
<pdfrwt beam="2">  1       -1 0.75217764E-01 0.28166814E+04</pdfrwt>
<totfact> 0.13130726E-01</totfact>
</mgrwt>
</event>
<event>
12    1  0.1495204E-007  0.1277913E+04  0.7818608E-02  0.9047266E-01
         -1   -1    0    0    0  501 -0.00000000000E+00  0.00000000000E+00  0.10247991523E+03  0.10247991523E+03  0.00000000000E+00 0.  1.
          1   -1    0    0  501    0  0.00000000000E+00 -0.00000000000E+00 -0.39838571693E+04  0.39838571693E+04  0.00000000000E+00 0. -1.
         23    2    1    2    0    0  0.93417208415E+02  0.24348892242E+03 -0.45047960510E+03  0.52912828370E+03  0.95032814533E+02 0.  0.
        254    2    1    2    0    0 -0.93417208415E+02 -0.24348892242E+03 -0.34308976490E+04  0.35572088008E+04  0.90258636415E+03 0.  0.
        -24    2    4    4    0    0 -0.45000214474E+03 -0.62174881545E+02 -0.24776390260E+04  0.25201102374E+04  0.76764700214E+02 0.  0.
         24    2    4    4    0    0  0.35658493632E+03 -0.18131404087E+03 -0.95325862292E+03  0.10370985634E+04  0.82727442837E+02 0.  0.
         11    1    3    3    0    0 -0.11858025465E+02  0.45571514063E+02 -0.41625188245E+02  0.62849279696E+02  0.00000000000E+00 0. -1.
        -11    1    3    3    0    0  0.10527523388E+03  0.19791740835E+03 -0.40885441685E+03  0.46627900401E+03  0.00000000000E+00 0.  1.
          4    1    6    6  502    0  0.25304792614E+03 -0.87605205945E+02 -0.66133881769E+03  0.71349629068E+03  0.00000000000E+00 0. -1.
          3    1    5    5  503    0 -0.40856990772E+03 -0.75644225641E+02 -0.21727589548E+04  0.22121331094E+04  0.00000000000E+00 0. -1.
         -4    1    5    5    0  503 -0.41432237015E+02  0.13469344096E+02 -0.30488007128E+03  0.30797712798E+03  0.00000000000E+00 0.  1.
         -1    1    6    6    0  502  0.10353701019E+03 -0.93708834928E+02 -0.29191980523E+03  0.32360227271E+03  0.00000000000E+00 0.  1.
<mgrwt>
<rscale>  0 0.12779129E+04</rscale>
<asrwt>0</asrwt>
<pdfrwt beam="1">  1        1 0.61290114E+00 0.12779129E+04</pdfrwt>
<pdfrwt beam="2">  1       -1 0.15766140E-01 0.12779129E+04</pdfrwt>
<totfact> 0.30469447E+00</totfact>
</mgrwt>
</event>
<event>
12    1  0.1495204E-007  0.2288757E+04  0.7818608E-02  0.8482367E-01
         -2   -1    0    0    0  501 -0.00000000000E+00  0.00000000000E+00  0.24043448727E+04  0.24043448727E+04  0.00000000000E+00 0.  1.
          2   -1    0    0  501    0  0.00000000000E+00 -0.00000000000E+00 -0.54468170729E+03  0.54468170729E+03  0.00000000000E+00 0. -1.
         23    2    1    2    0    0 -0.47185044157E+03  0.83408301040E+03  0.77308605536E+03  0.12345671319E+04  0.90314156138E+02 0.  0.
        254    2    1    2    0    0  0.47185044157E+03 -0.83408301040E+03  0.10865771100E+04  0.17144594480E+04  0.91672464538E+03 0.  0.
        -24    2    4    4    0    0  0.32843194770E+03 -0.10221737836E+04  0.88546990532E+03  0.13944536111E+04  0.87960969334E+02 0.  0.
         24    2    4    4    0    0  0.14341849386E+03  0.18809077318E+03  0.20110720469E+03  0.32000583694E+03  0.77541115273E+02 0.  0.
         13    1    3    3    0    0 -0.32566173571E+02  0.22119493435E+02  0.31954063349E+02  0.50703942800E+02  0.00000000000E+00 0.  1.
        -13    1    3    3    0    0 -0.43928426800E+03  0.81196351696E+03  0.74113199201E+03  0.11838631891E+04  0.00000000000E+00 0. -1.
          2    1    6    6  502    0  0.41196649047E+02  0.83097687904E+01  0.30964225116E+02  0.52201526674E+02  0.00000000000E+00 0. -1.
          3    1    5    5  503    0  0.17736979622E+03 -0.64526307645E+03  0.59172136553E+03  0.89328531660E+03  0.00000000000E+00 0. -1.
         -4    1    5    5    0  503  0.15106215148E+03 -0.37691070712E+03  0.29374853979E+03  0.50116829447E+03  0.00000000000E+00 0.  1.
         -1    1    6    6    0  502  0.10222184482E+03  0.17978100439E+03  0.17014297958E+03  0.26780431026E+03  0.00000000000E+00 0.  1.
<mgrwt>
<rscale>  0 0.22887575E+04</rscale>
<asrwt>0</asrwt>
<pdfrwt beam="1">  1        2 0.83797187E-01 0.22887575E+04</pdfrwt>
<pdfrwt beam="2">  1       -2 0.36989921E+00 0.22887575E+04</pdfrwt>
<totfact> 0.58830914E-01</totfact>
</mgrwt>
</event>
<event>
12    1  0.1495204E-007  0.1988108E+04  0.7818608E-02  0.8612201E-01
          1   -1    0    0  501    0  0.00000000000E+00  0.00000000000E+00  0.12806873152E+04  0.12806873152E+04  0.00000000000E+00 0. -1.
         -1   -1    0    0    0  501 -0.00000000000E+00 -0.00000000000E+00 -0.77157272411E+03  0.77157272411E+03  0.00000000000E+00 0.  1.
         23    2    1    2    0    0 -0.50878670819E+03  0.21368467607E+03  0.78162829063E+03  0.96112384106E+03  0.91056015321E+02 0.  0.
        254    2    1    2    0    0  0.50878670819E+03 -0.21368467607E+03 -0.27251369951E+03  0.10911361983E+04  0.90099358021E+03 0.  0.
        -24    2    4    4    0    0  0.26848852141E+03 -0.18229530258E+03 -0.59284168088E+03  0.68051043686E+03  0.79470325357E+02 0.  0.
         24    2    4    4    0    0  0.24029818678E+03 -0.31389373483E+02  0.32032798138E+03  0.41062576143E+03  0.85293545809E+02 0.  0.
         11    1    3    3    0    0 -0.37657649163E+03  0.14645152317E+03  0.50024959103E+03  0.64304553183E+03  0.00000000000E+00 0.  1.
        -11    1    3    3    0    0 -0.13221021656E+03  0.67233152901E+02  0.28137869961E+03  0.31807830923E+03  0.00000000000E+00 0. -1.
          4    1    6    6  502    0  0.25361222948E+02  0.23974927429E+02  0.46589642733E+02  0.58211541679E+02  0.00000000000E+00 0. -1.
          1    1    5    5  503    0  0.55539174644E+02 -0.90964638809E+01 -0.68394677091E+02  0.88573006213E+02  0.00000000000E+00 0. -1.
         -2    1    5    5    0  503  0.21294934676E+03 -0.17319883870E+03 -0.52444700379E+03  0.59193743065E+03  0.00000000000E+00 0.  1.
         -3    1    6    6    0  502  0.21493696383E+03 -0.55364300912E+02  0.27373833864E+03  0.35241421975E+03  0.00000000000E+00 0.  1.
<mgrwt>
<rscale>  0 0.19881080E+04</rscale>
<asrwt>0</asrwt>
<pdfrwt beam="1">  1        1 0.19702882E+00 0.19881080E+04</pdfrwt>
<pdfrwt beam="2">  1       -1 0.11870350E+00 0.19881080E+04</pdfrwt>
<totfact> 0.55137721E+00</totfact>
</mgrwt>
</event>
<event>
12    1  0.1495204E-007  0.1877834E+04  0.7818608E-02  0.8665969E-01
          1   -1    0    0  501    0  0.00000000000E+00  0.00000000000E+00  0.24802969829E+04  0.24802969829E+04  0.00000000000E+00 0. -1.
         -1   -1    0    0    0  501 -0.00000000000E+00 -0.00000000000E+00 -0.35542720193E+03  0.35542720193E+03  0.00000000000E+00 0.  1.
         23    2    1    2    0    0  0.21332832188E+03 -0.35951944437E+03 -0.80679056986E+02  0.43525273033E+03  0.90402573108E+02 0.  0.
        254    2    1    2    0    0 -0.21332832188E+03  0.35951944437E+03  0.22055488380E+04  0.24004714545E+04  0.85032601013E+03 0.  0.
        -24    2    4    4    0    0 -0.31314086521E+03  0.36174164598E+03  0.22191062321E+04  0.22714054943E+04  0.77046934773E+02 0.  0.
         24    2    4    4    0    0  0.99812543330E+02 -0.22222016114E+01 -0.13557394116E+02  0.12906596026E+03  0.80664348860E+02 0.  0.
         11    1    3    3    0    0  0.64660125973E+02 -0.70452207743E+02  0.14098327616E+02  0.96660272647E+02  0.00000000000E+00 0. -1.
        -11    1    3    3    0    0  0.14866819591E+03 -0.28906723663E+03 -0.94777384603E+02  0.33859245768E+03  0.00000000000E+00 0.  1.
          4    1    6    6  502    0  0.80088110872E+02 -0.75648656141E+01 -0.44539360520E+02  0.91951548820E+02  0.00000000000E+00 0. -1.
          1    1    5    5  503    0 -0.23807541136E+03  0.22543380277E+03  0.14305632601E+04  0.14676551169E+04  0.00000000000E+00 0. -1.
         -2    1    5    5    0  503 -0.75065453856E+02  0.13630784322E+03  0.78854297202E+03  0.80375037742E+03  0.00000000000E+00 0.  1.
         -3    1    6    6    0  502  0.19724432458E+02  0.53426640028E+01  0.30981966403E+02  0.37114411442E+02  0.00000000000E+00 0.  1.
<mgrwt>
<rscale>  0 0.18778339E+04</rscale>
<asrwt>0</asrwt>
<pdfrwt beam="1">  1        1 0.38158414E+00 0.18778339E+04</pdfrwt>
<pdfrwt beam="2">  1       -1 0.54681109E-01 0.18778339E+04</pdfrwt>
<totfact> 0.44316971E+00</totfact>
</mgrwt>
</event>
<event>
12    1  0.1495204E-007  0.2025082E+04  0.7818608E-02  0.8594983E-01
          2   -1    0    0  501    0  0.00000000000E+00  0.00000000000E+00  0.59228975169E+03  0.59228975169E+03  0.00000000000E+00 0. -1.
         -2   -1    0    0    0  501 -0.00000000000E+00 -0.00000000000E+00 -0.17309750504E+04  0.17309750504E+04  0.00000000000E+00 0.  1.
         23    2    1    2    0    0  0.25748870227E+03 -0.51098777056E+03  0.19215400383E+03  0.61030284364E+03  0.90207905991E+02 0.  0.
        254    2    1    2    0    0 -0.25748870227E+03  0.51098777056E+03 -0.13308393026E+04  0.17129619585E+04  0.91416436621E+03 0.  0.
        -24    2    4    4    0    0 -0.52349139598E+03  0.69898385518E+02 -0.85138858153E+03  0.10047948311E+04  0.76296197710E+02 0.  0.
         24    2    4    4    0    0  0.26600269371E+03  0.44108938504E+03 -0.47945072102E+03  0.70816712741E+03  0.79438075213E+02 0.  0.
         13    1    3    3    0    0 -0.27843351762E+01  0.13359785400E+01 -0.20744503335E+01  0.37203098284E+01  0.00000000000E+00 0.  1.
        -13    1    3    3    0    0  0.26027303744E+03 -0.51232374910E+03  0.19422845417E+03  0.60658253381E+03  0.00000000000E+00 0. -1.
          4    1    6    6  502    0  0.25618437213E+03  0.38384444176E+03 -0.40706770027E+03  0.61536257654E+03  0.00000000000E+00 0. -1.
          3    1    5    5  503    0 -0.32873870531E+03  0.65179080693E+02 -0.59363658382E+03  0.68170509942E+03  0.00000000000E+00 0. -1.
         -4    1    5    5    0  503 -0.19475269067E+03  0.47193048246E+01 -0.25775199772E+03  0.32308973163E+03  0.00000000000E+00 0.  1.
         -3    1    6    6    0  502  0.98183215822E+01  0.57244943277E+02 -0.72383020748E+02  0.92804550869E+02  0.00000000000E+00 0.  1.
<mgrwt>
<rscale>  0 0.20250815E+04</rscale>
<asrwt>0</asrwt>
<pdfrwt beam="1">  1        2 0.91121501E-01 0.20250815E+04</pdfrwt>
<pdfrwt beam="2">  1       -2 0.26630385E+00 0.20250815E+04</pdfrwt>
<totfact> 0.23850385E+00</totfact>
</mgrwt>
</event>
<event>
12    1  0.1495204E-007  0.2370294E+04  0.7818608E-02  0.8450710E-01
          1   -1    0    0  501    0  0.00000000000E+00  0.00000000000E+00  0.47517003370E+03  0.47517003370E+03  0.00000000000E+00 0. -1.
         -1   -1    0    0    0  501 -0.00000000000E+00 -0.00000000000E+00 -0.29559380194E+04  0.29559380194E+04  0.00000000000E+00 0.  1.
         23    2    1    2    0    0  0.78452171980E+03  0.19414501757E+03 -0.18224149180E+03  0.83308784684E+03  0.87503043001E+02 0.  0.
        254    2    1    2    0    0 -0.78452171980E+03 -0.19414501757E+03 -0.22985264939E+04  0.25980202063E+04  0.90184163369E+03 0.  0.
        -24    2    4    4    0    0 -0.40814038659E+03 -0.40099774415E+03 -0.19675773733E+04  0.20506246682E+04  0.79517569792E+02 0.  0.
         24    2    4    4    0    0 -0.37638133321E+03  0.20685272658E+03 -0.33094912060E+03  0.54739553806E+03  0.75256867984E+02 0.  0.
         11    1    3    3    0    0  0.50827273885E+03  0.97325864566E+02 -0.14870772059E+03  0.53844915000E+03  0.00000000000E+00 0. -1.
        -11    1    3    3    0    0  0.27624898095E+03  0.96819153005E+02 -0.33533771205E+02  0.29463869684E+03  0.00000000000E+00 0.  1.
          4    1    6    6  502    0 -0.24780436947E+03  0.95896471180E+02 -0.18935558663E+03  0.32628005900E+03  0.00000000000E+00 0. -1.
          1    1    5    5  503    0 -0.37658166198E+03 -0.39097760997E+03 -0.18864489220E+04  0.19629994333E+04  0.00000000000E+00 0. -1.
         -2    1    5    5    0  503 -0.31558724613E+02 -0.10020134175E+02 -0.81128451305E+02  0.87625234946E+02  0.00000000000E+00 0.  1.
         -3    1    6    6    0  502 -0.12857696373E+03  0.11095625540E+03 -0.14159353397E+03  0.22111547905E+03  0.00000000000E+00 0.  1.
<mgrwt>
<rscale>  0 0.23702938E+04</rscale>
<asrwt>0</asrwt>
<pdfrwt beam="1">  1        1 0.73103081E-01 0.23702938E+04</pdfrwt>
<pdfrwt beam="2">  1       -1 0.45475970E+00 0.23702938E+04</pdfrwt>
<totfact> 0.12805440E-01</totfact>
</mgrwt>
</event>
<event>
12    1  0.1495204E-007  0.1359577E+04  0.7818608E-02  0.8983610E-01
          2   -1    0    0  501    0  0.00000000000E+00  0.00000000000E+00  0.15309981817E+04  0.15309981817E+04  0.00000000000E+00 0. -1.
         -2   -1    0    0    0  501 -0.00000000000E+00 -0.00000000000E+00 -0.30183740185E+03  0.30183740185E+03  0.00000000000E+00 0.  1.
         23    2    1    2    0    0 -0.19428012852E+02 -0.36179841038E+03  0.26489958142E+03  0.45757137735E+03  0.89018198671E+02 0.  0.
        254    2    1    2    0    0  0.19428012852E+02  0.36179841038E+03  0.96426119848E+03  0.13752642062E+04  0.91119506180E+03 0.  0.
        -24    2    4    4    0    0 -0.41347658541E+03  0.33589328614E+03  0.50674089326E+03  0.73970693861E+03  0.81196279247E+02 0.  0.
         24    2    4    4    0    0  0.43290459826E+03  0.25905124247E+02  0.45752030521E+03  0.63555726764E+03  0.80813019397E+02 0.  0.
         11    1    3    3    0    0 -0.26766308439E+02 -0.31707296368E+02  0.17692713194E+02  0.45108979268E+02  0.00000000000E+00 0. -1.
        -11    1    3    3    0    0  0.73382955872E+01 -0.33009111402E+03  0.24720686822E+03  0.41246239808E+03  0.00000000000E+00 0.  1.
          2    1    6    6  502    0  0.10336799525E+03  0.29796407632E+02  0.15162739643E+03  0.18591297883E+03  0.00000000000E+00 0. -1.
          3    1    5    5  503    0 -0.31774110958E+03  0.26495028557E+03  0.34423533286E+03  0.53819701869E+03  0.00000000000E+00 0. -1.
         -4    1    5    5    0  503 -0.95735475834E+02  0.70943000564E+02  0.16250556040E+03  0.20150991991E+03  0.00000000000E+00 0.  1.
         -1    1    6    6    0  502  0.32953660301E+03 -0.38912833850E+01  0.30589290878E+03  0.44964428881E+03  0.00000000000E+00 0.  1.
<mgrwt>
<rscale>  0 0.13595772E+04</rscale>
<asrwt>0</asrwt>
<pdfrwt beam="1">  1        2 0.23553818E+00 0.13595772E+04</pdfrwt>
<pdfrwt beam="2">  1       -2 0.46436524E-01 0.13595772E+04</pdfrwt>
<totfact> 0.52312951E+01</totfact>
</mgrwt>
</event>
<event>
12    1  0.1495204E-007  0.2395828E+04  0.7818608E-02  0.8441067E-01
         -1   -1    0    0    0  501 -0.00000000000E+00  0.00000000000E+00  0.57773940543E+03  0.57773940543E+03  0.00000000000E+00 0.  1.
          1   -1    0    0  501    0  0.00000000000E+00 -0.00000000000E+00 -0.24838152449E+04  0.24838152449E+04  0.00000000000E+00 0. -1.
         23    2    1    2    0    0 -0.61064809688E+02  0.64979910003E+03 -0.18278847930E+04  0.19428694456E+04  0.87241529650E+02 0.  0.
        254    2    1    2    0    0  0.61064809688E+02 -0.64979910003E+03 -0.78191046427E+02  0.11186852048E+04  0.90519333086E+03 0.  0.
        -24    2    4    4    0    0 -0.57188055607E+02 -0.65610952447E+03  0.28988027227E+03  0.72395565631E+03  0.79567821746E+02 0.  0.
         24    2    4    4    0    0  0.11825286530E+03  0.63104244376E+01 -0.36807131870E+03  0.39472954845E+03  0.79444063132E+02 0.  0.
         13    1    3    3    0    0  0.12550421140E+02  0.14837612273E+03 -0.49390061433E+03  0.51585928672E+03  0.00000000000E+00 0.  1.
        -13    1    3    3    0    0 -0.73615230828E+02  0.50142297730E+03 -0.13339841787E+04  0.14270101588E+04  0.00000000000E+00 0. -1.
          4    1    6    6  502    0  0.90574899022E+02 -0.31361486673E+02 -0.24866542600E+03  0.26649924815E+03  0.00000000000E+00 0. -1.
          3    1    5    5  503    0 -0.28649203472E+02 -0.16234116743E+03  0.10752369668E+03  0.19681660715E+03  0.00000000000E+00 0. -1.
         -4    1    5    5    0  503 -0.28538852135E+02 -0.49376835704E+03  0.18235657559E+03  0.52713904917E+03  0.00000000000E+00 0.  1.
         -3    1    6    6    0  502  0.27677966274E+02  0.37671911110E+02 -0.11940589270E+03  0.12823030030E+03  0.00000000000E+00 0.  1.
<mgrwt>
<rscale>  0 0.23958280E+04</rscale>
<asrwt>0</asrwt>
<pdfrwt beam="1">  1        1 0.38212542E+00 0.23958280E+04</pdfrwt>
<pdfrwt beam="2">  1       -1 0.88882985E-01 0.23958280E+04</pdfrwt>
<totfact> 0.15471183E+00</totfact>
</mgrwt>
</event>
<event>
12    1  0.1495204E-007  0.1437750E+04  0.7818608E-02  0.8926937E-01
         -2   -1    0    0    0  501 -0.00000000000E+00  0.00000000000E+00  0.84027485579E+03  0.84027485579E+03  0.00000000000E+00 0.  1.
          2   -1    0    0  501    0  0.00000000000E+00 -0.00000000000E+00 -0.61501497599E+03  0.61501497599E+03  0.00000000000E+00 0. -1.
         23    2    1    2    0    0  0.22078807414E+03  0.35958487547E+03  0.26523146483E+02  0.43250187877E+03  0.91135840864E+02 0.  0.
        254    2    1    2    0    0 -0.22078807414E+03 -0.35958487547E+03  0.19873673332E+03  0.10227879530E+04  0.91024735720E+03 0.  0.
        -24    2    4    4    0    0 -0.50976473931E+03 -0.10300279670E+02 -0.12606479567E+02  0.51629670058E+03  0.80232004180E+02 0.  0.
         24    2    4    4    0    0  0.28897666517E+03 -0.34928459580E+03  0.21134321289E+03  0.50649125243E+03  0.79750819880E+02 0.  0.
         11    1    3    3    0    0  0.22080604705E+03  0.35688648495E+03  0.37363798915E+02  0.42133042499E+03  0.00000000000E+00 0. -1.
        -11    1    3    3    0    0 -0.17972911877E-01  0.26983905263E+01 -0.10840652432E+02  0.11171453782E+02  0.00000000000E+00 0.  1.
          2    1    6    6  502    0  0.15788066651E+03 -0.20363088370E+03  0.16217629801E+03  0.30445524021E+03  0.00000000000E+00 0. -1.
          3    1    5    5  503    0 -0.40010890723E+03 -0.23311961105E+02 -0.39243896538E+02  0.40270419490E+03  0.00000000000E+00 0. -1.
         -2    1    5    5    0  503 -0.10965583208E+03  0.13011681435E+02  0.26637416971E+02  0.11359250568E+03  0.00000000000E+00 0.  1.
         -1    1    6    6    0  502  0.13109599866E+03 -0.14565371210E+03  0.49166914881E+02  0.20203601222E+03  0.00000000000E+00 0.  1.
<mgrwt>
<rscale>  0 0.14377505E+04</rscale>
<asrwt>0</asrwt>
<pdfrwt beam="1">  1        2 0.94617689E-01 0.14377505E+04</pdfrwt>
<pdfrwt beam="2">  1       -2 0.12927305E+00 0.14377505E+04</pdfrwt>
<totfact> 0.20570853E+01</totfact>
</mgrwt>
</event>
<event>
12    1  0.1495204E-007  0.2948375E+04  0.7818608E-02  0.8258628E-01
         -2   -1    0    0    0  501 -0.00000000000E+00  0.00000000000E+00  0.11703009030E+04  0.11703009030E+04  0.00000000000E+00 0.  1.
          2   -1    0    0  501    0  0.00000000000E+00 -0.00000000000E+00 -0.18569825261E+04  0.18569825261E+04  0.00000000000E+00 0. -1.
         23    2    1    2    0    0 -0.28909209676E+02  0.11943097978E+04  0.29550650390E+03  0.12340246850E+04  0.91001065006E+02 0.  0.
        254    2    1    2    0    0  0.28909209676E+02 -0.11943097978E+04 -0.98218812696E+03  0.17932587441E+04  0.90767382415E+03 0.  0.
        -24    2    4    4    0    0 -0.38143166173E+03 -0.82272112083E+03 -0.78085162529E+03  0.11993844279E+04  0.80209662687E+02 0.  0.
         24    2    4    4    0    0  0.41034087141E+03 -0.37158867698E+03 -0.20133650166E+03  0.59387431619E+03  0.75448929204E+02 0.  0.
         11    1    3    3    0    0 -0.44625640463E+02  0.10176895172E+04  0.22511177716E+03  0.10432443210E+04  0.00000000000E+00 0.  1.
        -11    1    3    3    0    0  0.15716430786E+02  0.17662028064E+03  0.70394726740E+02  0.19078036399E+03  0.00000000000E+00 0. -1.
          2    1    6    6  502    0  0.26851712138E+03 -0.28685631419E+03 -0.15394609570E+03  0.42200401639E+03  0.00000000000E+00 0. -1.
          3    1    5    5  503    0 -0.25379435400E+03 -0.45376708681E+03 -0.43951188816E+03  0.68079868025E+03  0.00000000000E+00 0. -1.
         -4    1    5    5    0  503 -0.12763730774E+03 -0.36895403402E+03 -0.34133973713E+03  0.51858574768E+03  0.00000000000E+00 0.  1.
         -1    1    6    6    0  502  0.14182375003E+03 -0.84732362785E+02 -0.47390405960E+02  0.17187029980E+03  0.00000000000E+00 0.  1.
<mgrwt>
<rscale>  0 0.29483747E+04</rscale>
<asrwt>0</asrwt>
<pdfrwt beam="1">  1        2 0.28568962E+00 0.29483747E+04</pdfrwt>
<pdfrwt beam="2">  1       -2 0.18004629E+00 0.29483747E+04</pdfrwt>
<totfact> 0.12497898E+00</totfact>
</mgrwt>
</event>
<event>
12    1  0.1495204E-007  0.1640459E+04  0.7818608E-02  0.8796071E-01
          1   -1    0    0  501    0  0.00000000000E+00  0.00000000000E+00  0.38219561164E+04  0.38219561164E+04  0.00000000000E+00 0. -1.
         -1   -1    0    0    0  501 -0.00000000000E+00 -0.00000000000E+00 -0.17602934577E+03  0.17602934577E+03  0.00000000000E+00 0.  1.
         23    2    1    2    0    0  0.42769692333E+03 -0.17139769169E+03  0.46868082847E+03  0.66331198592E+03  0.89550235860E+02 0.  0.
        254    2    1    2    0    0 -0.42769692333E+03  0.17139769169E+03  0.31772459422E+04  0.33346734762E+04  0.90158393354E+03 0.  0.
        -24    2    4    4    0    0 -0.57671459578E+03 -0.18033075698E+03  0.16644399077E+04  0.17724634921E+04  0.78407382993E+02 0.  0.
         24    2    4    4    0    0  0.14901767244E+03  0.35172844868E+03  0.15128060345E+04  0.15622099841E+04  0.77451715493E+02 0.  0.
         13    1    3    3    0    0  0.31641518644E+03 -0.92978515844E+02  0.29373008013E+03  0.44163439018E+03  0.00000000000E+00 0.  1.
        -13    1    3    3    0    0  0.11128173689E+03 -0.78419175850E+02  0.17495074835E+03  0.22167759574E+03  0.00000000000E+00 0. -1.
          4    1    6    6  502    0  0.87053931338E+02  0.19723956151E+03  0.69644933458E+03  0.72905658712E+03  0.00000000000E+00 0. -1.
          3    1    5    5  503    0 -0.47367723830E+03 -0.14165671222E+03  0.14396269962E+04  0.15221572318E+04  0.00000000000E+00 0. -1.
         -4    1    5    5    0  503 -0.10303735748E+03 -0.38674044766E+02  0.22481291150E+03  0.25030626031E+03  0.00000000000E+00 0.  1.
         -3    1    6    6    0  502  0.61963741106E+02  0.15448888716E+03  0.81635669988E+03  0.83315339699E+03  0.00000000000E+00 0.  1.
<mgrwt>
<rscale>  0 0.16404590E+04</rscale>
<asrwt>0</asrwt>
<pdfrwt beam="1">  1        1 0.58799319E+00 0.16404590E+04</pdfrwt>
<pdfrwt beam="2">  1       -1 0.27081441E-01 0.16404590E+04</pdfrwt>
<totfact> 0.16143379E+00</totfact>
</mgrwt>
</event>
<event>
12    1  0.1495204E-007  0.1468307E+04  0.7818608E-02  0.8905806E-01
          1   -1    0    0  501    0  0.00000000000E+00  0.00000000000E+00  0.18597449751E+04  0.18597449751E+04  0.00000000000E+00 0. -1.
         -1   -1    0    0    0  501 -0.00000000000E+00 -0.00000000000E+00 -0.28981480434E+03  0.28981480434E+03  0.00000000000E+00 0.  1.
         23    2    1    2    0    0 -0.80211306473E+02 -0.32308293533E+03  0.93930783141E+03  0.10006077047E+04  0.90000775979E+02 0.  0.
        254    2    1    2    0    0  0.80211306473E+02  0.32308293533E+03  0.63062233940E+03  0.11489520748E+04  0.90088284394E+03 0.  0.
        -24    2    4    4    0    0  0.48121829903E+03  0.18875352291E+03  0.41855015848E+03  0.66972293245E+03  0.78394051812E+02 0.  0.
         24    2    4    4    0    0 -0.40100699255E+03  0.13432941243E+03  0.21207218091E+03  0.47922914237E+03  0.76386922035E+02 0.  0.
         13    1    3    3    0    0  0.13444753760E+02 -0.70214856795E+01  0.38715697000E+02  0.41580859286E+02  0.00000000000E+00 0.  1.
        -13    1    3    3    0    0 -0.93656060233E+02 -0.31606144965E+03  0.90059213441E+03  0.95902684537E+03  0.00000000000E+00 0. -1.
          2    1    6    6  502    0 -0.37500419821E+03  0.10413499095E+03  0.18407904450E+03  0.43053146185E+03  0.00000000000E+00 0. -1.
          1    1    5    5  503    0  0.43195481567E+03  0.15512563091E+03  0.34044477276E+03  0.57144690693E+03  0.00000000000E+00 0. -1.
         -2    1    5    5    0  503  0.49263483358E+02  0.33627891998E+02  0.78105385729E+02  0.98276025523E+02  0.00000000000E+00 0.  1.
         -1    1    6    6    0  502 -0.26002794341E+02  0.30194421476E+02  0.27993136408E+02  0.48697680517E+02  0.00000000000E+00 0.  1.
<mgrwt>
<rscale>  0 0.14683074E+04</rscale>
<asrwt>0</asrwt>
<pdfrwt beam="1">  1        1 0.28611460E+00 0.14683074E+04</pdfrwt>
<pdfrwt beam="2">  1       -1 0.44586894E-01 0.14683074E+04</pdfrwt>
<totfact> 0.17935887E+01</totfact>
</mgrwt>
</event>
<event>
12    1  0.1495204E-007  0.1990198E+04  0.7818608E-02  0.8611217E-01
         -1   -1    0    0    0  501 -0.00000000000E+00  0.00000000000E+00  0.71529470949E+03  0.71529470949E+03  0.00000000000E+00 0.  1.
          1   -1    0    0  501    0  0.00000000000E+00 -0.00000000000E+00 -0.13843550351E+04  0.13843550351E+04  0.00000000000E+00 0. -1.
         23    2    1    2    0    0 -0.20050420568E+03  0.22572640296E+03 -0.10270893905E+04  0.10745292026E+04  0.92444825397E+02 0.  0.
        254    2    1    2    0    0  0.20050420568E+03 -0.22572640296E+03  0.35802906485E+03  0.10251205420E+04  0.91188429576E+03 0.  0.
        -24    2    4    4    0    0  0.17166055736E+03 -0.53399609496E+03  0.30840563872E+02  0.56777688727E+03  0.82463791791E+02 0.  0.
         24    2    4    4    0    0  0.28843648320E+02  0.30826969200E+03  0.32718850097E+03  0.45734365472E+03  0.79048999278E+02 0.  0.
         13    1    3    3    0    0 -0.59214612006E+02  0.11034294218E+03 -0.54189491566E+03  0.55617626233E+03  0.00000000000E+00 0.  1.
        -13    1    3    3    0    0 -0.14128959367E+03  0.11538346078E+03 -0.48519447484E+03  0.51835294030E+03  0.00000000000E+00 0. -1.
          4    1    6    6  502    0 -0.76383971861E+01  0.21123342779E+03  0.18191705418E+03  0.27887581596E+03  0.00000000000E+00 0. -1.
          1    1    5    5  503    0  0.10010280280E+02 -0.84423097093E+01  0.11749164187E+02  0.17593213567E+02  0.00000000000E+00 0. -1.
         -2    1    5    5    0  503  0.16165027708E+03 -0.52555378525E+03  0.19091399685E+02  0.55018367371E+03  0.00000000000E+00 0.  1.
         -3    1    6    6    0  502  0.36482045506E+02  0.97036264213E+02  0.14527144680E+03  0.17846783876E+03  0.00000000000E+00 0.  1.
<mgrwt>
<rscale>  0 0.19901978E+04</rscale>
<asrwt>0</asrwt>
<pdfrwt beam="1">  1        1 0.21297769E+00 0.19901978E+04</pdfrwt>
<pdfrwt beam="2">  1       -1 0.11004534E+00 0.19901978E+04</pdfrwt>
<totfact> 0.55782668E+00</totfact>
</mgrwt>
</event>
<event>
12    1  0.1495204E-007  0.1759628E+04  0.7818608E-02  0.8728068E-01
          1   -1    0    0  501    0  0.00000000000E+00  0.00000000000E+00  0.36353076833E+04  0.36353076833E+04  0.00000000000E+00 0. -1.
         -1   -1    0    0    0  501 -0.00000000000E+00 -0.00000000000E+00 -0.21293181756E+03  0.21293181756E+03  0.00000000000E+00 0.  1.
         23    2    1    2    0    0  0.55230998666E+02 -0.23593750741E+03 -0.39895073306E+02  0.26040960240E+03  0.86628941651E+02 0.  0.
        254    2    1    2    0    0 -0.55230998666E+02  0.23593750741E+03  0.34622709390E+04  0.35878298984E+04  0.90911294916E+03 0.  0.
        -24    2    4    4    0    0  0.79360641530E+01  0.39224472911E+02  0.33270061594E+04  0.33281736130E+04  0.78537083538E+02 0.  0.
         24    2    4    4    0    0 -0.63167062819E+02  0.19671303450E+03  0.13526477962E+03  0.25965628539E+03  0.80241698447E+02 0.  0.
         13    1    3    3    0    0  0.17054789676E+02 -0.16086756929E+01 -0.12935050110E+02  0.21465535393E+02  0.00000000000E+00 0. -1.
        -13    1    3    3    0    0  0.38176208990E+02 -0.23432883172E+03 -0.26960023196E+02  0.23894406701E+03  0.00000000000E+00 0.  1.
          2    1    6    6  502    0 -0.33572066055E+02  0.17911102710E+03  0.13210677270E+03  0.22507785995E+03  0.00000000000E+00 0. -1.
          1    1    5    5  503    0 -0.91691941794E+01 -0.53250845617E+01  0.23317044882E+04  0.23317285972E+04  0.00000000000E+00 0. -1.
         -2    1    5    5    0  503  0.17105258332E+02  0.44549557473E+02  0.99530167115E+03  0.99644501581E+03  0.00000000000E+00 0.  1.
         -1    1    6    6    0  502 -0.29594996764E+02  0.17602007399E+02  0.31580069195E+01  0.34578425436E+02  0.00000000000E+00 0.  1.
<mgrwt>
<rscale>  0 0.17596280E+04</rscale>
<asrwt>0</asrwt>
<pdfrwt beam="1">  1        1 0.55927806E+00 0.17596280E+04</pdfrwt>
<pdfrwt beam="2">  1       -1 0.32758744E-01 0.17596280E+04</pdfrwt>
<totfact> 0.16246067E+00</totfact>
</mgrwt>
</event>
<event>
12    1  0.1495204E-007  0.2906341E+04  0.7818608E-02  0.8270993E-01
         -2   -1    0    0    0  501 -0.00000000000E+00  0.00000000000E+00  0.21459350666E+04  0.21459350666E+04  0.00000000000E+00 0.  1.
          2   -1    0    0  501    0  0.00000000000E+00 -0.00000000000E+00 -0.98404838569E+03  0.98404838569E+03  0.00000000000E+00 0. -1.
         23    2    1    2    0    0  0.48540383520E+03 -0.10616298970E+04  0.11474112833E+04  0.16394796248E+04  0.93090630805E+02 0.  0.
        254    2    1    2    0    0 -0.48540383520E+03  0.10616298970E+04  0.14475397523E+02  0.14905038275E+04  0.92666995264E+03 0.  0.
        -24    2    4    4    0    0 -0.32330329320E+03  0.10705110558E+04  0.29262364551E+03  0.11587025087E+04  0.80274315880E+02 0.  0.
         24    2    4    4    0    0 -0.16210054200E+03 -0.88811588389E+01 -0.27814824799E+03  0.33180131873E+03  0.79813573715E+02 0.  0.
         11    1    3    3    0    0  0.30930868804E+03 -0.63966191170E+03  0.75734235705E+03  0.10384636111E+04  0.00000000000E+00 0. -1.
        -11    1    3    3    0    0  0.17609514716E+03 -0.42196798528E+03  0.39006892630E+03  0.60101601370E+03  0.00000000000E+00 0.  1.
          2    1    6    6  502    0 -0.93122413653E+02  0.19705470037E+02 -0.21061093375E+03  0.23112129908E+03  0.00000000000E+00 0. -1.
          3    1    5    5  503    0 -0.25748440712E+03  0.79206781486E+03  0.18615599137E+03  0.85341882823E+03  0.00000000000E+00 0. -1.
         -4    1    5    5    0  503 -0.65818886073E+02  0.27844324096E+03  0.10646765415E+03  0.30528368050E+03  0.00000000000E+00 0.  1.
         -1    1    6    6    0  502 -0.68978128351E+02 -0.28586628876E+02 -0.67537314242E+02  0.10068001965E+03  0.00000000000E+00 0.  1.
<mgrwt>
<rscale>  0 0.29063406E+04</rscale>
<asrwt>0</asrwt>
<pdfrwt beam="1">  1        2 0.15139206E+00 0.29063406E+04</pdfrwt>
<pdfrwt beam="2">  1       -2 0.33014386E+00 0.29063406E+04</pdfrwt>
<totfact> 0.46087650E-01</totfact>
</mgrwt>
</event>
<event>
12    1  0.1495204E-007  0.2298623E+04  0.7818608E-02  0.8478464E-01
         -1   -1    0    0    0  501 -0.00000000000E+00  0.00000000000E+00  0.52837670936E+03  0.52837670936E+03  0.00000000000E+00 0.  1.
          1   -1    0    0  501    0  0.00000000000E+00 -0.00000000000E+00 -0.24999519861E+04  0.24999519861E+04  0.00000000000E+00 0. -1.
         23    2    1    2    0    0  0.49316460872E+03 -0.23812719799E+03  0.21998730977E+03  0.59716327476E+03  0.91069569799E+02 0.  0.
        254    2    1    2    0    0 -0.49316460872E+03  0.23812719799E+03 -0.21915625865E+04  0.24311654207E+04  0.89872289309E+03 0.  0.
        -24    2    4    4    0    0 -0.50441636676E+03  0.19102559080E+03 -0.50866792208E+03  0.74570446705E+03  0.80034054216E+02 0.  0.
         24    2    4    4    0    0  0.11251758037E+02  0.47101607190E+02 -0.16828946645E+04  0.16854609537E+04  0.79366310790E+02 0.  0.
         11    1    3    3    0    0  0.17035145966E+03 -0.12497327107E+03  0.60694372921E+02  0.21982207622E+03  0.00000000000E+00 0. -1.
        -11    1    3    3    0    0  0.32281314906E+03 -0.11315392692E+03  0.15929293685E+03  0.37734119854E+03  0.00000000000E+00 0.  1.
          2    1    6    6  502    0 -0.62270367358E+00  0.66832813219E+02 -0.10340211476E+04  0.10361789162E+04  0.00000000000E+00 0. -1.
          1    1    5    5  503    0 -0.23331776433E+03  0.50677041553E+02 -0.24842185135E+03  0.34455588504E+03  0.00000000000E+00 0. -1.
         -2    1    5    5    0  503 -0.27109860243E+03  0.14034854925E+03 -0.26024607073E+03  0.40114858200E+03  0.00000000000E+00 0.  1.
         -1    1    6    6    0  502  0.11874461710E+02 -0.19731206029E+02 -0.64887351681E+03  0.64928203744E+03  0.00000000000E+00 0.  1.
<mgrwt>
<rscale>  0 0.22986225E+04</rscale>
<asrwt>0</asrwt>
<pdfrwt beam="1">  1        1 0.38460800E+00 0.22986225E+04</pdfrwt>
<pdfrwt beam="2">  1       -1 0.81288723E-01 0.22986225E+04</pdfrwt>
<totfact> 0.18461407E+00</totfact>
</mgrwt>
</event>
<event>
12    1  0.1495204E-007  0.2338522E+04  0.7818608E-02  0.8462886E-01
          2   -1    0    0  501    0  0.00000000000E+00  0.00000000000E+00  0.12129252757E+04  0.12129252757E+04  0.00000000000E+00 0. -1.
         -2   -1    0    0    0  501 -0.00000000000E+00 -0.00000000000E+00 -0.11271682923E+04  0.11271682923E+04  0.00000000000E+00 0.  1.
         23    2    1    2    0    0  0.78845483198E+03  0.56974899237E+03  0.23661534944E+03  0.10050332516E+04  0.88487721177E+02 0.  0.
        254    2    1    2    0    0 -0.78845483198E+03 -0.56974899237E+03 -0.15085836607E+03  0.13350603165E+04  0.90186077955E+03 0.  0.
        -24    2    4    4    0    0  0.23041254216E+02  0.65875868250E+02  0.21457586996E+03  0.23917306810E+03  0.79312187751E+02 0.  0.
         24    2    4    4    0    0 -0.81149608620E+03 -0.63562486062E+03 -0.36543423602E+03  0.10958872484E+04  0.69870014907E+02 0.  0.
         13    1    3    3    0    0  0.35556073676E+02  0.49399334573E+02  0.56687247347E+01  0.61128251011E+02  0.00000000000E+00 0. -1.
        -13    1    3    3    0    0  0.75289875830E+03  0.52034965780E+03  0.23094662471E+03  0.94390500056E+03  0.00000000000E+00 0.  1.
          4    1    6    6  502    0 -0.22305828211E+03 -0.19617770613E+03 -0.77111934200E+02  0.30689890843E+03  0.00000000000E+00 0. -1.
          3    1    5    5  503    0  0.64507000669E+01  0.61778973982E+02  0.21315981416E+03  0.22202558305E+03  0.00000000000E+00 0. -1.
         -4    1    5    5    0  503  0.16590554149E+02  0.40968942680E+01  0.14160557979E+01  0.17147485053E+02  0.00000000000E+00 0.  1.
         -3    1    6    6    0  502 -0.58843780409E+03 -0.43944715449E+03 -0.28832230182E+03  0.78898833997E+03  0.00000000000E+00 0.  1.
<mgrwt>
<rscale>  0 0.23385217E+04</rscale>
<asrwt>0</asrwt>
<pdfrwt beam="1">  1        2 0.18660389E+00 0.23385217E+04</pdfrwt>
<pdfrwt beam="2">  1       -2 0.17341051E+00 0.23385217E+04</pdfrwt>
<totfact> 0.33904275E+00</totfact>
</mgrwt>
</event>
<event>
12    1  0.1495204E-007  0.2083800E+04  0.7818608E-02  0.8568413E-01
          2   -1    0    0  501    0  0.00000000000E+00  0.00000000000E+00  0.11975002076E+04  0.11975002076E+04  0.00000000000E+00 0. -1.
         -2   -1    0    0    0  501 -0.00000000000E+00 -0.00000000000E+00 -0.90651836914E+03  0.90651836914E+03  0.00000000000E+00 0.  1.
         23    2    1    2    0    0 -0.47593048995E+03 -0.61282356031E+03 -0.19031341926E+03  0.80430164047E+03  0.92840637522E+02 0.  0.
        254    2    1    2    0    0  0.47593048995E+03  0.61282356031E+03  0.48129525767E+03  0.12997169362E+04  0.92496294083E+03 0.  0.
        -24    2    4    4    0    0  0.49599033845E+03  0.38522989827E+02  0.51303229770E+03  0.71915531597E+03  0.80571666378E+02 0.  0.
         24    2    4    4    0    0 -0.20059848496E+02  0.57430057048E+03 -0.31737040021E+02  0.58056162026E+03  0.76295559717E+02 0.  0.
         11    1    3    3    0    0 -0.22078490749E+03 -0.28790094461E+03 -0.41449912407E+02  0.36517259552E+03  0.00000000000E+00 0. -1.
        -11    1    3    3    0    0 -0.25514558246E+03 -0.32492261570E+03 -0.14886350685E+03  0.43912904494E+03  0.00000000000E+00 0.  1.
          4    1    6    6  502    0 -0.40288122555E+02  0.49391105369E+03 -0.13777411597E+02  0.49574295643E+03  0.00000000000E+00 0. -1.
          1    1    5    5  503    0  0.30150404646E+03  0.20848709190E+02  0.36630827151E+03  0.47489062791E+03  0.00000000000E+00 0. -1.
         -2    1    5    5    0  503  0.19448629199E+03  0.17674280637E+02  0.14672402619E+03  0.24426468805E+03  0.00000000000E+00 0.  1.
         -3    1    6    6    0  502  0.20228274058E+02  0.80389516788E+02 -0.17959628424E+02  0.84818663831E+02  0.00000000000E+00 0.  1.
<mgrwt>
<rscale>  0 0.20838003E+04</rscale>
<asrwt>0</asrwt>
<pdfrwt beam="1">  1        2 0.18423080E+00 0.20838003E+04</pdfrwt>
<pdfrwt beam="2">  1       -2 0.13946436E+00 0.20838003E+04</pdfrwt>
<totfact> 0.63628559E+00</totfact>
</mgrwt>
</event>
<event>
12    1  0.2203133E-007  0.1585954E+04  0.7818608E-02  0.8829224E-01
         -2   -1    0    0    0  501 -0.00000000000E+00  0.00000000000E+00  0.46764351780E+03  0.46764351780E+03  0.00000000000E+00 0.  1.
          2   -1    0    0  501    0  0.00000000000E+00 -0.00000000000E+00 -0.13446407253E+04  0.13446407253E+04  0.00000000000E+00 0. -1.
         23    2    1    2    0    0  0.32796644241E+03  0.41113191096E+02 -0.85043565367E+03  0.91700369459E+03  0.91666204393E+02 0.  0.
        254    2    1    2    0    0 -0.32796644241E+03 -0.41113191096E+02 -0.26561553867E+02  0.89528054854E+03  0.83160655518E+03 0.  0.
        -24    2    4    4    0    0 -0.45388419939E+03  0.21331504638E+03  0.17649853656E+03  0.53750289121E+03  0.79015499655E+02 0.  0.
         24    2    4    4    0    0  0.12591775698E+03 -0.25442823748E+03 -0.20306009042E+03  0.35777765733E+03  0.78628507619E+02 0.  0.
         13    1    3    3    0    0  0.27378439096E+03  0.41665643946E+02 -0.78278105499E+03  0.83032529690E+03  0.00000000000E+00 0. -1.
        -13    1    3    3    0    0  0.54182051452E+02 -0.55245285035E+00 -0.67654598679E+02  0.86678397690E+02  0.00000000000E+00 0.  1.
          2    1    6    6  502    0  0.87758261914E+00 -0.14792721395E+02 -0.38680782768E+02  0.41422188656E+02  0.00000000000E+00 0. -1.
          3    1    5    5  503    0 -0.63976434509E+01 -0.15030747541E+01 -0.57432646220E+01  0.87277811590E+01  0.00000000000E+00 0. -1.
         -4    1    5    5    0  503 -0.44748655594E+03  0.21481812113E+03  0.18224180118E+03  0.52877511005E+03  0.00000000000E+00 0.  1.
         -1    1    6    6    0  502  0.12504017436E+03 -0.23963551608E+03 -0.16437930766E+03  0.31635546867E+03  0.00000000000E+00 0.  1.
<mgrwt>
<rscale>  0 0.15859540E+04</rscale>
<asrwt>0</asrwt>
<pdfrwt beam="1">  1        2 0.20686780E+00 0.15859540E+04</pdfrwt>
<pdfrwt beam="2">  1       -2 0.71945158E-01 0.15859540E+04</pdfrwt>
<totfact> 0.26168314E+01</totfact>
</mgrwt>
</event>
<event>
12    1  0.1495204E-007  0.1664777E+04  0.7818608E-02  0.8781712E-01
          2   -1    0    0  501    0  0.00000000000E+00  0.00000000000E+00  0.56871239014E+03  0.56871239014E+03  0.00000000000E+00 0. -1.
         -2   -1    0    0    0  501 -0.00000000000E+00 -0.00000000000E+00 -0.12183147881E+04  0.12183147881E+04  0.00000000000E+00 0.  1.
         23    2    1    2    0    0 -0.51426763638E+03  0.13292099882E+03 -0.61647125194E+03  0.81883063998E+03  0.91146139532E+02 0.  0.
        254    2    1    2    0    0  0.51426763638E+03 -0.13292099882E+03 -0.33131146040E+02  0.96819653828E+03  0.80880632425E+03 0.  0.
        -24    2    4    4    0    0 -0.33341875707E+02  0.18179190252E+03 -0.22553509064E+03  0.30249516361E+03  0.80481491028E+02 0.  0.
         24    2    4    4    0    0  0.54760951208E+03 -0.31471290134E+03  0.19240394460E+03  0.66570137467E+03  0.84962664379E+02 0.  0.
         13    1    3    3    0    0 -0.38687918737E+03  0.10485204617E+03 -0.52015217070E+03  0.65667932653E+03  0.00000000000E+00 0.  1.
        -13    1    3    3    0    0 -0.12738844901E+03  0.28068952655E+02 -0.96319081241E+02  0.16215131346E+03  0.00000000000E+00 0. -1.
          2    1    6    6  502    0  0.54051490422E+03 -0.31837671234E+03  0.18319747306E+03  0.65351465690E+03  0.00000000000E+00 0. -1.
          3    1    5    5  503    0 -0.24946506516E+02  0.17017511609E+03 -0.23025880740E+03  0.28740392605E+03  0.00000000000E+00 0. -1.
         -2    1    5    5    0  503 -0.83953691916E+01  0.11616786436E+02  0.47237167636E+01  0.15091237558E+02  0.00000000000E+00 0.  1.
         -1    1    6    6    0  502  0.70946078635E+01  0.36638109943E+01  0.92064715435E+01  0.12186717771E+02  0.00000000000E+00 0.  1.
<mgrwt>
<rscale>  0 0.16647771E+04</rscale>
<asrwt>0</asrwt>
<pdfrwt beam="1">  1        2 0.87494215E-01 0.16647771E+04</pdfrwt>
<pdfrwt beam="2">  1       -2 0.18743304E+00 0.16647771E+04</pdfrwt>
<totfact> 0.81338097E+00</totfact>
</mgrwt>
</event>
<event>
12    1  0.1495204E-007  0.1255652E+04  0.7818608E-02  0.9065492E-01
         -3   -1    0    0    0  501 -0.00000000000E+00  0.00000000000E+00  0.35107402382E+03  0.35107402382E+03  0.00000000000E+00 0. -1.
          3   -1    0    0  501    0  0.00000000000E+00 -0.00000000000E+00 -0.11227425253E+04  0.11227425253E+04  0.00000000000E+00 0.  1.
         23    2    1    2    0    0  0.15888233200E+03 -0.18930990815E+03  0.58284212062E+01  0.26342995186E+03  0.90991935348E+02 0.  0.
        254    2    1    2    0    0 -0.15888233200E+03  0.18930990815E+03 -0.77749692268E+03  0.12103865972E+04  0.89412102831E+03 0.  0.
        -24    2    4    4    0    0  0.20062844981E+03  0.21778360285E+03  0.44099025950E+02  0.30952023983E+03  0.78591235072E+02 0.  0.
         24    2    4    4    0    0 -0.35951078180E+03 -0.28473694694E+02 -0.82159594863E+03  0.90086635742E+03  0.80507997154E+02 0.  0.
         13    1    3    3    0    0  0.14348442878E+03 -0.19106169390E+03  0.23302730673E+02  0.24007367502E+03  0.00000000000E+00 0. -1.
        -13    1    3    3    0    0  0.15397903218E+02  0.17517857473E+01 -0.17474309467E+02  0.23356276847E+02  0.00000000000E+00 0.  1.
          4    1    6    6  502    0 -0.20062647800E+03 -0.49556437613E+02 -0.40928087893E+03  0.45849499675E+03  0.00000000000E+00 0. -1.
          3    1    5    5  503    0  0.18341601641E+01  0.13857971983E+02 -0.12970375138E+02  0.19069298944E+02  0.00000000000E+00 0. -1.
         -4    1    5    5    0  503  0.19879428964E+03  0.20392563086E+03  0.57069401088E+02  0.29045094088E+03  0.00000000000E+00 0.  1.
         -3    1    6    6    0  502 -0.15888430381E+03  0.21082742919E+02 -0.41231506970E+03  0.44237136067E+03  0.00000000000E+00 0.  1.
<mgrwt>
<rscale>  0 0.12556524E+04</rscale>
<asrwt>0</asrwt>
<pdfrwt beam="1">  1        3 0.17272962E+00 0.12556524E+04</pdfrwt>
<pdfrwt beam="2">  1       -3 0.54011388E-01 0.12556524E+04</pdfrwt>
<totfact> 0.19404763E+00</totfact>
</mgrwt>
</event>
<event>
12    1  0.1495204E-007  0.1507482E+04  0.7818608E-02  0.8879493E-01
          2   -1    0    0  501    0  0.00000000000E+00  0.00000000000E+00  0.10763884183E+04  0.10763884183E+04  0.00000000000E+00 0. -1.
         -2   -1    0    0    0  501 -0.00000000000E+00 -0.00000000000E+00 -0.52780704218E+03  0.52780704218E+03  0.00000000000E+00 0.  1.
         23    2    1    2    0    0  0.20932234058E+03  0.13741515626E+03 -0.25997631185E+03  0.37202184552E+03  0.90076652824E+02 0.  0.
        254    2    1    2    0    0 -0.20932234058E+03 -0.13741515626E+03  0.80855768798E+03  0.12321736150E+04  0.89542588484E+03 0.  0.
        -24    2    4    4    0    0 -0.35310019189E+03  0.29490667208E+03  0.39221802993E+03  0.60987389857E+03  0.80383446126E+02 0.  0.
         24    2    4    4    0    0  0.14377785130E+03 -0.43232182834E+03  0.41633965805E+03  0.62229971642E+03  0.79649183309E+02 0.  0.
         11    1    3    3    0    0  0.20725261652E+03  0.13474513491E+03 -0.21706836929E+03  0.32898111706E+03  0.00000000000E+00 0. -1.
        -11    1    3    3    0    0  0.20697240654E+01  0.26700213460E+01 -0.42907942556E+02  0.43040728456E+02  0.00000000000E+00 0.  1.
          2    1    6    6  502    0  0.97829454852E+01 -0.39492606604E+01  0.23761757183E+02  0.25998534315E+02  0.00000000000E+00 0. -1.
          1    1    5    5  503    0 -0.25220501595E+03  0.25193083743E+03  0.31543067207E+03  0.47599687583E+03  0.00000000000E+00 0. -1.
         -2    1    5    5    0  503 -0.10089517594E+03  0.42975834648E+02  0.76787357861E+02  0.13387702274E+03  0.00000000000E+00 0.  1.
         -1    1    6    6    0  502  0.13399490582E+03 -0.42837256768E+03  0.39257790087E+03  0.59630118210E+03  0.00000000000E+00 0.  1.
<mgrwt>
<rscale>  0 0.15074819E+04</rscale>
<asrwt>0</asrwt>
<pdfrwt beam="1">  1        2 0.16559822E+00 0.15074819E+04</pdfrwt>
<pdfrwt beam="2">  1       -2 0.81201084E-01 0.15074819E+04</pdfrwt>
<totfact> 0.29090747E+01</totfact>
</mgrwt>
</event>
<event>
12    1  0.1495204E-007  0.2254239E+04  0.7818608E-02  0.8496186E-01
         -1   -1    0    0    0  501 -0.00000000000E+00  0.00000000000E+00  0.12083700037E+04  0.12083700037E+04  0.00000000000E+00 0.  1.
          1   -1    0    0  501    0  0.00000000000E+00 -0.00000000000E+00 -0.10513325289E+04  0.10513325289E+04  0.00000000000E+00 0. -1.
         23    2    1    2    0    0 -0.31805536900E+03  0.86165413375E+03  0.28172273510E+03  0.96512695066E+03  0.92169775219E+02 0.  0.
        254    2    1    2    0    0  0.31805536900E+03 -0.86165413375E+03 -0.12468526032E+03  0.12945755819E+04  0.90375464546E+03 0.  0.
        -24    2    4    4    0    0  0.38319453343E+03 -0.96586785707E+03 -0.28150943331E+03  0.10795024972E+04  0.79619800914E+02 0.  0.
         24    2    4    4    0    0 -0.65139164428E+02  0.10421372333E+03  0.15682417298E+03  0.21507308469E+03  0.80987651233E+02 0.  0.
         11    1    3    3    0    0 -0.10829581080E+02  0.11684925207E+03  0.39581581660E+02  0.12384558588E+03  0.00000000000E+00 0. -1.
        -11    1    3    3    0    0 -0.30722578792E+03  0.74480488168E+03  0.24214115344E+03  0.84128136477E+03  0.00000000000E+00 0.  1.
          4    1    6    6  502    0 -0.36254591079E+02  0.93120116209E+02  0.67626278273E+02  0.12066095031E+03  0.00000000000E+00 0. -1.
          3    1    5    5  503    0  0.35814324340E+03 -0.83112435660E+03 -0.23958917125E+03  0.93618227387E+03  0.00000000000E+00 0. -1.
         -2    1    5    5    0  503  0.25051290028E+02 -0.13474350047E+03 -0.41920262054E+02  0.14332022335E+03  0.00000000000E+00 0.  1.
         -3    1    6    6    0  502 -0.28884573349E+02  0.11093607119E+02  0.89197894709E+02  0.94412134373E+02  0.00000000000E+00 0.  1.
<mgrwt>
<rscale>  0 0.22542393E+04</rscale>
<asrwt>0</asrwt>
<pdfrwt beam="1">  1        1 0.16174346E+00 0.22542393E+04</pdfrwt>
<pdfrwt beam="2">  1       -1 0.18590308E+00 0.22542393E+04</pdfrwt>
<totfact> 0.23662971E+00</totfact>
</mgrwt>
</event>
<event>
12    1  0.1495204E-007  0.1189606E+04  0.7818608E-02  0.9122003E-01
          2   -1    0    0  501    0  0.00000000000E+00  0.00000000000E+00  0.15469617830E+04  0.15469617830E+04  0.00000000000E+00 0. -1.
         -2   -1    0    0    0  501 -0.00000000000E+00 -0.00000000000E+00 -0.22870036256E+03  0.22870036256E+03  0.00000000000E+00 0.  1.
         23    2    1    2    0    0  0.67654067210E+02  0.20846178850E+02  0.64389464994E+03  0.65393668879E+03  0.89561357364E+02 0.  0.
        254    2    1    2    0    0 -0.67654067210E+02 -0.20846178850E+02  0.67436677053E+03  0.11217254568E+04  0.89358033958E+03 0.  0.
        -24    2    4    4    0    0  0.33340581280E+03  0.68566030993E+02  0.60253826884E+03  0.69670840465E+03  0.80557427238E+02 0.  0.
         24    2    4    4    0    0 -0.40105988001E+03 -0.89412209843E+02  0.71828501694E+02  0.42501705216E+03  0.81465270831E+02 0.  0.
         11    1    3    3    0    0  0.85245758767E+02  0.19171969605E+02  0.60421596897E+03  0.61050089350E+03  0.00000000000E+00 0. -1.
        -11    1    3    3    0    0 -0.17591691556E+02  0.16742092445E+01  0.39678680977E+02  0.43435795290E+02  0.00000000000E+00 0.  1.
          2    1    6    6  502    0 -0.36365251298E+03 -0.56056076027E+02  0.71853302294E+02  0.37489776060E+03  0.00000000000E+00 0. -1.
          1    1    5    5  503    0  0.25411092801E+03  0.28984320399E+02  0.49657278758E+03  0.55856690551E+03  0.00000000000E+00 0. -1.
         -2    1    5    5    0  503  0.79294884793E+02  0.39581710594E+02  0.10596548125E+03  0.13814149914E+03  0.00000000000E+00 0.  1.
         -1    1    6    6    0  502 -0.37407367031E+02 -0.33356133816E+02 -0.24800599824E-01  0.50119291560E+02  0.00000000000E+00 0.  1.
<mgrwt>
<rscale>  0 0.11896062E+04</rscale>
<asrwt>0</asrwt>
<pdfrwt beam="1">  1        2 0.23799411E+00 0.11896062E+04</pdfrwt>
<pdfrwt beam="2">  1       -2 0.35184672E-01 0.11896062E+04</pdfrwt>
<totfact> 0.89386930E+01</totfact>
</mgrwt>
</event>
<event>
12    1  0.1495204E-007  0.1791532E+04  0.7818608E-02  0.8710816E-01
         -2   -1    0    0    0  501 -0.00000000000E+00  0.00000000000E+00  0.59455343934E+03  0.59455343934E+03  0.00000000000E+00 0.  1.
          2   -1    0    0  501    0  0.00000000000E+00 -0.00000000000E+00 -0.13495789421E+04  0.13495789421E+04  0.00000000000E+00 0. -1.
         23    2    1    2    0    0  0.18835744121E+03 -0.37348534514E+03 -0.90615562529E+03  0.10019154870E+04  0.88015891515E+02 0.  0.
        254    2    1    2    0    0 -0.18835744121E+03  0.37348534514E+03  0.15113012252E+03  0.94221689444E+03  0.83063983382E+03 0.  0.
        -24    2    4    4    0    0  0.20194065598E+02  0.49039164747E+03  0.36041930681E+03  0.61462411026E+03  0.83480249155E+02 0.  0.
         24    2    4    4    0    0 -0.20855150681E+03 -0.11690630233E+03 -0.20928918428E+03  0.32759278418E+03  0.79713581465E+02 0.  0.
         11    1    3    3    0    0  0.13941677456E+03 -0.26004061875E+03 -0.53823103572E+03  0.61380029996E+03  0.00000000000E+00 0. -1.
        -11    1    3    3    0    0  0.48940666655E+02 -0.11344472639E+03 -0.36792458957E+03  0.38811518704E+03  0.00000000000E+00 0.  1.
          4    1    6    6  502    0 -0.99455595950E+02 -0.98922249776E+02 -0.13263556400E+03  0.19305237606E+03  0.00000000000E+00 0. -1.
          3    1    5    5  503    0 -0.31814974490E+02  0.19673730916E+03  0.15552888183E+03  0.25279832772E+03  0.00000000000E+00 0. -1.
         -4    1    5    5    0  503  0.52009040088E+02  0.29365433831E+03  0.20489042498E+03  0.36182578253E+03  0.00000000000E+00 0.  1.
         -3    1    6    6    0  502 -0.10909591086E+03 -0.17984052554E+02 -0.76653620284E+02  0.13454040812E+03  0.00000000000E+00 0.  1.
<mgrwt>
<rscale>  0 0.17915321E+04</rscale>
<asrwt>0</asrwt>
<pdfrwt beam="1">  1        2 0.20762753E+00 0.17915321E+04</pdfrwt>
<pdfrwt beam="2">  1       -2 0.91469761E-01 0.17915321E+04</pdfrwt>
<totfact> 0.14878844E+01</totfact>
</mgrwt>
</event>
<event>
12    1  0.1495204E-007  0.3356620E+04  0.7818608E-02  0.8148636E-01
         -2   -1    0    0    0  501 -0.00000000000E+00  0.00000000000E+00  0.10863116130E+04  0.10863116130E+04  0.00000000000E+00 0.  1.
          2   -1    0    0  501    0  0.00000000000E+00 -0.00000000000E+00 -0.25929247822E+04  0.25929247822E+04  0.00000000000E+00 0. -1.
         23    2    1    2    0    0  0.14981091603E+04 -0.36040145831E+02 -0.23853719279E+03  0.15201734039E+04  0.91636442323E+02 0.  0.
        254    2    1    2    0    0 -0.14981091603E+04  0.36040145831E+02 -0.12680759764E+04  0.21590629912E+04  0.89883611967E+03 0.  0.
        -24    2    4    4    0    0 -0.69734077006E+03  0.39890410298E+03 -0.88205797699E+03  0.11957190862E+04  0.79430632419E+02 0.  0.
         24    2    4    4    0    0 -0.80076839020E+03 -0.36286395715E+03 -0.38601799939E+03  0.96334390502E+03  0.78238848106E+02 0.  0.
         11    1    3    3    0    0  0.11219555365E+04 -0.66406236610E+01 -0.14373406303E+03  0.11311444667E+04  0.00000000000E+00 0.  1.
        -11    1    3    3    0    0  0.37615362378E+03 -0.29399522170E+02 -0.94803129766E+02  0.38902893722E+03  0.00000000000E+00 0. -1.
          4    1    6    6  502    0 -0.17197082679E+03 -0.10160561657E+03 -0.11495373015E+03  0.23046046659E+03  0.00000000000E+00 0. -1.
          1    1    5    5  503    0 -0.31328643688E+02  0.17828866591E+02 -0.18545145398E+02  0.40537326220E+02  0.00000000000E+00 0. -1.
         -2    1    5    5    0  503 -0.66601212637E+03  0.38107523639E+03 -0.86351283159E+03  0.11551817600E+04  0.00000000000E+00 0.  1.
         -3    1    6    6    0  502 -0.62879756340E+03 -0.26125834057E+03 -0.27106426924E+03  0.73288343843E+03  0.00000000000E+00 0.  1.
<mgrwt>
<rscale>  0 0.33566199E+04</rscale>
<asrwt>0</asrwt>
<pdfrwt beam="1">  1        2 0.39891150E+00 0.33566199E+04</pdfrwt>
<pdfrwt beam="2">  1       -2 0.16712487E+00 0.33566199E+04</pdfrwt>
<totfact> 0.57070796E-01</totfact>
</mgrwt>
</event>
<event>
12    1  0.1495204E-007  0.1287654E+04  0.7818608E-02  0.9039413E-01
         -1   -1    0    0    0  501 -0.00000000000E+00  0.00000000000E+00  0.28047367160E+03  0.28047367160E+03  0.00000000000E+00 0.  1.
          1   -1    0    0  501    0  0.00000000000E+00 -0.00000000000E+00 -0.14779045704E+04  0.14779045704E+04  0.00000000000E+00 0. -1.
         23    2    1    2    0    0  0.73949155339E+02  0.31017922201E+03 -0.41247134944E+03  0.52924251343E+03  0.91024153767E+02 0.  0.
        254    2    1    2    0    0 -0.73949155339E+02 -0.31017922201E+03 -0.78495954936E+03  0.12291357286E+04  0.89046814529E+03 0.  0.
        -24    2    4    4    0    0  0.11374695210E+03  0.14546923923E+03  0.91347188374E+02  0.22084166853E+03  0.79542850466E+02 0.  0.
         24    2    4    4    0    0 -0.18769610744E+03 -0.45564846125E+03 -0.87630673773E+03  0.10082940600E+04  0.76798853693E+02 0.  0.
         11    1    3    3    0    0  0.96422579845E+01  0.27074323675E+02 -0.94040710038E+02  0.98334364725E+02  0.00000000000E+00 0.  1.
        -11    1    3    3    0    0  0.64306897355E+02  0.28310489834E+03 -0.31843063940E+03  0.43090814871E+03  0.00000000000E+00 0. -1.
          4    1    6    6  502    0 -0.19178330148E+03 -0.42831090107E+03 -0.84468850213E+03  0.96629691520E+03  0.00000000000E+00 0. -1.
          1    1    5    5  503    0  0.11778643040E+03  0.10847312924E+03  0.56338121977E+02  0.16974700864E+03  0.00000000000E+00 0. -1.
         -2    1    5    5    0  503 -0.40394782991E+01  0.36996109995E+02  0.35009066398E+02  0.51094659894E+02  0.00000000000E+00 0.  1.
         -3    1    6    6    0  502  0.40871940418E+01 -0.27337560180E+02 -0.31618235604E+02  0.41997144837E+02  0.00000000000E+00 0.  1.
<mgrwt>
<rscale>  0 0.12876542E+04</rscale>
<asrwt>0</asrwt>
<pdfrwt beam="1">  1        1 0.22736993E+00 0.12876542E+04</pdfrwt>
<pdfrwt beam="2">  1       -1 0.43149796E-01 0.12876542E+04</pdfrwt>
<totfact> 0.35290000E+01</totfact>
</mgrwt>
</event>
<event>
12    1  0.1495204E-007  0.1976474E+04  0.7818608E-02  0.8617699E-01
          1   -1    0    0  501    0  0.00000000000E+00  0.00000000000E+00  0.79779029586E+03  0.79779029586E+03  0.00000000000E+00 0. -1.
         -1   -1    0    0    0  501 -0.00000000000E+00 -0.00000000000E+00 -0.12241472841E+04  0.12241472841E+04  0.00000000000E+00 0.  1.
         23    2    1    2    0    0 -0.38804953347E+03  0.63360754843E+03  0.89179240723E+02  0.75400500821E+03  0.92356102018E+02 0.  0.
        254    2    1    2    0    0  0.38804953347E+03 -0.63360754843E+03 -0.51553622898E+03  0.12679325718E+04  0.88872630056E+03 0.  0.
        -24    2    4    4    0    0 -0.21160591902E+03 -0.48489629927E+03 -0.25855368369E+03  0.59422615385E+03  0.79707142467E+02 0.  0.
         24    2    4    4    0    0  0.59965545250E+03 -0.14871124916E+03 -0.25698254529E+03  0.67370641792E+03  0.78349292430E+02 0.  0.
         13    1    3    3    0    0 -0.37687860828E+03  0.63388737002E+03  0.86535562190E+02  0.74252211198E+03  0.00000000000E+00 0. -1.
        -13    1    3    3    0    0 -0.11170925193E+02 -0.27982159197E+00  0.26436785321E+01  0.11482896236E+02  0.00000000000E+00 0.  1.
          2    1    6    6  502    0  0.96748549487E+02  0.21445461605E+01 -0.26757864880E+02  0.10040350711E+03  0.00000000000E+00 0. -1.
          1    1    5    5  503    0 -0.15121972905E+02 -0.11460565950E+03 -0.48660939230E+02  0.12542335612E+03  0.00000000000E+00 0. -1.
         -2    1    5    5    0  503 -0.19648394612E+03 -0.37029063978E+03 -0.20989274446E+03  0.46880279774E+03  0.00000000000E+00 0.  1.
         -1    1    6    6    0  502  0.50290690301E+03 -0.15085579532E+03 -0.23022468041E+03  0.57330291081E+03  0.00000000000E+00 0.  1.
<mgrwt>
<rscale>  0 0.19764745E+04</rscale>
<asrwt>0</asrwt>
<pdfrwt beam="1">  1        1 0.12273697E+00 0.19764745E+04</pdfrwt>
<pdfrwt beam="2">  1       -1 0.18833035E+00 0.19764745E+04</pdfrwt>
<totfact> 0.37473148E+00</totfact>
</mgrwt>
</event>
<event>
12    1  0.1495204E-007  0.1438566E+04  0.7818608E-02  0.8926366E-01
         -1   -1    0    0    0  501 -0.00000000000E+00  0.00000000000E+00  0.47837438991E+03  0.47837438991E+03  0.00000000000E+00 0.  1.
          1   -1    0    0  501    0  0.00000000000E+00 -0.00000000000E+00 -0.10815124490E+04  0.10815124490E+04  0.00000000000E+00 0. -1.
         23    2    1    2    0    0  0.13005793444E+03  0.98965241985E+02  0.19163853656E+03  0.26962034360E+03  0.96232092136E+02 0.  0.
        254    2    1    2    0    0 -0.13005793444E+03 -0.98965241985E+02 -0.79477659569E+03  0.12902664954E+04  0.10031991859E+04 0.  0.
        -24    2    4    4    0    0  0.11432469694E+03 -0.17126700316E+03  0.17696858406E+03  0.28237800199E+03  0.77568895587E+02 0.  0.
         24    2    4    4    0    0 -0.24438263138E+03  0.72301761172E+02 -0.97174517975E+03  0.10078884934E+04  0.81241033278E+02 0.  0.
         11    1    3    3    0    0 -0.35819648093E+01 -0.14125580113E+02  0.13824157873E+02  0.20086558349E+02  0.00000000000E+00 0. -1.
        -11    1    3    3    0    0  0.13363989925E+03  0.11309082210E+03  0.17781437869E+03  0.24953378525E+03  0.00000000000E+00 0.  1.
          4    1    6    6  502    0 -0.77573633303E+02  0.59470210886E+02 -0.29509452002E+03  0.31086194735E+03  0.00000000000E+00 0. -1.
          3    1    5    5  503    0  0.58337303613E+02 -0.14752313920E+03  0.11845211368E+03  0.19798288013E+03  0.00000000000E+00 0. -1.
         -4    1    5    5    0  503  0.55987393325E+02 -0.23743863962E+02  0.58516470381E+02  0.84395121855E+02  0.00000000000E+00 0.  1.
         -3    1    6    6    0  502 -0.16680899808E+03  0.12831550286E+02 -0.67665065973E+03  0.69702654601E+03  0.00000000000E+00 0.  1.
<mgrwt>
<rscale>  0 0.14385658E+04</rscale>
<asrwt>0</asrwt>
<pdfrwt beam="1">  1        1 0.16638653E+00 0.14385658E+04</pdfrwt>
<pdfrwt beam="2">  1       -1 0.73596060E-01 0.14385658E+04</pdfrwt>
<totfact> 0.23677426E+01</totfact>
</mgrwt>
</event>
<event>
12    1  0.1495204E-007  0.1759262E+04  0.7818608E-02  0.8728269E-01
          2   -1    0    0  501    0  0.00000000000E+00  0.00000000000E+00  0.14080158699E+04  0.14080158699E+04  0.00000000000E+00 0. -1.
         -2   -1    0    0    0  501 -0.00000000000E+00 -0.00000000000E+00 -0.54953254466E+03  0.54953254466E+03  0.00000000000E+00 0.  1.
         23    2    1    2    0    0  0.42616660179E+02  0.20364967791E+03 -0.36131331322E+03  0.42508023778E+03  0.82804149662E+02 0.  0.
        254    2    1    2    0    0 -0.42616660179E+02 -0.20364967791E+03  0.12197966385E+04  0.15324681768E+04  0.90402737936E+03 0.  0.
        -24    2    4    4    0    0 -0.40808200398E+03  0.10722842976E+03  0.69439669204E+03  0.81646995070E+03  0.80047213361E+02 0.  0.
         24    2    4    4    0    0  0.36546534380E+03 -0.31087810767E+03  0.52539994643E+03  0.71599822609E+03  0.79989003613E+02 0.  0.
         13    1    3    3    0    0  0.50629035459E+02  0.56954353184E+02 -0.10663480125E+03  0.13106516858E+03  0.00000000000E+00 0. -1.
        -13    1    3    3    0    0 -0.80123752796E+01  0.14669532473E+03 -0.25467851197E+03  0.29401506919E+03  0.00000000000E+00 0.  1.
          2    1    6    6  502    0  0.26596256010E+03 -0.26532171492E+03  0.42809954107E+03  0.56956203599E+03  0.00000000000E+00 0. -1.
          3    1    5    5  503    0 -0.35921741446E+03  0.79652208940E+02  0.55171436869E+03  0.66315184526E+03  0.00000000000E+00 0. -1.
         -4    1    5    5    0  503 -0.48864589520E+02  0.27576220824E+02  0.14268232334E+03  0.15331810545E+03  0.00000000000E+00 0.  1.
         -1    1    6    6    0  502  0.99502783705E+02 -0.45556392758E+02  0.97300405362E+02  0.14643619010E+03  0.00000000000E+00 0.  1.
<mgrwt>
<rscale>  0 0.17592618E+04</rscale>
<asrwt>0</asrwt>
<pdfrwt beam="1">  1        2 0.21661782E+00 0.17592618E+04</pdfrwt>
<pdfrwt beam="2">  1       -2 0.84543469E-01 0.17592618E+04</pdfrwt>
<totfact> 0.16542843E+01</totfact>
</mgrwt>
</event>
<event>
12    1  0.1495204E-007  0.1626204E+04  0.7818608E-02  0.8804610E-01
          2   -1    0    0  501    0  0.00000000000E+00  0.00000000000E+00  0.51382450870E+03  0.51382450870E+03  0.00000000000E+00 0. -1.
         -2   -1    0    0    0  501 -0.00000000000E+00 -0.00000000000E+00 -0.12866941913E+04  0.12866941913E+04  0.00000000000E+00 0.  1.
         23    2    1    2    0    0 -0.31591783900E+03 -0.28850266842E+03 -0.64098024159E+03  0.77599769057E+03  0.90988323348E+02 0.  0.
        254    2    1    2    0    0  0.31591783900E+03  0.28850266842E+03 -0.13188944105E+03  0.10245210095E+04  0.92152623592E+03 0.  0.
        -24    2    4    4    0    0  0.44320341901E+03  0.54954782890E+03 -0.45723522153E+02  0.71196400388E+03  0.79812376651E+02 0.  0.
         24    2    4    4    0    0 -0.12728558001E+03 -0.26104516048E+03 -0.86165918895E+02  0.31255700558E+03  0.76948823709E+02 0.  0.
         11    1    3    3    0    0 -0.48066821107E+02 -0.36457823261E+02 -0.43449045493E+02  0.74346564968E+02  0.00000000000E+00 0.  1.
        -11    1    3    3    0    0 -0.26785101790E+03 -0.25204484516E+03 -0.59753119609E+03  0.70165112561E+03  0.00000000000E+00 0. -1.
          2    1    6    6  502    0 -0.12506886977E+02  0.24647009384E+01 -0.10205720142E+01  0.12788218789E+02  0.00000000000E+00 0. -1.
          1    1    5    5  503    0  0.64714756799E+02  0.76436866736E+02 -0.34675244472E+02  0.10598569207E+03  0.00000000000E+00 0. -1.
         -2    1    5    5    0  503  0.37848866222E+03  0.47311096217E+03 -0.11048277680E+02  0.60597831181E+03  0.00000000000E+00 0.  1.
         -1    1    6    6    0  502 -0.11477869304E+03 -0.26350986142E+03 -0.85145346880E+02  0.29976878680E+03  0.00000000000E+00 0.  1.
<mgrwt>
<rscale>  0 0.16262042E+04</rscale>
<asrwt>0</asrwt>
<pdfrwt beam="1">  1        2 0.79049925E-01 0.16262042E+04</pdfrwt>
<pdfrwt beam="2">  1       -2 0.19795295E+00 0.16262042E+04</pdfrwt>
<totfact> 0.78240229E+00</totfact>
</mgrwt>
</event>
<event>
12    1  0.1495204E-007  0.3124060E+04  0.7818608E-02  0.8209166E-01
         -1   -1    0    0    0  501 -0.00000000000E+00  0.00000000000E+00  0.11235597126E+04  0.11235597126E+04  0.00000000000E+00 0.  1.
          1   -1    0    0  501    0  0.00000000000E+00 -0.00000000000E+00 -0.21716130836E+04  0.21716130836E+04  0.00000000000E+00 0. -1.
         23    2    1    2    0    0 -0.83887835980E+03  0.16758656730E+03 -0.16925245943E+04  0.18987799493E+04  0.94464984571E+02 0.  0.
        254    2    1    2    0    0  0.83887835980E+03 -0.16758656730E+03  0.64447122326E+03  0.13963928469E+04  0.89597302709E+03 0.  0.
        -24    2    4    4    0    0 -0.21344158548E+02 -0.76109942611E+02 -0.17116523491E+03  0.20506902213E+03  0.80668889464E+02 0.  0.
         24    2    4    4    0    0  0.86022251834E+03 -0.91476624693E+02  0.81563645817E+03  0.11913238248E+04  0.75092407864E+02 0.  0.
         13    1    3    3    0    0 -0.63785622144E+03  0.98348402021E+02 -0.13348297818E+04  0.14826677018E+04  0.00000000000E+00 0. -1.
        -13    1    3    3    0    0 -0.20102213836E+03  0.69238165282E+02 -0.35769481250E+03  0.41611224752E+03  0.00000000000E+00 0.  1.
          2    1    6    6  502    0  0.42233311180E+03 -0.22704859671E+02  0.43994532653E+03  0.61027260983E+03  0.00000000000E+00 0. -1.
          1    1    5    5  503    0 -0.50345753353E+02 -0.35387233289E+02 -0.78160475377E+02  0.99478696572E+02  0.00000000000E+00 0. -1.
         -2    1    5    5    0  503  0.29001594805E+02 -0.40722709322E+02 -0.93004759530E+02  0.10559032556E+03  0.00000000000E+00 0.  1.
         -1    1    6    6    0  502  0.43788940655E+03 -0.68771765022E+02  0.37569113164E+03  0.58105121497E+03  0.00000000000E+00 0.  1.
<mgrwt>
<rscale>  0 0.31240595E+04</rscale>
<asrwt>0</asrwt>
<pdfrwt beam="1">  1        1 0.33409432E+00 0.31240595E+04</pdfrwt>
<pdfrwt beam="2">  1       -1 0.17285534E+00 0.31240595E+04</pdfrwt>
<totfact> 0.44974379E-01</totfact>
</mgrwt>
</event>
<event>
12    1  0.1495204E-007  0.2086677E+04  0.7818608E-02  0.8567135E-01
         -2   -1    0    0    0  501 -0.00000000000E+00  0.00000000000E+00  0.45505001045E+03  0.45505001045E+03  0.00000000000E+00 0.  1.
          2   -1    0    0  501    0  0.00000000000E+00 -0.00000000000E+00 -0.23921671546E+04  0.23921671546E+04  0.00000000000E+00 0. -1.
         23    2    1    2    0    0 -0.38473918990E+03  0.62088631835E+03 -0.20806213896E+03  0.76491216196E+03  0.90976355661E+02 0.  0.
        254    2    1    2    0    0  0.38473918990E+03 -0.62088631835E+03 -0.17290550052E+04  0.20823050031E+04  0.90157575966E+03 0.  0.
        -24    2    4    4    0    0  0.53733742615E+03 -0.65513166820E+03 -0.91452806377E+03  0.12491833704E+04  0.78539806672E+02 0.  0.
         24    2    4    4    0    0 -0.15259823625E+03  0.34245349847E+02 -0.81452694145E+03  0.83312163273E+03  0.78603758727E+02 0.  0.
         13    1    3    3    0    0 -0.36572071828E+03  0.59686872655E+03 -0.21722952822E+03  0.73293423201E+03  0.00000000000E+00 0.  1.
        -13    1    3    3    0    0 -0.19018471617E+02  0.24017591797E+02  0.91673892577E+01  0.31977929954E+02  0.00000000000E+00 0. -1.
          2    1    6    6  502    0 -0.79176968414E+02  0.15199231910E+02 -0.23057225548E+03  0.24426128218E+03  0.00000000000E+00 0. -1.
          3    1    5    5  503    0  0.10128477042E+02 -0.17134002147E+01 -0.51371887154E+01  0.11485316512E+02  0.00000000000E+00 0. -1.
         -4    1    5    5    0  503  0.52720894911E+03 -0.65341826798E+03 -0.90939087505E+03  0.12376980539E+04  0.00000000000E+00 0.  1.
         -1    1    6    6    0  502 -0.73421267833E+02  0.19046117937E+02 -0.58395468597E+03  0.58886035055E+03  0.00000000000E+00 0.  1.
<mgrwt>
<rscale>  0 0.20866774E+04</rscale>
<asrwt>0</asrwt>
<pdfrwt beam="1">  1        2 0.36802572E+00 0.20866774E+04</pdfrwt>
<pdfrwt beam="2">  1       -2 0.70007693E-01 0.20866774E+04</pdfrwt>
<totfact> 0.68880130E+00</totfact>
</mgrwt>
</event>
<event>
12    1  0.1495204E-007  0.2429948E+04  0.7818608E-02  0.8428376E-01
         -1   -1    0    0    0  501 -0.00000000000E+00  0.00000000000E+00  0.28252143277E+03  0.28252143277E+03  0.00000000000E+00 0.  1.
          1   -1    0    0  501    0  0.00000000000E+00 -0.00000000000E+00 -0.52249543388E+04  0.52249543388E+04  0.00000000000E+00 0. -1.
         23    2    1    2    0    0 -0.10010562804E+04  0.28925621486E+03 -0.21902560365E+04  0.24271932793E+04  0.90900359407E+02 0.  0.
        254    2    1    2    0    0  0.10010562804E+04 -0.28925621486E+03 -0.27521768695E+04  0.30802824922E+04  0.90987904505E+03 0.  0.
        -24    2    4    4    0    0  0.57752945820E+03 -0.61067838255E+03 -0.16201891319E+04  0.18270730195E+04  0.81942866270E+02 0.  0.
         24    2    4    4    0    0  0.42352682219E+03  0.32142216769E+03 -0.11319877375E+04  0.12532094727E+04  0.80315413038E+02 0.  0.
         11    1    3    3    0    0 -0.56135048943E+03  0.19693792707E+03 -0.11772363874E+04  0.13190088821E+04  0.00000000000E+00 0. -1.
        -11    1    3    3    0    0 -0.43970579095E+03  0.92318287799E+02 -0.10130196491E+04  0.11081843973E+04  0.00000000000E+00 0.  1.
          2    1    6    6  502    0  0.77029045311E+02  0.67234925828E+02 -0.29735500132E+03  0.31444237291E+03  0.00000000000E+00 0. -1.
          3    1    5    5  503    0  0.81251448191E+01 -0.63784961323E+01 -0.62317383026E+01  0.12063902914E+02  0.00000000000E+00 0. -1.
         -4    1    5    5    0  503  0.56940431338E+03 -0.60429988642E+03 -0.16139573936E+04  0.18150091166E+04  0.00000000000E+00 0.  1.
         -1    1    6    6    0  502  0.34649777687E+03  0.25418724186E+03 -0.83463273621E+03  0.93876709979E+03  0.00000000000E+00 0.  1.
<mgrwt>
<rscale>  0 0.24299478E+04</rscale>
<asrwt>0</asrwt>
<pdfrwt beam="1">  1        1 0.80383915E+00 0.24299478E+04</pdfrwt>
<pdfrwt beam="2">  1       -1 0.43464835E-01 0.24299478E+04</pdfrwt>
<totfact> 0.20113157E-02</totfact>
</mgrwt>
</event>
<event>
12    1  0.1495204E-007  0.1538088E+04  0.7818608E-02  0.8859513E-01
         -2   -1    0    0    0  501 -0.00000000000E+00  0.00000000000E+00  0.32977062322E+03  0.32977062322E+03  0.00000000000E+00 0.  1.
          2   -1    0    0  501    0  0.00000000000E+00 -0.00000000000E+00 -0.17934535464E+04  0.17934535464E+04  0.00000000000E+00 0. -1.
         23    2    1    2    0    0  0.27849907974E+03 -0.20928271294E+03  0.85482927827E+01  0.36019848703E+03  0.91153087727E+02 0.  0.
        254    2    1    2    0    0 -0.27849907974E+03  0.20928271294E+03 -0.14722312160E+04  0.17630256826E+04  0.90522583529E+03 0.  0.
        -24    2    4    4    0    0 -0.82845564767E+02 -0.29257353362E+03 -0.18192812099E+03  0.36213929875E+03  0.74728644565E+02 0.  0.
         24    2    4    4    0    0 -0.19565351497E+03  0.50185624655E+03 -0.12903030950E+04  0.14008863839E+04  0.86374726589E+02 0.  0.
         13    1    3    3    0    0  0.41882436007E+02 -0.70876367995E+02  0.23660222195E+02  0.85658648719E+02  0.00000000000E+00 0.  1.
        -13    1    3    3    0    0  0.23661664373E+03 -0.13840634494E+03 -0.15111929412E+02  0.27453983831E+03  0.00000000000E+00 0. -1.
          2    1    6    6  502    0 -0.10386937471E+03  0.37305422463E+03 -0.92957690501E+03  0.10070111836E+04  0.00000000000E+00 0. -1.
          3    1    5    5  503    0 -0.31539266713E+02 -0.22583686034E+03 -0.14493021666E+03  0.27018841673E+03  0.00000000000E+00 0. -1.
         -4    1    5    5    0  503 -0.51306298054E+02 -0.66736673281E+02 -0.36997904329E+02  0.91950882026E+02  0.00000000000E+00 0.  1.
         -1    1    6    6    0  502 -0.91784140263E+02  0.12880202192E+03 -0.36072619000E+03  0.39387520030E+03  0.00000000000E+00 0.  1.
<mgrwt>
<rscale>  0 0.15380875E+04</rscale>
<asrwt>0</asrwt>
<pdfrwt beam="1">  1        2 0.27591594E+00 0.15380875E+04</pdfrwt>
<pdfrwt beam="2">  1       -2 0.50733941E-01 0.15380875E+04</pdfrwt>
<totfact> 0.30790483E+01</totfact>
</mgrwt>
</event>
<event>
12    1  0.1495204E-007  0.1934305E+04  0.7818608E-02  0.8637967E-01
          2   -1    0    0  501    0  0.00000000000E+00  0.00000000000E+00  0.31190437587E+04  0.31190437587E+04  0.00000000000E+00 0. -1.
         -2   -1    0    0    0  501 -0.00000000000E+00 -0.00000000000E+00 -0.29989440330E+03  0.29989440330E+03  0.00000000000E+00 0.  1.
         23    2    1    2    0    0 -0.45868120491E+03  0.29671183223E+03  0.19102471718E+03  0.58517074457E+03  0.86648708032E+02 0.  0.
        254    2    1    2    0    0  0.45868120491E+03 -0.29671183223E+03  0.26281246382E+04  0.28337674174E+04  0.90816975447E+03 0.  0.
        -24    2    4    4    0    0  0.37080162427E+03 -0.60440930571E+03  0.15485072395E+04  0.17049630933E+04  0.78867137101E+02 0.  0.
         24    2    4    4    0    0  0.87879580636E+02  0.30769747348E+03  0.10796173987E+04  0.11288043241E+04  0.78898153916E+02 0.  0.
         11    1    3    3    0    0 -0.23631517743E+03  0.10265530540E+03  0.78968062969E+02  0.26947899692E+03  0.00000000000E+00 0. -1.
        -11    1    3    3    0    0 -0.22236602747E+03  0.19405652683E+03  0.11205665421E+03  0.31569174765E+03  0.00000000000E+00 0.  1.
          2    1    6    6  502    0  0.49526618893E+02  0.27292075146E+03  0.92992417003E+03  0.97041103897E+03  0.00000000000E+00 0. -1.
          3    1    5    5  503    0  0.30211917665E+03 -0.50595003928E+03  0.13494701952E+04  0.14725254656E+04  0.00000000000E+00 0. -1.
         -4    1    5    5    0  503  0.68682447624E+02 -0.98459266433E+02  0.19903704430E+03  0.23243762768E+03  0.00000000000E+00 0.  1.
         -1    1    6    6    0  502  0.38352961743E+02  0.34776722024E+02  0.14969322866E+03  0.15839328513E+03  0.00000000000E+00 0.  1.
<mgrwt>
<rscale>  0 0.19343048E+04</rscale>
<asrwt>0</asrwt>
<pdfrwt beam="1">  1        2 0.47985286E+00 0.19343048E+04</pdfrwt>
<pdfrwt beam="2">  1       -2 0.46137603E-01 0.19343048E+04</pdfrwt>
<totfact> 0.61086036E+00</totfact>
</mgrwt>
</event>
<event>
12    1  0.1495204E-007  0.2640612E+04  0.7818608E-02  0.8354536E-01
          1   -1    0    0  501    0  0.00000000000E+00  0.00000000000E+00  0.15333531529E+04  0.15333531529E+04  0.00000000000E+00 0. -1.
         -1   -1    0    0    0  501 -0.00000000000E+00 -0.00000000000E+00 -0.11368602414E+04  0.11368602414E+04  0.00000000000E+00 0.  1.
         23    2    1    2    0    0  0.51729451804E+03  0.10479867724E+04  0.12308530394E+03  0.11787015600E+04  0.91200229229E+02 0.  0.
        254    2    1    2    0    0 -0.51729451804E+03 -0.10479867724E+04  0.27340760748E+03  0.14915118344E+04  0.88542980445E+03 0.  0.
        -24    2    4    4    0    0 -0.61239901046E+03 -0.83098908630E+03  0.50389427224E+03  0.11514381412E+04  0.79529528652E+02 0.  0.
         24    2    4    4    0    0  0.95104492417E+02 -0.21699768614E+03 -0.23048666476E+03  0.34007369313E+03  0.79957200172E+02 0.  0.
         11    1    3    3    0    0  0.23005328481E+03  0.41607447414E+03  0.89254289559E+02  0.48374457112E+03  0.00000000000E+00 0. -1.
        -11    1    3    3    0    0  0.28724123323E+03  0.63191229829E+03  0.33831014383E+02  0.69495698884E+03  0.00000000000E+00 0.  1.
          2    1    6    6  502    0  0.88934367598E+02 -0.12854437870E+03 -0.17859292846E+03  0.23733607633E+03  0.00000000000E+00 0. -1.
          1    1    5    5  503    0 -0.60261309978E+03 -0.80304377761E+03  0.47748091529E+03  0.11117598128E+04  0.00000000000E+00 0. -1.
         -2    1    5    5    0  503 -0.97859106796E+01 -0.27945308682E+02  0.26413356951E+02  0.39678328476E+02  0.00000000000E+00 0.  1.
         -1    1    6    6    0  502  0.61701248190E+01 -0.88453307439E+02 -0.51893736304E+02  0.10273761679E+03  0.00000000000E+00 0.  1.
<mgrwt>
<rscale>  0 0.26406122E+04</rscale>
<asrwt>0</asrwt>
<pdfrwt beam="1">  1        1 0.23590049E+00 0.26406122E+04</pdfrwt>
<pdfrwt beam="2">  1       -1 0.17490157E+00 0.26406122E+04</pdfrwt>
<totfact> 0.12334262E+00</totfact>
</mgrwt>
</event>
<event>
12    1  0.1495204E-007  0.1370473E+04  0.7818608E-02  0.8975474E-01
          2   -1    0    0  501    0  0.00000000000E+00  0.00000000000E+00  0.47983930127E+03  0.47983930127E+03  0.00000000000E+00 0. -1.
         -2   -1    0    0    0  501 -0.00000000000E+00 -0.00000000000E+00 -0.97855419424E+03  0.97855419424E+03  0.00000000000E+00 0.  1.
         23    2    1    2    0    0  0.53805048991E+02 -0.30354182238E+03 -0.10654642778E+03  0.33918598678E+03  0.93071860020E+02 0.  0.
        254    2    1    2    0    0 -0.53805048991E+02  0.30354182238E+03 -0.39216846519E+03  0.11192075087E+04  0.10018965622E+04 0.  0.
        -24    2    4    4    0    0  0.42669908462E+03 -0.56064242710E+02 -0.20195405915E+03  0.48364720326E+03  0.88959918445E+02 0.  0.
         24    2    4    4    0    0 -0.48050413361E+03  0.35960606509E+03 -0.19021440604E+03  0.63556030547E+03  0.86917415705E+02 0.  0.
         13    1    3    3    0    0  0.24639098796E+02 -0.10286520188E+02 -0.32135203308E+01  0.26892831758E+02  0.00000000000E+00 0. -1.
        -13    1    3    3    0    0  0.29165950196E+02 -0.29325530219E+03 -0.10333290745E+03  0.31229315503E+03  0.00000000000E+00 0.  1.
          4    1    6    6  502    0 -0.36310589860E+03  0.30089619888E+03 -0.11957869449E+03  0.48650126441E+03  0.00000000000E+00 0. -1.
          1    1    5    5  503    0  0.32111710968E+03 -0.29368176481E+01 -0.14219634940E+03  0.35120453416E+03  0.00000000000E+00 0. -1.
         -2    1    5    5    0  503  0.10558197493E+03 -0.53127425062E+02 -0.59757709750E+02  0.13244266910E+03  0.00000000000E+00 0.  1.
         -3    1    6    6    0  502 -0.11739823501E+03  0.58709866210E+02 -0.70635711549E+02  0.14905904105E+03  0.00000000000E+00 0.  1.
<mgrwt>
<rscale>  0 0.13704726E+04</rscale>
<asrwt>0</asrwt>
<pdfrwt beam="1">  1        2 0.73821432E-01 0.13704726E+04</pdfrwt>
<pdfrwt beam="2">  1       -2 0.15054680E+00 0.13704726E+04</pdfrwt>
<totfact> 0.18677616E+01</totfact>
</mgrwt>
</event>
<event>
12    1  0.1495204E-007  0.1290760E+04  0.7818608E-02  0.9036925E-01
         -1   -1    0    0    0  501 -0.00000000000E+00  0.00000000000E+00  0.20674206333E+03  0.20674206333E+03  0.00000000000E+00 0.  1.
          1   -1    0    0  501    0  0.00000000000E+00 -0.00000000000E+00 -0.20146605845E+04  0.20146605845E+04  0.00000000000E+00 0. -1.
         23    2    1    2    0    0 -0.14655650868E+03 -0.29641761115E+03 -0.52896464685E+03  0.63020116892E+03  0.89485782390E+02 0.  0.
        254    2    1    2    0    0  0.14655650868E+03  0.29641761115E+03 -0.12789538743E+04  0.15912014789E+04  0.88704956083E+03 0.  0.
        -24    2    4    4    0    0 -0.16517400165E+03  0.30212985142E+03 -0.12109518458E+04  0.12615123148E+04  0.80274838798E+02 0.  0.
         24    2    4    4    0    0  0.31173051034E+03 -0.57122402672E+01 -0.68002028501E+02  0.32968916403E+03  0.82837963717E+02 0.  0.
         13    1    3    3    0    0 -0.15412224320E+03 -0.29534421333E+03 -0.50447359340E+03  0.60454567787E+03  0.00000000000E+00 0.  1.
        -13    1    3    3    0    0  0.75657345144E+01 -0.10733978181E+01 -0.24491053450E+02  0.25655491044E+02  0.00000000000E+00 0. -1.
          4    1    6    6  502    0  0.27057051077E+03 -0.33423308858E+02 -0.51902903557E+02  0.27752374722E+03  0.00000000000E+00 0. -1.
          1    1    5    5  503    0 -0.16533584536E+03  0.29596613769E+03 -0.11159072637E+04  0.11662679441E+04  0.00000000000E+00 0. -1.
         -2    1    5    5    0  503  0.16184370186E+00  0.61637137217E+01 -0.95044582123E+02  0.95244370706E+02  0.00000000000E+00 0.  1.
         -1    1    6    6    0  502  0.41159999571E+02  0.27711068590E+02 -0.16099124944E+02  0.52165416811E+02  0.00000000000E+00 0.  1.
<mgrwt>
<rscale>  0 0.12907596E+04</rscale>
<asrwt>0</asrwt>
<pdfrwt beam="1">  1        1 0.30994780E+00 0.12907596E+04</pdfrwt>
<pdfrwt beam="2">  1       -1 0.31806470E-01 0.12907596E+04</pdfrwt>
<totfact> 0.26391556E+01</totfact>
</mgrwt>
</event>
<event>
12    1  0.1495204E-007  0.3029898E+04  0.7818608E-02  0.8235245E-01
          2   -1    0    0  501    0  0.00000000000E+00  0.00000000000E+00  0.22000388749E+04  0.22000388749E+04  0.00000000000E+00 0. -1.
         -2   -1    0    0    0  501 -0.00000000000E+00 -0.00000000000E+00 -0.10431952293E+04  0.10431952293E+04  0.00000000000E+00 0.  1.
         23    2    1    2    0    0 -0.46299414590E+03 -0.44511110342E+03 -0.77867208199E+03  0.10135842977E+04  0.92387464913E+02 0.  0.
        254    2    1    2    0    0  0.46299414590E+03  0.44511110342E+03  0.19355157276E+04  0.22296498065E+04  0.90145973526E+03 0.  0.
        -24    2    4    4    0    0  0.33480126169E+03  0.30440683715E+02  0.12651652800E+03  0.36756155885E+03  0.77952213805E+02 0.  0.
         24    2    4    4    0    0  0.12819288421E+03  0.41467041971E+03  0.18089991996E+04  0.18620882476E+04  0.80681877152E+02 0.  0.
         13    1    3    3    0    0 -0.13441954824E+03 -0.16895668383E+03 -0.31344264878E+03  0.38060645034E+03  0.00000000000E+00 0.  1.
        -13    1    3    3    0    0 -0.32857459766E+03 -0.27615441959E+03 -0.46522943320E+03  0.63297784732E+03  0.00000000000E+00 0. -1.
          2    1    6    6  502    0  0.38443178454E+02  0.21442193828E+03  0.77333561348E+03  0.80343177474E+03  0.00000000000E+00 0. -1.
          1    1    5    5  503    0  0.12930149643E+03  0.47785887226E+02  0.36907868813E+02  0.14270444554E+03  0.00000000000E+00 0. -1.
         -2    1    5    5    0  503  0.20549976526E+03 -0.17345203511E+02  0.89608659187E+02  0.22485711331E+03  0.00000000000E+00 0.  1.
         -1    1    6    6    0  502  0.89749705753E+02  0.20024848143E+03  0.10356635861E+04  0.10586564729E+04  0.00000000000E+00 0.  1.
<mgrwt>
<rscale>  0 0.30298977E+04</rscale>
<asrwt>0</asrwt>
<pdfrwt beam="1">  1        2 0.33846752E+00 0.30298977E+04</pdfrwt>
<pdfrwt beam="2">  1       -2 0.16049157E+00 0.30298977E+04</pdfrwt>
<totfact> 0.11013872E+00</totfact>
</mgrwt>
</event>
<event>
12    1  0.1495204E-007  0.3703271E+04  0.7818608E-02  0.8067237E-01
          1   -1    0    0  501    0  0.00000000000E+00  0.00000000000E+00  0.26910659407E+04  0.26910659407E+04  0.00000000000E+00 0. -1.
         -1   -1    0    0    0  501 -0.00000000000E+00 -0.00000000000E+00 -0.12740502764E+04  0.12740502764E+04  0.00000000000E+00 0.  1.
         23    2    1    2    0    0  0.74231557824E+03  0.15577600395E+03  0.23462511825E+04  0.24674700966E+04  0.90639314212E+02 0.  0.
        254    2    1    2    0    0 -0.74231557824E+03 -0.15577600395E+03 -0.92923551821E+03  0.14976461205E+04  0.89675340693E+03 0.  0.
        -24    2    4    4    0    0 -0.29315421038E+03 -0.38321895490E+03 -0.63816477961E+02  0.49328971172E+03  0.80411680555E+02 0.  0.
         24    2    4    4    0    0 -0.44916136786E+03  0.22744295094E+03 -0.86541904025E+03  0.10043564088E+04  0.79406865769E+02 0.  0.
         13    1    3    3    0    0  0.21130808678E+03  0.14498992717E+02  0.56514595782E+03  0.60353233713E+03  0.00000000000E+00 0.  1.
        -13    1    3    3    0    0  0.53100749146E+03  0.14127701124E+03  0.17811052247E+04  0.18639377595E+04  0.00000000000E+00 0. -1.
          4    1    6    6  502    0 -0.40501824645E+03  0.17547387458E+03 -0.75642448159E+03  0.87579041840E+03  0.00000000000E+00 0. -1.
          1    1    5    5  503    0 -0.14626823556E+03 -0.22521551219E+03 -0.81612109622E+00  0.26854625247E+03  0.00000000000E+00 0. -1.
         -2    1    5    5    0  503 -0.14688597483E+03 -0.15800344270E+03 -0.63000356865E+02  0.22474345924E+03  0.00000000000E+00 0.  1.
         -3    1    6    6    0  502 -0.44143121411E+02  0.51969076362E+02 -0.10899455865E+03  0.12856599038E+03  0.00000000000E+00 0.  1.
<mgrwt>
<rscale>  0 0.37032706E+04</rscale>
<asrwt>0</asrwt>
<pdfrwt beam="1">  1        1 0.41401014E+00 0.37032706E+04</pdfrwt>
<pdfrwt beam="2">  1       -1 0.19600774E+00 0.37032706E+04</pdfrwt>
<totfact> 0.12808204E-01</totfact>
</mgrwt>
</event>
<event>
12    1  0.1495204E-007  0.1794919E+04  0.7818608E-02  0.8709006E-01
         -2   -1    0    0    0  501 -0.00000000000E+00  0.00000000000E+00  0.62257011762E+03  0.62257011762E+03  0.00000000000E+00 0.  1.
          2   -1    0    0  501    0  0.00000000000E+00 -0.00000000000E+00 -0.12937239414E+04  0.12937239414E+04  0.00000000000E+00 0. -1.
         23    2    1    2    0    0  0.64208449942E+03  0.18382619154E+03 -0.27236274166E+03  0.72707427339E+03  0.91602199171E+02 0.  0.
        254    2    1    2    0    0 -0.64208449942E+03 -0.18382619154E+03 -0.39879108214E+03  0.11892197857E+04  0.89952476247E+03 0.  0.
        -24    2    4    4    0    0 -0.82887695518E+03  0.32981618633E+01 -0.37214820631E+03  0.91223050517E+03  0.81377652946E+02 0.  0.
         24    2    4    4    0    0  0.18679245576E+03 -0.18712435340E+03 -0.26642875828E+02  0.27698928049E+03  0.78142648449E+02 0.  0.
         13    1    3    3    0    0 -0.11305291986E+01  0.19534650069E+01 -0.79155644545E+01  0.82310559733E+01  0.00000000000E+00 0. -1.
        -13    1    3    3    0    0  0.64321502862E+03  0.18187272653E+03 -0.26444717720E+03  0.71884321742E+03  0.00000000000E+00 0.  1.
          2    1    6    6  502    0  0.14287584010E+02  0.70237115253E+01 -0.85382530835E-01  0.15920894152E+02  0.00000000000E+00 0. -1.
          1    1    5    5  503    0 -0.55220337147E+02  0.18837884898E+02 -0.16720457445E+02  0.60693700161E+02  0.00000000000E+00 0. -1.
         -2    1    5    5    0  503 -0.77365661803E+03 -0.15539723034E+02 -0.35542774887E+03  0.85153680501E+03  0.00000000000E+00 0.  1.
         -1    1    6    6    0  502  0.17250487175E+03 -0.19414806493E+03 -0.26557493297E+02  0.26106838633E+03  0.00000000000E+00 0.  1.
<mgrwt>
<rscale>  0 0.17949193E+04</rscale>
<asrwt>0</asrwt>
<pdfrwt beam="1">  1        2 0.19903445E+00 0.17949193E+04</pdfrwt>
<pdfrwt beam="2">  1       -2 0.95780019E-01 0.17949193E+04</pdfrwt>
<totfact> 0.14398744E+01</totfact>
</mgrwt>
</event>
<event>
12    1  0.1495204E-007  0.1473343E+04  0.7818608E-02  0.8902376E-01
          1   -1    0    0  501    0  0.00000000000E+00  0.00000000000E+00  0.88155191360E+03  0.88155191360E+03  0.00000000000E+00 0. -1.
         -1   -1    0    0    0  501 -0.00000000000E+00 -0.00000000000E+00 -0.61560150872E+03  0.61560150872E+03  0.00000000000E+00 0.  1.
         23    2    1    2    0    0 -0.25696964116E+03 -0.35901363720E+03  0.18171109668E+03  0.48645179156E+03  0.93232154714E+02 0.  0.
        254    2    1    2    0    0  0.25696964116E+03  0.35901363720E+03  0.84239308198E+02  0.10107016308E+04  0.90526092217E+03 0.  0.
        -24    2    4    4    0    0  0.15127952194E+03  0.39380728977E+03  0.44874183540E+03  0.62107077515E+03  0.79937460974E+02 0.  0.
         24    2    4    4    0    0  0.10569011922E+03 -0.34793652566E+02 -0.36450252720E+03  0.38963085562E+03  0.81050057086E+02 0.  0.
         13    1    3    3    0    0 -0.26504693986E+03 -0.34712256066E+03  0.17389000559E+03  0.47008689249E+03  0.00000000000E+00 0.  1.
        -13    1    3    3    0    0  0.80772986942E+01 -0.11891076540E+02  0.78210910904E+01  0.16364899062E+02  0.00000000000E+00 0. -1.
          2    1    6    6  502    0  0.49846858126E+02  0.25033472212E+02 -0.15235985712E+03  0.16224953022E+03  0.00000000000E+00 0. -1.
          1    1    5    5  503    0  0.33607654051E+02  0.19080222102E+03  0.22400369999E+03  0.29616316375E+03  0.00000000000E+00 0. -1.
         -2    1    5    5    0  503  0.11767186789E+03  0.20300506876E+03  0.22473813541E+03  0.32490761140E+03  0.00000000000E+00 0.  1.
         -1    1    6    6    0  502  0.55843261093E+02 -0.59827124779E+02 -0.21214267008E+03  0.22738132540E+03  0.00000000000E+00 0.  1.
<mgrwt>
<rscale>  0 0.14733427E+04</rscale>
<asrwt>0</asrwt>
<pdfrwt beam="1">  1        1 0.13562337E+00 0.14733427E+04</pdfrwt>
<pdfrwt beam="2">  1       -1 0.94707924E-01 0.14733427E+04</pdfrwt>
<totfact> 0.19705144E+01</totfact>
</mgrwt>
</event>
<event>
12    1  0.1495204E-007  0.1614432E+04  0.7818608E-02  0.8811731E-01
          3   -1    0    0  501    0  0.00000000000E+00  0.00000000000E+00  0.65960110903E+03  0.65960110903E+03  0.00000000000E+00 0. -1.
         -3   -1    0    0    0  501 -0.00000000000E+00 -0.00000000000E+00 -0.98786624260E+03  0.98786624260E+03  0.00000000000E+00 0.  1.
         23    2    1    2    0    0 -0.21627191305E+03  0.26127314997E+03 -0.55915246130E+03  0.66041788001E+03  0.91995119411E+02 0.  0.
        254    2    1    2    0    0  0.21627191305E+03 -0.26127314997E+03  0.23088732773E+03  0.98704947161E+03  0.89773075141E+03 0.  0.
        -24    2    4    4    0    0  0.45236382818E+03 -0.24831614991E+03 -0.13959618161E+03  0.54037951584E+03  0.78923911893E+02 0.  0.
         24    2    4    4    0    0 -0.23609191513E+03 -0.12957000062E+02  0.37048350934E+03  0.44666995577E+03  0.79678996336E+02 0.  0.
         13    1    3    3    0    0 -0.84818944824E+02  0.74264583999E+02 -0.26427348649E+03  0.28731508401E+03  0.00000000000E+00 0.  1.
        -13    1    3    3    0    0 -0.13145296823E+03  0.18700856597E+03 -0.29487897481E+03  0.37310279600E+03  0.00000000000E+00 0. -1.
          4    1    6    6  502    0 -0.79886939501E+02  0.33377126043E+02  0.12820236274E+03  0.15469906741E+03  0.00000000000E+00 0. -1.
          1    1    5    5  503    0  0.20188286846E+03 -0.15477604667E+03 -0.76814240938E+02  0.26573058689E+03  0.00000000000E+00 0. -1.
         -2    1    5    5    0  503  0.25048095973E+03 -0.93540103238E+02 -0.62781940668E+02  0.27464892895E+03  0.00000000000E+00 0.  1.
         -3    1    6    6    0  502 -0.15620497563E+03 -0.46334126105E+02  0.24228114660E+03  0.29197088836E+03  0.00000000000E+00 0.  1.
<mgrwt>
<rscale>  0 0.16144320E+04</rscale>
<asrwt>0</asrwt>
<pdfrwt beam="1">  1        3 0.10147709E+00 0.16144320E+04</pdfrwt>
<pdfrwt beam="2">  1       -3 0.15197942E+00 0.16144320E+04</pdfrwt>
<totfact> 0.66073967E-01</totfact>
</mgrwt>
</event>
<event>
12    1  0.1592562E-007  0.2154972E+04  0.7818608E-02  0.8537407E-01
          1   -1    0    0  501    0  0.00000000000E+00  0.00000000000E+00  0.24797924260E+04  0.24797924260E+04  0.00000000000E+00 0. -1.
         -1   -1    0    0    0  501 -0.00000000000E+00 -0.00000000000E+00 -0.46817451017E+03  0.46817451017E+03  0.00000000000E+00 0.  1.
         23    2    1    2    0    0 -0.64452145484E+03 -0.48257959948E+02  0.20579393308E+00  0.65252456763E+03  0.89730332474E+02 0.  0.
        254    2    1    2    0    0  0.64452145484E+03  0.48257959948E+02  0.20114121219E+04  0.22954423685E+04  0.89751891721E+03 0.  0.
        -24    2    4    4    0    0  0.74497026802E+02 -0.32754505751E+03  0.32568699758E+03  0.47486992999E+03  0.81202575760E+02 0.  0.
         24    2    4    4    0    0  0.57002442804E+03  0.37580301746E+03  0.16857251243E+04  0.18205724385E+04  0.81603019479E+02 0.  0.
         11    1    3    3    0    0 -0.61330261706E+03 -0.25710384437E+02  0.37420368275E+01  0.61385269144E+03  0.00000000000E+00 0.  1.
        -11    1    3    3    0    0 -0.31218837782E+02 -0.22547575511E+02 -0.35362428944E+01  0.38671876185E+02  0.00000000000E+00 0. -1.
          2    1    6    6  502    0  0.56134905204E+03  0.36231824723E+03  0.16092241612E+04  0.17424091573E+04  0.00000000000E+00 0. -1.
          3    1    5    5  503    0  0.75717735898E+02 -0.31196871764E+03  0.32813682339E+03  0.45905493264E+03  0.00000000000E+00 0. -1.
         -4    1    5    5    0  503 -0.12207090970E+01 -0.15576339875E+02 -0.24498258126E+01  0.15814997348E+02  0.00000000000E+00 0.  1.
         -1    1    6    6    0  502  0.86753759939E+01  0.13484770230E+02  0.76500963100E+02  0.78163281226E+02  0.00000000000E+00 0.  1.
<mgrwt>
<rscale>  0 0.21549716E+04</rscale>
<asrwt>0</asrwt>
<pdfrwt beam="1">  1        1 0.38150652E+00 0.21549716E+04</pdfrwt>
<pdfrwt beam="2">  1       -1 0.72026849E-01 0.21549716E+04</pdfrwt>
<totfact> 0.24913430E+00</totfact>
</mgrwt>
</event>
<event>
12    1  0.1495204E-007  0.1885855E+04  0.7818608E-02  0.8661929E-01
          1   -1    0    0  501    0  0.00000000000E+00  0.00000000000E+00  0.53069867454E+03  0.53069867454E+03  0.00000000000E+00 0. -1.
         -1   -1    0    0    0  501 -0.00000000000E+00 -0.00000000000E+00 -0.16753619422E+04  0.16753619422E+04  0.00000000000E+00 0.  1.
         23    2    1    2    0    0 -0.90716924634E+02  0.12688538273E+03  0.38445068660E+03  0.42412556182E+03  0.88038065643E+02 0.  0.
        254    2    1    2    0    0  0.90716924634E+02 -0.12688538273E+03 -0.15291139542E+04  0.17819350549E+04  0.90153956879E+03 0.  0.
        -24    2    4    4    0    0  0.29274570964E+03  0.36897424326E+01 -0.84121284406E+02  0.31480805120E+03  0.79461021244E+02 0.  0.
         24    2    4    4    0    0 -0.20202878500E+03 -0.13057512516E+03 -0.14449926698E+04  0.14671270037E+04  0.81193200815E+02 0.  0.
         13    1    3    3    0    0 -0.78506234017E+02  0.13933091114E+03  0.32575127932E+03  0.36289148179E+03  0.00000000000E+00 0. -1.
        -13    1    3    3    0    0 -0.12210690617E+02 -0.12445528409E+02  0.58699407282E+02  0.61234080037E+02  0.00000000000E+00 0.  1.
          4    1    6    6  502    0 -0.37592782554E+02 -0.32573596034E+02 -0.52974737277E+03  0.53207756523E+03  0.00000000000E+00 0. -1.
          1    1    5    5  503    0  0.28511968585E+03 -0.12179633248E+02 -0.75467385208E+02  0.29518960848E+03  0.00000000000E+00 0. -1.
         -2    1    5    5    0  503  0.76260237918E+01  0.15869375681E+02 -0.86538991980E+01  0.19618442719E+02  0.00000000000E+00 0.  1.
         -3    1    6    6    0  502 -0.16443600245E+03 -0.98001529124E+02 -0.91524529706E+03  0.93504943848E+03  0.00000000000E+00 0.  1.
<mgrwt>
<rscale>  0 0.18858551E+04</rscale>
<asrwt>0</asrwt>
<pdfrwt beam="1">  1        1 0.81645949E-01 0.18858551E+04</pdfrwt>
<pdfrwt beam="2">  1       -1 0.25774799E+00 0.18858551E+04</pdfrwt>
<totfact> 0.23718114E+00</totfact>
</mgrwt>
</event>
<event>
12    1  0.1495204E-007  0.1255309E+04  0.7818608E-02  0.9065776E-01
          2   -1    0    0  501    0  0.00000000000E+00  0.00000000000E+00  0.26061923195E+04  0.26061923195E+04  0.00000000000E+00 0. -1.
         -2   -1    0    0    0  501 -0.00000000000E+00 -0.00000000000E+00 -0.15115939948E+03  0.15115939948E+03  0.00000000000E+00 0.  1.
         23    2    1    2    0    0  0.50373981022E+02 -0.29938157682E+03  0.72942653141E+03  0.79525399149E+03  0.90548217792E+02 0.  0.
        254    2    1    2    0    0 -0.50373981022E+02  0.29938157682E+03  0.17256063886E+04  0.19620977275E+04  0.88314393918E+03 0.  0.
        -24    2    4    4    0    0 -0.23993858771E+03  0.17058828517E+03  0.16891200609E+04  0.17164473885E+04  0.79963544509E+02 0.  0.
         24    2    4    4    0    0  0.18956460669E+03  0.12879329165E+03  0.36486327703E+02  0.24565033898E+03  0.80562924790E+02 0.  0.
         11    1    3    3    0    0  0.35582884859E+02 -0.29727526337E+03  0.66782774554E+03  0.73186926539E+03  0.00000000000E+00 0.  1.
        -11    1    3    3    0    0  0.14791096163E+02 -0.21063134563E+01  0.61598785872E+02  0.63384726101E+02  0.00000000000E+00 0. -1.
          4    1    6    6  502    0  0.16479992595E+03  0.13623823936E+03  0.19496820819E+02  0.21470910432E+03  0.00000000000E+00 0. -1.
          1    1    5    5  503    0 -0.10158588733E+03  0.80859358148E+02  0.97069818423E+03  0.97934309267E+03  0.00000000000E+00 0. -1.
         -2    1    5    5    0  503 -0.13835270038E+03  0.89728927023E+02  0.71842187665E+03  0.73710429580E+03  0.00000000000E+00 0.  1.
         -3    1    6    6    0  502  0.24764680736E+02 -0.74449477048E+01  0.16989506884E+02  0.30941234662E+02  0.00000000000E+00 0.  1.
<mgrwt>
<rscale>  0 0.12553095E+04</rscale>
<asrwt>0</asrwt>
<pdfrwt beam="1">  1        2 0.40095263E+00 0.12553095E+04</pdfrwt>
<pdfrwt beam="2">  1       -2 0.23255294E-01 0.12553095E+04</pdfrwt>
<totfact> 0.48832650E+01</totfact>
</mgrwt>
</event>
<event>
12    1  0.1495204E-007  0.2079192E+04  0.7818608E-02  0.8570465E-01
          1   -1    0    0  501    0  0.00000000000E+00  0.00000000000E+00  0.57524276841E+03  0.57524276841E+03  0.00000000000E+00 0. -1.
         -1   -1    0    0    0  501 -0.00000000000E+00 -0.00000000000E+00 -0.18787884518E+04  0.18787884518E+04  0.00000000000E+00 0.  1.
         23    2    1    2    0    0 -0.78814904513E+03 -0.28525137500E+03 -0.49335855074E+03  0.97962964338E+03  0.11715081867E+03 0.  0.
        254    2    1    2    0    0  0.78814904513E+03  0.28525137500E+03 -0.81018713266E+03  0.14744015768E+04  0.90272341034E+03 0.  0.
        -24    2    4    4    0    0  0.13079222929E+03 -0.29349526863E+03 -0.10784366348E+03  0.34862394177E+03  0.81623018007E+02 0.  0.
         24    2    4    4    0    0  0.65735681585E+03  0.57874664363E+03 -0.70234346918E+03  0.11257776351E+04  0.83804976483E+02 0.  0.
         11    1    3    3    0    0 -0.67096719061E+03 -0.20400405506E+03 -0.38113415275E+03  0.79817157789E+03  0.00000000000E+00 0. -1.
        -11    1    3    3    0    0 -0.11718185452E+03 -0.81247319941E+02 -0.11222439799E+03  0.18145806549E+03  0.00000000000E+00 0.  1.
          2    1    6    6  502    0  0.29132721951E+03  0.30173322550E+03 -0.36670220368E+03  0.55712206416E+03  0.00000000000E+00 0. -1.
          3    1    5    5  503    0  0.48204825834E+02 -0.35353403514E+02 -0.10825002107E+02  0.60751535325E+02  0.00000000000E+00 0. -1.
         -4    1    5    5    0  503  0.82587403452E+02 -0.25814186512E+03 -0.97018661378E+02  0.28787240644E+03  0.00000000000E+00 0.  1.
         -1    1    6    6    0  502  0.36602959634E+03  0.27701341813E+03 -0.33564126550E+03  0.56865557091E+03  0.00000000000E+00 0.  1.
<mgrwt>
<rscale>  0 0.20791916E+04</rscale>
<asrwt>0</asrwt>
<pdfrwt beam="1">  1        1 0.88498886E-01 0.20791916E+04</pdfrwt>
<pdfrwt beam="2">  1       -1 0.28904438E+00 0.20791916E+04</pdfrwt>
<totfact> 0.13044503E+00</totfact>
</mgrwt>
</event>
<event>
12    1  0.1495204E-007  0.1544562E+04  0.7818608E-02  0.8855349E-01
          1   -1    0    0  501    0  0.00000000000E+00  0.00000000000E+00  0.20790479406E+04  0.20790479406E+04  0.00000000000E+00 0. -1.
         -1   -1    0    0    0  501 -0.00000000000E+00 -0.00000000000E+00 -0.28687061459E+03  0.28687061459E+03  0.00000000000E+00 0.  1.
         23    2    1    2    0    0  0.37864927544E+03  0.13060361046E+03  0.10757235867E+04  0.11513941254E+04  0.89970107559E+02 0.  0.
        254    2    1    2    0    0 -0.37864927544E+03 -0.13060361046E+03  0.71645373931E+03  0.12145244298E+04  0.89517096303E+03 0.  0.
        -24    2    4    4    0    0  0.80970738637E+02 -0.24953272062E+03 -0.78567133458E+02  0.28505608020E+03  0.79128599276E+02 0.  0.
         24    2    4    4    0    0 -0.45962001407E+03  0.11892911016E+03  0.79502087277E+03  0.92946834956E+03  0.80365005524E+02 0.  0.
         11    1    3    3    0    0  0.22017114900E+03  0.54837559610E+02  0.71566354046E+03  0.75077080120E+03  0.00000000000E+00 0. -1.
        -11    1    3    3    0    0  0.15847812644E+03  0.75766050849E+02  0.36006004620E+03  0.40062332420E+03  0.00000000000E+00 0.  1.
          2    1    6    6  502    0 -0.28251674985E+02  0.16982166822E+02  0.98505106614E+02  0.10387399655E+03  0.00000000000E+00 0. -1.
          1    1    5    5  503    0  0.23161801203E+02 -0.46911676361E+02  0.15121736141E+02  0.54459538355E+02  0.00000000000E+00 0. -1.
         -2    1    5    5    0  503  0.57808937434E+02 -0.20262104426E+03 -0.93688869598E+02  0.23059654184E+03  0.00000000000E+00 0.  1.
         -1    1    6    6    0  502 -0.43136833909E+03  0.10194694334E+03  0.69651576615E+03  0.82559435301E+03  0.00000000000E+00 0.  1.
<mgrwt>
<rscale>  0 0.15445618E+04</rscale>
<asrwt>0</asrwt>
<pdfrwt beam="1">  1        1 0.31985352E+00 0.15445618E+04</pdfrwt>
<pdfrwt beam="2">  1       -1 0.44133942E-01 0.15445618E+04</pdfrwt>
<totfact> 0.12899785E+01</totfact>
</mgrwt>
</event>
<event>
12    1  0.1495204E-007  0.2711366E+04  0.7818608E-02  0.8331327E-01
         -1   -1    0    0    0  501 -0.00000000000E+00  0.00000000000E+00  0.15013906804E+04  0.15013906804E+04  0.00000000000E+00 0.  1.
          1   -1    0    0  501    0  0.00000000000E+00 -0.00000000000E+00 -0.12241160195E+04  0.12241160195E+04  0.00000000000E+00 0. -1.
         23    2    1    2    0    0  0.39157005780E+03  0.53824542073E+03 -0.88572526957E+03  0.11117202481E+04  0.91528213356E+02 0.  0.
        254    2    1    2    0    0 -0.39157005780E+03 -0.53824542073E+03  0.11629999305E+04  0.16137864518E+04  0.89927895037E+03 0.  0.
        -24    2    4    4    0    0 -0.53845593721E+03 -0.12733418528E+03  0.98902016133E+03  0.11360623293E+04  0.79548385026E+02 0.  0.
         24    2    4    4    0    0  0.14688587941E+03 -0.41091123545E+03  0.17397976913E+03  0.47772412244E+03  0.86763310835E+02 0.  0.
         13    1    3    3    0    0  0.13407709086E+03  0.12303394335E+03 -0.21009286495E+03  0.27794429192E+03  0.00000000000E+00 0.  1.
        -13    1    3    3    0    0  0.25749296694E+03  0.41521147738E+03 -0.67563240462E+03  0.83377595620E+03  0.00000000000E+00 0. -1.
          2    1    6    6  502    0  0.13206584104E+03 -0.31398739661E+03  0.10034703963E+03  0.35510421000E+03  0.00000000000E+00 0. -1.
          1    1    5    5  503    0 -0.38511112267E+03 -0.82706164690E+02  0.77118040459E+03  0.86595040442E+03  0.00000000000E+00 0. -1.
         -2    1    5    5    0  503 -0.15334481454E+03 -0.44628020587E+02  0.21783975673E+03  0.27011192491E+03  0.00000000000E+00 0.  1.
         -1    1    6    6    0  502  0.14820038368E+02 -0.96923838841E+02  0.73632729500E+02  0.12261991244E+03  0.00000000000E+00 0.  1.
<mgrwt>
<rscale>  0 0.27113660E+04</rscale>
<asrwt>0</asrwt>
<pdfrwt beam="1">  1        1 0.18832554E+00 0.27113660E+04</pdfrwt>
<pdfrwt beam="2">  1       -1 0.23098318E+00 0.27113660E+04</pdfrwt>
<totfact> 0.83228994E-01</totfact>
</mgrwt>
</event>
<event>
12    1  0.1495204E-007  0.2050817E+04  0.7818608E-02  0.8583224E-01
          1   -1    0    0  501    0  0.00000000000E+00  0.00000000000E+00  0.25825969081E+04  0.25825969081E+04  0.00000000000E+00 0. -1.
         -1   -1    0    0    0  501 -0.00000000000E+00 -0.00000000000E+00 -0.40713374283E+03  0.40713374283E+03  0.00000000000E+00 0.  1.
         23    2    1    2    0    0  0.54386099563E+03 -0.48835134344E+03  0.32021331217E+03  0.80338594960E+03  0.92847194474E+02 0.  0.
        254    2    1    2    0    0 -0.54386099563E+03  0.48835134344E+03  0.18552498531E+04  0.21863447013E+04  0.89659317328E+03 0.  0.
        -24    2    4    4    0    0 -0.43205876296E+02  0.62411033111E+03  0.10694152191E+04  0.12414060827E+04  0.77844063032E+02 0.  0.
         24    2    4    4    0    0 -0.50065511934E+03 -0.13575898767E+03  0.78583463396E+03  0.94493861861E+03  0.79289783364E+02 0.  0.
         11    1    3    3    0    0  0.52619039861E+03 -0.46909904505E+03  0.32593226828E+03  0.77663510941E+03  0.00000000000E+00 0.  1.
        -11    1    3    3    0    0  0.17670597020E+02 -0.19252298386E+02 -0.57189561081E+01  0.26750840195E+02  0.00000000000E+00 0. -1.
          4    1    6    6  502    0 -0.30334590381E+03 -0.10287072337E+03  0.54174824550E+03  0.62935862955E+03  0.00000000000E+00 0. -1.
          3    1    5    5  503    0 -0.39674169958E+02  0.58895622458E+03  0.10381113428E+04  0.11942020910E+04  0.00000000000E+00 0. -1.
         -4    1    5    5    0  503 -0.35317063376E+01  0.35154106523E+02  0.31303876341E+02  0.47203991664E+02  0.00000000000E+00 0.  1.
         -3    1    6    6    0  502 -0.19730921553E+03 -0.32888264302E+02  0.24408638846E+03  0.31557998906E+03  0.00000000000E+00 0.  1.
<mgrwt>
<rscale>  0 0.20508168E+04</rscale>
<asrwt>0</asrwt>
<pdfrwt beam="1">  1        1 0.39732259E+00 0.20508168E+04</pdfrwt>
<pdfrwt beam="2">  1       -1 0.62635962E-01 0.20508168E+04</pdfrwt>
<totfact> 0.28348763E+00</totfact>
</mgrwt>
</event>
<event>
12    1  0.1559113E-007  0.1619607E+04  0.7818608E-02  0.8808592E-01
         -1   -1    0    0    0  501 -0.00000000000E+00  0.00000000000E+00  0.57629314506E+03  0.57629314506E+03  0.00000000000E+00 0.  1.
          1   -1    0    0  501    0  0.00000000000E+00 -0.00000000000E+00 -0.11379313460E+04  0.11379313460E+04  0.00000000000E+00 0. -1.
         23    2    1    2    0    0 -0.10335687596E+03  0.44317956583E+03 -0.55275652608E+03  0.72185427105E+03  0.91886017042E+02 0.  0.
        254    2    1    2    0    0  0.10335687596E+03 -0.44317956583E+03 -0.88816748352E+01  0.99237021999E+03  0.88183274944E+03 0.  0.
        -24    2    4    4    0    0  0.47388942136E+03 -0.15270849542E+03  0.62143300464E+02  0.50956709156E+03  0.88914356305E+02 0.  0.
         24    2    4    4    0    0 -0.37053254540E+03 -0.29047107041E+03 -0.71024975299E+02  0.48280312842E+03  0.79915603946E+02 0.  0.
         13    1    3    3    0    0 -0.57879354174E+02  0.38985212708E+03 -0.46566022168E+03  0.61006076966E+03  0.00000000000E+00 0. -1.
        -13    1    3    3    0    0 -0.45477521789E+02  0.53327438758E+02 -0.87096304406E+02  0.11179350139E+03  0.00000000000E+00 0.  1.
          2    1    6    6  502    0 -0.54615123090E+02 -0.11320516253E+02 -0.38834276359E+01  0.55911061236E+02  0.00000000000E+00 0. -1.
          3    1    5    5  503    0  0.26133633617E+02 -0.22564392672E+02 -0.13713912723E+02  0.37150908803E+02  0.00000000000E+00 0. -1.
         -4    1    5    5    0  503  0.44775578774E+03 -0.13014410275E+03  0.75857213188E+02  0.47241618276E+03  0.00000000000E+00 0.  1.
         -1    1    6    6    0  502 -0.31591742231E+03 -0.27915055416E+03 -0.67141547663E+02  0.42689206719E+03  0.00000000000E+00 0.  1.
<mgrwt>
<rscale>  0 0.16196074E+04</rscale>
<asrwt>0</asrwt>
<pdfrwt beam="1">  1        1 0.17506636E+00 0.16196074E+04</pdfrwt>
<pdfrwt beam="2">  1       -1 0.88660485E-01 0.16196074E+04</pdfrwt>
<totfact> 0.14206054E+01</totfact>
</mgrwt>
</event>
<event>
12    1  0.1495204E-007  0.2791703E+04  0.7818608E-02  0.8305849E-01
          2   -1    0    0  501    0  0.00000000000E+00  0.00000000000E+00  0.11664072839E+04  0.11664072839E+04  0.00000000000E+00 0. -1.
         -2   -1    0    0    0  501 -0.00000000000E+00 -0.00000000000E+00 -0.16704302598E+04  0.16704302598E+04  0.00000000000E+00 0.  1.
         23    2    1    2    0    0 -0.84970865270E+03 -0.26986683068E+03  0.63842021561E+03  0.11004042975E+04  0.92067070583E+02 0.  0.
        254    2    1    2    0    0  0.84970865270E+03  0.26986683068E+03 -0.11424431915E+04  0.17364332463E+04  0.95665619325E+03 0.  0.
        -24    2    4    4    0    0 -0.51317904398E+02 -0.24485939828E+03 -0.28302510576E+03  0.38652331548E+03  0.81898783171E+02 0.  0.
         24    2    4    4    0    0  0.90102655710E+03  0.51472622896E+03 -0.85941808577E+03  0.13499099308E+04  0.82857876520E+02 0.  0.
         13    1    3    3    0    0 -0.82988827381E+03 -0.26878993944E+03  0.63765507213E+03  0.10805399435E+04  0.00000000000E+00 0. -1.
        -13    1    3    3    0    0 -0.19820378888E+02 -0.10768912392E+01  0.76514347679E+00  0.19864353968E+02  0.00000000000E+00 0.  1.
          4    1    6    6  502    0  0.89384252339E+03  0.50446486679E+03 -0.85707282236E+03  0.13371660635E+04  0.00000000000E+00 0. -1.
          1    1    5    5  503    0 -0.48670050432E+02 -0.11699364577E+03 -0.18999693567E+03  0.22837496037E+03  0.00000000000E+00 0. -1.
         -2    1    5    5    0  503 -0.26478539661E+01 -0.12786575251E+03 -0.93028170094E+02  0.15814835512E+03  0.00000000000E+00 0.  1.
         -3    1    6    6    0  502  0.71840337128E+01  0.10261362163E+02 -0.23452634087E+01  0.12743867320E+02  0.00000000000E+00 0.  1.
<mgrwt>
<rscale>  0 0.27917034E+04</rscale>
<asrwt>0</asrwt>
<pdfrwt beam="1">  1        2 0.17944727E+00 0.27917034E+04</pdfrwt>
<pdfrwt beam="2">  1       -2 0.25698927E+00 0.27917034E+04</pdfrwt>
<totfact> 0.10057854E+00</totfact>
</mgrwt>
</event>
<event>
12    1  0.1495204E-007  0.9766863E+03  0.7818608E-02  0.9334491E-01
          2   -1    0    0  501    0  0.00000000000E+00  0.00000000000E+00  0.22555711653E+04  0.22555711653E+04  0.00000000000E+00 0. -1.
         -2   -1    0    0    0  501 -0.00000000000E+00 -0.00000000000E+00 -0.10572889016E+03  0.10572889016E+03  0.00000000000E+00 0.  1.
         23    2    1    2    0    0  0.17526748117E+02 -0.20174019474E+02  0.27439274975E+03  0.29060855831E+03  0.91911778812E+02 0.  0.
        254    2    1    2    0    0 -0.17526748117E+02  0.20174019474E+02  0.18754495254E+04  0.20706914971E+04  0.87734723806E+03 0.  0.
        -24    2    4    4    0    0  0.12970960663E+03 -0.36448905154E+03  0.53233165595E+03  0.66349642810E+03  0.84697505469E+02 0.  0.
         24    2    4    4    0    0 -0.14723635475E+03  0.38466307101E+03  0.13431178694E+04  0.14071950690E+04  0.81167288956E+02 0.  0.
         11    1    3    3    0    0  0.25956984103E+02 -0.44169559989E+02  0.25059282248E+03  0.25577622590E+03  0.00000000000E+00 0. -1.
        -11    1    3    3    0    0 -0.84302359853E+01  0.23995540515E+02  0.23799927272E+02  0.34832332416E+02  0.00000000000E+00 0.  1.
          4    1    6    6  502    0 -0.11602946130E+03  0.35996483947E+03  0.11720786604E+04  0.12315867439E+04  0.00000000000E+00 0. -1.
          1    1    5    5  503    0  0.25901089901E+02 -0.19852327061E+03  0.27585062577E+03  0.34084589358E+03  0.00000000000E+00 0. -1.
         -2    1    5    5    0  503  0.10380851673E+03 -0.16596578092E+03  0.25648103018E+03  0.32265053452E+03  0.00000000000E+00 0.  1.
         -3    1    6    6    0  502 -0.31206893449E+02  0.24698231541E+02  0.17103920899E+03  0.17560832512E+03  0.00000000000E+00 0.  1.
<mgrwt>
<rscale>  0 0.97668631E+03</rscale>
<asrwt>0</asrwt>
<pdfrwt beam="1">  1        2 0.34701091E+00 0.97668631E+03</pdfrwt>
<pdfrwt beam="2">  1       -2 0.16265985E-01 0.97668631E+03</pdfrwt>
<totfact> 0.14813723E+02</totfact>
</mgrwt>
</event>
<event>
12    1  0.1495204E-007  0.2334778E+04  0.7818608E-02  0.8464334E-01
         -1   -1    0    0    0  501 -0.00000000000E+00  0.00000000000E+00  0.17300155793E+04  0.17300155793E+04  0.00000000000E+00 0.  1.
          1   -1    0    0  501    0  0.00000000000E+00 -0.00000000000E+00 -0.78773675537E+03  0.78773675537E+03  0.00000000000E+00 0. -1.
         23    2    1    2    0    0  0.44523231417E+02 -0.48949810111E+03  0.13302749747E+04  0.14211150324E+04  0.91354901458E+02 0.  0.
        254    2    1    2    0    0 -0.44523231417E+02  0.48949810111E+03 -0.38799615075E+03  0.10966373022E+04  0.90026754387E+03 0.  0.
        -24    2    4    4    0    0  0.32444657354E+03 -0.97324677417E+01 -0.32596143970E+03  0.46696847616E+03  0.80301914957E+02 0.  0.
         24    2    4    4    0    0 -0.36896980496E+03  0.49923056885E+03 -0.62034711050E+02  0.62966882608E+03  0.85232900397E+02 0.  0.
         11    1    3    3    0    0  0.14850528593E+02 -0.99583592457E+02  0.18078132824E+03  0.20692829368E+03  0.00000000000E+00 0. -1.
        -11    1    3    3    0    0  0.29672702825E+02 -0.38991450865E+03  0.11494936465E+04  0.12141867388E+04  0.00000000000E+00 0.  1.
          2    1    6    6  502    0 -0.21289305188E+02  0.72735206431E+02 -0.16276873620E+02  0.77515039732E+02  0.00000000000E+00 0. -1.
          1    1    5    5  503    0  0.20854451200E+02  0.15649448029E+02 -0.47719065793E+02  0.54377592799E+02  0.00000000000E+00 0. -1.
         -2    1    5    5    0  503  0.30359212234E+03 -0.25381915770E+02 -0.27824237390E+03  0.41259088336E+03  0.00000000000E+00 0.  1.
         -1    1    6    6    0  502 -0.34768049977E+03  0.42649536242E+03 -0.45757837430E+02  0.55215378634E+03  0.00000000000E+00 0.  1.
<mgrwt>
<rscale>  0 0.23347778E+04</rscale>
<asrwt>0</asrwt>
<pdfrwt beam="1">  1        1 0.12119027E+00 0.23347778E+04</pdfrwt>
<pdfrwt beam="2">  1       -1 0.26615624E+00 0.23347778E+04</pdfrwt>
<totfact> 0.11177107E+00</totfact>
</mgrwt>
</event>
<event>
12    1  0.1495204E-007  0.1043042E+04  0.7818608E-02  0.9262557E-01
         -1   -1    0    0    0  501 -0.00000000000E+00  0.00000000000E+00  0.19406056585E+03  0.19406056585E+03  0.00000000000E+00 0.  1.
          1   -1    0    0  501    0  0.00000000000E+00 -0.00000000000E+00 -0.14015426997E+04  0.14015426997E+04  0.00000000000E+00 0. -1.
         23    2    1    2    0    0  0.19440984416E+02 -0.11091055931E+02 -0.90763389384E+01  0.94904872060E+02  0.91780125384E+02 0.  0.
        254    2    1    2    0    0 -0.19440984416E+02  0.11091055931E+02 -0.11984057949E+04  0.15006983935E+04  0.90300512487E+03 0.  0.
        -24    2    4    4    0    0  0.24212147033E+02 -0.15736161939E+03  0.89203120211E+02  0.19898126423E+03  0.79293376392E+02 0.  0.
         24    2    4    4    0    0 -0.43653131449E+02  0.16845267532E+03 -0.12876089151E+04  0.13017171292E+04  0.79049772816E+02 0.  0.
         13    1    3    3    0    0 -0.13253813418E+02 -0.41232035209E+02 -0.22026584790E+02  0.48589245056E+02  0.00000000000E+00 0. -1.
        -13    1    3    3    0    0  0.32694797833E+02  0.30140979278E+02  0.12950245851E+02  0.46315627004E+02  0.00000000000E+00 0.  1.
          4    1    6    6  502    0  0.11748908661E+02  0.18549872605E+01 -0.16859175114E+03  0.16901081736E+03  0.00000000000E+00 0. -1.
          1    1    5    5  503    0  0.33373644223E+02 -0.79076743800E+02  0.86243027470E+01  0.86263028793E+02  0.00000000000E+00 0. -1.
         -2    1    5    5    0  503 -0.91614971897E+01 -0.78284875591E+02  0.80578817464E+02  0.11271823544E+03  0.00000000000E+00 0.  1.
         -3    1    6    6    0  502 -0.55402040110E+02  0.16659768806E+03 -0.11190171640E+04  0.11327063119E+04  0.00000000000E+00 0.  1.
<mgrwt>
<rscale>  0 0.10430420E+04</rscale>
<asrwt>0</asrwt>
<pdfrwt beam="1">  1        1 0.21562195E+00 0.10430420E+04</pdfrwt>
<pdfrwt beam="2">  1       -1 0.29855472E-01 0.10430420E+04</pdfrwt>
<totfact> 0.78826067E+01</totfact>
</mgrwt>
</event>
<event>
12    1  0.1495204E-007  0.1895731E+04  0.7818608E-02  0.8656984E-01
          1   -1    0    0  501    0  0.00000000000E+00  0.00000000000E+00  0.15577808139E+04  0.15577808139E+04  0.00000000000E+00 0. -1.
         -1   -1    0    0    0  501 -0.00000000000E+00 -0.00000000000E+00 -0.57674926947E+03  0.57674926947E+03  0.00000000000E+00 0.  1.
         23    2    1    2    0    0 -0.69340260313E+03 -0.19899507009E+03  0.46191757130E+03  0.86411074793E+03  0.11363685175E+03 0.  0.
        254    2    1    2    0    0  0.69340260313E+03  0.19899507009E+03  0.51911397309E+03  0.12704193354E+04  0.90778839096E+03 0.  0.
        -24    2    4    4    0    0  0.89828244530E+03  0.85697922791E+02  0.35353365354E+03  0.97241537803E+03  0.79687751537E+02 0.  0.
         24    2    4    4    0    0 -0.20487984217E+03  0.11329714730E+03  0.16558031955E+03  0.29800395737E+03  0.81101930145E+02 0.  0.
         13    1    3    3    0    0 -0.68854690266E+03 -0.18940803961E+03  0.43762871971E+03  0.83755067844E+03  0.00000000000E+00 0. -1.
        -13    1    3    3    0    0 -0.48557004688E+01 -0.95870304744E+01  0.24288851586E+02  0.26560069498E+02  0.00000000000E+00 0.  1.
          2    1    6    6  502    0 -0.12270905297E+03  0.94655259623E+02  0.68445186086E+02  0.16941627240E+03  0.00000000000E+00 0. -1.
          3    1    5    5  503    0  0.84305741801E+03  0.62283923236E+02  0.32160815913E+03  0.90446498283E+03  0.00000000000E+00 0. -1.
         -4    1    5    5    0  503  0.55225027292E+02  0.23413999555E+02  0.31925494408E+02  0.67950395199E+02  0.00000000000E+00 0.  1.
         -1    1    6    6    0  502 -0.82170789202E+02  0.18641887674E+02  0.97135133459E+02  0.12858768497E+03  0.00000000000E+00 0.  1.
<mgrwt>
<rscale>  0 0.18957309E+04</rscale>
<asrwt>0</asrwt>
<pdfrwt beam="1">  1        1 0.23965858E+00 0.18957309E+04</pdfrwt>
<pdfrwt beam="2">  1       -1 0.88730658E-01 0.18957309E+04</pdfrwt>
<totfact> 0.69597426E+00</totfact>
</mgrwt>
</event>
<event>
12    1  0.1495204E-007  0.1637914E+04  0.7818608E-02  0.8797589E-01
          1   -1    0    0  501    0  0.00000000000E+00  0.00000000000E+00  0.12212469691E+04  0.12212469691E+04  0.00000000000E+00 0. -1.
         -1   -1    0    0    0  501 -0.00000000000E+00 -0.00000000000E+00 -0.54918482585E+03  0.54918482585E+03  0.00000000000E+00 0.  1.
         23    2    1    2    0    0 -0.26378171486E+03 -0.38213762300E+03  0.61142674077E+03  0.77301139619E+03  0.89966678831E+02 0.  0.
        254    2    1    2    0    0  0.26378171486E+03  0.38213762300E+03  0.60635402506E+02  0.99742039879E+03  0.88065932339E+03 0.  0.
        -24    2    4    4    0    0  0.33906285079E+03  0.48032616941E+03 -0.25755850670E+03  0.64658299538E+03  0.77822488645E+02 0.  0.
         24    2    4    4    0    0 -0.75281135926E+02 -0.98188546405E+02  0.31819390920E+03  0.35083740341E+03  0.80816333142E+02 0.  0.
         11    1    3    3    0    0 -0.97051218180E+02 -0.14811211496E+03  0.16457747350E+03  0.24174755910E+03  0.00000000000E+00 0.  1.
        -11    1    3    3    0    0 -0.16673049669E+03 -0.23402550805E+03  0.44684926726E+03  0.53126383709E+03  0.00000000000E+00 0. -1.
          2    1    6    6  502    0  0.11633189601E+02 -0.36782703670E+02  0.57324066431E+02  0.69096649570E+02  0.00000000000E+00 0. -1.
          3    1    5    5  503    0 -0.91795202524E+00  0.91667485655E+01  0.31785664539E+01  0.97455220428E+01  0.00000000000E+00 0. -1.
         -4    1    5    5    0  503  0.33998080282E+03  0.47115942084E+03 -0.26073707315E+03  0.63683747334E+03  0.00000000000E+00 0.  1.
         -1    1    6    6    0  502 -0.86914325526E+02 -0.61405842735E+02  0.26086984277E+03  0.28174075384E+03  0.00000000000E+00 0.  1.
<mgrwt>
<rscale>  0 0.16379137E+04</rscale>
<asrwt>0</asrwt>
<pdfrwt beam="1">  1        1 0.18788415E+00 0.16379137E+04</pdfrwt>
<pdfrwt beam="2">  1       -1 0.84489973E-01 0.16379137E+04</pdfrwt>
<totfact> 0.13681377E+01</totfact>
</mgrwt>
</event>
<event>
12    1  0.1495204E-007  0.2560242E+04  0.7818608E-02  0.8381833E-01
          1   -1    0    0  501    0  0.00000000000E+00  0.00000000000E+00  0.98190997822E+03  0.98190997822E+03  0.00000000000E+00 0. -1.
         -1   -1    0    0    0  501 -0.00000000000E+00 -0.00000000000E+00 -0.16689003566E+04  0.16689003566E+04  0.00000000000E+00 0.  1.
         23    2    1    2    0    0  0.53031032627E+03 -0.20173897833E+03 -0.13018664569E+04  0.14233970661E+04  0.96308248727E+02 0.  0.
        254    2    1    2    0    0 -0.53031032627E+03  0.20173897833E+03  0.61487607850E+03  0.12274132687E+04  0.89807743695E+03 0.  0.
        -24    2    4    4    0    0  0.80398198670E+02 -0.26440660414E+03  0.13232183975E+03  0.31670873016E+03  0.80128820192E+02 0.  0.
         24    2    4    4    0    0 -0.61070852494E+03  0.46614558247E+03  0.48255423875E+03  0.91070453854E+03  0.79167901908E+02 0.  0.
         13    1    3    3    0    0  0.20230494794E+03 -0.12740589000E+03 -0.52795234304E+03  0.57956296405E+03  0.00000000000E+00 0. -1.
        -13    1    3    3    0    0  0.32800537832E+03 -0.74333088329E+02 -0.77391411386E+03  0.84383410209E+03  0.00000000000E+00 0.  1.
          2    1    6    6  502    0 -0.92650702141E+02  0.10500879975E+03  0.10390240421E+03  0.17437519959E+03  0.00000000000E+00 0. -1.
          1    1    5    5  503    0 -0.48380208757E+01 -0.11890293629E+03  0.50457919127E+02  0.12925678438E+03  0.00000000000E+00 0. -1.
         -2    1    5    5    0  503  0.85236219546E+02 -0.14550366785E+03  0.81863920618E+02  0.18745194578E+03  0.00000000000E+00 0.  1.
         -1    1    6    6    0  502 -0.51805782279E+03  0.36113678272E+03  0.37865183455E+03  0.73632933895E+03  0.00000000000E+00 0.  1.
<mgrwt>
<rscale>  0 0.25602421E+04</rscale>
<asrwt>0</asrwt>
<pdfrwt beam="1">  1        1 0.15106307E+00 0.25602421E+04</pdfrwt>
<pdfrwt beam="2">  1       -1 0.25675390E+00 0.25602421E+04</pdfrwt>
<totfact> 0.87035129E-01</totfact>
</mgrwt>
</event>
<event>
12    1  0.1801232E-007  0.1513050E+04  0.7818608E-02  0.8875821E-01
         -2   -1    0    0    0  501 -0.00000000000E+00  0.00000000000E+00  0.31785658984E+03  0.31785658984E+03  0.00000000000E+00 0.  1.
          2   -1    0    0  501    0  0.00000000000E+00 -0.00000000000E+00 -0.18005932726E+04  0.18005932726E+04  0.00000000000E+00 0. -1.
         23    2    1    2    0    0  0.26497630783E+02  0.40254086484E+03 -0.12517923529E+03  0.43229531252E+03  0.92022410196E+02 0.  0.
        254    2    1    2    0    0 -0.26497630783E+02 -0.40254086484E+03 -0.13575574475E+04  0.16861545499E+04  0.91510309297E+03 0.  0.
        -24    2    4    4    0    0  0.38626634327E+03 -0.35060854298E+03 -0.10039836222E+04  0.11342315430E+04  0.79812536574E+02 0.  0.
         24    2    4    4    0    0 -0.41276397406E+03 -0.51932321853E+02 -0.35357382526E+03  0.55192300698E+03  0.80830015411E+02 0.  0.
         13    1    3    3    0    0  0.63407348942E+01  0.13160006614E+03 -0.87123551844E+02  0.15795346028E+03  0.00000000000E+00 0.  1.
        -13    1    3    3    0    0  0.20156895889E+02  0.27094079869E+03 -0.38055683444E+02  0.27434185224E+03  0.00000000000E+00 0. -1.
          2    1    6    6  502    0 -0.28283551958E+02  0.23755421416E+01 -0.25795452734E+01  0.28500115187E+02  0.00000000000E+00 0. -1.
          1    1    5    5  503    0  0.26867054702E+02 -0.54664385871E+02 -0.92904767051E+02  0.11109153636E+03  0.00000000000E+00 0. -1.
         -4    1    5    5    0  503  0.35939928857E+03 -0.29594415711E+03 -0.91107885518E+03  0.10231400066E+04  0.00000000000E+00 0.  1.
         -1    1    6    6    0  502 -0.38448042210E+03 -0.54307863994E+02 -0.35099427999E+03  0.52342289179E+03  0.00000000000E+00 0.  1.
<mgrwt>
<rscale>  0 0.15130505E+04</rscale>
<asrwt>0</asrwt>
<pdfrwt beam="1">  1        2 0.27701435E+00 0.15130505E+04</pdfrwt>
<pdfrwt beam="2">  1       -2 0.48901015E-01 0.15130505E+04</pdfrwt>
<totfact> 0.32953732E+01</totfact>
</mgrwt>
</event>
<event>
12    1  0.1495204E-007  0.1698054E+04  0.7818608E-02  0.8762475E-01
          2   -1    0    0  501    0  0.00000000000E+00  0.00000000000E+00  0.11817711342E+04  0.11817711342E+04  0.00000000000E+00 0. -1.
         -2   -1    0    0    0  501 -0.00000000000E+00 -0.00000000000E+00 -0.60997164167E+03  0.60997164167E+03  0.00000000000E+00 0.  1.
         23    2    1    2    0    0  0.29213082006E+03  0.34246581094E+03  0.63261115083E+03  0.78188526167E+03  0.92327929503E+02 0.  0.
        254    2    1    2    0    0 -0.29213082006E+03 -0.34246581094E+03 -0.60811658317E+02  0.10098575142E+04  0.90193730018E+03 0.  0.
        -24    2    4    4    0    0  0.13084035769E+03  0.23907390621E+03 -0.15473601230E+02  0.28485994380E+03  0.81426183860E+02 0.  0.
         24    2    4    4    0    0 -0.42297117775E+03 -0.58153971715E+03 -0.45338057087E+02  0.72499757038E+03  0.80454196952E+02 0.  0.
         11    1    3    3    0    0  0.13526546940E+03  0.17529446597E+03  0.23468234627E+03  0.32264640191E+03  0.00000000000E+00 0.  1.
        -11    1    3    3    0    0  0.15686535065E+03  0.16717134497E+03  0.39792880456E+03  0.45923885976E+03  0.00000000000E+00 0. -1.
          4    1    6    6  502    0 -0.20327991214E+03 -0.34291065795E+03 -0.10498921506E+02  0.39877395774E+03  0.00000000000E+00 0. -1.
          3    1    5    5  503    0  0.65921447566E+02  0.17989662534E+03  0.14251542199E+02  0.19212376092E+03  0.00000000000E+00 0. -1.
         -4    1    5    5    0  503  0.64918910122E+02  0.59177280871E+02 -0.29725143429E+02  0.92736182877E+02  0.00000000000E+00 0.  1.
         -3    1    6    6    0  502 -0.21969126560E+03 -0.23862905920E+03 -0.34839135580E+02  0.32622361264E+03  0.00000000000E+00 0.  1.
<mgrwt>
<rscale>  0 0.16980540E+04</rscale>
<asrwt>0</asrwt>
<pdfrwt beam="1">  1        2 0.18181094E+00 0.16980540E+04</pdfrwt>
<pdfrwt beam="2">  1       -2 0.93841791E-01 0.16980540E+04</pdfrwt>
<totfact> 0.17732653E+01</totfact>
</mgrwt>
</event>
<event>
12    1  0.1495204E-007  0.1732452E+04  0.7818608E-02  0.8743069E-01
         -2   -1    0    0    0  501 -0.00000000000E+00  0.00000000000E+00  0.11764553635E+04  0.11764553635E+04  0.00000000000E+00 0.  1.
          2   -1    0    0  501    0  0.00000000000E+00 -0.00000000000E+00 -0.63780382183E+03  0.63780382183E+03  0.00000000000E+00 0. -1.
         23    2    1    2    0    0 -0.23280693147E+02 -0.53857724435E+03  0.53125823713E+03  0.76225454423E+03  0.90494402412E+02 0.  0.
        254    2    1    2    0    0  0.23280693147E+02  0.53857724435E+03  0.73933045337E+01  0.10520046411E+04  0.90335577993E+03 0.  0.
        -24    2    4    4    0    0  0.13886688435E+03 -0.83723873879E+02 -0.29630517110E+03  0.34612825904E+03  0.75593112507E+02 0.  0.
         24    2    4    4    0    0 -0.11558619120E+03  0.62230111823E+03  0.30369847564E+03  0.70587638205E+03  0.73551704869E+02 0.  0.
         13    1    3    3    0    0 -0.28254647415E+02 -0.49036830126E+02  0.64978059864E+02  0.86168927538E+02  0.00000000000E+00 0. -1.
        -13    1    3    3    0    0  0.49739542673E+01 -0.48954041423E+03  0.46628017727E+03  0.67608561669E+03  0.00000000000E+00 0.  1.
          4    1    6    6  502    0 -0.58186593594E+02  0.46535304476E+03  0.24201519848E+03  0.52774093288E+03  0.00000000000E+00 0. -1.
          3    1    5    5  503    0  0.13446803925E+03 -0.55343505317E+02 -0.21209314815E+03  0.25715376850E+03  0.00000000000E+00 0. -1.
         -4    1    5    5    0  503  0.43988451024E+01 -0.28380368562E+02 -0.84212022953E+02  0.88974490545E+02  0.00000000000E+00 0.  1.
         -3    1    6    6    0  502 -0.57399597608E+02  0.15694807347E+03  0.61683277161E+02  0.17813544918E+03  0.00000000000E+00 0.  1.
<mgrwt>
<rscale>  0 0.17324523E+04</rscale>
<asrwt>0</asrwt>
<pdfrwt beam="1">  1        2 0.98123665E-01 0.17324523E+04</pdfrwt>
<pdfrwt beam="2">  1       -2 0.18099313E+00 0.17324523E+04</pdfrwt>
<totfact> 0.77908386E+00</totfact>
</mgrwt>
</event>
<event>
12    1  0.1495204E-007  0.1377726E+04  0.7818608E-02  0.8970101E-01
          3   -1    0    0  501    0  0.00000000000E+00  0.00000000000E+00  0.32608577582E+03  0.32608577582E+03  0.00000000000E+00 0. -1.
         -3   -1    0    0    0  501 -0.00000000000E+00 -0.00000000000E+00 -0.14552381857E+04  0.14552381857E+04  0.00000000000E+00 0.  1.
         23    2    1    2    0    0  0.93015472939E+01 -0.28186692360E+03 -0.46892605696E+01  0.29692947474E+03  0.92788158749E+02 0.  0.
        254    2    1    2    0    0 -0.93015472939E+01  0.28186692360E+03 -0.11244631494E+04  0.14843944868E+04  0.92707827978E+03 0.  0.
        -24    2    4    4    0    0 -0.25273544102E+03 -0.16422558501E+03 -0.84174228691E+03  0.89749379007E+03  0.78229020929E+02 0.  0.
         24    2    4    4    0    0  0.24343389372E+03  0.44609250860E+03 -0.28272086244E+03  0.58690069675E+03  0.79137569747E+02 0.  0.
         13    1    3    3    0    0 -0.24246200781E+02 -0.24649874192E+03  0.21936372719E+01  0.24769804211E+03  0.00000000000E+00 0.  1.
        -13    1    3    3    0    0  0.33547748075E+02 -0.35368181677E+02 -0.68828978414E+01  0.49231432630E+02  0.00000000000E+00 0. -1.
          4    1    6    6  502    0  0.96327900325E+02  0.16394473708E+03 -0.14976272516E+03  0.24204506821E+03  0.00000000000E+00 0. -1.
          1    1    5    5  503    0 -0.47628447266E+01  0.72008246789E+01 -0.12814740665E+02  0.15451671245E+02  0.00000000000E+00 0. -1.
         -2    1    5    5    0  503 -0.24797259629E+03 -0.17142640968E+03 -0.82892754625E+03  0.88204211882E+03  0.00000000000E+00 0.  1.
         -3    1    6    6    0  502  0.14710599340E+03  0.28214777152E+03 -0.13295813728E+03  0.34485562854E+03  0.00000000000E+00 0.  1.
<mgrwt>
<rscale>  0 0.13777263E+04</rscale>
<asrwt>0</asrwt>
<pdfrwt beam="1">  1        3 0.50167042E-01 0.13777263E+04</pdfrwt>
<pdfrwt beam="2">  1       -3 0.22388280E+00 0.13777263E+04</pdfrwt>
<totfact> 0.10512130E+00</totfact>
</mgrwt>
</event>
<event>
12    1  0.1495204E-007  0.1677356E+04  0.7818608E-02  0.8774386E-01
         -1   -1    0    0    0  501 -0.00000000000E+00  0.00000000000E+00  0.76168465718E+03  0.76168465718E+03  0.00000000000E+00 0.  1.
          1   -1    0    0  501    0  0.00000000000E+00 -0.00000000000E+00 -0.92345365775E+03  0.92345365775E+03  0.00000000000E+00 0. -1.
         23    2    1    2    0    0  0.10736298429E+03 -0.55899041933E+03  0.78380101005E+02  0.58192848082E+03  0.92196622852E+02 0.  0.
        254    2    1    2    0    0 -0.10736298429E+03  0.55899041933E+03 -0.24014910157E+03  0.11032098341E+04  0.91400396486E+03 0.  0.
        -24    2    4    4    0    0 -0.45334032883E+03  0.26262431262E+03 -0.34120186294E+03  0.63015597487E+03  0.78669295537E+02 0.  0.
         24    2    4    4    0    0  0.34597734454E+03  0.29636610670E+03  0.10105276137E+03  0.47305385924E+03  0.77685912616E+02 0.  0.
         13    1    3    3    0    0  0.11467740173E+03 -0.38544650206E+03  0.68618751737E+02  0.40795642599E+03  0.00000000000E+00 0.  1.
        -13    1    3    3    0    0 -0.73144174416E+01 -0.17354391727E+03  0.97613492680E+01  0.17397205484E+03  0.00000000000E+00 0. -1.
          4    1    6    6  502    0  0.52033834606E+02  0.83152925028E+02  0.33787442385E+02  0.10374738622E+03  0.00000000000E+00 0. -1.
          1    1    5    5  503    0 -0.18830733530E+03  0.89843423695E+02 -0.17752080823E+03  0.27394366330E+03  0.00000000000E+00 0. -1.
         -2    1    5    5    0  503 -0.26503299353E+03  0.17278088893E+03 -0.16368105471E+03  0.35621231156E+03  0.00000000000E+00 0.  1.
         -3    1    6    6    0  502  0.29394350994E+03  0.21321318168E+03  0.67265318985E+02  0.36930647302E+03  0.00000000000E+00 0.  1.
<mgrwt>
<rscale>  0 0.16773556E+04</rscale>
<asrwt>0</asrwt>
<pdfrwt beam="1">  1        1 0.14206979E+00 0.16773556E+04</pdfrwt>
<pdfrwt beam="2">  1       -1 0.11718226E+00 0.16773556E+04</pdfrwt>
<totfact> 0.10892353E+01</totfact>
</mgrwt>
</event>
<event>
12    1  0.1495204E-007  0.1979461E+04  0.7818608E-02  0.8616284E-01
          1   -1    0    0  501    0  0.00000000000E+00  0.00000000000E+00  0.20426452671E+04  0.20426452671E+04  0.00000000000E+00 0. -1.
         -1   -1    0    0    0  501 -0.00000000000E+00 -0.00000000000E+00 -0.47955783150E+03  0.47955783150E+03  0.00000000000E+00 0.  1.
         23    2    1    2    0    0 -0.10068411365E+03 -0.55330654424E+03  0.13082837142E+04  0.14267851528E+04  0.88454352806E+02 0.  0.
        254    2    1    2    0    0  0.10068411365E+03  0.55330654424E+03  0.25480372139E+03  0.10954179459E+04  0.90483706659E+03 0.  0.
        -24    2    4    4    0    0  0.17573252391E+02 -0.24523528729E+03  0.70612985205E+02  0.26818341435E+03  0.80541819688E+02 0.  0.
         24    2    4    4    0    0  0.83110861256E+02  0.79854183153E+03  0.18419073619E+03  0.82723453153E+03  0.76251366560E+02 0.  0.
         13    1    3    3    0    0 -0.96668483904E+02 -0.28839430631E+03  0.68037567766E+03  0.74526984002E+03  0.00000000000E+00 0. -1.
        -13    1    3    3    0    0 -0.40156297439E+01 -0.26491223793E+03  0.62790803659E+03  0.68151531274E+03  0.00000000000E+00 0.  1.
          2    1    6    6  502    0  0.71138460646E+01  0.43255842272E+03  0.10386811297E+03  0.44491120549E+03  0.00000000000E+00 0. -1.
          3    1    5    5  503    0  0.49801539413E+02 -0.14946802857E+03  0.47146016763E+02  0.16444948097E+03  0.00000000000E+00 0. -1.
         -2    1    5    5    0  503 -0.32228287022E+02 -0.95767258717E+02  0.23466968441E+02  0.10373393338E+03  0.00000000000E+00 0.  1.
         -1    1    6    6    0  502  0.75997015192E+02  0.36598340881E+03  0.80322623215E+02  0.38232332605E+03  0.00000000000E+00 0.  1.
<mgrwt>
<rscale>  0 0.19794611E+04</rscale>
<asrwt>0</asrwt>
<pdfrwt beam="1">  1        1 0.31425311E+00 0.19794611E+04</pdfrwt>
<pdfrwt beam="2">  1       -1 0.73778129E-01 0.19794611E+04</pdfrwt>
<totfact> 0.47934650E+00</totfact>
</mgrwt>
</event>
<event>
12    1  0.1495204E-007  0.1623213E+04  0.7818608E-02  0.8806413E-01
         -1   -1    0    0    0  501 -0.00000000000E+00  0.00000000000E+00  0.14103666120E+04  0.14103666120E+04  0.00000000000E+00 0.  1.
          1   -1    0    0  501    0  0.00000000000E+00 -0.00000000000E+00 -0.46704552930E+03  0.46704552930E+03  0.00000000000E+00 0. -1.
         23    2    1    2    0    0  0.16866279949E+03  0.13446339915E+03  0.93056886271E+03  0.95971769663E+03  0.92585654060E+02 0.  0.
        254    2    1    2    0    0 -0.16866279949E+03 -0.13446339915E+03  0.12752220008E+02  0.91769444469E+03  0.89189289102E+03 0.  0.
        -24    2    4    4    0    0  0.14834621819E+02  0.14763332215E+02 -0.41410664654E+03  0.42343554057E+03  0.85879685213E+02 0.  0.
         24    2    4    4    0    0 -0.18349742131E+03 -0.14922673136E+03  0.42685886654E+03  0.49425890412E+03  0.78380172037E+02 0.  0.
         13    1    3    3    0    0  0.80418004383E+02  0.12069666700E+03  0.60232121589E+03  0.61953659131E+03  0.00000000000E+00 0.  1.
        -13    1    3    3    0    0  0.88244795107E+02  0.13766732145E+02  0.32824764681E+03  0.34018110532E+03  0.00000000000E+00 0. -1.
          4    1    6    6  502    0 -0.17514382228E+03 -0.15689896532E+03  0.38718363215E+03  0.45299427016E+03  0.00000000000E+00 0. -1.
          1    1    5    5  503    0  0.47035514219E+01 -0.31871796232E+02 -0.26315596872E+03  0.26512072470E+03  0.00000000000E+00 0. -1.
         -2    1    5    5    0  503  0.10131070397E+02  0.46635128447E+02 -0.15095067782E+03  0.15831481588E+03  0.00000000000E+00 0.  1.
         -3    1    6    6    0  502 -0.83535990297E+01  0.76722339510E+01  0.39675234398E+02  0.41264633950E+02  0.00000000000E+00 0.  1.
<mgrwt>
<rscale>  0 0.16232134E+04</rscale>
<asrwt>0</asrwt>
<pdfrwt beam="1">  1        1 0.71853159E-01 0.16232134E+04</pdfrwt>
<pdfrwt beam="2">  1       -1 0.21697948E+00 0.16232134E+04</pdfrwt>
<totfact> 0.53751033E+00</totfact>
</mgrwt>
</event>
<event>
12    1  0.1495204E-007  0.2532660E+04  0.7818608E-02  0.8391442E-01
          1   -1    0    0  501    0  0.00000000000E+00  0.00000000000E+00  0.12227376597E+04  0.12227376597E+04  0.00000000000E+00 0. -1.
         -1   -1    0    0    0  501 -0.00000000000E+00 -0.00000000000E+00 -0.13114764282E+04  0.13114764282E+04  0.00000000000E+00 0.  1.
         23    2    1    2    0    0 -0.56285048052E+02  0.86781993374E+03 -0.66447834194E+03  0.10982487747E+04  0.91320644497E+02 0.  0.
        254    2    1    2    0    0  0.56285048052E+02 -0.86781993374E+03  0.57573957343E+03  0.14359653133E+04  0.98703641299E+03 0.  0.
        -24    2    4    4    0    0 -0.26412235038E+03 -0.16958917955E+03  0.57926944022E+03  0.66357988049E+03  0.79145862978E+02 0.  0.
         24    2    4    4    0    0  0.32040739844E+03 -0.69823075419E+03 -0.35298667986E+01  0.77238543281E+03  0.79873085490E+02 0.  0.
         11    1    3    3    0    0 -0.44368891235E+02  0.19960449176E+03 -0.18471103289E+03  0.27555165997E+03  0.00000000000E+00 0. -1.
        -11    1    3    3    0    0 -0.11916156818E+02  0.66821544198E+03 -0.47976730905E+03  0.82269711469E+03  0.00000000000E+00 0.  1.
          4    1    6    6  502    0  0.22405892454E+03 -0.39423929123E+03  0.76485473177E+00  0.45346180150E+03  0.00000000000E+00 0. -1.
          3    1    5    5  503    0 -0.20017343391E+03 -0.14602082964E+03  0.38633976741E+03  0.45896612317E+03  0.00000000000E+00 0. -1.
         -4    1    5    5    0  503 -0.63948916475E+02 -0.23568349910E+02  0.19292967281E+03  0.20461375733E+03  0.00000000000E+00 0.  1.
         -3    1    6    6    0  502  0.96348473895E+02 -0.30399146296E+03 -0.42947215303E+01  0.31892363131E+03  0.00000000000E+00 0.  1.
<mgrwt>
<rscale>  0 0.25326600E+04</rscale>
<asrwt>0</asrwt>
<pdfrwt beam="1">  1        1 0.18811349E+00 0.25326600E+04</pdfrwt>
<pdfrwt beam="2">  1       -1 0.20176560E+00 0.25326600E+04</pdfrwt>
<totfact> 0.13334263E+00</totfact>
</mgrwt>
</event>
<event>
12    1  0.1495204E-007  0.1998913E+04  0.7818608E-02  0.8607129E-01
         -2   -1    0    0    0  501 -0.00000000000E+00  0.00000000000E+00  0.46098237080E+03  0.46098237080E+03  0.00000000000E+00 0.  1.
          2   -1    0    0  501    0  0.00000000000E+00 -0.00000000000E+00 -0.21669234323E+04  0.21669234323E+04  0.00000000000E+00 0. -1.
         23    2    1    2    0    0  0.38266636275E+03  0.42654264190E+03 -0.13927061315E+04  0.15086576867E+04  0.89696580984E+02 0.  0.
        254    2    1    2    0    0 -0.38266636275E+03 -0.42654264190E+03 -0.31323493002E+03  0.11192481163E+04  0.90897087631E+03 0.  0.
        -24    2    4    4    0    0  0.20857138654E+03 -0.29737796241E+03  0.96012286215E+02  0.38393235648E+03  0.79057064471E+02 0.  0.
         24    2    4    4    0    0 -0.59123774929E+03 -0.12916467949E+03 -0.40924721624E+03  0.73531575985E+03  0.83428964169E+02 0.  0.
         13    1    3    3    0    0  0.37891771611E+03  0.39174563012E+03 -0.13084590727E+04  0.14174302167E+04  0.00000000000E+00 0. -1.
        -13    1    3    3    0    0  0.37486466344E+01  0.34797011780E+02 -0.84247058743E+02  0.91227470026E+02  0.00000000000E+00 0.  1.
          2    1    6    6  502    0 -0.13845664628E+03 -0.67204976947E+02 -0.10324352530E+03  0.18532667736E+03  0.00000000000E+00 0. -1.
          1    1    5    5  503    0  0.64582373817E+02 -0.40708685277E+02  0.80285132525E+01  0.76762862700E+02  0.00000000000E+00 0. -1.
         -2    1    5    5    0  503  0.14398901273E+03 -0.25666927713E+03  0.87983772963E+02  0.30716949378E+03  0.00000000000E+00 0.  1.
         -1    1    6    6    0  502 -0.45278110301E+03 -0.61959702547E+02 -0.30600369094E+03  0.54998908248E+03  0.00000000000E+00 0.  1.
<mgrwt>
<rscale>  0 0.19989132E+04</rscale>
<asrwt>0</asrwt>
<pdfrwt beam="1">  1        2 0.33337284E+00 0.19989132E+04</pdfrwt>
<pdfrwt beam="2">  1       -2 0.70920365E-01 0.19989132E+04</pdfrwt>
<totfact> 0.90466890E+00</totfact>
</mgrwt>
</event>
<event>
12    1  0.1495204E-007  0.1524910E+04  0.7818608E-02  0.8868055E-01
          2   -1    0    0  501    0  0.00000000000E+00  0.00000000000E+00  0.65238470860E+03  0.65238470860E+03  0.00000000000E+00 0. -1.
         -2   -1    0    0    0  501 -0.00000000000E+00 -0.00000000000E+00 -0.89109673806E+03  0.89109673806E+03  0.00000000000E+00 0.  1.
         23    2    1    2    0    0 -0.19599642371E+03 -0.41638035311E+03  0.10317568869E+03  0.48000540089E+03  0.89290344315E+02 0.  0.
        254    2    1    2    0    0  0.19599642371E+03  0.41638035311E+03 -0.34188771815E+03  0.10634760458E+04  0.89571585423E+03 0.  0.
        -24    2    4    4    0    0 -0.32118940830E+03  0.28607041419E+03 -0.28432274556E+03  0.52158164620E+03  0.78797665768E+02 0.  0.
         24    2    4    4    0    0  0.51718583201E+03  0.13030993892E+03 -0.57564972588E+02  0.54189439956E+03  0.76641693530E+02 0.  0.
         13    1    3    3    0    0 -0.16184357829E+03 -0.37586627963E+03  0.11626308770E+03  0.42542438759E+03  0.00000000000E+00 0. -1.
        -13    1    3    3    0    0 -0.34152845421E+02 -0.40514073480E+02 -0.13087399009E+02  0.54581013302E+02  0.00000000000E+00 0.  1.
          4    1    6    6  502    0  0.35088082887E+03  0.12477176846E+03 -0.42253908558E+02  0.37479426765E+03  0.00000000000E+00 0. -1.
          1    1    5    5  503    0 -0.30512914605E+03  0.24603781233E+03 -0.27066115131E+03  0.47633586858E+03  0.00000000000E+00 0. -1.
         -2    1    5    5    0  503 -0.16060262252E+02  0.40032601859E+02 -0.13661594251E+02  0.45245777623E+02  0.00000000000E+00 0.  1.
         -3    1    6    6    0  502  0.16630500314E+03  0.55381704551E+01 -0.15311064030E+02  0.16710013191E+03  0.00000000000E+00 0.  1.
<mgrwt>
<rscale>  0 0.15249103E+04</rscale>
<asrwt>0</asrwt>
<pdfrwt beam="1">  1        2 0.10036688E+00 0.15249103E+04</pdfrwt>
<pdfrwt beam="2">  1       -2 0.13709181E+00 0.15249103E+04</pdfrwt>
<totfact> 0.16362719E+01</totfact>
</mgrwt>
</event>
<event>
12    1  0.1495204E-007  0.2592362E+04  0.7818608E-02  0.8370800E-01
         -2   -1    0    0    0  501 -0.00000000000E+00  0.00000000000E+00  0.90280401760E+03  0.90280401760E+03  0.00000000000E+00 0.  1.
          2   -1    0    0  501    0  0.00000000000E+00 -0.00000000000E+00 -0.18609630225E+04  0.18609630225E+04  0.00000000000E+00 0. -1.
         23    2    1    2    0    0 -0.10423084290E+02 -0.55933715399E+03 -0.14829765161E+04  0.15878938551E+04  0.96025283914E+02 0.  0.
        254    2    1    2    0    0  0.10423084290E+02  0.55933715399E+03  0.52481751123E+03  0.11758731850E+04  0.89122255055E+03 0.  0.
        -24    2    4    4    0    0  0.18009460748E+03 -0.18452738096E+03  0.22853460486E+03  0.35372930367E+03  0.80074544545E+02 0.  0.
         24    2    4    4    0    0 -0.16967152319E+03  0.74386453495E+03  0.29628290636E+03  0.82214388134E+03  0.77550814793E+02 0.  0.
         13    1    3    3    0    0 -0.17213445494E+02 -0.45092549184E+03 -0.12871313381E+04  0.13639417815E+04  0.00000000000E+00 0. -1.
        -13    1    3    3    0    0  0.67903612041E+01 -0.10841166215E+03 -0.19584517799E+03  0.22395207353E+03  0.00000000000E+00 0.  1.
          4    1    6    6  502    0 -0.15133635051E+02  0.16098043673E+03  0.37753888745E+02  0.16603940506E+03  0.00000000000E+00 0. -1.
          3    1    5    5  503    0  0.94690562728E+02 -0.47048365457E+02  0.11380395468E+03  0.15534217542E+03  0.00000000000E+00 0. -1.
         -4    1    5    5    0  503  0.85404044757E+02 -0.13747901551E+03  0.11473065018E+03  0.19838712825E+03  0.00000000000E+00 0.  1.
         -3    1    6    6    0  502 -0.15453788814E+03  0.58288409823E+03  0.25852901762E+03  0.65610447628E+03  0.00000000000E+00 0.  1.
<mgrwt>
<rscale>  0 0.25923618E+04</rscale>
<asrwt>0</asrwt>
<pdfrwt beam="1">  1        2 0.28630200E+00 0.25923618E+04</pdfrwt>
<pdfrwt beam="2">  1       -2 0.13889293E+00 0.25923618E+04</pdfrwt>
<totfact> 0.25906243E+00</totfact>
</mgrwt>
</event>
<event>
12    1  0.1495204E-007  0.1382262E+04  0.7818608E-02  0.8966759E-01
          1   -1    0    0  501    0  0.00000000000E+00  0.00000000000E+00  0.52426366097E+03  0.52426366097E+03  0.00000000000E+00 0. -1.
         -1   -1    0    0    0  501 -0.00000000000E+00 -0.00000000000E+00 -0.91111019983E+03  0.91111019983E+03  0.00000000000E+00 0.  1.
         23    2    1    2    0    0  0.85431824501E+02  0.36995236454E+03 -0.29042871315E+03  0.48587226143E+03  0.86946353237E+02 0.  0.
        254    2    1    2    0    0 -0.85431824501E+02 -0.36995236454E+03 -0.96417825715E+02  0.94950159937E+03  0.86492400904E+03 0.  0.
        -24    2    4    4    0    0  0.36808202238E+03 -0.10592316475E+03 -0.14330197950E+03  0.41660927877E+03  0.79521957962E+02 0.  0.
         24    2    4    4    0    0 -0.45351384688E+03 -0.26402919979E+03  0.46884153784E+02  0.53289232060E+03  0.79936686336E+02 0.  0.
         13    1    3    3    0    0  0.94944976763E+02  0.36496187193E+03 -0.27359714875E+03  0.46590462155E+03  0.00000000000E+00 0.  1.
        -13    1    3    3    0    0 -0.95131522624E+01  0.49904926097E+01 -0.16831564396E+02  0.19967639882E+02  0.00000000000E+00 0. -1.
          4    1    6    6  502    0 -0.56036282379E+02 -0.47131058243E+02  0.31817466948E+02  0.79835786443E+02  0.00000000000E+00 0. -1.
          1    1    5    5  503    0  0.11129553728E+03 -0.30866209152E+02 -0.83382541812E+02  0.14245022908E+03  0.00000000000E+00 0. -1.
         -2    1    5    5    0  503  0.25678648510E+03 -0.75056955595E+02 -0.59919437687E+02  0.27415904969E+03  0.00000000000E+00 0.  1.
         -3    1    6    6    0  502 -0.39747756450E+03 -0.21689814155E+03  0.15066686836E+02  0.45305653416E+03  0.00000000000E+00 0.  1.
<mgrwt>
<rscale>  0 0.13822619E+04</rscale>
<asrwt>0</asrwt>
<pdfrwt beam="1">  1        1 0.80655948E-01 0.13822619E+04</pdfrwt>
<pdfrwt beam="2">  1       -1 0.14017080E+00 0.13822619E+04</pdfrwt>
<totfact> 0.16931561E+01</totfact>
</mgrwt>
</event>
<event>
12    1  0.1495204E-007  0.3124659E+04  0.7818608E-02  0.8209003E-01
          1   -1    0    0  501    0  0.00000000000E+00  0.00000000000E+00  0.13492240848E+04  0.13492240848E+04  0.00000000000E+00 0. -1.
         -1   -1    0    0    0  501 -0.00000000000E+00 -0.00000000000E+00 -0.18090945662E+04  0.18090945662E+04  0.00000000000E+00 0.  1.
         23    2    1    2    0    0  0.77196553749E+03 -0.11976147397E+04 -0.28192343890E+03  0.14554328108E+04  0.92692964475E+02 0.  0.
        254    2    1    2    0    0 -0.77196553749E+03  0.11976147397E+04 -0.17794704252E+03  0.17028858401E+04  0.91539236332E+03 0.  0.
        -24    2    4    4    0    0 -0.81779552539E+03  0.69139501338E+03  0.16258255450E+03  0.10860399502E+04  0.78949987711E+02 0.  0.
         24    2    4    4    0    0  0.45829987898E+02  0.50621972631E+03 -0.34052959702E+03  0.61684588993E+03  0.78610726858E+02 0.  0.
         13    1    3    3    0    0  0.11961592935E+03 -0.20951538806E+03 -0.15144497823E+02  0.24173130580E+03  0.00000000000E+00 0.  1.
        -13    1    3    3    0    0  0.65234960814E+03 -0.98809935163E+03 -0.26677894107E+03  0.12137015050E+04  0.00000000000E+00 0. -1.
          2    1    6    6  502    0 -0.18702983021E+02  0.63145002980E+02 -0.33042545721E+02  0.73681088503E+02  0.00000000000E+00 0. -1.
          3    1    5    5  503    0 -0.11576141253E+03  0.13497501764E+03  0.34455930502E+02  0.18112473924E+03  0.00000000000E+00 0. -1.
         -4    1    5    5    0  503 -0.70203411286E+03  0.55641999575E+03  0.12812662400E+03  0.90491521098E+03  0.00000000000E+00 0.  1.
         -1    1    6    6    0  502  0.64532970919E+02  0.44307472333E+03 -0.30748705130E+03  0.54316480143E+03  0.00000000000E+00 0.  1.
<mgrwt>
<rscale>  0 0.31246593E+04</rscale>
<asrwt>0</asrwt>
<pdfrwt beam="1">  1        1 0.20757294E+00 0.31246593E+04</pdfrwt>
<pdfrwt beam="2">  1       -1 0.27832224E+00 0.31246593E+04</pdfrwt>
<totfact> 0.32060455E-01</totfact>
</mgrwt>
</event>
<event>
12    1  0.1495204E-007  0.1460564E+04  0.7818608E-02  0.8911109E-01
          2   -1    0    0  501    0  0.00000000000E+00  0.00000000000E+00  0.33607083460E+03  0.33607083460E+03  0.00000000000E+00 0.  1.
         -2   -1    0    0    0  501 -0.00000000000E+00 -0.00000000000E+00 -0.15869038796E+04  0.15869038796E+04  0.00000000000E+00 0. -1.
         23    2    1    2    0    0 -0.18533675593E+02 -0.27834920137E+03  0.69534282636E+02  0.30162729864E+03  0.91226288925E+02 0.  0.
        254    2    1    2    0    0  0.18533675593E+02  0.27834920137E+03 -0.13203673276E+04  0.16213474155E+04  0.89865220581E+03 0.  0.
        -24    2    4    4    0    0  0.75472422501E+02 -0.96343394418E+02  0.81576109785E+02  0.16689019573E+03  0.78864057320E+02 0.  0.
         24    2    4    4    0    0 -0.56938746908E+02  0.37469259579E+03 -0.14019434374E+04  0.14544572198E+04  0.79773682124E+02 0.  0.
         13    1    3    3    0    0  0.15564185174E+02 -0.38730749991E+02  0.39976965595E+02  0.57796821999E+02  0.00000000000E+00 0. -1.
        -13    1    3    3    0    0 -0.34097860767E+02 -0.23961845138E+03  0.29557317041E+02  0.24383047664E+03  0.00000000000E+00 0.  1.
          2    1    6    6  502    0 -0.75230085681E+02  0.24987025223E+03 -0.96637862340E+03  0.10009906855E+04  0.00000000000E+00 0. -1.
          1    1    5    5  503    0  0.53446970091E+02 -0.10755721067E+03  0.60878418435E+02  0.13465256778E+03  0.00000000000E+00 0. -1.
         -2    1    5    5    0  503  0.22025452410E+02  0.11213816248E+02  0.20697691349E+02  0.32237627951E+02  0.00000000000E+00 0.  1.
         -1    1    6    6    0  502  0.18291338773E+02  0.12482234355E+03 -0.43556481398E+03  0.45346653427E+03  0.00000000000E+00 0.  1.
<mgrwt>
<rscale>  0 0.14605644E+04</rscale>
<asrwt>0</asrwt>
<pdfrwt beam="1">  1        2 0.51703206E-01 0.14605644E+04</pdfrwt>
<pdfrwt beam="2">  1       -2 0.24413906E+00 0.14605644E+04</pdfrwt>
<totfact> 0.65478363E+00</totfact>
</mgrwt>
</event>
<event>
12    1  0.1495204E-007  0.1177672E+04  0.7818608E-02  0.9132627E-01
          2   -1    0    0  501    0  0.00000000000E+00  0.00000000000E+00  0.10054542363E+04  0.10054542363E+04  0.00000000000E+00 0. -1.
         -2   -1    0    0    0  501 -0.00000000000E+00 -0.00000000000E+00 -0.34484716103E+03  0.34484716103E+03  0.00000000000E+00 0.  1.
         23    2    1    2    0    0 -0.10953215497E+03  0.35620484899E+01 -0.86206602183E+02  0.17040160779E+03  0.97954828958E+02 0.  0.
        254    2    1    2    0    0  0.10953215497E+03 -0.35620484899E+01  0.74681367742E+03  0.11798997895E+04  0.90687532955E+03 0.  0.
        -24    2    4    4    0    0 -0.83359890357E+02  0.46645750928E+02 -0.18540967754E+03  0.22317585218E+03  0.79410421667E+02 0.  0.
         24    2    4    4    0    0  0.19289204533E+03 -0.50207799418E+02  0.93222335495E+03  0.95672393733E+03  0.80945317733E+02 0.  0.
         11    1    3    3    0    0  0.20097704975E+01  0.12202300575E+02  0.15069343053E+02  0.19494112363E+02  0.00000000000E+00 0. -1.
        -11    1    3    3    0    0 -0.11154192547E+03 -0.86402520850E+01 -0.10127594524E+03  0.15090749543E+03  0.00000000000E+00 0.  1.
          4    1    6    6  502    0  0.17496664879E+03 -0.21184210453E+02  0.69202502420E+03  0.71411534998E+03  0.00000000000E+00 0. -1.
          3    1    5    5  503    0 -0.76915066525E+02  0.17484149578E+02 -0.17428996237E+03  0.19130764211E+03  0.00000000000E+00 0. -1.
         -4    1    5    5    0  503 -0.64448238323E+01  0.29161601350E+02 -0.11119715165E+02  0.31868210067E+02  0.00000000000E+00 0.  1.
         -3    1    6    6    0  502  0.17925396541E+02 -0.29023588965E+02  0.24019833076E+03  0.24260858735E+03  0.00000000000E+00 0.  1.
<mgrwt>
<rscale>  0 0.11776723E+04</rscale>
<asrwt>0</asrwt>
<pdfrwt beam="1">  1        2 0.15468527E+00 0.11776723E+04</pdfrwt>
<pdfrwt beam="2">  1       -2 0.53053410E-01 0.11776723E+04</pdfrwt>
<totfact> 0.82711604E+01</totfact>
</mgrwt>
</event>
<event>
12    1  0.1495204E-007  0.2053544E+04  0.7818608E-02  0.8581988E-01
         -1   -1    0    0    0  501 -0.00000000000E+00  0.00000000000E+00  0.10428235735E+04  0.10428235735E+04  0.00000000000E+00 0.  1.
          1   -1    0    0  501    0  0.00000000000E+00 -0.00000000000E+00 -0.10109673900E+04  0.10109673900E+04  0.00000000000E+00 0. -1.
         23    2    1    2    0    0  0.36375076733E+03 -0.47674639402E+03 -0.55182244484E+03  0.82002088730E+03  0.91238698092E+02 0.  0.
        254    2    1    2    0    0 -0.36375076733E+03  0.47674639402E+03  0.58367862832E+03  0.12337700763E+04  0.90659037881E+03 0.  0.
        -24    2    4    4    0    0  0.13253845765E+03 -0.12927917921E+03  0.36491924842E+03  0.41668985484E+03  0.78643679476E+02 0.  0.
         24    2    4    4    0    0 -0.49628922498E+03  0.60602557323E+03  0.21875937990E+03  0.81708022142E+03  0.78704712041E+02 0.  0.
         13    1    3    3    0    0  0.36461832775E+03 -0.45939875628E+03 -0.52030928998E+03  0.78403794515E+03  0.00000000000E+00 0. -1.
        -13    1    3    3    0    0 -0.86756041647E+00 -0.17347637746E+02 -0.31513154853E+02  0.35982942143E+02  0.00000000000E+00 0.  1.
          2    1    6    6  502    0 -0.41544593257E+03  0.47720628839E+03  0.20148804377E+03  0.66401701510E+03  0.00000000000E+00 0. -1.
          1    1    5    5  503    0  0.50664484427E+02 -0.74771622910E+02  0.10343805710E+03  0.13732121916E+03  0.00000000000E+00 0. -1.
         -2    1    5    5    0  503  0.81873973222E+02 -0.54507556303E+02  0.26148119132E+03  0.27936863568E+03  0.00000000000E+00 0.  1.
         -3    1    6    6    0  502 -0.80843292407E+02  0.12881928485E+03  0.17271336132E+02  0.15306320632E+03  0.00000000000E+00 0.  1.
<mgrwt>
<rscale>  0 0.20535439E+04</rscale>
<asrwt>0</asrwt>
<pdfrwt beam="1">  1        1 0.15553344E+00 0.20535439E+04</pdfrwt>
<pdfrwt beam="2">  1       -1 0.16043440E+00 0.20535439E+04</pdfrwt>
<totfact> 0.39733182E+00</totfact>
</mgrwt>
</event>
<event>
12    1  0.1809495E-007  0.3059185E+04  0.7818608E-02  0.8227029E-01
         -2   -1    0    0    0  501 -0.00000000000E+00  0.00000000000E+00  0.10304214182E+04  0.10304214182E+04  0.00000000000E+00 0.  1.
          2   -1    0    0  501    0  0.00000000000E+00 -0.00000000000E+00 -0.22705783760E+04  0.22705783760E+04  0.00000000000E+00 0. -1.
         23    2    1    2    0    0 -0.47993903023E+03  0.28168627484E+03 -0.19474799643E+04  0.20274342629E+04  0.90126848740E+02 0.  0.
        254    2    1    2    0    0  0.47993903023E+03 -0.28168627484E+03  0.70732300651E+03  0.12735655313E+04  0.90109638604E+03 0.  0.
        -24    2    4    4    0    0  0.13495796845E+03 -0.54773565452E+03  0.21061170177E+03  0.60791112534E+03  0.83490400091E+02 0.  0.
         24    2    4    4    0    0  0.34498106178E+03  0.26604937968E+03  0.49671130474E+03  0.66565440601E+03  0.81113886455E+02 0.  0.
         11    1    3    3    0    0 -0.47654470789E+03  0.26309196380E+03 -0.18959861304E+04  0.19725809608E+04  0.00000000000E+00 0. -1.
        -11    1    3    3    0    0 -0.33943223383E+01  0.18594311041E+02 -0.51493833827E+02  0.54853302084E+02  0.00000000000E+00 0.  1.
          2    1    6    6  502    0  0.18251048216E+03  0.19086123740E+03  0.30018362583E+03  0.39981032660E+03  0.00000000000E+00 0. -1.
          1    1    5    5  503    0  0.13761520226E+03 -0.50270701705E+03  0.21227723688E+03  0.56277341283E+03  0.00000000000E+00 0. -1.
         -2    1    5    5    0  503 -0.26572338089E+01 -0.45028637466E+02 -0.16655351092E+01  0.45137712511E+02  0.00000000000E+00 0.  1.
         -1    1    6    6    0  502  0.16247057962E+03  0.75188142279E+02  0.19652767890E+03  0.26584407941E+03  0.00000000000E+00 0.  1.
<mgrwt>
<rscale>  0 0.30591846E+04</rscale>
<asrwt>0</asrwt>
<pdfrwt beam="1">  1        2 0.34931974E+00 0.30591846E+04</pdfrwt>
<pdfrwt beam="2">  1       -2 0.15852638E+00 0.30591846E+04</pdfrwt>
<totfact> 0.10366329E+00</totfact>
</mgrwt>
</event>
<event>
12    1  0.1495204E-007  0.1429399E+04  0.7818608E-02  0.8932808E-01
          1   -1    0    0  501    0  0.00000000000E+00  0.00000000000E+00  0.46980960570E+03  0.46980960570E+03  0.00000000000E+00 0. -1.
         -1   -1    0    0    0  501 -0.00000000000E+00 -0.00000000000E+00 -0.10872396086E+04  0.10872396086E+04  0.00000000000E+00 0.  1.
         23    2    1    2    0    0  0.21396793843E+03 -0.13485416176E+03 -0.56284100185E+03  0.62366890467E+03  0.90581375904E+02 0.  0.
        254    2    1    2    0    0 -0.21396793843E+03  0.13485416176E+03 -0.54589001058E+02  0.93338030965E+03  0.89680037901E+03 0.  0.
        -24    2    4    4    0    0 -0.11479205117E+03 -0.37632176749E+03 -0.64924756503E+02  0.40730684996E+03  0.82996134360E+02 0.  0.
         24    2    4    4    0    0 -0.99175887259E+02  0.51117592925E+03  0.10335755445E+02  0.52607345969E+03  0.74227824287E+02 0.  0.
         13    1    3    3    0    0  0.16039135852E+03 -0.11128651154E+03 -0.50482767544E+03  0.54125877123E+03  0.00000000000E+00 0.  1.
        -13    1    3    3    0    0  0.53576579917E+02 -0.23567650215E+02 -0.58013326409E+02  0.82410133438E+02  0.00000000000E+00 0. -1.
          4    1    6    6  502    0 -0.10498467032E+03  0.37878316686E+03  0.16510626914E+02  0.39340954399E+03  0.00000000000E+00 0. -1.
          3    1    5    5  503    0 -0.81339723387E+02 -0.34892536186E+03 -0.51069562058E+02  0.36190213997E+03  0.00000000000E+00 0. -1.
         -4    1    5    5    0  503 -0.33452327787E+02 -0.27396405630E+02 -0.13855194445E+02  0.45404709986E+02  0.00000000000E+00 0.  1.
         -3    1    6    6    0  502  0.58087830602E+01  0.13239276239E+03 -0.61748714698E+01  0.13266391571E+03  0.00000000000E+00 0.  1.
<mgrwt>
<rscale>  0 0.14293993E+04</rscale>
<asrwt>0</asrwt>
<pdfrwt beam="1">  1        1 0.72278402E-01 0.14293993E+04</pdfrwt>
<pdfrwt beam="2">  1       -1 0.16726763E+00 0.14293993E+04</pdfrwt>
<totfact> 0.12107526E+01</totfact>
</mgrwt>
</event>
<event>
12    1  0.1495204E-007  0.1899358E+04  0.7818608E-02  0.8655176E-01
         -2   -1    0    0    0  501 -0.00000000000E+00  0.00000000000E+00  0.37660360253E+03  0.37660360253E+03  0.00000000000E+00 0.  1.
          2   -1    0    0  501    0  0.00000000000E+00 -0.00000000000E+00 -0.23947991411E+04  0.23947991411E+04  0.00000000000E+00 0. -1.
         23    2    1    2    0    0 -0.34601584256E+03  0.33831015932E+03  0.19826801365E+02  0.49220950020E+03  0.87728916725E+02 0.  0.
        254    2    1    2    0    0  0.34601584256E+03 -0.33831015932E+03 -0.20380223399E+04  0.22791932434E+04  0.89833515772E+03 0.  0.
        -24    2    4    4    0    0 -0.16491387937E+03 -0.39432793744E+03 -0.13369233585E+04  0.14062623776E+04  0.86710427624E+02 0.  0.
         24    2    4    4    0    0  0.51092972194E+03  0.56017778117E+02 -0.70109898146E+03  0.87293086587E+03  0.79254921291E+02 0.  0.
         11    1    3    3    0    0 -0.23808561005E+03  0.23465701320E+03 -0.27090746891E+02  0.33538422760E+03  0.00000000000E+00 0.  1.
        -11    1    3    3    0    0 -0.10793023251E+03  0.10365314612E+03  0.46917548256E+02  0.15682527260E+03  0.00000000000E+00 0. -1.
          2    1    6    6  502    0  0.17134393698E+03  0.56329422397E+02 -0.23453806768E+03  0.29587134663E+03  0.00000000000E+00 0. -1.
          1    1    5    5  503    0  0.28140729222E+01 -0.32477468159E+02 -0.16906157669E+03  0.17217584516E+03  0.00000000000E+00 0. -1.
         -2    1    5    5    0  503 -0.16772795230E+03 -0.36185046928E+03 -0.11678617818E+04  0.12340865324E+04  0.00000000000E+00 0.  1.
         -1    1    6    6    0  502  0.33958578496E+03 -0.31164427980E+00 -0.46656091378E+03  0.57705951923E+03  0.00000000000E+00 0.  1.
<mgrwt>
<rscale>  0 0.18993578E+04</rscale>
<asrwt>0</asrwt>
<pdfrwt beam="1">  1        2 0.36843063E+00 0.18993578E+04</pdfrwt>
<pdfrwt beam="2">  1       -2 0.57939016E-01 0.18993578E+04</pdfrwt>
<totfact> 0.10458754E+01</totfact>
</mgrwt>
</event>
<event>
12    1  0.1495204E-007  0.2185081E+04  0.7818608E-02  0.8524664E-01
          1   -1    0    0  501    0  0.00000000000E+00  0.00000000000E+00  0.11398955338E+04  0.11398955338E+04  0.00000000000E+00 0. -1.
         -1   -1    0    0    0  501 -0.00000000000E+00 -0.00000000000E+00 -0.10471523990E+04  0.10471523990E+04  0.00000000000E+00 0.  1.
         23    2    1    2    0    0  0.17055927510E+03 -0.84987886274E+03 -0.21551729578E+03  0.89786214378E+03  0.91236926711E+02 0.  0.
        254    2    1    2    0    0 -0.17055927510E+03  0.84987886274E+03  0.30826043065E+03  0.12891857890E+04  0.90310074619E+03 0.  0.
        -24    2    4    4    0    0 -0.59959336557E+02  0.20662339791E+03 -0.31056120810E+03  0.38609666036E+03  0.79586535035E+02 0.  0.
         24    2    4    4    0    0 -0.11059993854E+03  0.64325546483E+03  0.61882163875E+03  0.90308912864E+03  0.81362240841E+02 0.  0.
         13    1    3    3    0    0  0.39181851385E+02 -0.29181037213E+03 -0.33449189858E+02  0.29632306536E+03  0.00000000000E+00 0.  1.
        -13    1    3    3    0    0  0.13137742371E+03 -0.55806849061E+03 -0.18206810592E+03  0.60153907842E+03  0.00000000000E+00 0. -1.
          4    1    6    6  502    0 -0.12351599935E+03  0.56992219059E+03  0.54294719545E+03  0.79678049830E+03  0.00000000000E+00 0. -1.
          1    1    5    5  503    0 -0.35647115046E+02  0.17571209143E+03 -0.29190367168E+03  0.34256854705E+03  0.00000000000E+00 0. -1.
         -2    1    5    5    0  503 -0.24312221510E+02  0.30911306483E+02 -0.18657536419E+02  0.43528113312E+02  0.00000000000E+00 0.  1.
         -3    1    6    6    0  502  0.12916060815E+02  0.73333274245E+02  0.75874443297E+02  0.10630863034E+03  0.00000000000E+00 0.  1.
<mgrwt>
<rscale>  0 0.21850806E+04</rscale>
<asrwt>0</asrwt>
<pdfrwt beam="1">  1        1 0.17536854E+00 0.21850806E+04</pdfrwt>
<pdfrwt beam="2">  1       -1 0.16110037E+00 0.21850806E+04</pdfrwt>
<totfact> 0.30977558E+00</totfact>
</mgrwt>
</event>
<event>
12    1  0.1495204E-007  0.2645857E+04  0.7818608E-02  0.8352789E-01
         -2   -1    0    0    0  501 -0.00000000000E+00  0.00000000000E+00  0.16123016205E+04  0.16123016205E+04  0.00000000000E+00 0.  1.
          2   -1    0    0  501    0  0.00000000000E+00 -0.00000000000E+00 -0.10854913019E+04  0.10854913019E+04  0.00000000000E+00 0. -1.
         23    2    1    2    0    0 -0.58968415739E+03  0.77817668354E+03 -0.42172117438E+03  0.10674341604E+04  0.90997701201E+02 0.  0.
        254    2    1    2    0    0  0.58968415739E+03 -0.77817668354E+03  0.94853149295E+03  0.16303587620E+04  0.89725767945E+03 0.  0.
        -24    2    4    4    0    0  0.13873508622E+03 -0.84707091827E+03  0.64082015905E+03  0.10741769965E+04  0.80182160233E+02 0.  0.
         24    2    4    4    0    0  0.45094907117E+03  0.68894234726E+02  0.30771133390E+03  0.55618176548E+03  0.80934608635E+02 0.  0.
         13    1    3    3    0    0 -0.58452321854E+03  0.75231465860E+03 -0.41948664394E+03  0.10409677147E+04  0.00000000000E+00 0. -1.
        -13    1    3    3    0    0 -0.51609388527E+01  0.25862024942E+02 -0.22345304377E+01  0.26466445743E+02  0.00000000000E+00 0.  1.
          4    1    6    6  502    0  0.42792658393E+03  0.47465144033E+02  0.29659946235E+03  0.52282438944E+03  0.00000000000E+00 0. -1.
          1    1    5    5  503    0  0.11347612493E+03 -0.73434350568E+03  0.58589923645E+03  0.94626377429E+03  0.00000000000E+00 0. -1.
         -2    1    5    5    0  503  0.25258961284E+02 -0.11272741259E+03  0.54920922604E+02  0.12791322220E+03  0.00000000000E+00 0.  1.
         -3    1    6    6    0  502  0.23022487244E+02  0.21429090693E+02  0.11111871548E+02  0.33357376038E+02  0.00000000000E+00 0.  1.
<mgrwt>
<rscale>  0 0.26458567E+04</rscale>
<asrwt>0</asrwt>
<pdfrwt beam="1">  1        2 0.16699866E+00 0.26458567E+04</pdfrwt>
<pdfrwt beam="2">  1       -2 0.24804640E+00 0.26458567E+04</pdfrwt>
<totfact> 0.12948231E+00</totfact>
</mgrwt>
</event>
<event>
12    1  0.1495204E-007  0.1850694E+04  0.7818608E-02  0.8679796E-01
         -1   -1    0    0    0  501 -0.00000000000E+00  0.00000000000E+00  0.61357231330E+03  0.61357231330E+03  0.00000000000E+00 0.  1.
          1   -1    0    0  501    0  0.00000000000E+00 -0.00000000000E+00 -0.13955438178E+04  0.13955438178E+04  0.00000000000E+00 0. -1.
         23    2    1    2    0    0 -0.12039186991E+03  0.59491144642E+03  0.82697926967E+02  0.61947327543E+03  0.92164854650E+02 0.  0.
        254    2    1    2    0    0  0.12039186991E+03 -0.59491144642E+03 -0.86466943148E+03  0.13896428557E+04  0.90279577379E+03 0.  0.
        -24    2    4    4    0    0 -0.35097994781E+02 -0.89659656990E+02  0.17775993896E+03  0.21813432788E+03  0.81934521244E+02 0.  0.
         24    2    4    4    0    0  0.15548986469E+03 -0.50525178943E+03 -0.10424293704E+04  0.11715085278E+04  0.79478107620E+02 0.  0.
         13    1    3    3    0    0 -0.78496349193E+02  0.40710508126E+03  0.99320144781E+02  0.42633404178E+03  0.00000000000E+00 0.  1.
        -13    1    3    3    0    0 -0.41895520717E+02  0.18780636516E+03 -0.16622217813E+02  0.19313923365E+03  0.00000000000E+00 0. -1.
          2    1    6    6  502    0  0.65429336646E+02 -0.27204772996E+03 -0.47197051744E+03  0.54867762375E+03  0.00000000000E+00 0. -1.
          3    1    5    5  503    0  0.20738753624E+02 -0.18256310129E+00  0.24660860064E+02  0.32222464994E+02  0.00000000000E+00 0. -1.
         -4    1    5    5    0  503 -0.55836748405E+02 -0.89477093889E+02  0.15309907890E+03  0.18591186289E+03  0.00000000000E+00 0.  1.
         -1    1    6    6    0  502  0.90060528046E+02 -0.23320405946E+03 -0.57045885300E+03  0.62283090404E+03  0.00000000000E+00 0.  1.
<mgrwt>
<rscale>  0 0.18506940E+04</rscale>
<asrwt>0</asrwt>
<pdfrwt beam="1">  1        1 0.21469905E+00 0.18506940E+04</pdfrwt>
<pdfrwt beam="2">  1       -1 0.94395741E-01 0.18506940E+04</pdfrwt>
<totfact> 0.78975426E+00</totfact>
</mgrwt>
</event>
<event>
12    1  0.1495204E-007  0.1327091E+04  0.7818608E-02  0.9008353E-01
          2   -1    0    0  501    0  0.00000000000E+00  0.00000000000E+00  0.11826701734E+04  0.11826701734E+04  0.00000000000E+00 0. -1.
         -2   -1    0    0    0  501 -0.00000000000E+00 -0.00000000000E+00 -0.37228709778E+03  0.37228709778E+03  0.00000000000E+00 0.  1.
         23    2    1    2    0    0 -0.16735561447E+03 -0.24942161482E+03  0.45134394160E+03  0.54982648181E+03  0.91535582428E+02 0.  0.
        254    2    1    2    0    0  0.16735561447E+03  0.24942161482E+03  0.35903913400E+03  0.10051307893E+04  0.88947161861E+03 0.  0.
        -24    2    4    4    0    0  0.43617565502E+03  0.35673292049E+03  0.45389451647E+02  0.57094090152E+03  0.80035817690E+02 0.  0.
         24    2    4    4    0    0 -0.26882004055E+03 -0.10731130567E+03  0.31364968235E+03  0.43418988783E+03  0.79779727544E+02 0.  0.
         11    1    3    3    0    0 -0.52135289973E+02 -0.18110267970E+02  0.90265301441E+02  0.10580120468E+03  0.00000000000E+00 0.  1.
        -11    1    3    3    0    0 -0.11522032449E+03 -0.23131134685E+03  0.36107864016E+03  0.44402527714E+03  0.00000000000E+00 0. -1.
          4    1    6    6  502    0 -0.14012270133E+03 -0.35387044529E+02  0.20599949227E+03  0.25163943484E+03  0.00000000000E+00 0. -1.
          1    1    5    5  503    0  0.18098950163E+03  0.17964243465E+03 -0.11025856118E+02  0.25524532029E+03  0.00000000000E+00 0. -1.
         -2    1    5    5    0  503  0.25518615339E+03  0.17709048584E+03  0.56415307765E+02  0.31569558123E+03  0.00000000000E+00 0.  1.
         -3    1    6    6    0  502 -0.12869733922E+03 -0.71924261146E+02  0.10765019008E+03  0.18255045299E+03  0.00000000000E+00 0.  1.
<mgrwt>
<rscale>  0 0.13270913E+04</rscale>
<asrwt>0</asrwt>
<pdfrwt beam="1">  1        2 0.18194926E+00 0.13270913E+04</pdfrwt>
<pdfrwt beam="2">  1       -2 0.57274938E-01 0.13270913E+04</pdfrwt>
<totfact> 0.54211761E+01</totfact>
</mgrwt>
</event>
<event>
12    1  0.1495204E-007  0.1136004E+04  0.7818608E-02  0.9170793E-01
         -2   -1    0    0    0  501 -0.00000000000E+00  0.00000000000E+00  0.21568789019E+04  0.21568789019E+04  0.00000000000E+00 0.  1.
          2   -1    0    0  501    0  0.00000000000E+00 -0.00000000000E+00 -0.14958013888E+03  0.14958013888E+03  0.00000000000E+00 0. -1.
         23    2    1    2    0    0  0.12116664945E+02 -0.62818848708E+02  0.46766701403E+01  0.10742073053E+03  0.86164498377E+02 0.  0.
        254    2    1    2    0    0 -0.12116664945E+02  0.62818848708E+02  0.20026220929E+04  0.21990383102E+04  0.90619049970E+03 0.  0.
        -24    2    4    4    0    0 -0.36670146126E+02  0.45604990950E+03  0.72907444837E+03  0.86361023656E+03  0.70333987927E+02 0.  0.
         24    2    4    4    0    0  0.24553481182E+02 -0.39323106079E+03  0.12735476445E+04  0.13354280737E+04  0.78809876015E+02 0.  0.
         11    1    3    3    0    0  0.40132502745E+02 -0.20972364508E+01 -0.18510000635E+01  0.40229869234E+02  0.00000000000E+00 0.  1.
        -11    1    3    3    0    0 -0.28015837801E+02 -0.60721612257E+02  0.65276702037E+01  0.67190861292E+02  0.00000000000E+00 0. -1.
          2    1    6    6  502    0  0.50259654911E+02 -0.17539380350E+03  0.57869093243E+03  0.60677196251E+03  0.00000000000E+00 0. -1.
          1    1    5    5  503    0 -0.18728224654E+02  0.34125933695E+02  0.84206603434E+02  0.92768948529E+02  0.00000000000E+00 0. -1.
         -2    1    5    5    0  503 -0.17941921472E+02  0.42192397580E+03  0.64486784494E+03  0.77084128804E+03  0.00000000000E+00 0.  1.
         -1    1    6    6    0  502 -0.25706173729E+02 -0.21783725729E+03  0.69485671208E+03  0.72865611117E+03  0.00000000000E+00 0.  1.
<mgrwt>
<rscale>  0 0.11360040E+04</rscale>
<asrwt>0</asrwt>
<pdfrwt beam="1">  1        2 0.23012331E-01 0.11360040E+04</pdfrwt>
<pdfrwt beam="2">  1       -2 0.33182750E+00 0.11360040E+04</pdfrwt>
<totfact> 0.49085972E+00</totfact>
</mgrwt>
</event>
<event>
12    1  0.1495204E-007  0.1429995E+04  0.7818608E-02  0.8932388E-01
          2   -1    0    0  501    0  0.00000000000E+00  0.00000000000E+00  0.20869564146E+04  0.20869564146E+04  0.00000000000E+00 0. -1.
         -2   -1    0    0    0  501 -0.00000000000E+00 -0.00000000000E+00 -0.24496035746E+03  0.24496035746E+03  0.00000000000E+00 0.  1.
         23    2    1    2    0    0  0.99711198642E+01 -0.42174211461E+03  0.72020994770E+03  0.83969646774E+03  0.91771208427E+02 0.  0.
        254    2    1    2    0    0 -0.99711198642E+01  0.42174211461E+03  0.11217861095E+04  0.14922203043E+04  0.88901716904E+03 0.  0.
        -24    2    4    4    0    0  0.33095566491E+03  0.42373432011E+03  0.35551025171E+03  0.64988356122E+03  0.82937795335E+02 0.  0.
         24    2    4    4    0    0 -0.34092678478E+03 -0.19922054983E+01  0.76627585775E+03  0.84233674313E+03  0.78214175059E+02 0.  0.
         13    1    3    3    0    0 -0.14726227281E+02 -0.70924120968E+02  0.19111253694E+03  0.20437978002E+03  0.00000000000E+00 0. -1.
        -13    1    3    3    0    0  0.24697347145E+02 -0.35081799364E+03  0.52909741076E+03  0.63531668772E+03  0.00000000000E+00 0.  1.
          2    1    6    6  502    0 -0.31058716290E+03 -0.24368896582E+02  0.66794808810E+03  0.73702976688E+03  0.00000000000E+00 0. -1.
          3    1    5    5  503    0  0.20643666502E+03  0.26097647021E+03  0.17094547370E+03  0.37409513449E+03  0.00000000000E+00 0. -1.
         -4    1    5    5    0  503  0.12451899989E+03  0.16275784990E+03  0.18456477800E+03  0.27578842673E+03  0.00000000000E+00 0.  1.
         -1    1    6    6    0  502 -0.30339621877E+02  0.22376691083E+02  0.98327769660E+02  0.10530697624E+03  0.00000000000E+00 0.  1.
<mgrwt>
<rscale>  0 0.14299952E+04</rscale>
<asrwt>0</asrwt>
<pdfrwt beam="1">  1        2 0.32107021E+00 0.14299952E+04</pdfrwt>
<pdfrwt beam="2">  1       -2 0.37686210E-01 0.14299952E+04</pdfrwt>
<totfact> 0.38584495E+01</totfact>
</mgrwt>
</event>
<event>
12    1  0.1495204E-007  0.2624688E+04  0.7818608E-02  0.8359863E-01
          2   -1    0    0  501    0  0.00000000000E+00  0.00000000000E+00  0.25541301047E+04  0.25541301047E+04  0.00000000000E+00 0. -1.
         -2   -1    0    0    0  501 -0.00000000000E+00 -0.00000000000E+00 -0.67429880687E+03  0.67429880687E+03  0.00000000000E+00 0.  1.
         23    2    1    2    0    0  0.52637348282E+03  0.10159151427E+04  0.10455319133E+04  0.15525888161E+04  0.90787827059E+02 0.  0.
        254    2    1    2    0    0 -0.52637348282E+03 -0.10159151427E+04  0.83429938455E+03  0.16758400955E+04  0.89623208038E+03 0.  0.
        -24    2    4    4    0    0 -0.44394096193E+03 -0.79918228800E+03  0.12550558045E+03  0.92583845843E+03  0.75161780561E+02 0.  0.
         24    2    4    4    0    0 -0.82432520892E+02 -0.21673285473E+03  0.70879380409E+03  0.75000163705E+03  0.79658948210E+02 0.  0.
         11    1    3    3    0    0  0.22062789279E+03  0.44898248534E+03  0.39824797853E+03  0.63942426575E+03  0.00000000000E+00 0.  1.
        -11    1    3    3    0    0  0.30574559003E+03  0.56693265738E+03  0.64728393475E+03  0.91316455035E+03  0.00000000000E+00 0. -1.
          2    1    6    6  502    0 -0.46910286078E+02 -0.13409513263E+03  0.54415371714E+03  0.56239252076E+03  0.00000000000E+00 0. -1.
          1    1    5    5  503    0 -0.30450856076E+03 -0.53498887938E+03  0.11936235083E+03  0.62704540141E+03  0.00000000000E+00 0. -1.
         -2    1    5    5    0  503 -0.13943240117E+03 -0.26419340862E+03  0.61432296274E+01  0.29879305702E+03  0.00000000000E+00 0.  1.
         -3    1    6    6    0  502 -0.35522234814E+02 -0.82637722096E+02  0.16464008696E+03  0.18760911628E+03  0.00000000000E+00 0.  1.
<mgrwt>
<rscale>  0 0.26246881E+04</rscale>
<asrwt>0</asrwt>
<pdfrwt beam="1">  1        2 0.39294309E+00 0.26246881E+04</pdfrwt>
<pdfrwt beam="2">  1       -2 0.10373828E+00 0.26246881E+04</pdfrwt>
<totfact> 0.21621442E+00</totfact>
</mgrwt>
</event>
<event>
12    1  0.1495204E-007  0.2613282E+04  0.7818608E-02  0.8363704E-01
         -2   -1    0    0    0  501 -0.00000000000E+00  0.00000000000E+00  0.19630327940E+04  0.19630327940E+04  0.00000000000E+00 0.  1.
          2   -1    0    0  501    0  0.00000000000E+00 -0.00000000000E+00 -0.86973101914E+03  0.86973101914E+03  0.00000000000E+00 0. -1.
         23    2    1    2    0    0  0.41684747039E+03 -0.83714279226E+03  0.12002494491E+04  0.15253507304E+04  0.10736033918E+03 0.  0.
        254    2    1    2    0    0 -0.41684747039E+03  0.83714279226E+03 -0.10694767427E+03  0.13074130827E+04  0.90737053933E+03 0.  0.
        -24    2    4    4    0    0  0.29291719347E+02  0.73338171981E+03 -0.31059407362E+03  0.80102136476E+03  0.80372858991E+02 0.  0.
         24    2    4    4    0    0 -0.44613918974E+03  0.10376107245E+03  0.20364639935E+03  0.50639171797E+03  0.71792613001E+02 0.  0.
         13    1    3    3    0    0  0.87125759523E+02 -0.17911188266E+03  0.18871335948E+03  0.27438056879E+03  0.00000000000E+00 0. -1.
        -13    1    3    3    0    0  0.32972171087E+03 -0.65803090960E+03  0.10115360896E+04  0.12509701616E+04  0.00000000000E+00 0.  1.
          4    1    6    6  502    0 -0.42848459050E+03  0.10330506117E+03  0.20918581033E+03  0.48788285807E+03  0.00000000000E+00 0. -1.
          3    1    5    5  503    0  0.57232895150E+02  0.52131222907E+03 -0.21901084744E+03  0.56833774796E+03  0.00000000000E+00 0. -1.
         -2    1    5    5    0  503 -0.27941175803E+02  0.21206949074E+03 -0.91583226180E+02  0.23268361680E+03  0.00000000000E+00 0.  1.
         -3    1    6    6    0  502 -0.17654599242E+02  0.45601128256E+00 -0.55394109798E+01  0.18508859897E+02  0.00000000000E+00 0.  1.
<mgrwt>
<rscale>  0 0.26132819E+04</rscale>
<asrwt>0</asrwt>
<pdfrwt beam="1">  1        2 0.13380477E+00 0.26132819E+04</pdfrwt>
<pdfrwt beam="2">  1       -2 0.30200504E+00 0.26132819E+04</pdfrwt>
<totfact> 0.83965884E-01</totfact>
</mgrwt>
</event>
<event>
12    1  0.1495204E-007  0.2237625E+04  0.7818608E-02  0.8502929E-01
         -1   -1    0    0    0  501 -0.00000000000E+00  0.00000000000E+00  0.47431116204E+03  0.47431116204E+03  0.00000000000E+00 0.  1.
          1   -1    0    0  501    0  0.00000000000E+00 -0.00000000000E+00 -0.26390718431E+04  0.26390718431E+04  0.00000000000E+00 0. -1.
         23    2    1    2    0    0 -0.52846233892E+03 -0.67298075065E+03 -0.14352746440E+04  0.16734043977E+04  0.89963548215E+02 0.  0.
        254    2    1    2    0    0  0.52846233892E+03  0.67298075065E+03 -0.72948603702E+03  0.14399786074E+04  0.89956265889E+03 0.  0.
        -24    2    4    4    0    0  0.39701418155E+03  0.83316383273E+03 -0.33086985661E+03  0.98363899008E+03  0.79300493440E+02 0.  0.
         24    2    4    4    0    0  0.13144815737E+03 -0.16018308208E+03 -0.39861618042E+03  0.45633961737E+03  0.80085886581E+02 0.  0.
         13    1    3    3    0    0 -0.51148495161E+03 -0.66831425807E+03 -0.14166572763E+04  0.16477799130E+04  0.00000000000E+00 0. -1.
        -13    1    3    3    0    0 -0.16977387312E+02 -0.46664925838E+01 -0.18617367669E+02  0.25624484617E+02  0.00000000000E+00 0.  1.
          4    1    6    6  502    0  0.94705367664E+02 -0.14370379400E+03 -0.36626509071E+03  0.40468506737E+03  0.00000000000E+00 0. -1.
          1    1    5    5  503    0  0.37927908774E+03  0.77721016273E+03 -0.29011842256E+03  0.91218252700E+03  0.00000000000E+00 0. -1.
         -2    1    5    5    0  503  0.17735093816E+02  0.55953669999E+02 -0.40751434043E+02  0.71456463078E+02  0.00000000000E+00 0.  1.
         -3    1    6    6    0  502  0.36742789703E+02 -0.16479288075E+02 -0.32351089703E+02  0.51654549999E+02  0.00000000000E+00 0.  1.
<mgrwt>
<rscale>  0 0.22376248E+04</rscale>
<asrwt>0</asrwt>
<pdfrwt beam="1">  1        1 0.40601105E+00 0.22376248E+04</pdfrwt>
<pdfrwt beam="2">  1       -1 0.72970949E-01 0.22376248E+04</pdfrwt>
<totfact> 0.18640384E+00</totfact>
</mgrwt>
</event>
<event>
12    1  0.1495204E-007  0.3216317E+04  0.7818608E-02  0.8184521E-01
          2   -1    0    0  501    0  0.00000000000E+00  0.00000000000E+00  0.17059461391E+04  0.17059461391E+04  0.00000000000E+00 0. -1.
         -2   -1    0    0    0  501 -0.00000000000E+00 -0.00000000000E+00 -0.15159764573E+04  0.15159764573E+04  0.00000000000E+00 0.  1.
         23    2    1    2    0    0  0.69613099348E+03 -0.76924239206E+03 -0.97786107378E+03  0.14286567182E+04  0.92279580662E+02 0.  0.
        254    2    1    2    0    0 -0.69613099348E+03  0.76924239206E+03  0.11678307555E+04  0.17932658782E+04  0.88070518241E+03 0.  0.
        -24    2    4    4    0    0 -0.88650327603E+03  0.71011756997E+03  0.10472529222E+04  0.15470579102E+04  0.80588292575E+02 0.  0.
         24    2    4    4    0    0  0.19037228254E+03  0.59124822093E+02  0.12057783333E+03  0.24620796794E+03  0.79636668930E+02 0.  0.
         13    1    3    3    0    0  0.34579657939E+03 -0.32982743469E+03 -0.49029728950E+03  0.68465527318E+03  0.00000000000E+00 0.  1.
        -13    1    3    3    0    0  0.35033441409E+03 -0.43941495736E+03 -0.48756378427E+03  0.74400144502E+03  0.00000000000E+00 0. -1.
          2    1    6    6  502    0  0.10770380115E+03  0.33116882427E+02  0.11240653736E+03  0.15916050491E+03  0.00000000000E+00 0. -1.
          3    1    5    5  503    0 -0.69617742823E+03  0.53032155784E+03  0.76938722006E+03  0.11652727838E+04  0.00000000000E+00 0. -1.
         -4    1    5    5    0  503 -0.19032584780E+03  0.17979601213E+03  0.27786570215E+03  0.38178512641E+03  0.00000000000E+00 0.  1.
         -1    1    6    6    0  502  0.82668481393E+02  0.26007939666E+02  0.81712959745E+01  0.87047463027E+02  0.00000000000E+00 0.  1.
<mgrwt>
<rscale>  0 0.32163173E+04</rscale>
<asrwt>0</asrwt>
<pdfrwt beam="1">  1        2 0.26245325E+00 0.32163173E+04</pdfrwt>
<pdfrwt beam="2">  1       -2 0.23322715E+00 0.32163173E+04</pdfrwt>
<totfact> 0.66803013E-01</totfact>
</mgrwt>
</event>
<event>
12    1  0.1495204E-007  0.1376744E+04  0.7818608E-02  0.8970826E-01
         -2   -1    0    0    0  501 -0.00000000000E+00  0.00000000000E+00  0.61610904535E+03  0.61610904535E+03  0.00000000000E+00 0.  1.
          2   -1    0    0  501    0  0.00000000000E+00 -0.00000000000E+00 -0.76911099990E+03  0.76911099990E+03  0.00000000000E+00 0. -1.
         23    2    1    2    0    0  0.34512823366E+03  0.15263567965E+03  0.42896722679E+02  0.39064110177E+03  0.91373919721E+02 0.  0.
        254    2    1    2    0    0 -0.34512823366E+03 -0.15263567965E+03 -0.19589867723E+03  0.99457894348E+03  0.89911057980E+03 0.  0.
        -24    2    4    4    0    0 -0.27371604302E+02  0.69979981928E+02  0.32330391942E+03  0.34151677257E+03  0.80385813701E+02 0.  0.
         24    2    4    4    0    0 -0.31775662936E+03 -0.22261566157E+03 -0.51920259665E+03  0.65306217091E+03  0.79949074017E+02 0.  0.
         13    1    3    3    0    0  0.31498978652E+02  0.14655941156E+02  0.32912706385E+02  0.47856331962E+02  0.00000000000E+00 0.  1.
        -13    1    3    3    0    0  0.31362925501E+03  0.13797973849E+03  0.99840162933E+01  0.34278476981E+03  0.00000000000E+00 0. -1.
          4    1    6    6  502    0 -0.15723088340E+03 -0.15854233722E+03 -0.29167144622E+03  0.36732745055E+03  0.00000000000E+00 0. -1.
          3    1    5    5  503    0 -0.54950136413E+02  0.55545961769E+02  0.21190967368E+03  0.22585522167E+03  0.00000000000E+00 0. -1.
         -4    1    5    5    0  503  0.27578532112E+02  0.14434020159E+02  0.11139424574E+03  0.11566155090E+03  0.00000000000E+00 0.  1.
         -1    1    6    6    0  502 -0.16052574595E+03 -0.64073324354E+02 -0.22753115043E+03  0.28573472036E+03  0.00000000000E+00 0.  1.
<mgrwt>
<rscale>  0 0.13767443E+04</rscale>
<asrwt>0</asrwt>
<pdfrwt beam="1">  1        2 0.11832477E+00 0.13767443E+04</pdfrwt>
<pdfrwt beam="2">  1       -2 0.94786007E-01 0.13767443E+04</pdfrwt>
<totfact> 0.33156812E+01</totfact>
</mgrwt>
</event>
<event>
12    1  0.1495204E-007  0.1940157E+04  0.7818608E-02  0.8635122E-01
         -2   -1    0    0    0  501 -0.00000000000E+00  0.00000000000E+00  0.30492060543E+03  0.30492060543E+03  0.00000000000E+00 0.  1.
          2   -1    0    0  501    0  0.00000000000E+00 -0.00000000000E+00 -0.30862200738E+04  0.30862200738E+04  0.00000000000E+00 0. -1.
         23    2    1    2    0    0  0.25416607032E+03 -0.69722034848E+03 -0.13303437642E+04  0.15262010375E+04  0.93586698309E+02 0.  0.
        254    2    1    2    0    0 -0.25416607032E+03  0.69722034848E+03 -0.14509557042E+04  0.18649396418E+04  0.90664811611E+03 0.  0.
        -24    2    4    4    0    0  0.70698871102E+02  0.75290664300E+03 -0.12708314608E+04  0.14809875846E+04  0.80280012856E+02 0.  0.
         24    2    4    4    0    0 -0.32486494142E+03 -0.55686294516E+02 -0.18012424339E+03  0.38395205723E+03  0.79600537927E+02 0.  0.
         11    1    3    3    0    0  0.11418194696E+03 -0.20427700316E+03 -0.46327596252E+03  0.51902912103E+03  0.00000000000E+00 0. -1.
        -11    1    3    3    0    0  0.13998412335E+03 -0.49294334532E+03 -0.86706780170E+03  0.10071719164E+04  0.00000000000E+00 0.  1.
          2    1    6    6  502    0 -0.23921903853E+03 -0.76048079852E+02 -0.13557521088E+03  0.28528879517E+03  0.00000000000E+00 0. -1.
          1    1    5    5  503    0  0.63340962626E+01  0.42878011157E+03 -0.75846902187E+03  0.87130233673E+03  0.00000000000E+00 0. -1.
         -2    1    5    5    0  503  0.64364774839E+02  0.32412653143E+03 -0.51236243892E+03  0.60968524784E+03  0.00000000000E+00 0.  1.
         -1    1    6    6    0  502 -0.85645902890E+02  0.20361785336E+02 -0.44549032509E+02  0.98663262066E+02  0.00000000000E+00 0.  1.
<mgrwt>
<rscale>  0 0.19401568E+04</rscale>
<asrwt>0</asrwt>
<pdfrwt beam="1">  1        2 0.47480311E+00 0.19401568E+04</pdfrwt>
<pdfrwt beam="2">  1       -2 0.46910861E-01 0.19401568E+04</pdfrwt>
<totfact> 0.61957001E+00</totfact>
</mgrwt>
</event>
<event>
12    1  0.1495204E-007  0.1966271E+04  0.7818608E-02  0.8622555E-01
          2   -1    0    0  501    0  0.00000000000E+00  0.00000000000E+00  0.72337424196E+03  0.72337424196E+03  0.00000000000E+00 0. -1.
         -2   -1    0    0    0  501 -0.00000000000E+00 -0.00000000000E+00 -0.13361757245E+04  0.13361757245E+04  0.00000000000E+00 0.  1.
         23    2    1    2    0    0  0.55134504583E+03  0.10355497776E+03  0.31783772626E+03  0.65105299782E+03  0.90245181327E+02 0.  0.
        254    2    1    2    0    0 -0.55134504583E+03 -0.10355497776E+03 -0.93063920877E+03  0.14084969686E+04  0.89614138435E+03 0.  0.
        -24    2    4    4    0    0  0.53575799787E+02 -0.34190918629E+03 -0.13777510177E+03  0.37996244483E+03  0.74948134245E+02 0.  0.
         24    2    4    4    0    0 -0.60492084561E+03  0.23835420853E+03 -0.79286410700E+03  0.10285345238E+04  0.80671037386E+02 0.  0.
         13    1    3    3    0    0  0.23474562163E+03  0.29755747068E+02  0.18291109019E+03  0.29907754558E+03  0.00000000000E+00 0. -1.
        -13    1    3    3    0    0  0.31659942420E+03  0.73799230693E+02  0.13492663607E+03  0.35197545224E+03  0.00000000000E+00 0.  1.
          2    1    6    6  502    0 -0.13652368317E+03  0.72740965681E+02 -0.14425442688E+03  0.21151667506E+03  0.00000000000E+00 0. -1.
          3    1    5    5  503    0  0.36909405781E+02 -0.18743842791E+03 -0.11487545396E+03  0.22291666249E+03  0.00000000000E+00 0. -1.
         -4    1    5    5    0  503  0.16666394006E+02 -0.15447075838E+03 -0.22899647808E+02  0.15704578235E+03  0.00000000000E+00 0.  1.
         -1    1    6    6    0  502 -0.46839716245E+03  0.16561324284E+03 -0.64860968013E+03  0.81701784873E+03  0.00000000000E+00 0.  1.
<mgrwt>
<rscale>  0 0.19662707E+04</rscale>
<asrwt>0</asrwt>
<pdfrwt beam="1">  1        2 0.11128835E+00 0.19662707E+04</pdfrwt>
<pdfrwt beam="2">  1       -2 0.20556549E+00 0.19662707E+04</pdfrwt>
<totfact> 0.44746849E+00</totfact>
</mgrwt>
</event>
<event>
12    1  0.1495204E-007  0.1402670E+04  0.7818608E-02  0.8951888E-01
          1   -1    0    0  501    0  0.00000000000E+00  0.00000000000E+00  0.33952090388E+04  0.33952090388E+04  0.00000000000E+00 0. -1.
         -1   -1    0    0    0  501 -0.00000000000E+00 -0.00000000000E+00 -0.14487207343E+03  0.14487207343E+03  0.00000000000E+00 0.  1.
         23    2    1    2    0    0  0.23638052191E+03  0.14207475694E+03  0.16872824933E+04  0.17121401083E+04  0.91872468263E+02 0.  0.
        254    2    1    2    0    0 -0.23638052191E+03 -0.14207475694E+03  0.15630544720E+04  0.18279410039E+04  0.90673482542E+03 0.  0.
        -24    2    4    4    0    0 -0.40048358365E+03 -0.33554340657E+03  0.14415323597E+04  0.15354020281E+04  0.80419930835E+02 0.  0.
         24    2    4    4    0    0  0.16410306174E+03  0.19346864962E+03  0.12152211233E+03  0.29253897587E+03  0.80321201174E+02 0.  0.
         11    1    3    3    0    0  0.23191340472E+03  0.14000605381E+03  0.14669894442E+04  0.14917920605E+04  0.00000000000E+00 0. -1.
        -11    1    3    3    0    0  0.44671171909E+01  0.20687031362E+01  0.22029304911E+03  0.22034804777E+03  0.00000000000E+00 0.  1.
          2    1    6    6  502    0  0.50806056639E+02  0.12002423929E+03  0.48721201235E+02  0.13914319552E+03  0.00000000000E+00 0. -1.
          1    1    5    5  503    0 -0.12886095077E+02 -0.37021010009E+02  0.11827836304E+03  0.12460488671E+03  0.00000000000E+00 0. -1.
         -2    1    5    5    0  503 -0.38759748857E+03 -0.29852239656E+03  0.13232539967E+04  0.14107971414E+04  0.00000000000E+00 0.  1.
         -1    1    6    6    0  502  0.11329700510E+03  0.73444410329E+02  0.72800911098E+02  0.15339578035E+03  0.00000000000E+00 0.  1.
<mgrwt>
<rscale>  0 0.14026703E+04</rscale>
<asrwt>0</asrwt>
<pdfrwt beam="1">  1        1 0.52233979E+00 0.14026703E+04</pdfrwt>
<pdfrwt beam="2">  1       -1 0.22288014E-01 0.14026703E+04</pdfrwt>
<totfact> 0.50775974E+00</totfact>
</mgrwt>
</event>
<event>
12    1  0.1495204E-007  0.3316134E+04  0.7818608E-02  0.8158802E-01
         -2   -1    0    0    0  501 -0.00000000000E+00  0.00000000000E+00  0.11384641656E+04  0.11384641656E+04  0.00000000000E+00 0.  1.
          2   -1    0    0  501    0  0.00000000000E+00 -0.00000000000E+00 -0.24148205006E+04  0.24148205006E+04  0.00000000000E+00 0. -1.
         23    2    1    2    0    0  0.91910984027E+03 -0.13099889559E+03  0.71563892343E+03  0.11760770444E+04  0.95365278967E+02 0.  0.
        254    2    1    2    0    0 -0.91910984027E+03  0.13099889559E+03 -0.19919952584E+04  0.23772076219E+04  0.90617181527E+03 0.  0.
        -24    2    4    4    0    0 -0.22046573613E+03 -0.34155575584E+03 -0.93440609154E+03  0.10221676678E+04  0.80290235719E+02 0.  0.
         24    2    4    4    0    0 -0.69864410413E+03  0.47255465143E+03 -0.10575891669E+04  0.13550399541E+04  0.78911016362E+02 0.  0.
         11    1    3    3    0    0  0.16881381493E+03  0.12844534336E+02  0.13292088760E+03  0.21524648321E+03  0.00000000000E+00 0. -1.
        -11    1    3    3    0    0  0.75029602534E+03 -0.14384342992E+03  0.58271803583E+03  0.96083056116E+03  0.00000000000E+00 0.  1.
          2    1    6    6  502    0 -0.17530030865E+03  0.15714216358E+03 -0.31865124014E+03  0.39618489450E+03  0.00000000000E+00 0. -1.
          1    1    5    5  503    0 -0.90269836606E+02 -0.74056721851E+02 -0.25241171844E+03  0.27810918191E+03  0.00000000000E+00 0. -1.
         -2    1    5    5    0  503 -0.13019589953E+03 -0.26749903399E+03 -0.68199437309E+03  0.74405848585E+03  0.00000000000E+00 0.  1.
         -1    1    6    6    0  502 -0.52334379549E+03  0.31541248784E+03 -0.73893792673E+03  0.95885505960E+03  0.00000000000E+00 0.  1.
<mgrwt>
<rscale>  0 0.33161343E+04</rscale>
<asrwt>0</asrwt>
<pdfrwt beam="1">  1        2 0.37151085E+00 0.33161343E+04</pdfrwt>
<pdfrwt beam="2">  1       -2 0.17514833E+00 0.33161343E+04</pdfrwt>
<totfact> 0.63729396E-01</totfact>
</mgrwt>
</event>
<event>
12    1  0.1495204E-007  0.3315935E+04  0.7818608E-02  0.8158853E-01
          1   -1    0    0  501    0  0.00000000000E+00  0.00000000000E+00  0.12290440176E+04  0.12290440176E+04  0.00000000000E+00 0. -1.
         -1   -1    0    0    0  501 -0.00000000000E+00 -0.00000000000E+00 -0.22365804691E+04  0.22365804691E+04  0.00000000000E+00 0.  1.
         23    2    1    2    0    0 -0.51246505921E+03  0.88949914901E+03 -0.16606691607E+04  0.19544141563E+04  0.89908062944E+02 0.  0.
        254    2    1    2    0    0  0.51246505921E+03 -0.88949914901E+03  0.65313270929E+03  0.15112103305E+04  0.89629523820E+03 0.  0.
        -24    2    4    4    0    0  0.71564046070E+03 -0.77267065854E+03  0.68793853419E+03  0.12605454469E+04  0.80957897644E+02 0.  0.
         24    2    4    4    0    0 -0.20317540150E+03 -0.11682849047E+03 -0.34805824899E+02  0.25066488363E+03  0.81806469661E+02 0.  0.
         11    1    3    3    0    0 -0.40966044555E+03  0.77441615769E+03 -0.14030521926E+04  0.16541153288E+04  0.00000000000E+00 0.  1.
        -11    1    3    3    0    0 -0.10280461366E+03  0.11508299132E+03 -0.25761696815E+03  0.30029882743E+03  0.00000000000E+00 0. -1.
          4    1    6    6  502    0 -0.14557653808E+03 -0.10608731423E+03 -0.55562188479E+02  0.18850518154E+03  0.00000000000E+00 0. -1.
          1    1    5    5  503    0  0.28876763702E+03 -0.36788426405E+03  0.28944193723E+03  0.55000201359E+03  0.00000000000E+00 0. -1.
         -2    1    5    5    0  503  0.42687282368E+03 -0.40478639450E+03  0.39849659696E+03  0.71054343327E+03  0.00000000000E+00 0.  1.
         -3    1    6    6    0  502 -0.57598863422E+02 -0.10741176234E+02  0.20756363580E+02  0.62159702086E+02  0.00000000000E+00 0.  1.
<mgrwt>
<rscale>  0 0.33159348E+04</rscale>
<asrwt>0</asrwt>
<pdfrwt beam="1">  1        1 0.18908370E+00 0.33159348E+04</pdfrwt>
<pdfrwt beam="2">  1       -1 0.34408930E+00 0.33159348E+04</pdfrwt>
<totfact> 0.14330579E-01</totfact>
</mgrwt>
</event>
<event>
12    1  0.1495204E-007  0.1325644E+04  0.7818608E-02  0.9009473E-01
         -1   -1    0    0    0  501 -0.00000000000E+00  0.00000000000E+00  0.10369651961E+04  0.10369651961E+04  0.00000000000E+00 0.  1.
          1   -1    0    0  501    0  0.00000000000E+00 -0.00000000000E+00 -0.42367167979E+03  0.42367167979E+03  0.00000000000E+00 0. -1.
         23    2    1    2    0    0 -0.87289154707E+02  0.27870773155E+03  0.11341279456E+02  0.31049834345E+03  0.10480076579E+03 0.  0.
        254    2    1    2    0    0  0.87289154707E+02 -0.27870773155E+03  0.60195223689E+03  0.11501385325E+04  0.93550775102E+03 0.  0.
        -24    2    4    4    0    0  0.43136561303E+03 -0.16939740793E+03  0.33008613231E+02  0.47142689824E+03  0.79887282581E+02 0.  0.
         24    2    4    4    0    0 -0.34407645832E+03 -0.10931032362E+03  0.56894362366E+03  0.67871163423E+03  0.81334368595E+02 0.  0.
         13    1    3    3    0    0 -0.95078730692E+01  0.24236182217E+02 -0.31620479934E+02  0.40959088491E+02  0.00000000000E+00 0. -1.
        -13    1    3    3    0    0 -0.77781281638E+02  0.25447154933E+03  0.42961759389E+02  0.26953925496E+03  0.00000000000E+00 0.  1.
          4    1    6    6  502    0 -0.32837534700E+03 -0.11346794212E+03  0.50660243576E+03  0.61428932135E+03  0.00000000000E+00 0. -1.
          3    1    5    5  503    0  0.37570565226E+03 -0.11887611731E+03  0.39168320642E+02  0.39600558803E+03  0.00000000000E+00 0. -1.
         -4    1    5    5    0  503  0.55659960772E+02 -0.50521290620E+02 -0.61597074104E+01  0.75421310214E+02  0.00000000000E+00 0.  1.
         -3    1    6    6    0  502 -0.15701111326E+02  0.41576185004E+01  0.62341187894E+02  0.64422312877E+02  0.00000000000E+00 0.  1.
<mgrwt>
<rscale>  0 0.13256437E+04</rscale>
<asrwt>0</asrwt>
<pdfrwt beam="1">  1        1 0.65180259E-01 0.13256437E+04</pdfrwt>
<pdfrwt beam="2">  1       -1 0.15953311E+00 0.13256437E+04</pdfrwt>
<totfact> 0.16049466E+01</totfact>
</mgrwt>
</event>
<event>
12    1  0.1495204E-007  0.2893168E+04  0.7818608E-02  0.8274913E-01
         -2   -1    0    0    0  501 -0.00000000000E+00  0.00000000000E+00  0.91188069141E+03  0.91188069141E+03  0.00000000000E+00 0.  1.
          2   -1    0    0  501    0  0.00000000000E+00 -0.00000000000E+00 -0.22948236406E+04  0.22948236406E+04  0.00000000000E+00 0. -1.
         23    2    1    2    0    0  0.28316357597E+03  0.61642535653E+03 -0.18604762357E+04  0.19824339471E+04  0.92253455811E+02 0.  0.
        254    2    1    2    0    0 -0.28316357597E+03 -0.61642535653E+03  0.47753328653E+03  0.12242703849E+04  0.90035443276E+03 0.  0.
        -24    2    4    4    0    0  0.23708792974E+03 -0.45113328008E+03  0.42775155397E+03  0.67019455297E+03  0.80358098995E+02 0.  0.
         24    2    4    4    0    0 -0.52025150571E+03 -0.16529207644E+03  0.49781732561E+02  0.55407583190E+03  0.80862271019E+02 0.  0.
         13    1    3    3    0    0  0.22288614370E+03  0.47732546820E+03 -0.15467646412E+04  0.16340130633E+04  0.00000000000E+00 0. -1.
        -13    1    3    3    0    0  0.60277432271E+02  0.13909988832E+03 -0.31371159446E+03  0.34842088381E+03  0.00000000000E+00 0.  1.
          4    1    6    6  502    0 -0.31069764334E+03 -0.11770434973E+03  0.65393351565E+02  0.33862018539E+03  0.00000000000E+00 0. -1.
          1    1    5    5  503    0  0.10442274727E+03 -0.16859536856E+03  0.11965370524E+03  0.23161502030E+03  0.00000000000E+00 0. -1.
         -2    1    5    5    0  503  0.13266518247E+03 -0.28253791152E+03  0.30809784873E+03  0.43857953267E+03  0.00000000000E+00 0.  1.
         -3    1    6    6    0  502 -0.20955386237E+03 -0.47587726712E+02 -0.15611619005E+02  0.21545564652E+03  0.00000000000E+00 0.  1.
<mgrwt>
<rscale>  0 0.28931681E+04</rscale>
<asrwt>0</asrwt>
<pdfrwt beam="1">  1        2 0.35304979E+00 0.28931681E+04</pdfrwt>
<pdfrwt beam="2">  1       -2 0.14028934E+00 0.28931681E+04</pdfrwt>
<totfact> 0.14079405E+00</totfact>
</mgrwt>
</event>
<event>
12    1  0.1495204E-007  0.2500339E+04  0.7818608E-02  0.8402865E-01
          2   -1    0    0  501    0  0.00000000000E+00  0.00000000000E+00  0.16837050552E+04  0.16837050552E+04  0.00000000000E+00 0.  1.
         -2   -1    0    0    0  501 -0.00000000000E+00 -0.00000000000E+00 -0.92826446364E+03  0.92826446364E+03  0.00000000000E+00 0. -1.
         23    2    1    2    0    0 -0.64460988415E+03 -0.74198106944E+03 -0.18107748263E+03  0.10033739956E+04  0.88952291571E+02 0.  0.
        254    2    1    2    0    0  0.64460988415E+03  0.74198106944E+03  0.93651807414E+03  0.16085955232E+04  0.86281843043E+03 0.  0.
        -24    2    4    4    0    0  0.27498825385E+03  0.85103615318E+03  0.76394428188E+03  0.11788419437E+04  0.78590003434E+02 0.  0.
         24    2    4    4    0    0  0.36962163030E+03 -0.10905508374E+03  0.17257379226E+03  0.42975357948E+03  0.79957891609E+02 0.  0.
         11    1    3    3    0    0 -0.89856221891E+02 -0.79867946829E+02  0.26668936564E+01  0.12025033000E+03  0.00000000000E+00 0.  1.
        -11    1    3    3    0    0 -0.55475366226E+03 -0.66211312261E+03 -0.18374437629E+03  0.88312366560E+03  0.00000000000E+00 0. -1.
          4    1    6    6  502    0  0.46867748199E+02  0.80325557763E+01  0.38443298760E+02  0.61147322044E+02  0.00000000000E+00 0. -1.
          1    1    5    5  503    0  0.11939082353E+02  0.21016353510E+02  0.38841127794E+02  0.45747808806E+02  0.00000000000E+00 0. -1.
         -2    1    5    5    0  503  0.26304917150E+03  0.83001979967E+03  0.72510315409E+03  0.11330941349E+04  0.00000000000E+00 0.  1.
         -3    1    6    6    0  502  0.32275388210E+03 -0.11708763952E+03  0.13413049350E+03  0.36860625744E+03  0.00000000000E+00 0.  1.
<mgrwt>
<rscale>  0 0.25003388E+04</rscale>
<asrwt>0</asrwt>
<pdfrwt beam="1">  1        2 0.25903155E+00 0.25003388E+04</pdfrwt>
<pdfrwt beam="2">  1       -2 0.14280992E+00 0.25003388E+04</pdfrwt>
<totfact> 0.30461013E+00</totfact>
</mgrwt>
</event>
<event>
12    1  0.1495204E-007  0.1252997E+04  0.7818608E-02  0.9067692E-01
          2   -1    0    0  501    0  0.00000000000E+00  0.00000000000E+00  0.22563367738E+04  0.22563367738E+04  0.00000000000E+00 0. -1.
         -2   -1    0    0    0  501 -0.00000000000E+00 -0.00000000000E+00 -0.17395481272E+03  0.17395481272E+03  0.00000000000E+00 0.  1.
         23    2    1    2    0    0 -0.35175512862E+01 -0.29661634711E+03  0.45175414840E+03  0.54792474391E+03  0.90255658313E+02 0.  0.
        254    2    1    2    0    0  0.35175512862E+01  0.29661634711E+03  0.16306278127E+04  0.18823668427E+04  0.89239242273E+03 0.  0.
        -24    2    4    4    0    0 -0.20681285503E+03  0.53633606941E+03  0.79702730439E+03  0.98587612663E+03  0.79191393189E+02 0.  0.
         24    2    4    4    0    0  0.21033040631E+03 -0.23971972230E+03  0.83360050833E+03  0.89649071602E+03  0.84269634736E+02 0.  0.
         13    1    3    3    0    0 -0.30994155437E+02 -0.26747499067E+03  0.40525213534E+03  0.48655195149E+03  0.00000000000E+00 0. -1.
        -13    1    3    3    0    0  0.27476604151E+02 -0.29141356436E+02  0.46502013059E+02  0.61372792418E+02  0.00000000000E+00 0.  1.
          4    1    6    6  502    0  0.18324992558E+03 -0.19814560856E+03  0.76932172820E+03  0.81529021759E+03  0.00000000000E+00 0. -1.
          3    1    5    5  503    0 -0.93045981341E+02  0.17202964250E+03  0.22380729248E+03  0.29722290744E+03  0.00000000000E+00 0. -1.
         -4    1    5    5    0  503 -0.11376687369E+03  0.36430642691E+03  0.57322001192E+03  0.68865321919E+03  0.00000000000E+00 0.  1.
         -3    1    6    6    0  502  0.27080480736E+02 -0.41574113737E+02  0.64278780128E+02  0.81200498426E+02  0.00000000000E+00 0.  1.
<mgrwt>
<rscale>  0 0.12529974E+04</rscale>
<asrwt>0</asrwt>
<pdfrwt beam="1">  1        2 0.34712871E+00 0.12529974E+04</pdfrwt>
<pdfrwt beam="2">  1       -2 0.26762280E-01 0.12529974E+04</pdfrwt>
<totfact> 0.59964274E+01</totfact>
</mgrwt>
</event>
<event>
12    1  0.1495204E-007  0.3707578E+04  0.7818608E-02  0.8066285E-01
         -1   -1    0    0    0  501 -0.00000000000E+00  0.00000000000E+00  0.13277895320E+04  0.13277895320E+04  0.00000000000E+00 0.  1.
          1   -1    0    0  501    0  0.00000000000E+00 -0.00000000000E+00 -0.25881614734E+04  0.25881614734E+04  0.00000000000E+00 0. -1.
         23    2    1    2    0    0 -0.13506560028E+04 -0.94375322158E+03 -0.11923637146E+04  0.20358925658E+04  0.90473921466E+02 0.  0.
        254    2    1    2    0    0  0.13506560028E+04  0.94375322158E+03 -0.68008226840E+02  0.18800584397E+04  0.90280276738E+03 0.  0.
        -24    2    4    4    0    0  0.24940725905E+03  0.60854483601E+03  0.20678780377E+03  0.69400496227E+03  0.79692493817E+02 0.  0.
         24    2    4    4    0    0  0.11012487437E+04  0.33520838558E+03 -0.27479603061E+03  0.11860534774E+04  0.78080315264E+02 0.  0.
         11    1    3    3    0    0 -0.12556346114E+03 -0.12161866336E+03 -0.12634303584E+03  0.21568459555E+03  0.00000000000E+00 0.  1.
        -11    1    3    3    0    0 -0.12250925416E+04 -0.82213455822E+03 -0.10660206787E+04  0.18202079702E+04  0.00000000000E+00 0. -1.
          4    1    6    6  502    0  0.10329717744E+04  0.29732548270E+03 -0.26705615073E+03  0.11075884240E+04  0.00000000000E+00 0. -1.
          3    1    5    5  503    0  0.23336575100E+03  0.51649627395E+03  0.15690725188E+03  0.58808831006E+03  0.00000000000E+00 0. -1.
         -4    1    5    5    0  503  0.16041508050E+02  0.92048562060E+02  0.49880551893E+02  0.10591665221E+03  0.00000000000E+00 0.  1.
         -3    1    6    6    0  502  0.68276969285E+02  0.37882902876E+02 -0.77398798760E+01  0.78465053403E+02  0.00000000000E+00 0.  1.
<mgrwt>
<rscale>  0 0.37075780E+04</rscale>
<asrwt>0</asrwt>
<pdfrwt beam="1">  1        1 0.39817869E+00 0.37075780E+04</pdfrwt>
<pdfrwt beam="2">  1       -1 0.20427531E+00 0.37075780E+04</pdfrwt>
<totfact> 0.13261333E-01</totfact>
</mgrwt>
</event>
<event>
12    1  0.1495204E-007  0.2440162E+04  0.7818608E-02  0.8424619E-01
         -2   -1    0    0    0  501 -0.00000000000E+00  0.00000000000E+00  0.10483027850E+04  0.10483027850E+04  0.00000000000E+00 0.  1.
          2   -1    0    0  501    0  0.00000000000E+00 -0.00000000000E+00 -0.14200072687E+04  0.14200072687E+04  0.00000000000E+00 0. -1.
         23    2    1    2    0    0  0.62929946099E+03  0.11338203211E+01 -0.98641873097E+03  0.11766545780E+04  0.12439849687E+03 0.  0.
        254    2    1    2    0    0 -0.62929946099E+03 -0.11338203211E+01  0.61471424726E+03  0.12916554756E+04  0.94577014376E+03 0.  0.
        -24    2    4    4    0    0 -0.48269048841E+03  0.12119128396E+03 -0.12842634182E+03  0.51988888908E+03  0.78190132412E+02 0.  0.
         24    2    4    4    0    0 -0.14660897258E+03 -0.12232510428E+03  0.74314058908E+03  0.77176658656E+03  0.83115022858E+02 0.  0.
         11    1    3    3    0    0  0.46342049806E+03  0.36642302134E+02 -0.64092237042E+03  0.79175924449E+03  0.00000000000E+00 0. -1.
        -11    1    3    3    0    0  0.16587896293E+03 -0.35508481813E+02 -0.34549636055E+03  0.38489533354E+03  0.00000000000E+00 0.  1.
          2    1    6    6  502    0 -0.90081825067E+02 -0.54950136959E+02  0.54296401097E+03  0.55312220166E+03  0.00000000000E+00 0. -1.
          1    1    5    5  503    0 -0.48291625320E+03  0.12542181585E+03 -0.12479207205E+03  0.51430710742E+03  0.00000000000E+00 0. -1.
         -2    1    5    5    0  503  0.22576478920E+00 -0.42305318848E+01 -0.36342697699E+01  0.55817816626E+01  0.00000000000E+00 0.  1.
         -1    1    6    6    0  502 -0.56527147516E+02 -0.67374967325E+02  0.20017657811E+03  0.21864438490E+03  0.00000000000E+00 0.  1.
<mgrwt>
<rscale>  0 0.24401619E+04</rscale>
<asrwt>0</asrwt>
<pdfrwt beam="1">  1        2 0.21846265E+00 0.24401619E+04</pdfrwt>
<pdfrwt beam="2">  1       -2 0.16127735E+00 0.24401619E+04</pdfrwt>
<totfact> 0.31140937E+00</totfact>
</mgrwt>
</event>
<event>
12    1  0.1495204E-007  0.2605494E+04  0.7818608E-02  0.8366338E-01
          1   -1    0    0  501    0  0.00000000000E+00  0.00000000000E+00  0.11372712591E+04  0.11372712591E+04  0.00000000000E+00 0. -1.
         -1   -1    0    0    0  501 -0.00000000000E+00 -0.00000000000E+00 -0.14922995203E+04  0.14922995203E+04  0.00000000000E+00 0.  1.
         23    2    1    2    0    0 -0.95975804853E+03 -0.53889127074E+03  0.16448363827E+03  0.11165502710E+04  0.89946244804E+02 0.  0.
        254    2    1    2    0    0  0.95975804853E+03  0.53889127074E+03 -0.51951189948E+03  0.15130205085E+04  0.89877646383E+03 0.  0.
        -24    2    4    4    0    0 -0.33553836628E+02 -0.93852498467E+00  0.16625154319E+03  0.18829222580E+03  0.81778028241E+02 0.  0.
         24    2    4    4    0    0  0.99331188516E+03  0.53982979572E+03 -0.68576344267E+03  0.13247282827E+04  0.80924743101E+02 0.  0.
         11    1    3    3    0    0 -0.49380503326E+03 -0.32764225082E+03  0.79114391948E+02  0.59787284802E+03  0.00000000000E+00 0. -1.
        -11    1    3    3    0    0 -0.46595301527E+03 -0.21124901992E+03  0.85369246320E+02  0.51867742295E+03  0.00000000000E+00 0.  1.
          4    1    6    6  502    0  0.25242347153E+03  0.16934378184E+03 -0.15859845026E+03  0.34285331244E+03  0.00000000000E+00 0. -1.
          1    1    5    5  503    0  0.24849230170E+02  0.13398632207E+02  0.55443032521E+02  0.62216858167E+02  0.00000000000E+00 0. -1.
         -2    1    5    5    0  503 -0.58403066798E+02 -0.14337157191E+02  0.11080851067E+03  0.12607536763E+03  0.00000000000E+00 0.  1.
         -3    1    6    6    0  502  0.74088841362E+03  0.37048601388E+03 -0.52716499241E+03  0.98187497022E+03  0.00000000000E+00 0.  1.
<mgrwt>
<rscale>  0 0.26054937E+04</rscale>
<asrwt>0</asrwt>
<pdfrwt beam="1">  1        1 0.17496481E+00 0.26054937E+04</pdfrwt>
<pdfrwt beam="2">  1       -1 0.22958454E+00 0.26054937E+04</pdfrwt>
<totfact> 0.99417457E-01</totfact>
</mgrwt>
</event>
<event>
12    1  0.1495204E-007  0.3410038E+04  0.7818608E-02  0.8135447E-01
         -2   -1    0    0    0  501 -0.00000000000E+00  0.00000000000E+00  0.89100670233E+03  0.89100670233E+03  0.00000000000E+00 0. -1.
          2   -1    0    0  501    0  0.00000000000E+00 -0.00000000000E+00 -0.32627024267E+04  0.32627024267E+04  0.00000000000E+00 0.  1.
         23    2    1    2    0    0  0.13023086254E+04 -0.19076568302E+03 -0.24356698646E+02  0.13194982131E+04  0.89905416850E+02 0.  0.
        254    2    1    2    0    0 -0.13023086254E+04  0.19076568302E+03 -0.23473390257E+04  0.28342109159E+04  0.88901727376E+03 0.  0.
        -24    2    4    4    0    0  0.22468865633E+02 -0.12508199726E+03 -0.59430985038E+03  0.61282634406E+03  0.78750071481E+02 0.  0.
         24    2    4    4    0    0 -0.13247774910E+04  0.31584768028E+03 -0.17530291753E+04  0.22213845719E+04  0.81504410493E+02 0.  0.
         13    1    3    3    0    0  0.11097585462E+03  0.83540305137E+01  0.29912012151E+01  0.11133003826E+03  0.00000000000E+00 0.  1.
        -13    1    3    3    0    0  0.11913327707E+04 -0.19911971353E+03 -0.27347899861E+02  0.12081681748E+04  0.00000000000E+00 0. -1.
          2    1    6    6  502    0 -0.73991534298E+02  0.37521332275E+02 -0.10512152221E+03  0.13391464429E+03  0.00000000000E+00 0. -1.
          1    1    5    5  503    0 -0.20797824438E+02 -0.50957630491E+01 -0.10535785105E+03  0.10751182763E+03  0.00000000000E+00 0. -1.
         -2    1    5    5    0  503  0.43266690071E+02 -0.11998623421E+03 -0.48895199933E+03  0.50531451643E+03  0.00000000000E+00 0.  1.
         -1    1    6    6    0  502 -0.12507859567E+04  0.27832634800E+03 -0.16479076531E+04  0.20874699276E+04  0.00000000000E+00 0.  1.
<mgrwt>
<rscale>  0 0.34100380E+04</rscale>
<asrwt>0</asrwt>
<pdfrwt beam="1">  1        2 0.50195421E+00 0.34100380E+04</pdfrwt>
<pdfrwt beam="2">  1       -2 0.13707796E+00 0.34100380E+04</pdfrwt>
<totfact> 0.36990110E-01</totfact>
</mgrwt>
</event>
<event>
12    1  0.1495204E-007  0.2269196E+04  0.7818608E-02  0.8490167E-01
          1   -1    0    0  501    0  0.00000000000E+00  0.00000000000E+00  0.20783623618E+04  0.20783623618E+04  0.00000000000E+00 0. -1.
         -1   -1    0    0    0  501 -0.00000000000E+00 -0.00000000000E+00 -0.61938799774E+03  0.61938799774E+03  0.00000000000E+00 0.  1.
         23    2    1    2    0    0  0.21295211172E+03  0.25298277509E+03 -0.44337025140E+03  0.56044619585E+03  0.90409469812E+02 0.  0.
        254    2    1    2    0    0 -0.21295211172E+03 -0.25298277509E+03  0.19023446154E+04  0.21373041636E+04  0.91640884204E+03 0.  0.
        -24    2    4    4    0    0 -0.53963694608E+03 -0.30032101789E+03  0.13750055637E+04  0.15096243667E+04  0.83214667414E+02 0.  0.
         24    2    4    4    0    0  0.32668483436E+03  0.47338242800E+02  0.52733905170E+03  0.62767979696E+03  0.83256001814E+02 0.  0.
         11    1    3    3    0    0 -0.71896920882E+01  0.15208482752E+02 -0.10885690084E+02  0.20037162188E+02  0.00000000000E+00 0. -1.
        -11    1    3    3    0    0  0.22014180381E+03  0.23777429234E+03 -0.43248456132E+03  0.54040903366E+03  0.00000000000E+00 0.  1.
          4    1    6    6  502    0  0.10687140486E+03 -0.23606416622E+02  0.17157256359E+03  0.20350897931E+03  0.00000000000E+00 0. -1.
          3    1    5    5  503    0 -0.15646946299E+03 -0.55420930557E+02  0.42903688204E+03  0.46002914966E+03  0.00000000000E+00 0. -1.
         -4    1    5    5    0  503 -0.38316748309E+03 -0.24490008733E+03  0.94596868168E+03  0.10495952170E+04  0.00000000000E+00 0.  1.
         -3    1    6    6    0  502  0.21981342950E+03  0.70944659422E+02  0.35576648810E+03  0.42417081765E+03  0.00000000000E+00 0.  1.
<mgrwt>
<rscale>  0 0.22691961E+04</rscale>
<asrwt>0</asrwt>
<pdfrwt beam="1">  1        1 0.31974805E+00 0.22691961E+04</pdfrwt>
<pdfrwt beam="2">  1       -1 0.95290462E-01 0.22691961E+04</pdfrwt>
<totfact> 0.25402547E+00</totfact>
</mgrwt>
</event>
<event>
12    1  0.1495204E-007  0.1419686E+04  0.7818608E-02  0.8939691E-01
         -2   -1    0    0    0  501 -0.00000000000E+00  0.00000000000E+00  0.35391115489E+03  0.35391115489E+03  0.00000000000E+00 0.  1.
          2   -1    0    0  501    0  0.00000000000E+00 -0.00000000000E+00 -0.14237392014E+04  0.14237392014E+04  0.00000000000E+00 0. -1.
         23    2    1    2    0    0  0.15877106834E+03 -0.35115024586E+03 -0.54274790784E+03  0.67182547209E+03  0.90881385205E+02 0.  0.
        254    2    1    2    0    0 -0.15877106834E+03  0.35115024586E+03 -0.52708013869E+03  0.11058248842E+04  0.89247994635E+03 0.  0.
        -24    2    4    4    0    0 -0.29769720566E+03 -0.18011373680E+03 -0.40081379585E+03  0.53662379741E+03  0.79049456431E+02 0.  0.
         24    2    4    4    0    0  0.13892613732E+03  0.53126398267E+03 -0.12626634284E+03  0.56920108680E+03  0.80652321558E+02 0.  0.
         11    1    3    3    0    0  0.13800380050E+03 -0.34329402827E+03 -0.52952797576E+03  0.64598430005E+03  0.00000000000E+00 0. -1.
        -11    1    3    3    0    0  0.20767267837E+02 -0.78562175916E+01 -0.13219932077E+02  0.25841172039E+02  0.00000000000E+00 0.  1.
          4    1    6    6  502    0 -0.10268628414E+01  0.68793717870E+01 -0.13036637908E+02  0.14776133845E+02  0.00000000000E+00 0. -1.
          1    1    5    5  503    0 -0.34690483933E+02 -0.36080194135E+02 -0.25329396867E+02  0.56096242565E+02  0.00000000000E+00 0. -1.
         -2    1    5    5    0  503 -0.26300672173E+03 -0.14403354267E+03 -0.37548439898E+03  0.48052755485E+03  0.00000000000E+00 0.  1.
         -3    1    6    6    0  502  0.13995300016E+03  0.52438461088E+03 -0.11322970493E+03  0.55442495296E+03  0.00000000000E+00 0.  1.
<mgrwt>
<rscale>  0 0.14196861E+04</rscale>
<asrwt>0</asrwt>
<pdfrwt beam="1">  1        2 0.21903680E+00 0.14196861E+04</pdfrwt>
<pdfrwt beam="2">  1       -2 0.54447869E-01 0.14196861E+04</pdfrwt>
<totfact> 0.43270790E+01</totfact>
</mgrwt>
</event>
<event>
12    1  0.1495204E-007  0.1616652E+04  0.7818608E-02  0.8810383E-01
          2   -1    0    0  501    0  0.00000000000E+00  0.00000000000E+00  0.16260289832E+04  0.16260289832E+04  0.00000000000E+00 0. -1.
         -2   -1    0    0    0  501 -0.00000000000E+00 -0.00000000000E+00 -0.40183225894E+03  0.40183225894E+03  0.00000000000E+00 0.  1.
         23    2    1    2    0    0  0.46316316121E+03  0.24501596816E+03  0.64249831804E+03  0.83395045058E+03  0.90090658702E+02 0.  0.
        254    2    1    2    0    0 -0.46316316121E+03 -0.24501596816E+03  0.58169840627E+03  0.11939107916E+04  0.90138615692E+03 0.  0.
        -24    2    4    4    0    0 -0.11196928759E+03 -0.54131031332E+03  0.42433961466E+03  0.70141695519E+03  0.79797617670E+02 0.  0.
         24    2    4    4    0    0 -0.35119387362E+03  0.29629434516E+03  0.15735879161E+03  0.49249383641E+03  0.81614421341E+02 0.  0.
         13    1    3    3    0    0  0.45531508709E+03  0.22609897561E+03  0.59742224013E+03  0.78443986914E+03  0.00000000000E+00 0. -1.
        -13    1    3    3    0    0  0.78480741242E+01  0.18916992548E+02  0.45076077909E+02  0.49510581437E+02  0.00000000000E+00 0.  1.
          2    1    6    6  502    0 -0.11790035288E+03  0.13345200848E+03  0.92602432207E+02  0.20071158967E+03  0.00000000000E+00 0. -1.
          3    1    5    5  503    0 -0.22404255898E+02 -0.97405128342E+02  0.11821035821E+03  0.15480115794E+03  0.00000000000E+00 0. -1.
         -4    1    5    5    0  503 -0.89565031697E+02 -0.44390518497E+03  0.30612925645E+03  0.54661579725E+03  0.00000000000E+00 0.  1.
         -1    1    6    6    0  502 -0.23329352074E+03  0.16284233668E+03  0.64756359401E+02  0.29178224675E+03  0.00000000000E+00 0.  1.
<mgrwt>
<rscale>  0 0.16166520E+04</rscale>
<asrwt>0</asrwt>
<pdfrwt beam="1">  1        2 0.25015830E+00 0.16166520E+04</pdfrwt>
<pdfrwt beam="2">  1       -2 0.61820348E-01 0.16166520E+04</pdfrwt>
<totfact> 0.25101164E+01</totfact>
</mgrwt>
</event>
<event>
12    1  0.1495204E-007  0.3783371E+04  0.7818608E-02  0.8049733E-01
          1   -1    0    0  501    0  0.00000000000E+00  0.00000000000E+00  0.17448768082E+04  0.17448768082E+04  0.00000000000E+00 0. -1.
         -1   -1    0    0    0  501 -0.00000000000E+00 -0.00000000000E+00 -0.20508464316E+04  0.20508464316E+04  0.00000000000E+00 0.  1.
         23    2    1    2    0    0 -0.49316519915E+03 -0.27754489146E+03 -0.18484525177E+04  0.19352270263E+04  0.89910248526E+02 0.  0.
        254    2    1    2    0    0  0.49316519915E+03  0.27754489146E+03  0.15424828942E+04  0.18604962135E+04  0.87289724547E+03 0.  0.
        -24    2    4    4    0    0  0.51046654650E+03  0.25883129638E+03  0.16369394294E+04  0.17359024964E+04  0.78848249335E+02 0.  0.
         24    2    4    4    0    0 -0.17301347349E+02  0.18713595082E+02 -0.94456535147E+02  0.12459371715E+03  0.77149349063E+02 0.  0.
         11    1    3    3    0    0 -0.21368661243E+03 -0.17075368757E+03 -0.85257666383E+03  0.89538023088E+03  0.00000000000E+00 0.  1.
        -11    1    3    3    0    0 -0.27947858672E+03 -0.10679120389E+03 -0.99587585382E+03  0.10398467954E+04  0.00000000000E+00 0. -1.
          4    1    6    6  502    0 -0.88222126533E+01 -0.29512760809E+02 -0.48402612517E+02  0.57372880224E+02  0.00000000000E+00 0. -1.
          3    1    5    5  503    0  0.33318163181E+03  0.19355192381E+03  0.10053018014E+04  0.10766169509E+04  0.00000000000E+00 0. -1.
         -4    1    5    5    0  503  0.17728491469E+03  0.65279372576E+02  0.63163762793E+03  0.65928554548E+03  0.00000000000E+00 0.  1.
         -3    1    6    6    0  502 -0.84791346960E+01  0.48226355891E+02 -0.46053922630E+02  0.67220836928E+02  0.00000000000E+00 0.  1.
<mgrwt>
<rscale>  0 0.37833712E+04</rscale>
<asrwt>0</asrwt>
<pdfrwt beam="1">  1        1 0.26844259E+00 0.37833712E+04</pdfrwt>
<pdfrwt beam="2">  1       -1 0.31551483E+00 0.37833712E+04</pdfrwt>
<totfact> 0.92636599E-02</totfact>
</mgrwt>
</event>
<event>
12    1  0.1495204E-007  0.1481086E+04  0.7818608E-02  0.8897129E-01
          1   -1    0    0  501    0  0.00000000000E+00  0.00000000000E+00  0.18840058617E+04  0.18840058617E+04  0.00000000000E+00 0. -1.
         -1   -1    0    0    0  501 -0.00000000000E+00 -0.00000000000E+00 -0.29108390458E+03  0.29108390458E+03  0.00000000000E+00 0.  1.
         23    2    1    2    0    0  0.23748381454E+03 -0.29852917380E+03  0.86181279269E+03  0.94677510114E+03  0.90241746028E+02 0.  0.
        254    2    1    2    0    0 -0.23748381454E+03  0.29852917380E+03  0.73110916448E+03  0.12283146652E+04  0.91033953915E+03 0.  0.
        -24    2    4    4    0    0  0.78086405681E+02 -0.86795442320E+02 -0.15439472756E+03  0.20933626489E+03  0.79705735930E+02 0.  0.
         24    2    4    4    0    0 -0.31557022022E+03  0.38532461612E+03  0.88550389204E+03  0.10189784003E+04  0.78359516176E+02 0.  0.
         11    1    3    3    0    0  0.24285363644E+03 -0.28399548266E+03  0.79872127979E+03  0.88180893944E+03  0.00000000000E+00 0. -1.
        -11    1    3    3    0    0 -0.53698219010E+01 -0.14533691136E+02  0.63091512900E+02  0.64966161695E+02  0.00000000000E+00 0.  1.
          2    1    6    6  502    0 -0.56294132973E+01  0.17393334939E+02  0.12338186037E+02  0.22055594054E+02  0.00000000000E+00 0. -1.
          1    1    5    5  503    0  0.36069868104E+02  0.83511108890E+01 -0.46993580268E+02  0.59826190122E+02  0.00000000000E+00 0. -1.
         -2    1    5    5    0  503  0.42016537577E+02 -0.95146553209E+02 -0.10740114729E+03  0.14951007477E+03  0.00000000000E+00 0.  1.
         -1    1    6    6    0  502 -0.30994080692E+03  0.36793128118E+03  0.87316570600E+03  0.99692280624E+03  0.00000000000E+00 0.  1.
<mgrwt>
<rscale>  0 0.14810858E+04</rscale>
<asrwt>0</asrwt>
<pdfrwt beam="1">  1        1 0.28984705E+00 0.14810858E+04</pdfrwt>
<pdfrwt beam="2">  1       -1 0.44782140E-01 0.14810858E+04</pdfrwt>
<totfact> 0.17110893E+01</totfact>
</mgrwt>
</event>
<event>
12    1  0.1495204E-007  0.1123312E+04  0.7818608E-02  0.9182763E-01
         -1   -1    0    0    0  501 -0.00000000000E+00  0.00000000000E+00  0.24254612673E+03  0.24254612673E+03  0.00000000000E+00 0.  1.
          1   -1    0    0  501    0  0.00000000000E+00 -0.00000000000E+00 -0.13006089931E+04  0.13006089931E+04  0.00000000000E+00 0. -1.
         23    2    1    2    0    0  0.15578017140E+03  0.57776640243E+01 -0.52095549055E+02  0.18716246415E+03  0.89526524311E+02 0.  0.
        254    2    1    2    0    0 -0.15578017140E+03 -0.57776640243E+01 -0.10059673174E+04  0.13559926557E+04  0.89579294235E+03 0.  0.
        -24    2    4    4    0    0 -0.52433772675E+03  0.18959633450E+02 -0.56222833934E+03  0.77323344639E+03  0.80620950492E+02 0.  0.
         24    2    4    4    0    0  0.36855755535E+03 -0.24737297474E+02 -0.44373897801E+03  0.58275920933E+03  0.79103792284E+02 0.  0.
         13    1    3    3    0    0  0.93258046386E+01 -0.92678255679E+01  0.19447450713E+02  0.23474806968E+02  0.00000000000E+00 0. -1.
        -13    1    3    3    0    0  0.14645436676E+03  0.15045489592E+02 -0.71542999768E+02  0.16368765719E+03  0.00000000000E+00 0.  1.
          4    1    6    6  502    0  0.28287018443E+02 -0.19033586033E+02 -0.66279746648E+02  0.74534808147E+02  0.00000000000E+00 0. -1.
          3    1    5    5  503    0 -0.23981776109E+02  0.16066598535E+02 -0.45994312496E+02  0.54302283155E+02  0.00000000000E+00 0. -1.
         -4    1    5    5    0  503 -0.50035595064E+03  0.28930349152E+01 -0.51623402685E+03  0.71893116323E+03  0.00000000000E+00 0.  1.
         -3    1    6    6    0  502  0.34027053691E+03 -0.57037114410E+01 -0.37745923136E+03  0.50822440118E+03  0.00000000000E+00 0.  1.
<mgrwt>
<rscale>  0 0.11233124E+04</rscale>
<asrwt>0</asrwt>
<pdfrwt beam="1">  1        1 0.20009369E+00 0.11233124E+04</pdfrwt>
<pdfrwt beam="2">  1       -1 0.37314790E-01 0.11233124E+04</pdfrwt>
<totfact> 0.62118596E+01</totfact>
</mgrwt>
</event>
<event>
12    1  0.1495204E-007  0.1208909E+04  0.7818608E-02  0.9105094E-01
          2   -1    0    0  501    0  0.00000000000E+00  0.00000000000E+00  0.98679074885E+03  0.98679074885E+03  0.00000000000E+00 0.  1.
         -2   -1    0    0    0  501 -0.00000000000E+00 -0.00000000000E+00 -0.37025599200E+03  0.37025599200E+03  0.00000000000E+00 0. -1.
         23    2    1    2    0    0  0.18753057658E+03 -0.60483053824E+02  0.30120065599E+03  0.37293969792E+03  0.97653807732E+02 0.  0.
        254    2    1    2    0    0 -0.18753057658E+03  0.60483053824E+02  0.31533410086E+03  0.98410704293E+03  0.91115594704E+03 0.  0.
        -24    2    4    4    0    0 -0.70088901912E+02  0.46829894730E+03  0.64331195220E+02  0.48474336537E+03  0.81371182773E+02 0.  0.
         24    2    4    4    0    0 -0.11744167467E+03 -0.40781589347E+03  0.25100290564E+03  0.49936367755E+03  0.79090289549E+02 0.  0.
         11    1    3    3    0    0  0.86241098045E+02 -0.77615326729E+02  0.17876199176E+03  0.21311385603E+03  0.00000000000E+00 0.  1.
        -11    1    3    3    0    0  0.10128947854E+03  0.17132272905E+02  0.12243866423E+03  0.15982584189E+03  0.00000000000E+00 0. -1.
          4    1    6    6  502    0 -0.49184082481E+02 -0.70624448127E+02  0.33552023916E+02  0.92372208762E+02  0.00000000000E+00 0. -1.
          1    1    5    5  503    0  0.17780229757E+02  0.10952471861E+03  0.19422893798E+02  0.11264568061E+03  0.00000000000E+00 0. -1.
         -2    1    5    5    0  503 -0.87869131668E+02  0.35877422868E+03  0.44908301421E+02  0.37209768476E+03  0.00000000000E+00 0.  1.
         -3    1    6    6    0  502 -0.68257592191E+02 -0.33719144535E+03  0.21745088173E+03  0.40699146879E+03  0.00000000000E+00 0.  1.
<mgrwt>
<rscale>  0 0.12089089E+04</rscale>
<asrwt>0</asrwt>
<pdfrwt beam="1">  1        2 0.15181396E+00 0.12089089E+04</pdfrwt>
<pdfrwt beam="2">  1       -2 0.56962461E-01 0.12089089E+04</pdfrwt>
<totfact> 0.73201512E+01</totfact>
</mgrwt>
</event>
<event>
12    1  0.1495204E-007  0.1677597E+04  0.7818608E-02  0.8774246E-01
         -1   -1    0    0    0  501 -0.00000000000E+00  0.00000000000E+00  0.91074977373E+03  0.91074977373E+03  0.00000000000E+00 0. -1.
          1   -1    0    0  501    0  0.00000000000E+00 -0.00000000000E+00 -0.77253130938E+03  0.77253130938E+03  0.00000000000E+00 0.  1.
         23    2    1    2    0    0  0.39225551378E+03  0.27950470996E+03 -0.28184604873E+03  0.56539209976E+03  0.90795155747E+02 0.  0.
        254    2    1    2    0    0 -0.39225551378E+03 -0.27950470996E+03  0.42006451308E+03  0.11178889834E+04  0.91718826474E+03 0.  0.
        -24    2    4    4    0    0 -0.17827807928E+03 -0.51603467364E+03  0.53607411729E+03  0.76966979743E+03  0.83314343909E+02 0.  0.
         24    2    4    4    0    0 -0.21397743451E+03  0.23652996368E+03 -0.11600960421E+03  0.34821918593E+03  0.77882006805E+02 0.  0.
         11    1    3    3    0    0  0.72400992279E+02  0.65725183798E+02 -0.19423088205E+02  0.99694331954E+02  0.00000000000E+00 0. -1.
        -11    1    3    3    0    0  0.31985452150E+03  0.21377952616E+03 -0.26242296052E+03  0.46569776781E+03  0.00000000000E+00 0.  1.
          2    1    6    6  502    0 -0.12175162352E+03  0.15864874493E+03 -0.10790571894E+03  0.22723671859E+03  0.00000000000E+00 0. -1.
          1    1    5    5  503    0 -0.14593114263E+03 -0.48770060510E+03  0.48837574384E+03  0.70544925103E+03  0.00000000000E+00 0. -1.
         -2    1    5    5    0  503 -0.32346936648E+02 -0.28334068535E+02  0.47698373448E+02  0.64220546399E+02  0.00000000000E+00 0.  1.
         -1    1    6    6    0  502 -0.92225810985E+02  0.77881218747E+02 -0.81038852708E+01  0.12098246733E+03  0.00000000000E+00 0.  1.
<mgrwt>
<rscale>  0 0.16775968E+04</rscale>
<asrwt>0</asrwt>
<pdfrwt beam="1">  1        1 0.11885097E+00 0.16775968E+04</pdfrwt>
<pdfrwt beam="2">  1       -1 0.14011535E+00 0.16775968E+04</pdfrwt>
<totfact> 0.93236178E+00</totfact>
</mgrwt>
</event>
<event>
12    1  0.1495204E-007  0.1698125E+04  0.7818608E-02  0.8762435E-01
          2   -1    0    0  501    0  0.00000000000E+00  0.00000000000E+00  0.45332991513E+03  0.45332991513E+03  0.00000000000E+00 0.  1.
         -2   -1    0    0    0  501 -0.00000000000E+00 -0.00000000000E+00 -0.15902477214E+04  0.15902477214E+04  0.00000000000E+00 0. -1.
         23    2    1    2    0    0 -0.23224862881E+03 -0.15535457362E+02  0.26509181396E+03  0.36373725224E+03  0.88602160346E+02 0.  0.
        254    2    1    2    0    0  0.23224862881E+03  0.15535457362E+02 -0.14020096202E+04  0.16798403843E+04  0.89557353996E+03 0.  0.
        -24    2    4    4    0    0  0.12926273623E+03  0.44578473286E+03 -0.63463038931E+03  0.79050188949E+03  0.81881763651E+02 0.  0.
         24    2    4    4    0    0  0.10298589259E+03 -0.43024927549E+03 -0.76737923093E+03  0.88933849482E+03  0.79570981972E+02 0.  0.
         11    1    3    3    0    0 -0.98913420342E+02 -0.16096583132E+02  0.17863131973E+03  0.20482214993E+03  0.00000000000E+00 0.  1.
        -11    1    3    3    0    0 -0.13333520847E+03  0.56112577004E+00  0.86460494223E+02  0.15891510231E+03  0.00000000000E+00 0. -1.
          2    1    6    6  502    0  0.61688850587E+02 -0.11679740124E+03 -0.19672677425E+03  0.23695689678E+03  0.00000000000E+00 0. -1.
          1    1    5    5  503    0  0.22127348103E+02  0.21593357710E+03 -0.31355653636E+03  0.38135892640E+03  0.00000000000E+00 0. -1.
         -2    1    5    5    0  503  0.10713538813E+03  0.22985115576E+03 -0.32107385295E+03  0.40914296309E+03  0.00000000000E+00 0.  1.
         -1    1    6    6    0  502  0.41297041998E+02 -0.31345187425E+03 -0.57065245668E+03  0.65238159804E+03  0.00000000000E+00 0.  1.
<mgrwt>
<rscale>  0 0.16981247E+04</rscale>
<asrwt>0</asrwt>
<pdfrwt beam="1">  1        2 0.69743065E-01 0.16981247E+04</pdfrwt>
<pdfrwt beam="2">  1       -2 0.24465349E+00 0.16981247E+04</pdfrwt>
<totfact> 0.45495767E+00</totfact>
</mgrwt>
</event>
<event>
12    1  0.1495204E-007  0.1495792E+04  0.7818608E-02  0.8887256E-01
         -2   -1    0    0    0  501 -0.00000000000E+00  0.00000000000E+00  0.33896354420E+03  0.33896354420E+03  0.00000000000E+00 0.  1.
          2   -1    0    0  501    0  0.00000000000E+00 -0.00000000000E+00 -0.16501739180E+04  0.16501739180E+04  0.00000000000E+00 0. -1.
         23    2    1    2    0    0 -0.22290476548E+03 -0.34456344709E+03 -0.88450720766E+02  0.42970197548E+03  0.91704711862E+02 0.  0.
        254    2    1    2    0    0  0.22290476548E+03  0.34456344709E+03 -0.12227596530E+04  0.15594354867E+04  0.87652003090E+03 0.  0.
        -24    2    4    4    0    0  0.25026987860E+03  0.52021130778E+03 -0.38262184537E+03  0.69699364247E+03  0.78395434919E+02 0.  0.
         24    2    4    4    0    0 -0.27365113122E+02 -0.17564786068E+03 -0.84013780763E+03  0.86244184421E+03  0.79833441979E+02 0.  0.
         13    1    3    3    0    0 -0.18438154526E+02  0.70847483701E+00 -0.94357246408E+01  0.20724390905E+02  0.00000000000E+00 0. -1.
        -13    1    3    3    0    0 -0.20446661095E+03 -0.34527192193E+03 -0.79014996125E+02  0.40897758457E+03  0.00000000000E+00 0.  1.
          2    1    6    6  502    0 -0.28238154719E+02 -0.42730878428E+02 -0.38177666282E+03  0.38519701664E+03  0.00000000000E+00 0. -1.
          3    1    5    5  503    0  0.13638732168E+02  0.53009357110E+01 -0.30799610182E+01  0.14953297109E+02  0.00000000000E+00 0. -1.
         -4    1    5    5    0  503  0.23663114643E+03  0.51491037207E+03 -0.37954188435E+03  0.68204034536E+03  0.00000000000E+00 0.  1.
         -1    1    6    6    0  502  0.87304159679E+00 -0.13291698225E+03 -0.45836114481E+03  0.47724482757E+03  0.00000000000E+00 0.  1.
<mgrwt>
<rscale>  0 0.14957925E+04</rscale>
<asrwt>0</asrwt>
<pdfrwt beam="1">  1        2 0.25387291E+00 0.14957925E+04</pdfrwt>
<pdfrwt beam="2">  1       -2 0.52148237E-01 0.14957925E+04</pdfrwt>
<totfact> 0.35070105E+01</totfact>
</mgrwt>
</event>
<event>
12    1  0.1495204E-007  0.1216735E+04  0.7818608E-02  0.9098333E-01
         -4   -1    0    0    0  501 -0.00000000000E+00  0.00000000000E+00  0.24625807698E+03  0.24625807698E+03  0.00000000000E+00 0.  1.
          4   -1    0    0  501    0  0.00000000000E+00 -0.00000000000E+00 -0.15029400965E+04  0.15029400965E+04  0.00000000000E+00 0. -1.
         23    2    1    2    0    0 -0.44834541953E+02  0.22990124504E+03 -0.59709363759E+03  0.64788247445E+03  0.91466770016E+02 0.  0.
        254    2    1    2    0    0  0.44834541953E+02 -0.22990124504E+03 -0.65958838191E+03  0.11013156990E+04  0.85027919927E+03 0.  0.
        -24    2    4    4    0    0 -0.27466501731E+03 -0.40865234257E+03 -0.45129656412E+03  0.67276290023E+03  0.80645659005E+02 0.  0.
         24    2    4    4    0    0  0.31949955926E+03  0.17875109753E+03 -0.20829181780E+03  0.42855279879E+03  0.78994283022E+02 0.  0.
         13    1    3    3    0    0 -0.49402409946E+00  0.14871434989E+03 -0.45173583082E+03  0.47558538957E+03  0.00000000000E+00 0. -1.
        -13    1    3    3    0    0 -0.44340517853E+02  0.81186895156E+02 -0.14535780677E+03  0.17229708488E+03  0.00000000000E+00 0.  1.
          2    1    6    6  502    0  0.31910795028E+03  0.18121955380E+03 -0.19605325809E+03  0.41606164281E+03  0.00000000000E+00 0. -1.
          3    1    5    5  503    0 -0.87727982659E+02 -0.16905025252E+03 -0.13051673876E+03  0.23088699815E+03  0.00000000000E+00 0. -1.
         -4    1    5    5    0  503 -0.18693703465E+03 -0.23960209005E+03 -0.32077982535E+03  0.44187590208E+03  0.00000000000E+00 0.  1.
         -1    1    6    6    0  502  0.39160898286E+00 -0.24684562667E+01 -0.12238559708E+02  0.12491155978E+02  0.00000000000E+00 0.  1.
<mgrwt>
<rscale>  0 0.12167352E+04</rscale>
<asrwt>0</asrwt>
<pdfrwt beam="1">  1        4 0.23122155E+00 0.12167352E+04</pdfrwt>
<pdfrwt beam="2">  1       -4 0.37885858E-01 0.12167352E+04</pdfrwt>
<totfact> 0.11119476E+00</totfact>
</mgrwt>
</event>
<event>
12    1  0.1495204E-007  0.1718823E+04  0.7818608E-02  0.8750701E-01
         -2   -1    0    0    0  501 -0.00000000000E+00  0.00000000000E+00  0.34186706748E+03  0.34186706748E+03  0.00000000000E+00 0.  1.
          2   -1    0    0  501    0  0.00000000000E+00 -0.00000000000E+00 -0.21604540755E+04  0.21604540755E+04  0.00000000000E+00 0. -1.
         23    2    1    2    0    0 -0.46745925106E+03 -0.57474453842E+02 -0.83775023190E+02  0.48673177554E+03  0.89822617205E+02 0.  0.
        254    2    1    2    0    0  0.46745925106E+03  0.57474453842E+02 -0.17348119848E+04  0.20155893674E+04  0.91170522167E+03 0.  0.
        -24    2    4    4    0    0 -0.18129214425E+03 -0.17036315248E+03 -0.86717104979E+03  0.90576352866E+03  0.80817664868E+02 0.  0.
         24    2    4    4    0    0  0.64875139531E+03  0.22783760632E+03 -0.86764093504E+03  0.11098258388E+04  0.78257603641E+02 0.  0.
         11    1    3    3    0    0 -0.35969630588E+02 -0.44107413515E+01  0.17662585822E+02  0.40314214637E+02  0.00000000000E+00 0. -1.
        -11    1    3    3    0    0 -0.43148962047E+03 -0.53063712490E+02 -0.10143760901E+03  0.44641756090E+03  0.00000000000E+00 0.  1.
          2    1    6    6  502    0  0.38589535867E+03  0.17387612545E+03 -0.51162687010E+03  0.66401068444E+03  0.00000000000E+00 0. -1.
          3    1    5    5  503    0 -0.13753022967E+03 -0.11719942208E+03 -0.48774460047E+03  0.52013946581E+03  0.00000000000E+00 0. -1.
         -4    1    5    5    0  503 -0.43761914581E+02 -0.53163730405E+02 -0.37942644932E+03  0.38562406284E+03  0.00000000000E+00 0.  1.
         -1    1    6    6    0  502  0.26285603664E+03  0.53961480877E+02 -0.35601406493E+03  0.44581515435E+03  0.00000000000E+00 0.  1.
<mgrwt>
<rscale>  0 0.17188230E+04</rscale>
<asrwt>0</asrwt>
<pdfrwt beam="1">  1        2 0.33237755E+00 0.17188230E+04</pdfrwt>
<pdfrwt beam="2">  1       -2 0.52594934E-01 0.17188230E+04</pdfrwt>
<totfact> 0.17620535E+01</totfact>
</mgrwt>
</event>
<event>
12    1  0.1495204E-007  0.1251446E+04  0.7818608E-02  0.9068980E-01
          1   -1    0    0  501    0  0.00000000000E+00  0.00000000000E+00  0.85890538223E+03  0.85890538223E+03  0.00000000000E+00 0. -1.
         -1   -1    0    0    0  501 -0.00000000000E+00 -0.00000000000E+00 -0.45584698856E+03  0.45584698856E+03  0.00000000000E+00 0.  1.
         23    2    1    2    0    0  0.17129792853E+02  0.11917855564E+03  0.37131741859E+03  0.40097662026E+03  0.91698782564E+02 0.  0.
        254    2    1    2    0    0 -0.17129792853E+02 -0.11917855564E+03  0.31740975088E+02  0.91377575052E+03  0.90525227137E+03 0.  0.
        -24    2    4    4    0    0  0.18242240097E+03  0.33012379714E+03  0.12837139165E+03  0.40639665178E+03  0.80120974565E+02 0.  0.
         24    2    4    4    0    0 -0.19955219383E+03 -0.44930235278E+03 -0.96630416565E+02  0.50737909875E+03  0.80015187071E+02 0.  0.
         11    1    3    3    0    0  0.20625464231E+02  0.40888747034E+02  0.40927500634E+02  0.61419538560E+02  0.00000000000E+00 0.  1.
        -11    1    3    3    0    0 -0.34956713773E+01  0.78289808607E+02  0.33038991795E+03  0.33955708170E+03  0.00000000000E+00 0. -1.
          2    1    6    6  502    0 -0.37981388852E+02 -0.10429617452E+03  0.10895925754E+02  0.11153026100E+03  0.00000000000E+00 0. -1.
          1    1    5    5  503    0  0.13965723919E+02  0.70314986506E+02  0.13154638144E+01  0.71700552417E+02  0.00000000000E+00 0. -1.
         -2    1    5    5    0  503  0.16845667706E+03  0.25980881064E+03  0.12705592784E+03  0.33469609936E+03  0.00000000000E+00 0.  1.
         -1    1    6    6    0  502 -0.16157080498E+03 -0.34500617826E+03 -0.10752634232E+03  0.39584883775E+03  0.00000000000E+00 0.  1.
<mgrwt>
<rscale>  0 0.12514463E+04</rscale>
<asrwt>0</asrwt>
<pdfrwt beam="1">  1        1 0.13213929E+00 0.12514463E+04</pdfrwt>
<pdfrwt beam="2">  1       -1 0.70130306E-01 0.12514463E+04</pdfrwt>
<totfact> 0.39905292E+01</totfact>
</mgrwt>
</event>
<event>
12    1  0.1495204E-007  0.1632385E+04  0.7818608E-02  0.8800896E-01
          2   -1    0    0  501    0  0.00000000000E+00  0.00000000000E+00  0.20694355818E+04  0.20694355818E+04  0.00000000000E+00 0.  1.
         -2   -1    0    0    0  501 -0.00000000000E+00 -0.00000000000E+00 -0.32190897369E+03  0.32190897369E+03  0.00000000000E+00 0. -1.
         23    2    1    2    0    0  0.46206001694E+03  0.69392150107E+02  0.10532967899E+04  0.11560776636E+04  0.93630694157E+02 0.  0.
        254    2    1    2    0    0 -0.46206001694E+03 -0.69392150107E+02  0.69422981828E+03  0.12352668920E+04  0.90863332761E+03 0.  0.
        -24    2    4    4    0    0 -0.61472338842E+02  0.39101353720E+03  0.25158282554E+03  0.47694592679E+03  0.86677934108E+02 0.  0.
         24    2    4    4    0    0 -0.40058767809E+03 -0.46040568730E+03  0.44264699274E+03  0.75832096517E+03  0.81672769583E+02 0.  0.
         13    1    3    3    0    0  0.30842626510E+02 -0.64909443478E+01  0.13653207284E+03  0.14012282785E+03  0.00000000000E+00 0. -1.
        -13    1    3    3    0    0  0.43121739043E+03  0.75883094454E+02  0.91676471704E+03  0.10159548357E+04  0.00000000000E+00 0.  1.
          4    1    6    6  502    0 -0.21382349637E+03 -0.28752898209E+03  0.22218607901E+03  0.42161600640E+03  0.00000000000E+00 0. -1.
          1    1    5    5  503    0 -0.77214769249E+02  0.24382795518E+03  0.17827363979E+03  0.31176222183E+03  0.00000000000E+00 0. -1.
         -2    1    5    5    0  503  0.15742430407E+02  0.14718558202E+03  0.73309185754E+02  0.16518370496E+03  0.00000000000E+00 0.  1.
         -3    1    6    6    0  502 -0.18676418172E+03 -0.17287670521E+03  0.22046091374E+03  0.33670495878E+03  0.00000000000E+00 0.  1.
<mgrwt>
<rscale>  0 0.16323846E+04</rscale>
<asrwt>0</asrwt>
<pdfrwt beam="1">  1        2 0.31837470E+00 0.16323846E+04</pdfrwt>
<pdfrwt beam="2">  1       -2 0.49524459E-01 0.16323846E+04</pdfrwt>
<totfact> 0.22565995E+01</totfact>
</mgrwt>
</event>
<event>
12    1  0.1495204E-007  0.2036849E+04  0.7818608E-02  0.8589584E-01
          2   -1    0    0  501    0  0.00000000000E+00  0.00000000000E+00  0.20868529990E+04  0.20868529990E+04  0.00000000000E+00 0.  1.
         -2   -1    0    0    0  501 -0.00000000000E+00 -0.00000000000E+00 -0.49701059468E+03  0.49701059468E+03  0.00000000000E+00 0. -1.
         23    2    1    2    0    0 -0.65246059300E+03 -0.21050906600E+02  0.12222394012E+02  0.65907118279E+03  0.89874751692E+02 0.  0.
        254    2    1    2    0    0  0.65246059300E+03  0.21050906600E+02  0.15776200104E+04  0.19247924109E+04  0.88870296615E+03 0.  0.
        -24    2    4    4    0    0  0.20155659885E+03  0.39784151587E+03  0.99437556033E+03  0.10929362817E+04  0.82607666668E+02 0.  0.
         24    2    4    4    0    0  0.45090399415E+03 -0.37679060927E+03  0.58324445002E+03  0.83185612923E+03  0.80777200248E+02 0.  0.
         11    1    3    3    0    0 -0.32406806002E+03 -0.39056541791E+02 -0.28590053822E+02  0.32766280253E+03  0.00000000000E+00 0. -1.
        -11    1    3    3    0    0 -0.32839253298E+03  0.18005635191E+02  0.40812447833E+02  0.33140838027E+03  0.00000000000E+00 0.  1.
          4    1    6    6  502    0  0.32605856593E+01 -0.15161274772E+02  0.29019279877E+02  0.32903104354E+02  0.00000000000E+00 0. -1.
          3    1    5    5  503    0  0.33829611883E+02  0.11751754022E+03  0.34481203544E+03  0.36585537400E+03  0.00000000000E+00 0. -1.
         -4    1    5    5    0  503  0.16772698696E+03  0.28032397565E+03  0.64956352489E+03  0.72708090771E+03  0.00000000000E+00 0.  1.
         -3    1    6    6    0  502  0.44764340849E+03 -0.36162933450E+03  0.55422517015E+03  0.79895302488E+03  0.00000000000E+00 0.  1.
<mgrwt>
<rscale>  0 0.20368486E+04</rscale>
<asrwt>0</asrwt>
<pdfrwt beam="1">  1        2 0.32105430E+00 0.20368486E+04</pdfrwt>
<pdfrwt beam="2">  1       -2 0.76463169E-01 0.20368486E+04</pdfrwt>
<totfact> 0.84669709E+00</totfact>
</mgrwt>
</event>
<event>
12    1  0.1495204E-007  0.2968238E+04  0.7818608E-02  0.8252859E-01
          1   -1    0    0  501    0  0.00000000000E+00  0.00000000000E+00  0.19635451788E+04  0.19635451788E+04  0.00000000000E+00 0. -1.
         -1   -1    0    0    0  501 -0.00000000000E+00 -0.00000000000E+00 -0.11217512848E+04  0.11217512848E+04  0.00000000000E+00 0.  1.
         23    2    1    2    0    0  0.78311283527E+03 -0.33752981343E+03  0.14585594796E+04  0.16919901440E+04  0.90789889061E+02 0.  0.
        254    2    1    2    0    0 -0.78311283527E+03  0.33752981343E+03 -0.61676558560E+03  0.13933063197E+04  0.91307755704E+03 0.  0.
        -24    2    4    4    0    0 -0.10444780884E+02 -0.24280746892E+03 -0.23674010201E+02  0.25688651741E+03  0.79785109221E+02 0.  0.
         24    2    4    4    0    0 -0.77266805438E+03  0.58033728236E+03 -0.59309157540E+03  0.11364198023E+04  0.76714187958E+02 0.  0.
         13    1    3    3    0    0  0.47550517699E+03 -0.24864972877E+03  0.87797716122E+03  0.10289682972E+04  0.00000000000E+00 0.  1.
        -13    1    3    3    0    0  0.30760765828E+03 -0.88880084662E+02  0.58058231840E+03  0.66302184679E+03  0.00000000000E+00 0. -1.
          2    1    6    6  502    0 -0.16553246264E+03  0.13754609876E+03 -0.97617609971E+02  0.23632419099E+03  0.00000000000E+00 0. -1.
          1    1    5    5  503    0 -0.25612069761E+01 -0.10140971982E+03 -0.49594829779E+02  0.11291650985E+03  0.00000000000E+00 0. -1.
         -2    1    5    5    0  503 -0.78835739075E+01 -0.14139774910E+03  0.25920819578E+02  0.14397000756E+03  0.00000000000E+00 0.  1.
         -1    1    6    6    0  502 -0.60713559174E+03  0.44279118360E+03 -0.49547396543E+03  0.90009561128E+03  0.00000000000E+00 0.  1.
<mgrwt>
<rscale>  0 0.29682381E+04</rscale>
<asrwt>0</asrwt>
<pdfrwt beam="1">  1        1 0.30208387E+00 0.29682381E+04</pdfrwt>
<pdfrwt beam="2">  1       -1 0.17257712E+00 0.29682381E+04</pdfrwt>
<totfact> 0.63422136E-01</totfact>
</mgrwt>
</event>
<event>
12    1  0.1559959E-007  0.2205167E+04  0.7818608E-02  0.8516280E-01
          1   -1    0    0  501    0  0.00000000000E+00  0.00000000000E+00  0.17279486050E+04  0.17279486050E+04  0.00000000000E+00 0. -1.
         -1   -1    0    0    0  501 -0.00000000000E+00 -0.00000000000E+00 -0.70354558205E+03  0.70354558205E+03  0.00000000000E+00 0.  1.
         23    2    1    2    0    0 -0.20161114091E+03  0.63351517409E+03 -0.26792648351E+03  0.72235899383E+03  0.89606849431E+02 0.  0.
        254    2    1    2    0    0  0.20161114091E+03 -0.63351517409E+03  0.12923295065E+04  0.17091351933E+04  0.89946596797E+03 0.  0.
        -24    2    4    4    0    0  0.15804635304E+03 -0.25382425775E+03 -0.48230962313E+02  0.31283810733E+03  0.78332956950E+02 0.  0.
         24    2    4    4    0    0  0.43564787868E+02 -0.37969091634E+03  0.13405604688E+04  0.13962970859E+04  0.80499061714E+02 0.  0.
         13    1    3    3    0    0  0.77465314130E+01  0.55965555849E+02 -0.21450271989E+02  0.60433983476E+02  0.00000000000E+00 0. -1.
        -13    1    3    3    0    0 -0.20935767232E+03  0.57754961824E+03 -0.24647621152E+03  0.66192501036E+03  0.00000000000E+00 0.  1.
          4    1    6    6  502    0  0.37617310147E+02 -0.72507201309E+02  0.23260604286E+03  0.24653179803E+03  0.00000000000E+00 0. -1.
          1    1    5    5  503    0 -0.52105657104E+01 -0.29943865241E+02 -0.14608006178E+02  0.33722083345E+02  0.00000000000E+00 0. -1.
         -2    1    5    5    0  503  0.16325691875E+03 -0.22388039251E+03 -0.33622956135E+02  0.27911602399E+03  0.00000000000E+00 0.  1.
         -3    1    6    6    0  502  0.59474777209E+01 -0.30718371503E+03  0.11079544259E+04  0.11497652879E+04  0.00000000000E+00 0.  1.
<mgrwt>
<rscale>  0 0.22051672E+04</rscale>
<asrwt>0</asrwt>
<pdfrwt beam="1">  1        1 0.26583825E+00 0.22051672E+04</pdfrwt>
<pdfrwt beam="2">  1       -1 0.10823778E+00 0.22051672E+04</pdfrwt>
<totfact> 0.32953117E+00</totfact>
</mgrwt>
</event>
<event>
12    1  0.1495204E-007  0.4962113E+04  0.7818608E-02  0.7834378E-01
         -2   -1    0    0    0  501 -0.00000000000E+00  0.00000000000E+00  0.12620995710E+04  0.12620995710E+04  0.00000000000E+00 0.  1.
          2   -1    0    0  501    0  0.00000000000E+00 -0.00000000000E+00 -0.48773025290E+04  0.48773025290E+04  0.00000000000E+00 0. -1.
         23    2    1    2    0    0 -0.29066090747E+03 -0.61985475103E+03  0.10948980457E+04  0.12941082155E+04  0.84915649267E+02 0.  0.
        254    2    1    2    0    0  0.29066090747E+03  0.61985475103E+03 -0.47101010037E+04  0.48452938845E+04  0.90725833508E+03 0.  0.
        -24    2    4    4    0    0  0.51902986607E+03  0.23775115331E+03 -0.15679105657E+04  0.16705212970E+04  0.79876462355E+02 0.  0.
         24    2    4    4    0    0 -0.22836895859E+03  0.38210359772E+03 -0.31421904380E+04  0.31747725874E+04  0.87548229114E+02 0.  0.
         13    1    3    3    0    0 -0.29015331457E+03 -0.58200958398E+03  0.10114606912E+04  0.12024877678E+04  0.00000000000E+00 0.  1.
        -13    1    3    3    0    0 -0.50759290453E+00 -0.37845167049E+02  0.83437354484E+02  0.91620447733E+02  0.00000000000E+00 0. -1.
          4    1    6    6  502    0 -0.13742937385E+03  0.29620434144E+03 -0.21305985025E+04  0.21554753127E+04  0.00000000000E+00 0. -1.
          3    1    5    5  503    0  0.45007152683E+03  0.23247524523E+03 -0.14053752618E+04  0.14938837791E+04  0.00000000000E+00 0. -1.
         -2    1    5    5    0  503  0.68958339239E+02  0.52759080736E+01 -0.16253530382E+03  0.17663751794E+03  0.00000000000E+00 0.  1.
         -3    1    6    6    0  502 -0.90939584743E+02  0.85899256281E+02 -0.10115919355E+04  0.10192972747E+04  0.00000000000E+00 0.  1.
<mgrwt>
<rscale>  0 0.49621130E+04</rscale>
<asrwt>0</asrwt>
<pdfrwt beam="1">  1        2 0.75035424E+00 0.49621130E+04</pdfrwt>
<pdfrwt beam="2">  1       -2 0.19416916E+00 0.49621130E+04</pdfrwt>
<totfact> 0.50673798E-03</totfact>
</mgrwt>
</event>
<event>
12    1  0.1495204E-007  0.1397348E+04  0.7818608E-02  0.8955741E-01
         -1   -1    0    0    0  501 -0.00000000000E+00  0.00000000000E+00  0.95738840996E+03  0.95738840996E+03  0.00000000000E+00 0.  1.
          1   -1    0    0  501    0  0.00000000000E+00 -0.00000000000E+00 -0.50987166806E+03  0.50987166806E+03  0.00000000000E+00 0. -1.
         23    2    1    2    0    0 -0.21957782275E+03  0.14817843663E+03  0.45340388895E+03  0.53325014036E+03  0.92786617320E+02 0.  0.
        254    2    1    2    0    0  0.21957782275E+03 -0.14817843663E+03 -0.58871470507E+01  0.93400993766E+03  0.89563867482E+03 0.  0.
        -24    2    4    4    0    0  0.47140691874E+03 -0.21753802726E+03  0.22915398767E+03  0.57317822876E+03  0.80464001345E+02 0.  0.
         24    2    4    4    0    0 -0.25182909599E+03  0.69359590627E+02 -0.23504113472E+03  0.36083170891E+03  0.82015490885E+02 0.  0.
         13    1    3    3    0    0 -0.57109403111E+02  0.92915257492E+02  0.17786458671E+03  0.20863973783E+03  0.00000000000E+00 0.  1.
        -13    1    3    3    0    0 -0.16246841964E+03  0.55263179139E+02  0.27553930224E+03  0.32461040253E+03  0.00000000000E+00 0. -1.
          2    1    6    6  502    0 -0.23108034034E+03  0.72957498349E+02 -0.17988969095E+03  0.30179665533E+03  0.00000000000E+00 0. -1.
          1    1    5    5  503    0  0.13526252955E+03 -0.57667867602E+02  0.26664654548E+02  0.14944075300E+03  0.00000000000E+00 0. -1.
         -2    1    5    5    0  503  0.33614438919E+03 -0.15987015966E+03  0.20248933312E+03  0.42373747576E+03  0.00000000000E+00 0.  1.
         -1    1    6    6    0  502 -0.20748755643E+02 -0.35979077216E+01 -0.55151443775E+02  0.59035053580E+02  0.00000000000E+00 0.  1.
<mgrwt>
<rscale>  0 0.13973478E+04</rscale>
<asrwt>0</asrwt>
<pdfrwt beam="1">  1        1 0.78441795E-01 0.13973478E+04</pdfrwt>
<pdfrwt beam="2">  1       -1 0.14729052E+00 0.13973478E+04</pdfrwt>
<totfact> 0.15417106E+01</totfact>
</mgrwt>
</event>
<event>
12    1  0.1495204E-007  0.1593256E+04  0.7818608E-02  0.8824702E-01
          2   -1    0    0  501    0  0.00000000000E+00  0.00000000000E+00  0.26124290954E+04  0.26124290954E+04  0.00000000000E+00 0. -1.
         -2   -1    0    0    0  501 -0.00000000000E+00 -0.00000000000E+00 -0.24292199360E+03  0.24292199360E+03  0.00000000000E+00 0.  1.
         23    2    1    2    0    0 -0.31372603981E+03 -0.12907140602E+03  0.15561409931E+04  0.15952199457E+04  0.89824433745E+02 0.  0.
        254    2    1    2    0    0  0.31372603981E+03  0.12907140602E+03  0.81336610866E+03  0.12601311432E+04  0.90071228233E+03 0.  0.
        -24    2    4    4    0    0  0.23201887586E+03 -0.37104228961E+03  0.31553448828E+03  0.54526744289E+03  0.79053346195E+02 0.  0.
         24    2    4    4    0    0  0.81707163948E+02  0.50011369563E+03  0.49783162038E+03  0.71486370034E+03  0.80025112459E+02 0.  0.
         11    1    3    3    0    0 -0.23398784393E+03 -0.10476960003E+03  0.13233317868E+04  0.13479369415E+04  0.00000000000E+00 0. -1.
        -11    1    3    3    0    0 -0.79738195876E+02 -0.24301805992E+02  0.23280920632E+03  0.24728300428E+03  0.00000000000E+00 0.  1.
          4    1    6    6  502    0 -0.97135178262E+01  0.22885969313E+02  0.40893378234E+02  0.47858002501E+02  0.00000000000E+00 0. -1.
          1    1    5    5  503    0  0.38269400717E+02 -0.90400607225E+02  0.36855020416E+02  0.10485756695E+03  0.00000000000E+00 0. -1.
         -2    1    5    5    0  503  0.19374947514E+03 -0.28064168239E+03  0.27867946786E+03  0.44040987594E+03  0.00000000000E+00 0.  1.
         -3    1    6    6    0  502  0.91420681774E+02  0.47722772632E+03  0.45693824214E+03  0.66700569784E+03  0.00000000000E+00 0.  1.
<mgrwt>
<rscale>  0 0.15932564E+04</rscale>
<asrwt>0</asrwt>
<pdfrwt beam="1">  1        2 0.40191215E+00 0.15932564E+04</pdfrwt>
<pdfrwt beam="2">  1       -2 0.37372616E-01 0.15932564E+04</pdfrwt>
<totfact> 0.19439796E+01</totfact>
</mgrwt>
</event>
<event>
12    1  0.1495204E-007  0.2273054E+04  0.7818608E-02  0.8488622E-01
         -2   -1    0    0    0  501 -0.00000000000E+00  0.00000000000E+00  0.59700437585E+03  0.59700437585E+03  0.00000000000E+00 0. -1.
          2   -1    0    0  501    0  0.00000000000E+00 -0.00000000000E+00 -0.21636248784E+04  0.21636248784E+04  0.00000000000E+00 0.  1.
         23    2    1    2    0    0 -0.34788691259E+03  0.44334624674E+03 -0.15991969916E+04  0.16980775908E+04  0.91952639176E+02 0.  0.
        254    2    1    2    0    0  0.34788691259E+03 -0.44334624674E+03  0.32576489084E+02  0.10625516635E+04  0.90020753798E+03 0.  0.
        -24    2    4    4    0    0  0.61805290544E+02 -0.19421768444E+03 -0.41556191051E+03  0.46992693399E+03  0.81235576773E+02 0.  0.
         24    2    4    4    0    0  0.28608162204E+03 -0.24912856230E+03  0.44813839959E+03  0.59262472947E+03  0.80425802878E+02 0.  0.
         11    1    3    3    0    0 -0.39705673677E+02  0.10947302286E+03 -0.34375347831E+03  0.36294260855E+03  0.00000000000E+00 0. -1.
        -11    1    3    3    0    0 -0.30818123891E+03  0.33387322389E+03 -0.12554435133E+04  0.13351349822E+04  0.00000000000E+00 0.  1.
          4    1    6    6  502    0  0.81442549395E+02 -0.11286864484E+03  0.19671223627E+03  0.24097286930E+03  0.00000000000E+00 0. -1.
          1    1    5    5  503    0 -0.14307071059E+02 -0.55716096996E+01 -0.21013263283E+02  0.26024841032E+02  0.00000000000E+00 0. -1.
         -2    1    5    5    0  503  0.76112361603E+02 -0.18864607474E+03 -0.39454864722E+03  0.44390209296E+03  0.00000000000E+00 0.  1.
         -3    1    6    6    0  502  0.20463907265E+03 -0.13625991746E+03  0.25142616332E+03  0.35165186017E+03  0.00000000000E+00 0.  1.
<mgrwt>
<rscale>  0 0.22730539E+04</rscale>
<asrwt>0</asrwt>
<pdfrwt beam="1">  1        2 0.33286536E+00 0.22730539E+04</pdfrwt>
<pdfrwt beam="2">  1       -2 0.91846828E-01 0.22730539E+04</pdfrwt>
<totfact> 0.49581226E+00</totfact>
</mgrwt>
</event>
<event>
12    1  0.1562906E-007  0.1911149E+04  0.7818608E-02  0.8649327E-01
         -1   -1    0    0    0  501 -0.00000000000E+00  0.00000000000E+00  0.55748432288E+03  0.55748432288E+03  0.00000000000E+00 0.  1.
          1   -1    0    0  501    0  0.00000000000E+00 -0.00000000000E+00 -0.16379340159E+04  0.16379340159E+04  0.00000000000E+00 0. -1.
         23    2    1    2    0    0  0.25482807538E+03  0.29116595115E+03 -0.11445390918E+04  0.12120823965E+04  0.97257618098E+02 0.  0.
        254    2    1    2    0    0 -0.25482807538E+03 -0.29116595115E+03  0.64089398723E+02  0.98333594228E+03  0.90173564044E+03 0.  0.
        -24    2    4    4    0    0  0.24935819625E+03 -0.26624704048E+03 -0.18138685377E+03  0.41547778492E+03  0.81569617127E+02 0.  0.
         24    2    4    4    0    0 -0.50418627162E+03 -0.24918910664E+02  0.24547625250E+03  0.56785815736E+03  0.85904294043E+02 0.  0.
         13    1    3    3    0    0  0.93642535613E+02  0.12786931023E+03 -0.61254366773E+03  0.63271575755E+03  0.00000000000E+00 0. -1.
        -13    1    3    3    0    0  0.16118553976E+03  0.16329664092E+03 -0.53199542405E+03  0.57936663899E+03  0.00000000000E+00 0.  1.
          4    1    6    6  502    0 -0.44127766969E+03  0.28573920855E+01  0.22889838823E+03  0.49712032607E+03  0.00000000000E+00 0. -1.
          3    1    5    5  503    0  0.24373003850E+03 -0.22689518761E+03 -0.17126920446E+03  0.37445813948E+03  0.00000000000E+00 0. -1.
         -2    1    5    5    0  503  0.56281577493E+01 -0.39351852875E+02 -0.10117649309E+02  0.41019645438E+02  0.00000000000E+00 0.  1.
         -3    1    6    6    0  502 -0.62908601938E+02 -0.27776302749E+02  0.16577864263E+02  0.70737831291E+02  0.00000000000E+00 0.  1.
<mgrwt>
<rscale>  0 0.19111489E+04</rscale>
<asrwt>0</asrwt>
<pdfrwt beam="1">  1        1 0.25198984E+00 0.19111489E+04</pdfrwt>
<pdfrwt beam="2">  1       -1 0.85766821E-01 0.19111489E+04</pdfrwt>
<totfact> 0.65948878E+00</totfact>
</mgrwt>
</event>
<event>
12    1  0.1495204E-007  0.1575319E+04  0.7818608E-02  0.8835856E-01
          2   -1    0    0  501    0  0.00000000000E+00  0.00000000000E+00  0.29401229965E+04  0.29401229965E+04  0.00000000000E+00 0. -1.
         -2   -1    0    0    0  501 -0.00000000000E+00 -0.00000000000E+00 -0.21101405220E+03  0.21101405220E+03  0.00000000000E+00 0.  1.
         23    2    1    2    0    0  0.22724524696E+03 -0.45870009325E+03  0.11387494222E+04  0.12517617620E+04  0.90061558674E+02 0.  0.
        254    2    1    2    0    0 -0.22724524696E+03  0.45870009325E+03  0.15903595221E+04  0.18993752867E+04  0.90351363715E+03 0.  0.
        -24    2    4    4    0    0  0.17116570004E+03  0.56424822047E+03  0.73169642312E+03  0.94373619209E+03  0.87089571620E+02 0.  0.
         24    2    4    4    0    0 -0.39841094700E+03 -0.10554812722E+03  0.85866309899E+03  0.95563909466E+03  0.77923499752E+02 0.  0.
         13    1    3    3    0    0  0.14119278944E+03 -0.30741674604E+03  0.84677573690E+03  0.91184955346E+03  0.00000000000E+00 0.  1.
        -13    1    3    3    0    0  0.86052457519E+02 -0.15128334721E+03  0.29197368532E+03  0.33991220853E+03  0.00000000000E+00 0. -1.
          2    1    6    6  502    0 -0.76578211289E+02 -0.53252266777E+02  0.18130075507E+03  0.20388719957E+03  0.00000000000E+00 0. -1.
          1    1    5    5  503    0  0.80709111512E+02  0.40282729521E+03  0.51465800229E+03  0.65852611927E+03  0.00000000000E+00 0. -1.
         -2    1    5    5    0  503  0.90456588526E+02  0.16142092526E+03  0.21703842083E+03  0.28521007282E+03  0.00000000000E+00 0.  1.
         -3    1    6    6    0  502 -0.32183273571E+03 -0.52295860443E+02  0.67736234392E+03  0.75175189508E+03  0.00000000000E+00 0.  1.
<mgrwt>
<rscale>  0 0.15753187E+04</rscale>
<asrwt>0</asrwt>
<pdfrwt beam="1">  1        2 0.45232658E+00 0.15753187E+04</pdfrwt>
<pdfrwt beam="2">  1       -2 0.32463703E-01 0.15753187E+04</pdfrwt>
<totfact> 0.16208329E+01</totfact>
</mgrwt>
</event>
<event>
12    1  0.1495204E-007  0.1119405E+04  0.7818608E-02  0.9186482E-01
          3   -1    0    0  501    0  0.00000000000E+00  0.00000000000E+00  0.66035890995E+03  0.66035890995E+03  0.00000000000E+00 0. -1.
         -3   -1    0    0    0  501 -0.00000000000E+00 -0.00000000000E+00 -0.47438920081E+03  0.47438920081E+03  0.00000000000E+00 0.  1.
         23    2    1    2    0    0 -0.11702121163E+03 -0.14073303209E+03  0.53970091965E+02  0.21445473509E+03  0.97868852476E+02 0.  0.
        254    2    1    2    0    0  0.11702121163E+03  0.14073303209E+03  0.13199961718E+03  0.92029337567E+03  0.89219742663E+03 0.  0.
        -24    2    4    4    0    0 -0.26585987366E+03  0.12720520602E+03 -0.23399520355E+03  0.38450828406E+03  0.78931795696E+02 0.  0.
         24    2    4    4    0    0  0.38288108529E+03  0.13527826067E+02  0.36599482072E+03  0.53578509161E+03  0.79577182921E+02 0.  0.
         13    1    3    3    0    0 -0.13174845501E+03 -0.14058281147E+03  0.52242128404E+02  0.19962570540E+03  0.00000000000E+00 0. -1.
        -13    1    3    3    0    0  0.14727243371E+02 -0.15022061724E+00  0.17279635611E+01  0.14829029693E+02  0.00000000000E+00 0.  1.
          2    1    6    6  502    0  0.32088429529E+03 -0.18691143207E+02  0.30073210549E+03  0.44017711103E+03  0.00000000000E+00 0. -1.
          3    1    5    5  503    0 -0.25922855526E+03  0.13006348812E+03 -0.20637233485E+03  0.35595715387E+03  0.00000000000E+00 0. -1.
         -4    1    5    5    0  503 -0.66313184012E+01 -0.28582820995E+01 -0.27622868691E+02  0.28551130188E+02  0.00000000000E+00 0.  1.
         -1    1    6    6    0  502  0.61996789999E+02  0.32218969274E+02  0.65262715232E+02  0.95607980581E+02  0.00000000000E+00 0.  1.
<mgrwt>
<rscale>  0 0.11194054E+04</rscale>
<asrwt>0</asrwt>
<pdfrwt beam="1">  1        3 0.10159368E+00 0.11194054E+04</pdfrwt>
<pdfrwt beam="2">  1       -3 0.72982954E-01 0.11194054E+04</pdfrwt>
<totfact> 0.39043978E+00</totfact>
</mgrwt>
</event>
<event>
12    1  0.1495204E-007  0.3252964E+04  0.7818608E-02  0.8174968E-01
         -1   -1    0    0    0  501 -0.00000000000E+00  0.00000000000E+00  0.12335662659E+04  0.12335662659E+04  0.00000000000E+00 0.  1.
          1   -1    0    0  501    0  0.00000000000E+00 -0.00000000000E+00 -0.21445496852E+04  0.21445496852E+04  0.00000000000E+00 0. -1.
         23    2    1    2    0    0  0.14458930289E+04  0.12081337729E+03 -0.11223460186E+02  0.14539386729E+04  0.92785642776E+02 0.  0.
        254    2    1    2    0    0 -0.14458930289E+04 -0.12081337729E+03 -0.89975995912E+03  0.19241772781E+04  0.88751771285E+03 0.  0.
        -24    2    4    4    0    0 -0.66799493197E+03  0.11374621466E+03  0.34913256907E+02  0.68329536399E+03  0.80735298624E+02 0.  0.
         24    2    4    4    0    0 -0.77789809688E+03 -0.23455959194E+03 -0.93467321603E+03  0.12408819141E+04  0.77654702308E+02 0.  0.
         13    1    3    3    0    0  0.86936982865E+01  0.72540266148E+01 -0.46624428464E+01  0.12244985313E+02  0.00000000000E+00 0. -1.
        -13    1    3    3    0    0  0.14371993306E+04  0.11355935067E+03 -0.65610173395E+01  0.14416936876E+04  0.00000000000E+00 0.  1.
          2    1    6    6  502    0 -0.10921660782E+02  0.14851074263E+01 -0.27971715960E+02  0.30065014752E+02  0.00000000000E+00 0. -1.
          3    1    5    5  503    0 -0.17863693041E+03  0.25887161311E+02 -0.26111292991E+02  0.18238173606E+03  0.00000000000E+00 0. -1.
         -4    1    5    5    0  503 -0.48935800157E+03  0.87859053346E+02  0.61024549898E+02  0.50091362793E+03  0.00000000000E+00 0.  1.
         -1    1    6    6    0  502 -0.76697643610E+03 -0.23604469937E+03 -0.90670150007E+03  0.12108168994E+04  0.00000000000E+00 0.  1.
<mgrwt>
<rscale>  0 0.32529643E+04</rscale>
<asrwt>0</asrwt>
<pdfrwt beam="1">  1        1 0.32993072E+00 0.32529643E+04</pdfrwt>
<pdfrwt beam="2">  1       -1 0.18977943E+00 0.32529643E+04</pdfrwt>
<totfact> 0.35102023E-01</totfact>
</mgrwt>
</event>
<event>
12    1  0.1495204E-007  0.1155015E+04  0.7818608E-02  0.9153169E-01
         -2   -1    0    0    0  501 -0.00000000000E+00  0.00000000000E+00  0.11536796273E+04  0.11536796273E+04  0.00000000000E+00 0. -1.
          2   -1    0    0  501    0  0.00000000000E+00 -0.00000000000E+00 -0.28908819072E+03  0.28908819072E+03  0.00000000000E+00 0.  1.
         23    2    1    2    0    0  0.12599242971E+03  0.12566572068E+03  0.31886712164E+03  0.37631574839E+03  0.90946882980E+02 0.  0.
        254    2    1    2    0    0 -0.12599242971E+03 -0.12566572068E+03  0.54572431490E+03  0.10664520696E+04  0.89879865552E+03 0.  0.
        -24    2    4    4    0    0 -0.28974575013E+03  0.91118034588E+02 -0.12548387366E+03  0.33778912924E+03  0.78103760085E+02 0.  0.
         24    2    4    4    0    0  0.16375332041E+03 -0.21678375526E+03  0.67120818857E+03  0.72866294035E+03  0.81356633123E+02 0.  0.
         13    1    3    3    0    0  0.50274924133E+02  0.84016780324E+02  0.95318080461E+02  0.13664524813E+03  0.00000000000E+00 0.  1.
        -13    1    3    3    0    0  0.75717505580E+02  0.41648940352E+02  0.22354904118E+03  0.23967050027E+03  0.00000000000E+00 0. -1.
          4    1    6    6  502    0 -0.10945533255E+01 -0.39534536563E+02  0.12782934752E+03  0.13380777151E+03  0.00000000000E+00 0. -1.
          1    1    5    5  503    0 -0.82877176152E+01  0.95620002426E+01  0.88380550159E+01  0.15434679406E+02  0.00000000000E+00 0. -1.
         -4    1    5    5    0  503 -0.28145803251E+03  0.81556034345E+02 -0.13432192868E+03  0.32235444983E+03  0.00000000000E+00 0.  1.
         -3    1    6    6    0  502  0.16484787374E+03 -0.17724921870E+03  0.54337884104E+03  0.59485516884E+03  0.00000000000E+00 0.  1.
<mgrwt>
<rscale>  0 0.11550154E+04</rscale>
<asrwt>0</asrwt>
<pdfrwt beam="1">  1        2 0.44475107E-01 0.11550154E+04</pdfrwt>
<pdfrwt beam="2">  1       -2 0.17748917E+00 0.11550154E+04</pdfrwt>
<totfact> 0.21350349E+01</totfact>
</mgrwt>
</event>
<event>
12    1  0.1495204E-007  0.1088835E+04  0.7818608E-02  0.9216143E-01
          2   -1    0    0  501    0  0.00000000000E+00  0.00000000000E+00  0.23078985140E+04  0.23078985140E+04  0.00000000000E+00 0. -1.
         -2   -1    0    0    0  501 -0.00000000000E+00 -0.00000000000E+00 -0.12842426520E+03  0.12842426520E+03  0.00000000000E+00 0.  1.
         23    2    1    2    0    0  0.17746704756E+03  0.84408770925E+02  0.21737350711E+03  0.30739224807E+03  0.92840503015E+02 0.  0.
        254    2    1    2    0    0 -0.17746704756E+03 -0.84408770925E+02  0.19621007417E+04  0.21289305311E+04  0.80242538110E+03 0.  0.
        -24    2    4    4    0    0  0.20789864317E+03 -0.30148323989E+03  0.80825417471E+03  0.89067332310E+03  0.76877615489E+02 0.  0.
         24    2    4    4    0    0 -0.38536569073E+03  0.21707446897E+03  0.11538465670E+04  0.12382572081E+04  0.79315650654E+02 0.  0.
         11    1    3    3    0    0  0.16613187424E+03  0.58709101080E+02  0.21670159949E+03  0.27929579555E+03  0.00000000000E+00 0.  1.
        -11    1    3    3    0    0  0.11335173321E+02  0.25699669845E+02  0.67190761674E+00  0.28096452520E+02  0.00000000000E+00 0. -1.
          2    1    6    6  502    0 -0.17293408784E+03  0.10541300723E+03  0.42236386876E+03  0.46841150548E+03  0.00000000000E+00 0. -1.
          1    1    5    5  503    0  0.21001177146E+03 -0.29563506400E+03  0.76071402270E+03  0.84272822401E+03  0.00000000000E+00 0. -1.
         -2    1    5    5    0  503 -0.21131282886E+01 -0.58481758954E+01  0.47540152018E+02  0.47945099086E+02  0.00000000000E+00 0.  1.
         -3    1    6    6    0  502 -0.21243160290E+03  0.11166146174E+03  0.73148269824E+03  0.76984570257E+03  0.00000000000E+00 0.  1.
<mgrwt>
<rscale>  0 0.10888346E+04</rscale>
<asrwt>0</asrwt>
<pdfrwt beam="1">  1        2 0.35506128E+00 0.10888346E+04</pdfrwt>
<pdfrwt beam="2">  1       -2 0.19757581E-01 0.10888346E+04</pdfrwt>
<totfact> 0.97945587E+01</totfact>
</mgrwt>
</event>
<event>
12    1  0.1495204E-007  0.1161450E+04  0.7818608E-02  0.9147285E-01
          2   -1    0    0  501    0  0.00000000000E+00  0.00000000000E+00  0.12885383244E+04  0.12885383244E+04  0.00000000000E+00 0. -1.
         -2   -1    0    0    0  501 -0.00000000000E+00 -0.00000000000E+00 -0.26172423631E+03  0.26172423631E+03  0.00000000000E+00 0.  1.
         23    2    1    2    0    0  0.21322985827E+03 -0.15860735115E+02  0.18446145520E+03  0.29659250320E+03  0.90678272597E+02 0.  0.
        254    2    1    2    0    0 -0.21322985827E+03  0.15860735115E+02  0.84235263284E+03  0.12536700575E+04  0.90355526648E+03 0.  0.
        -24    2    4    4    0    0  0.22482664907E+03  0.20665364364E+03  0.66758038849E+03  0.73837301513E+03  0.79236253151E+02 0.  0.
         24    2    4    4    0    0 -0.43805650733E+03 -0.19079290852E+03  0.17477224435E+03  0.51529704235E+03  0.81794051744E+02 0.  0.
         11    1    3    3    0    0  0.19688733422E+03  0.19855897986E+01  0.18788037332E+03  0.27215363239E+03  0.00000000000E+00 0. -1.
        -11    1    3    3    0    0  0.16342524045E+02 -0.17846324913E+02 -0.34189181197E+01  0.24438870804E+02  0.00000000000E+00 0.  1.
          4    1    6    6  502    0 -0.10897734049E+02 -0.23645817941E+02  0.83333423760E+01  0.27337335434E+02  0.00000000000E+00 0. -1.
          3    1    5    5  503    0  0.21708964645E+02  0.25357994980E+02  0.29163837572E+02  0.44326476031E+02  0.00000000000E+00 0. -1.
         -4    1    5    5    0  503  0.20311768442E+03  0.18129564866E+03  0.63841655092E+03  0.69404653910E+03  0.00000000000E+00 0.  1.
         -1    1    6    6    0  502 -0.42715877328E+03 -0.16714709058E+03  0.16643890198E+03  0.48795970692E+03  0.00000000000E+00 0.  1.
<mgrwt>
<rscale>  0 0.11614503E+04</rscale>
<asrwt>0</asrwt>
<pdfrwt beam="1">  1        2 0.19823666E+00 0.11614503E+04</pdfrwt>
<pdfrwt beam="2">  1       -2 0.40265268E-01 0.11614503E+04</pdfrwt>
<totfact> 0.96883920E+01</totfact>
</mgrwt>
</event>
<event>
12    1  0.1495204E-007  0.1243447E+04  0.7818608E-02  0.9075655E-01
          1   -1    0    0  501    0  0.00000000000E+00  0.00000000000E+00  0.31332796532E+03  0.31332796532E+03  0.00000000000E+00 0. -1.
         -1   -1    0    0    0  501 -0.00000000000E+00 -0.00000000000E+00 -0.12336594471E+04  0.12336594471E+04  0.00000000000E+00 0.  1.
         23    2    1    2    0    0  0.20538516309E+03  0.14212275016E+03 -0.40604541789E+03  0.48532766071E+03  0.91039087888E+02 0.  0.
        254    2    1    2    0    0 -0.20538516309E+03 -0.14212275016E+03 -0.51428606388E+03  0.10616597517E+04  0.89456656072E+03 0.  0.
        -24    2    4    4    0    0 -0.14611976911E+03  0.36462744755E+03 -0.14377487002E+03  0.42586424835E+03  0.79906084483E+02 0.  0.
         24    2    4    4    0    0 -0.59265393982E+02 -0.50675019771E+03 -0.37051119386E+03  0.63579550336E+03  0.81542795586E+02 0.  0.
         13    1    3    3    0    0  0.17147413762E+03  0.13111687810E+03 -0.27545394173E+03  0.34995698251E+03  0.00000000000E+00 0. -1.
        -13    1    3    3    0    0  0.33911025478E+02  0.11005872061E+02 -0.13059147617E+03  0.13537067820E+03  0.00000000000E+00 0.  1.
          4    1    6    6  502    0 -0.78500274511E+01 -0.37738876468E+03 -0.26955005698E+03  0.46383309051E+03  0.00000000000E+00 0. -1.
          3    1    5    5  503    0 -0.10256314259E+03  0.20356603117E+03 -0.46195281302E+02  0.23257758120E+03  0.00000000000E+00 0. -1.
         -4    1    5    5    0  503 -0.43556626524E+02  0.16106141638E+03 -0.97579588719E+02  0.19328666715E+03  0.00000000000E+00 0.  1.
         -3    1    6    6    0  502 -0.51415366531E+02 -0.12936143303E+03 -0.10096113688E+03  0.17196241284E+03  0.00000000000E+00 0.  1.
<mgrwt>
<rscale>  0 0.12434468E+04</rscale>
<asrwt>0</asrwt>
<pdfrwt beam="1">  1        1 0.48204301E-01 0.12434468E+04</pdfrwt>
<pdfrwt beam="2">  1       -1 0.18979377E+00 0.12434468E+04</pdfrwt>
<totfact> 0.14488803E+01</totfact>
</mgrwt>
</event>
<event>
12    1  0.1495204E-007  0.2050815E+04  0.7818608E-02  0.8583225E-01
         -1   -1    0    0    0  501 -0.00000000000E+00  0.00000000000E+00  0.54920237780E+03  0.54920237780E+03  0.00000000000E+00 0.  1.
          1   -1    0    0  501    0  0.00000000000E+00 -0.00000000000E+00 -0.19145236861E+04  0.19145236861E+04  0.00000000000E+00 0. -1.
         23    2    1    2    0    0  0.21868962541E+03  0.34004031475E+03  0.31586169883E+03  0.52162798619E+03  0.94204964187E+02 0.  0.
        254    2    1    2    0    0 -0.21868962541E+03 -0.34004031475E+03 -0.16811830071E+04  0.19420980777E+04  0.88426018346E+03 0.  0.
        -24    2    4    4    0    0 -0.14111485694E+03 -0.60717298585E+02  0.53455153048E+02  0.18162474526E+03  0.80809043476E+02 0.  0.
         24    2    4    4    0    0 -0.77574768474E+02 -0.27932301616E+03 -0.17346381601E+04  0.17604733324E+04  0.79105091206E+02 0.  0.
         11    1    3    3    0    0  0.37742505933E+01  0.68654429841E+02  0.58264840045E+02  0.90124731843E+02  0.00000000000E+00 0. -1.
        -11    1    3    3    0    0  0.21491537482E+03  0.27138588491E+03  0.25759685878E+03  0.43150325435E+03  0.00000000000E+00 0.  1.
          4    1    6    6  502    0  0.77764885252E+01 -0.73542060788E+02 -0.56377334658E+03  0.56860293245E+03  0.00000000000E+00 0. -1.
          3    1    5    5  503    0 -0.26469259277E+02 -0.15903403009E+02 -0.21389153386E+02  0.37563756421E+02  0.00000000000E+00 0. -1.
         -4    1    5    5    0  503 -0.11464559766E+03 -0.44813895576E+02  0.74844306434E+02  0.14406098884E+03  0.00000000000E+00 0.  1.
         -3    1    6    6    0  502 -0.85351257000E+02 -0.20578095538E+03 -0.11708648136E+04  0.11918704000E+04  0.00000000000E+00 0.  1.
<mgrwt>
<rscale>  0 0.20508154E+04</rscale>
<asrwt>0</asrwt>
<pdfrwt beam="1">  1        1 0.29454210E+00 0.20508154E+04</pdfrwt>
<pdfrwt beam="2">  1       -1 0.84492675E-01 0.20508154E+04</pdfrwt>
<totfact> 0.43625204E+00</totfact>
</mgrwt>
</event>
<event>
12    1  0.1495204E-007  0.1836176E+04  0.7818608E-02  0.8687295E-01
         -1   -1    0    0    0  501 -0.00000000000E+00  0.00000000000E+00  0.14901919685E+04  0.14901919685E+04  0.00000000000E+00 0.  1.
          1   -1    0    0  501    0  0.00000000000E+00 -0.00000000000E+00 -0.56562199022E+03  0.56562199022E+03  0.00000000000E+00 0. -1.
         23    2    1    2    0    0  0.58775161380E+03 -0.24857481734E+03  0.65973128900E+03  0.92237472614E+03  0.91040443785E+02 0.  0.
        254    2    1    2    0    0 -0.58775161380E+03  0.24857481734E+03  0.26483868928E+03  0.11334392326E+04  0.89850073080E+03 0.  0.
        -24    2    4    4    0    0 -0.27338670655E+03  0.40576317023E+03  0.49902133925E+03  0.70342657262E+03  0.80016275908E+02 0.  0.
         24    2    4    4    0    0 -0.31436490724E+03 -0.15718835289E+03 -0.23418264998E+03  0.43001265994E+03  0.80844919260E+02 0.  0.
         11    1    3    3    0    0  0.52448707712E+03 -0.24949542948E+03  0.60572581813E+03  0.83918915040E+03  0.00000000000E+00 0.  1.
        -11    1    3    3    0    0  0.63264536675E+02  0.92061214831E+00  0.54005470872E+02  0.83185575742E+02  0.00000000000E+00 0. -1.
          4    1    6    6  502    0 -0.17791176563E+03 -0.44551101417E+02 -0.11028444408E+03  0.21400947548E+03  0.00000000000E+00 0. -1.
          3    1    5    5  503    0 -0.24067517188E+03  0.35047773390E+03  0.46735748334E+03  0.63180867164E+03  0.00000000000E+00 0. -1.
         -2    1    5    5    0  503 -0.32711534670E+02  0.55285436331E+02  0.31663855911E+02  0.71617900988E+02  0.00000000000E+00 0.  1.
         -3    1    6    6    0  502 -0.13645314161E+03 -0.11263725147E+03 -0.12389820589E+03  0.21600318447E+03  0.00000000000E+00 0.  1.
<mgrwt>
<rscale>  0 0.18361758E+04</rscale>
<asrwt>0</asrwt>
<pdfrwt beam="1">  1        1 0.87018768E-01 0.18361758E+04</pdfrwt>
<pdfrwt beam="2">  1       -1 0.22926030E+00 0.18361758E+04</pdfrwt>
<totfact> 0.33473741E+00</totfact>
</mgrwt>
</event>
<event>
12    1  0.1495204E-007  0.5620723E+04  0.7818608E-02  0.7739293E-01
          2   -1    0    0  501    0  0.00000000000E+00  0.00000000000E+00  0.29815910753E+04  0.29815910753E+04  0.00000000000E+00 0. -1.
         -2   -1    0    0    0  501 -0.00000000000E+00 -0.00000000000E+00 -0.26489658700E+04  0.26489658700E+04  0.00000000000E+00 0.  1.
         23    2    1    2    0    0 -0.36099018203E+03  0.25972976357E+04 -0.64009808114E+03  0.27006087834E+04  0.85400983744E+02 0.  0.
        254    2    1    2    0    0  0.36099018203E+03 -0.25972976357E+04  0.97272328644E+03  0.29299481619E+04  0.87300442154E+03 0.  0.
        -24    2    4    4    0    0  0.38040257849E+03 -0.22969457956E+04  0.53097077047E+03  0.23893462825E+04  0.79872326706E+02 0.  0.
         24    2    4    4    0    0 -0.19412396456E+02 -0.30035184001E+03  0.44175251596E+03  0.54060187949E+03  0.80728172350E+02 0.  0.
         11    1    3    3    0    0 -0.14743186522E+03  0.12166043671E+04 -0.33701734014E+03  0.12710007980E+04  0.00000000000E+00 0. -1.
        -11    1    3    3    0    0 -0.21355831682E+03  0.13806932685E+04 -0.30308074100E+03  0.14296079854E+04  0.00000000000E+00 0.  1.
          4    1    6    6  502    0 -0.49522452055E+02 -0.14097102520E+03  0.21142810436E+03  0.25889601487E+03  0.00000000000E+00 0. -1.
          1    1    5    5  503    0  0.37270537429E+03 -0.22588386227E+04  0.53229641478E+03  0.23504469134E+04  0.00000000000E+00 0. -1.
         -2    1    5    5    0  503  0.76972041982E+01 -0.38107172897E+02 -0.13256443103E+01  0.38899369037E+02  0.00000000000E+00 0.  1.
         -3    1    6    6    0  502  0.30110055599E+02 -0.15938081481E+03  0.23032441160E+03  0.28170586462E+03  0.00000000000E+00 0.  1.
<mgrwt>
<rscale>  0 0.56207234E+04</rscale>
<asrwt>0</asrwt>
<pdfrwt beam="1">  1        2 0.45870632E+00 0.56207234E+04</pdfrwt>
<pdfrwt beam="2">  1       -2 0.40753321E+00 0.56207234E+04</pdfrwt>
<totfact> 0.82184740E-03</totfact>
</mgrwt>
</event>
<event>
12    1  0.1495204E-007  0.1704913E+04  0.7818608E-02  0.8758567E-01
         -2   -1    0    0    0  501 -0.00000000000E+00  0.00000000000E+00  0.17024412198E+04  0.17024412198E+04  0.00000000000E+00 0.  1.
          2   -1    0    0  501    0  0.00000000000E+00 -0.00000000000E+00 -0.42684723450E+03  0.42684723450E+03  0.00000000000E+00 0. -1.
         23    2    1    2    0    0 -0.29049981237E+03 -0.13656683318E+03 -0.17746204118E+03  0.37786152488E+03  0.90807020713E+02 0.  0.
        254    2    1    2    0    0  0.29049981237E+03  0.13656683318E+03  0.14530560265E+04  0.17514269294E+04  0.92362537431E+03 0.  0.
        -24    2    4    4    0    0  0.40808603730E+03  0.46239444402E+03  0.91121359967E+03  0.11033077928E+04  0.81455667445E+02 0.  0.
         24    2    4    4    0    0 -0.11758622492E+03 -0.32582761083E+03  0.54184242679E+03  0.64811913659E+03  0.80467679614E+02 0.  0.
         13    1    3    3    0    0 -0.21886212021E+03 -0.11978206546E+03 -0.94046927215E+02  0.26663307257E+03  0.00000000000E+00 0. -1.
        -13    1    3    3    0    0 -0.71637692160E+02 -0.16784767724E+02 -0.83415113964E+02  0.11122845231E+03  0.00000000000E+00 0.  1.
          2    1    6    6  502    0 -0.11952902132E+03 -0.29549060720E+03  0.52261218520E+03  0.61214816998E+03  0.00000000000E+00 0. -1.
          1    1    5    5  503    0  0.16340906005E+03  0.18777672821E+03  0.29844848034E+03  0.38863107953E+03  0.00000000000E+00 0. -1.
         -2    1    5    5    0  503  0.24467697724E+03  0.27461771581E+03  0.61276511933E+03  0.71467671328E+03  0.00000000000E+00 0.  1.
         -1    1    6    6    0  502  0.19427963989E+01 -0.30337003632E+02  0.19230241590E+02  0.35970966610E+02  0.00000000000E+00 0.  1.
<mgrwt>
<rscale>  0 0.17049133E+04</rscale>
<asrwt>0</asrwt>
<pdfrwt beam="1">  1        2 0.65668806E-01 0.17049133E+04</pdfrwt>
<pdfrwt beam="2">  1       -2 0.26191403E+00 0.17049133E+04</pdfrwt>
<totfact> 0.38179220E+00</totfact>
</mgrwt>
</event>
<event>
12    1  0.1495204E-007  0.1476320E+04  0.7818608E-02  0.8900354E-01
         -2   -1    0    0    0  501 -0.00000000000E+00  0.00000000000E+00  0.11014135796E+04  0.11014135796E+04  0.00000000000E+00 0.  1.
          2   -1    0    0  501    0  0.00000000000E+00 -0.00000000000E+00 -0.49470989149E+03  0.49470989149E+03  0.00000000000E+00 0. -1.
         23    2    1    2    0    0 -0.11224321031E+03  0.41727334937E+03  0.47825533950E+02  0.44351812429E+03  0.87780741171E+02 0.  0.
        254    2    1    2    0    0  0.11224321031E+03 -0.41727334937E+03  0.55887815418E+03  0.11526053468E+04  0.91073525679E+03 0.  0.
        -24    2    4    4    0    0 -0.11363036251E+02  0.23953017448E+01  0.68608982503E+03  0.69081674267E+03  0.79835254660E+02 0.  0.
         24    2    4    4    0    0  0.12360624656E+03 -0.41966865111E+03 -0.12721167084E+03  0.46178860416E+03  0.75270344879E+02 0.  0.
         13    1    3    3    0    0 -0.60167508338E+02  0.28670428423E+03  0.70031753548E+02  0.30120412042E+03  0.00000000000E+00 0. -1.
        -13    1    3    3    0    0 -0.52075701972E+02  0.13056906514E+03 -0.22206219598E+02  0.14231400386E+03  0.00000000000E+00 0.  1.
          4    1    6    6  502    0  0.11037389927E+02 -0.97623638886E+02 -0.56675190923E+02  0.11342079224E+03  0.00000000000E+00 0. -1.
          3    1    5    5  503    0  0.14599123628E+02  0.17729821735E+02  0.63992793403E+02  0.67989400622E+02  0.00000000000E+00 0. -1.
         -4    1    5    5    0  503 -0.25962159879E+02 -0.15334519990E+02  0.62209703162E+03  0.62282734205E+03  0.00000000000E+00 0.  1.
         -3    1    6    6    0  502  0.11256885663E+03 -0.32204501223E+03 -0.70536479918E+02  0.34836781192E+03  0.00000000000E+00 0.  1.
<mgrwt>
<rscale>  0 0.14763200E+04</rscale>
<asrwt>0</asrwt>
<pdfrwt beam="1">  1        2 0.76109214E-01 0.14763200E+04</pdfrwt>
<pdfrwt beam="2">  1       -2 0.16944824E+00 0.14763200E+04</pdfrwt>
<totfact> 0.12964676E+01</totfact>
</mgrwt>
</event>
<event>
12    1  0.1495204E-007  0.1858924E+04  0.7818608E-02  0.8675577E-01
          1   -1    0    0  501    0  0.00000000000E+00  0.00000000000E+00  0.20787132343E+04  0.20787132343E+04  0.00000000000E+00 0. -1.
         -1   -1    0    0    0  501 -0.00000000000E+00 -0.00000000000E+00 -0.41559358743E+03  0.41559358743E+03  0.00000000000E+00 0.  1.
         23    2    1    2    0    0 -0.10642483993E+02  0.13473203912E+03  0.15579767089E+04  0.15664748797E+04  0.91028228031E+02 0.  0.
        254    2    1    2    0    0  0.10642483993E+02 -0.13473203912E+03  0.10514293789E+03  0.92783194199E+03  0.91189423200E+03 0.  0.
        -24    2    4    4    0    0 -0.19623407581E+03 -0.43467719873E+03  0.22861973159E+03  0.53479344925E+03  0.79277815833E+02 0.  0.
         24    2    4    4    0    0  0.20687655980E+03  0.29994515961E+03 -0.12347679370E+03  0.39303849273E+03  0.80422188600E+02 0.  0.
         11    1    3    3    0    0  0.27467793124E+01  0.96379292683E+02  0.14014468871E+04  0.14047597269E+04  0.00000000000E+00 0. -1.
        -11    1    3    3    0    0 -0.13389263306E+02  0.38352746441E+02  0.15652982182E+03  0.16171515281E+03  0.00000000000E+00 0.  1.
          2    1    6    6  502    0  0.17360065239E+03  0.25938653251E+03 -0.73663177457E+02  0.32069428350E+03  0.00000000000E+00 0. -1.
          1    1    5    5  503    0 -0.11308359430E+03 -0.33330747800E+03  0.15699448572E+03  0.38539465841E+03  0.00000000000E+00 0. -1.
         -2    1    5    5    0  503 -0.83150481510E+02 -0.10136972074E+03  0.71625245873E+02  0.14939879084E+03  0.00000000000E+00 0.  1.
         -1    1    6    6    0  502  0.33275907413E+02  0.40558627106E+02 -0.49813616245E+02  0.72344209238E+02  0.00000000000E+00 0.  1.
<mgrwt>
<rscale>  0 0.18589243E+04</rscale>
<asrwt>0</asrwt>
<pdfrwt beam="1">  1        1 0.31980203E+00 0.18589243E+04</pdfrwt>
<pdfrwt beam="2">  1       -1 0.63937476E-01 0.18589243E+04</pdfrwt>
<totfact> 0.61375719E+00</totfact>
</mgrwt>
</event>
<event>
12    1  0.1495204E-007  0.1339655E+04  0.7818608E-02  0.8998697E-01
         -1   -1    0    0    0  501 -0.00000000000E+00  0.00000000000E+00  0.42359830843E+03  0.42359830843E+03  0.00000000000E+00 0.  1.
          1   -1    0    0  501    0  0.00000000000E+00 -0.00000000000E+00 -0.10591842338E+04  0.10591842338E+04  0.00000000000E+00 0. -1.
         23    2    1    2    0    0  0.55262553038E+02 -0.34532449075E+03 -0.98093686152E+02  0.37447938377E+03  0.91156370731E+02 0.  0.
        254    2    1    2    0    0 -0.55262553038E+02  0.34532449075E+03 -0.53749223918E+03  0.11083031584E+04  0.90395521468E+03 0.  0.
        -24    2    4    4    0    0 -0.26570216122E+03  0.54626359359E+03 -0.52461919580E+03  0.80614147641E+03  0.75081470671E+02 0.  0.
         24    2    4    4    0    0  0.21043960818E+03 -0.20093910284E+03 -0.12873043384E+02  0.30216168203E+03  0.80464993005E+02 0.  0.
         11    1    3    3    0    0  0.50736403125E+02 -0.18717466873E+03 -0.95676225118E+02  0.21624633932E+03  0.00000000000E+00 0. -1.
        -11    1    3    3    0    0  0.45261499123E+01 -0.15814982202E+03 -0.24174610346E+01  0.15823304445E+03  0.00000000000E+00 0.  1.
          2    1    6    6  502    0  0.13455723243E+03 -0.92331782788E+02 -0.37399774974E+02  0.16742027978E+03  0.00000000000E+00 0. -1.
          1    1    5    5  503    0 -0.16825064214E+03  0.26029375998E+03 -0.26226514683E+03  0.40601000887E+03  0.00000000000E+00 0. -1.
         -2    1    5    5    0  503 -0.97451519080E+02  0.28596983361E+03 -0.26235404897E+03  0.40013146754E+03  0.00000000000E+00 0.  1.
         -1    1    6    6    0  502  0.75882375743E+02 -0.10860732005E+03  0.24526731590E+02  0.13474140225E+03  0.00000000000E+00 0.  1.
<mgrwt>
<rscale>  0 0.13396547E+04</rscale>
<asrwt>0</asrwt>
<pdfrwt beam="1">  1        1 0.16295142E+00 0.13396547E+04</pdfrwt>
<pdfrwt beam="2">  1       -1 0.65168971E-01 0.13396547E+04</pdfrwt>
<totfact> 0.31844290E+01</totfact>
</mgrwt>
</event>
<event>
12    1  0.1495204E-007  0.1607255E+04  0.7818608E-02  0.8816103E-01
          2   -1    0    0  501    0  0.00000000000E+00  0.00000000000E+00  0.59817541099E+03  0.59817541099E+03  0.00000000000E+00 0. -1.
         -2   -1    0    0    0  501 -0.00000000000E+00 -0.00000000000E+00 -0.10796454384E+04  0.10796454384E+04  0.00000000000E+00 0.  1.
         23    2    1    2    0    0 -0.11394033736E+03  0.66338915593E+02 -0.73587365174E+03  0.75336984273E+03  0.93128064535E+02 0.  0.
        254    2    1    2    0    0  0.11394033736E+03 -0.66338915593E+02  0.25440362432E+03  0.92445100668E+03  0.87892275399E+03 0.  0.
        -24    2    4    4    0    0  0.71487212960E+02 -0.41162725328E+03 -0.83255903301E+02  0.43301099790E+03  0.77585833843E+02 0.  0.
         24    2    4    4    0    0  0.42453124401E+02  0.34528833769E+03  0.33765952762E+03  0.49144000877E+03  0.80455091300E+02 0.  0.
         13    1    3    3    0    0 -0.31731869206E+02  0.19718858685E+01 -0.47723407026E+02  0.57343904954E+02  0.00000000000E+00 0. -1.
        -13    1    3    3    0    0 -0.82208468155E+02  0.64367029724E+02 -0.68815024472E+03  0.69602593778E+03  0.00000000000E+00 0.  1.
          2    1    6    6  502    0  0.48921505958E+02  0.34695512687E+03  0.33103980727E+03  0.48203581589E+03  0.00000000000E+00 0. -1.
          1    1    5    5  503    0  0.82434856924E+02 -0.25725678164E+03 -0.55480552045E+02  0.27578007359E+03  0.00000000000E+00 0. -1.
         -2    1    5    5    0  503 -0.10947643964E+02 -0.15437047164E+03 -0.27775351256E+02  0.15723092431E+03  0.00000000000E+00 0.  1.
         -1    1    6    6    0  502 -0.64683815574E+01 -0.16667891860E+01  0.66197203531E+01  0.94041928795E+01  0.00000000000E+00 0.  1.
<mgrwt>
<rscale>  0 0.16072552E+04</rscale>
<asrwt>0</asrwt>
<pdfrwt beam="1">  1        2 0.92026987E-01 0.16072552E+04</pdfrwt>
<pdfrwt beam="2">  1       -2 0.16609930E+00 0.16072552E+04</pdfrwt>
<totfact> 0.10835407E+01</totfact>
</mgrwt>
</event>
<event>
12    1  0.1495204E-007  0.1688606E+04  0.7818608E-02  0.8767890E-01
          3   -1    0    0  501    0  0.00000000000E+00  0.00000000000E+00  0.31150902352E+03  0.31150902352E+03  0.00000000000E+00 0. -1.
         -3   -1    0    0    0  501 -0.00000000000E+00 -0.00000000000E+00 -0.22883691258E+04  0.22883691258E+04  0.00000000000E+00 0.  1.
         23    2    1    2    0    0 -0.24964752799E+03  0.12777398583E+03  0.10702600818E+03  0.31392474970E+03  0.91891797057E+02 0.  0.
        254    2    1    2    0    0  0.24964752799E+03 -0.12777398583E+03 -0.20838861105E+04  0.22859533997E+04  0.89685647915E+03 0.  0.
        -24    2    4    4    0    0  0.22018652474E+03 -0.47679210394E+03 -0.15839300126E+04  0.16705926498E+04  0.78947455287E+02 0.  0.
         24    2    4    4    0    0  0.29461003249E+02  0.34901811811E+03 -0.49995609790E+03  0.61536074986E+03  0.77660512195E+02 0.  0.
         11    1    3    3    0    0 -0.24663407986E+03  0.11279991303E+03  0.11733293354E+03  0.29549823522E+03  0.00000000000E+00 0. -1.
        -11    1    3    3    0    0 -0.30134481283E+01  0.14974072797E+02 -0.10306925354E+02  0.18426514484E+02  0.00000000000E+00 0.  1.
          2    1    6    6  502    0  0.36548361099E+02  0.30771159927E+03 -0.47321758639E+03  0.56564750074E+03  0.00000000000E+00 0. -1.
          1    1    5    5  503    0  0.18787790910E+03 -0.35540004154E+03 -0.11201819702E+04  0.11901323223E+04  0.00000000000E+00 0. -1.
         -2    1    5    5    0  503  0.32308615638E+02 -0.12139206239E+03 -0.46374804242E+03  0.48046032751E+03  0.00000000000E+00 0.  1.
         -1    1    6    6    0  502 -0.70873578492E+01  0.41306518840E+02 -0.26738511512E+02  0.49713249118E+02  0.00000000000E+00 0.  1.
<mgrwt>
<rscale>  0 0.16886061E+04</rscale>
<asrwt>0</asrwt>
<pdfrwt beam="1">  1        3 0.47924465E-01 0.16886061E+04</pdfrwt>
<pdfrwt beam="2">  1       -3 0.35205679E+00 0.16886061E+04</pdfrwt>
<totfact> 0.21128262E-01</totfact>
</mgrwt>
</event>
<event>
12    1  0.1495204E-007  0.2531538E+04  0.7818608E-02  0.8391835E-01
         -2   -1    0    0    0  501 -0.00000000000E+00  0.00000000000E+00  0.14154544835E+04  0.14154544835E+04  0.00000000000E+00 0.  1.
          2   -1    0    0  501    0  0.00000000000E+00 -0.00000000000E+00 -0.11319128860E+04  0.11319128860E+04  0.00000000000E+00 0. -1.
         23    2    1    2    0    0  0.14972260159E+03  0.23145386188E+03 -0.95335012966E+03  0.99647203570E+03  0.89957215445E+02 0.  0.
        254    2    1    2    0    0 -0.14972260159E+03 -0.23145386188E+03  0.12368917272E+04  0.15508953338E+04  0.89408469621E+03 0.  0.
        -24    2    4    4    0    0 -0.29223613154E+03 -0.39824500116E+03  0.29593290095E+03  0.58141706827E+03  0.80426910227E+02 0.  0.
         24    2    4    4    0    0  0.14251352995E+03  0.16679113928E+03  0.94095882626E+03  0.96947826554E+03  0.79719535111E+02 0.  0.
         13    1    3    3    0    0  0.62597711134E+02  0.15677551445E+03 -0.46126819043E+03  0.49118772264E+03  0.00000000000E+00 0. -1.
        -13    1    3    3    0    0  0.87124890452E+02  0.74678347430E+02 -0.49208193923E+03  0.50528431306E+03  0.00000000000E+00 0.  1.
          4    1    6    6  502    0  0.39835154874E+02  0.62385093769E+02  0.18118001034E+03  0.19571646746E+03  0.00000000000E+00 0. -1.
          3    1    5    5  503    0 -0.13740544316E+03 -0.13661402975E+03  0.86155108702E+02  0.21205270970E+03  0.00000000000E+00 0. -1.
         -4    1    5    5    0  503 -0.15483068837E+03 -0.26163097141E+03  0.20977779225E+03  0.36936435857E+03  0.00000000000E+00 0.  1.
         -3    1    6    6    0  502  0.10267837508E+03  0.10440604551E+03  0.75977881592E+03  0.77376179808E+03  0.00000000000E+00 0.  1.
<mgrwt>
<rscale>  0 0.25315380E+04</rscale>
<asrwt>0</asrwt>
<pdfrwt beam="1">  1        2 0.17414044E+00 0.25315380E+04</pdfrwt>
<pdfrwt beam="2">  1       -2 0.21776223E+00 0.25315380E+04</pdfrwt>
<totfact> 0.18916270E+00</totfact>
</mgrwt>
</event>
<event>
12    1  0.1495204E-007  0.1908094E+04  0.7818608E-02  0.8650838E-01
         -2   -1    0    0    0  501 -0.00000000000E+00  0.00000000000E+00  0.16264103656E+04  0.16264103656E+04  0.00000000000E+00 0.  1.
          2   -1    0    0  501    0  0.00000000000E+00 -0.00000000000E+00 -0.55964073242E+03  0.55964073242E+03  0.00000000000E+00 0. -1.
         23    2    1    2    0    0 -0.14244541692E+03 -0.56339194417E+03 -0.10520368459E+03  0.59742969653E+03  0.90295334836E+02 0.  0.
        254    2    1    2    0    0  0.14244541692E+03  0.56339194417E+03  0.11719733178E+04  0.15886214015E+04  0.90138522295E+03 0.  0.
        -24    2    4    4    0    0 -0.26984137212E+03 -0.41480909740E+02  0.13039113970E+03  0.31304836738E+03  0.80389047931E+02 0.  0.
         24    2    4    4    0    0  0.41228678904E+03  0.60487285391E+03  0.10415821781E+04  0.12755730341E+04  0.79633949137E+02 0.  0.
         11    1    3    3    0    0 -0.28380593407E+02 -0.50464025597E+02 -0.34073450397E+02  0.67179431254E+02  0.00000000000E+00 0.  1.
        -11    1    3    3    0    0 -0.11406482352E+03 -0.51292791857E+03 -0.71130234190E+02  0.53025026528E+03  0.00000000000E+00 0. -1.
          4    1    6    6  502    0  0.41214943941E+03  0.58931798969E+03  0.10298616971E+04  0.12560963214E+04  0.00000000000E+00 0. -1.
          1    1    5    5  503    0 -0.11266122676E+03 -0.47343074226E+02  0.86595591733E+02  0.14977554940E+03  0.00000000000E+00 0. -1.
         -2    1    5    5    0  503 -0.15718014536E+03  0.58621644861E+01  0.43795547969E+02  0.16327281798E+03  0.00000000000E+00 0.  1.
         -1    1    6    6    0  502  0.13734963208E+00  0.15554864219E+02  0.11720481025E+02  0.19476712794E+02  0.00000000000E+00 0.  1.
<mgrwt>
<rscale>  0 0.19080938E+04</rscale>
<asrwt>0</asrwt>
<pdfrwt beam="1">  1        2 0.86098575E-01 0.19080938E+04</pdfrwt>
<pdfrwt beam="2">  1       -2 0.25021698E+00 0.19080938E+04</pdfrwt>
<totfact> 0.32329743E+00</totfact>
</mgrwt>
</event>
<event>
12    1  0.1495204E-007  0.1486206E+04  0.7818608E-02  0.8893678E-01
         -2   -1    0    0    0  501 -0.00000000000E+00  0.00000000000E+00  0.26716598726E+03  0.26716598726E+03  0.00000000000E+00 0.  1.
          2   -1    0    0  501    0  0.00000000000E+00 -0.00000000000E+00 -0.20668888792E+04  0.20668888792E+04  0.00000000000E+00 0. -1.
         23    2    1    2    0    0 -0.28126445459E+03  0.37010823051E+03 -0.58121862931E+03  0.74990437696E+03  0.91933039825E+02 0.  0.
        254    2    1    2    0    0  0.28126445459E+03 -0.37010823051E+03 -0.12185042627E+04  0.15841504895E+04  0.89927211658E+03 0.  0.
        -24    2    4    4    0    0 -0.29368977349E+03 -0.28633746149E+03 -0.40766235333E+03  0.58335995575E+03  0.76664325093E+02 0.  0.
         24    2    4    4    0    0  0.57495422808E+03 -0.83770769020E+02 -0.81084190934E+03  0.10007905338E+04  0.80790992410E+02 0.  0.
         11    1    3    3    0    0 -0.34033699078E+02  0.58072518153E+02 -0.40905312027E+02  0.78765186406E+02  0.00000000000E+00 0.  1.
        -11    1    3    3    0    0 -0.24723075552E+03  0.31203571236E+03 -0.54031331728E+03  0.67113919055E+03  0.00000000000E+00 0. -1.
          2    1    6    6  502    0  0.20712540304E+03  0.21069355785E+01 -0.32491801648E+03  0.38532724948E+03  0.00000000000E+00 0. -1.
          3    1    5    5  503    0 -0.24896619584E+03 -0.23362621494E+03 -0.29514962965E+03  0.45130774297E+03  0.00000000000E+00 0. -1.
         -4    1    5    5    0  503 -0.44723577645E+02 -0.52711246553E+02 -0.11251272367E+03  0.13205221278E+03  0.00000000000E+00 0.  1.
         -1    1    6    6    0  502  0.36782882504E+03 -0.85877704599E+02 -0.48592389286E+03  0.61546328431E+03  0.00000000000E+00 0.  1.
<mgrwt>
<rscale>  0 0.14862065E+04</rscale>
<asrwt>0</asrwt>
<pdfrwt beam="1">  1        2 0.31798291E+00 0.14862065E+04</pdfrwt>
<pdfrwt beam="2">  1       -2 0.41102459E-01 0.14862065E+04</pdfrwt>
<totfact> 0.33269429E+01</totfact>
</mgrwt>
</event>
<event>
12    1  0.1495204E-007  0.1829928E+04  0.7818608E-02  0.8690544E-01
          2   -1    0    0  501    0  0.00000000000E+00  0.00000000000E+00  0.23817315300E+04  0.23817315300E+04  0.00000000000E+00 0. -1.
         -2   -1    0    0    0  501 -0.00000000000E+00 -0.00000000000E+00 -0.35149167331E+03  0.35149167331E+03  0.00000000000E+00 0.  1.
         23    2    1    2    0    0 -0.24961414990E+03  0.41677970150E+03  0.15222152654E+04  0.16004240995E+04  0.90583887426E+02 0.  0.
        254    2    1    2    0    0  0.24961414990E+03 -0.41677970150E+03  0.50802459136E+03  0.11327991039E+04  0.88833117747E+03 0.  0.
        -24    2    4    4    0    0 -0.13241932876E+02 -0.34079106696E+03 -0.17560139932E+03  0.39220194578E+03  0.81686074239E+02 0.  0.
         24    2    4    4    0    0  0.26285608278E+03 -0.75988634540E+02  0.68362599068E+03  0.74059715808E+03  0.79196354672E+02 0.  0.
         11    1    3    3    0    0 -0.15014021865E+02  0.37274534630E+02  0.64830091362E+02  0.76274193083E+02  0.00000000000E+00 0.  1.
        -11    1    3    3    0    0 -0.23460012804E+03  0.37950516687E+03  0.14573851740E+04  0.15241499064E+04  0.00000000000E+00 0. -1.
          4    1    6    6  502    0  0.55380851233E+02 -0.24955660920E+01  0.22726984971E+03  0.23393343310E+03  0.00000000000E+00 0. -1.
          3    1    5    5  503    0  0.32310697936E+02 -0.18536234885E+03 -0.83196886523E+02  0.20573017158E+03  0.00000000000E+00 0. -1.
         -4    1    5    5    0  503 -0.45552630812E+02 -0.15542871811E+03 -0.92404512794E+02  0.18647177420E+03  0.00000000000E+00 0.  1.
         -3    1    6    6    0  502  0.20747523154E+03 -0.73493068448E+02  0.45635614097E+03  0.50666372498E+03  0.00000000000E+00 0.  1.
<mgrwt>
<rscale>  0 0.18299276E+04</rscale>
<asrwt>0</asrwt>
<pdfrwt beam="1">  1        2 0.36642023E+00 0.18299276E+04</pdfrwt>
<pdfrwt beam="2">  1       -2 0.54075644E-01 0.18299276E+04</pdfrwt>
<totfact> 0.12360292E+01</totfact>
</mgrwt>
</event>
<event>
12    1  0.1495204E-007  0.1303400E+04  0.7818608E-02  0.9026874E-01
         -1   -1    0    0    0  501 -0.00000000000E+00  0.00000000000E+00  0.43378719152E+03  0.43378719152E+03  0.00000000000E+00 0.  1.
          1   -1    0    0  501    0  0.00000000000E+00 -0.00000000000E+00 -0.97908072449E+03  0.97908072449E+03  0.00000000000E+00 0. -1.
         23    2    1    2    0    0 -0.76566608958E+02 -0.16697334625E+03  0.15923335578E+03  0.25915069898E+03  0.89784626868E+02 0.  0.
        254    2    1    2    0    0  0.76566608958E+02  0.16697334625E+03 -0.70452688875E+03  0.11537172170E+04  0.89496521494E+03 0.  0.
        -24    2    4    4    0    0 -0.29882993029E+02  0.37149243533E+03 -0.80406066497E+03  0.89022490472E+03  0.84185540652E+02 0.  0.
         24    2    4    4    0    0  0.10644960199E+03 -0.20451908908E+03  0.99533776217E+02  0.26349231232E+03  0.79759955368E+02 0.  0.
         13    1    3    3    0    0  0.54851671060E+01 -0.17147569351E+02 -0.83546247398E+01  0.19847567795E+02  0.00000000000E+00 0. -1.
        -13    1    3    3    0    0 -0.82051776064E+02 -0.14982577690E+03  0.16758798052E+03  0.23930313118E+03  0.00000000000E+00 0.  1.
          2    1    6    6  502    0  0.12327855196E+02 -0.58563145263E+02 -0.61981997026E+01  0.60166732306E+02  0.00000000000E+00 0. -1.
          1    1    5    5  503    0 -0.95880536151E+01  0.17584908344E+02 -0.14466939224E+02  0.24707328956E+02  0.00000000000E+00 0. -1.
         -2    1    5    5    0  503 -0.20294939414E+02  0.35390752699E+03 -0.78959372574E+03  0.86551757576E+03  0.00000000000E+00 0.  1.
         -1    1    6    6    0  502  0.94121746792E+02 -0.14595594382E+03  0.10573197592E+03  0.20332558001E+03  0.00000000000E+00 0.  1.
<mgrwt>
<rscale>  0 0.13033997E+04</rscale>
<asrwt>0</asrwt>
<pdfrwt beam="1">  1        1 0.15062780E+00 0.13033997E+04</pdfrwt>
<pdfrwt beam="2">  1       -1 0.66736491E-01 0.13033997E+04</pdfrwt>
<totfact> 0.35120950E+01</totfact>
</mgrwt>
</event>
<event>
12    1  0.1495204E-007  0.1207937E+04  0.7818608E-02  0.9105938E-01
         -2   -1    0    0    0  501 -0.00000000000E+00  0.00000000000E+00  0.14177508736E+03  0.14177508736E+03  0.00000000000E+00 0. -1.
          2   -1    0    0  501    0  0.00000000000E+00 -0.00000000000E+00 -0.25729333659E+04  0.25729333659E+04  0.00000000000E+00 0.  1.
         23    2    1    2    0    0  0.30915721595E+01 -0.89328330064E+02 -0.51893304854E+01  0.12757526436E+03  0.90881299257E+02 0.  0.
        254    2    1    2    0    0 -0.30915721595E+01  0.89328330064E+02 -0.24259689481E+04  0.25871331890E+04  0.89439571323E+03 0.  0.
        -24    2    4    4    0    0  0.73808877073E+02 -0.28495068068E+03 -0.19404650650E+04  0.19643121857E+04  0.80455288193E+02 0.  0.
         24    2    4    4    0    0 -0.76900449233E+02  0.37427901075E+03 -0.48550388308E+03  0.62282100329E+03  0.78698949657E+02 0.  0.
         13    1    3    3    0    0 -0.21725529445E+02 -0.63081512864E+01 -0.29878116897E+02  0.37476569635E+02  0.00000000000E+00 0.  1.
        -13    1    3    3    0    0  0.24817101604E+02 -0.83020178778E+02  0.24688786411E+02  0.90098694723E+02  0.00000000000E+00 0. -1.
          2    1    6    6  502    0 -0.14333863413E+01  0.71912312368E+02 -0.14092068597E+03  0.15821528055E+03  0.00000000000E+00 0. -1.
          3    1    5    5  503    0  0.15595998687E+02 -0.21595052481E+01 -0.74827392209E+02  0.76465922232E+02  0.00000000000E+00 0. -1.
         -4    1    5    5    0  503  0.58212878386E+02 -0.28279117544E+03 -0.18656376728E+04  0.18878462634E+04  0.00000000000E+00 0.  1.
         -1    1    6    6    0  502 -0.75467062891E+02  0.30236669838E+03 -0.34458319711E+03  0.46460572274E+03  0.00000000000E+00 0.  1.
<mgrwt>
<rscale>  0 0.12079368E+04</rscale>
<asrwt>0</asrwt>
<pdfrwt beam="1">  1        2 0.39583590E+00 0.12079368E+04</pdfrwt>
<pdfrwt beam="2">  1       -2 0.21811552E-01 0.12079368E+04</pdfrwt>
<totfact> 0.57491143E+01</totfact>
</mgrwt>
</event>
<event>
12    1  0.1495204E-007  0.2397174E+04  0.7818608E-02  0.8440562E-01
         -1   -1    0    0    0  501 -0.00000000000E+00  0.00000000000E+00  0.76362133659E+03  0.76362133659E+03  0.00000000000E+00 0.  1.
          1   -1    0    0  501    0  0.00000000000E+00 -0.00000000000E+00 -0.18813127320E+04  0.18813127320E+04  0.00000000000E+00 0. -1.
         23    2    1    2    0    0  0.98416096684E+03  0.98991648079E+02 -0.17646148337E+03  0.10085404049E+04  0.87423898869E+02 0.  0.
        254    2    1    2    0    0 -0.98416096684E+03 -0.98991648079E+02 -0.94122991203E+03  0.16363936637E+04  0.90194141731E+03 0.  0.
        -24    2    4    4    0    0 -0.27697409533E+03 -0.15556417712E+03 -0.85653099938E+03  0.91740793198E+03  0.84125489977E+02 0.  0.
         24    2    4    4    0    0 -0.70718687151E+03  0.56572529046E+02 -0.84698912644E+02  0.71898573172E+03  0.80329660411E+02 0.  0.
         11    1    3    3    0    0  0.85603848171E+03  0.11309983929E+03 -0.16533786808E+03  0.87916441377E+03  0.00000000000E+00 0.  1.
        -11    1    3    3    0    0  0.12812248513E+03 -0.14108191212E+02 -0.11123615284E+02  0.12937599110E+03  0.00000000000E+00 0. -1.
          2    1    6    6  502    0 -0.70879160207E+03  0.53869710147E+02 -0.84280630347E+02  0.71581471450E+03  0.00000000000E+00 0. -1.
          3    1    5    5  503    0 -0.10657285193E+03 -0.47615067473E+02 -0.43036130453E+03  0.44591010289E+03  0.00000000000E+00 0. -1.
         -4    1    5    5    0  503 -0.17040124340E+03 -0.10794910965E+03 -0.42616969485E+03  0.47149782909E+03  0.00000000000E+00 0.  1.
         -1    1    6    6    0  502  0.16047305622E+01  0.27028188984E+01 -0.41828229681E+00  0.31710172271E+01  0.00000000000E+00 0.  1.
<mgrwt>
<rscale>  0 0.23971738E+04</rscale>
<asrwt>0</asrwt>
<pdfrwt beam="1">  1        1 0.28943273E+00 0.23971738E+04</pdfrwt>
<pdfrwt beam="2">  1       -1 0.11748021E+00 0.23971738E+04</pdfrwt>
<totfact> 0.20961530E+00</totfact>
</mgrwt>
</event>
<event>
12    1  0.1495204E-007  0.1512502E+04  0.7818608E-02  0.8876182E-01
         -2   -1    0    0    0  501 -0.00000000000E+00  0.00000000000E+00  0.80248219433E+03  0.80248219433E+03  0.00000000000E+00 0.  1.
          2   -1    0    0  501    0  0.00000000000E+00 -0.00000000000E+00 -0.71268304756E+03  0.71268304756E+03  0.00000000000E+00 0. -1.
         23    2    1    2    0    0  0.18932810871E+03 -0.23597163977E+03 -0.34463150405E+03  0.46783923280E+03  0.92600899803E+02 0.  0.
        254    2    1    2    0    0 -0.18932810871E+03  0.23597163977E+03  0.43443065082E+03  0.10473260091E+04  0.90367805740E+03 0.  0.
        -24    2    4    4    0    0 -0.82837826525E+02  0.28935517066E+03  0.68838006904E+03  0.75599228513E+03  0.84075534043E+02 0.  0.
         24    2    4    4    0    0 -0.10649028218E+03 -0.53383530897E+02 -0.25394941822E+03  0.29133372396E+03  0.78708640786E+02 0.  0.
         13    1    3    3    0    0  0.95810364142E+02 -0.12725635558E+03 -0.11260342620E+03  0.19507264673E+03  0.00000000000E+00 0.  1.
        -13    1    3    3    0    0  0.93517744566E+02 -0.10871528419E+03 -0.23202807785E+03  0.27276658607E+03  0.00000000000E+00 0. -1.
          4    1    6    6  502    0 -0.34194049399E+02  0.14060105207E+02 -0.11500935533E+03  0.12080592447E+03  0.00000000000E+00 0. -1.
          1    1    5    5  503    0 -0.58912121419E+01  0.12582710661E+03  0.21357096509E+03  0.24795105216E+03  0.00000000000E+00 0. -1.
         -2    1    5    5    0  503 -0.76946614383E+02  0.16352806406E+03  0.47480910395E+03  0.50804123297E+03  0.00000000000E+00 0.  1.
         -3    1    6    6    0  502 -0.72296232785E+02 -0.67443636103E+02 -0.13894006288E+03  0.17052779949E+03  0.00000000000E+00 0.  1.
<mgrwt>
<rscale>  0 0.15125018E+04</rscale>
<asrwt>0</asrwt>
<pdfrwt beam="1">  1        2 0.10964355E+00 0.15125018E+04</pdfrwt>
<pdfrwt beam="2">  1       -2 0.12345880E+00 0.15125018E+04</pdfrwt>
<totfact> 0.19118063E+01</totfact>
</mgrwt>
</event>
<event>
12    1  0.1589694E-007  0.1917712E+04  0.7818608E-02  0.8646090E-01
          2   -1    0    0  501    0  0.00000000000E+00  0.00000000000E+00  0.22111861334E+04  0.22111861334E+04  0.00000000000E+00 0. -1.
         -2   -1    0    0    0  501 -0.00000000000E+00 -0.00000000000E+00 -0.41579698971E+03  0.41579698971E+03  0.00000000000E+00 0.  1.
         23    2    1    2    0    0 -0.89832843635E+02  0.39545085730E+03  0.15722656022E+04  0.16259685562E+04  0.85459355577E+02 0.  0.
        254    2    1    2    0    0  0.89832843635E+02 -0.39545085730E+03  0.22312354145E+03  0.10010145669E+04  0.88757801238E+03 0.  0.
        -24    2    4    4    0    0  0.22710832514E+03  0.18185741044E+03 -0.10230891935E+03  0.31965411455E+03  0.84031713602E+02 0.  0.
         24    2    4    4    0    0 -0.13727548150E+03 -0.57730826775E+03  0.32543246080E+03  0.68136045235E+03  0.78844059105E+02 0.  0.
         11    1    3    3    0    0 -0.86928816226E+02  0.39920700438E+03  0.15634999187E+04  0.16159996434E+04  0.00000000000E+00 0. -1.
        -11    1    3    3    0    0 -0.29040274089E+01 -0.37561470807E+01  0.87656834524E+01  0.99689128029E+01  0.00000000000E+00 0.  1.
          4    1    6    6  502    0 -0.11767341901E+03 -0.51653329673E+03  0.26072873743E+03  0.59045165314E+03  0.00000000000E+00 0. -1.
          1    1    5    5  503    0  0.23330101077E+03  0.17908820670E+03 -0.10508888619E+03  0.31232294409E+03  0.00000000000E+00 0. -1.
         -2    1    5    5    0  503 -0.61926856316E+01  0.27692037379E+01  0.27799668366E+01  0.73311704581E+01  0.00000000000E+00 0.  1.
         -3    1    6    6    0  502 -0.19602062488E+02 -0.60774971013E+02  0.64703723375E+02  0.90908799211E+02  0.00000000000E+00 0.  1.
<mgrwt>
<rscale>  0 0.19177117E+04</rscale>
<asrwt>0</asrwt>
<pdfrwt beam="1">  1        2 0.34018248E+00 0.19177117E+04</pdfrwt>
<pdfrwt beam="2">  1       -2 0.63968769E-01 0.19177117E+04</pdfrwt>
<totfact> 0.10756160E+01</totfact>
</mgrwt>
</event>
<event>
12    1  0.1495204E-007  0.2194516E+04  0.7818608E-02  0.8520714E-01
          1   -1    0    0  501    0  0.00000000000E+00  0.00000000000E+00  0.74216103078E+03  0.74216103078E+03  0.00000000000E+00 0. -1.
         -1   -1    0    0    0  501 -0.00000000000E+00 -0.00000000000E+00 -0.16222560470E+04  0.16222560470E+04  0.00000000000E+00 0.  1.
         23    2    1    2    0    0 -0.56991730436E+03 -0.60387977250E+03 -0.76418421800E+03  0.11324632088E+04  0.94967819450E+02 0.  0.
        254    2    1    2    0    0  0.56991730436E+03  0.60387977250E+03 -0.11591079820E+03  0.12319538690E+04  0.90266190168E+03 0.  0.
        -24    2    4    4    0    0  0.66290025772E+03  0.14909630891E+03  0.13567434814E+03  0.69764647271E+03  0.81465398314E+02 0.  0.
         24    2    4    4    0    0 -0.92982953368E+02  0.45478346359E+03 -0.25158514634E+03  0.53430739628E+03  0.81948029180E+02 0.  0.
         13    1    3    3    0    0 -0.99367614704E+02 -0.12945895581E+03 -0.10638569920E+03  0.19481134743E+03  0.00000000000E+00 0. -1.
        -13    1    3    3    0    0 -0.47054968965E+03 -0.47442081669E+03 -0.65779851880E+03  0.93765186134E+03  0.00000000000E+00 0.  1.
          2    1    6    6  502    0 -0.46106374353E+02  0.20797559796E+03 -0.69632995328E+02  0.22411693631E+03  0.00000000000E+00 0. -1.
          3    1    5    5  503    0  0.32476066404E+03  0.73824697710E+02  0.25010873898E+02  0.33398371025E+03  0.00000000000E+00 0. -1.
         -4    1    5    5    0  503  0.33813959368E+03  0.75271611205E+02  0.11066347424E+03  0.36366276246E+03  0.00000000000E+00 0.  1.
         -3    1    6    6    0  502 -0.46876579015E+02  0.24680786563E+03 -0.18195215101E+03  0.31019045997E+03  0.00000000000E+00 0.  1.
<mgrwt>
<rscale>  0 0.21945161E+04</rscale>
<asrwt>0</asrwt>
<pdfrwt beam="1">  1        1 0.11417862E+00 0.21945161E+04</pdfrwt>
<pdfrwt beam="2">  1       -1 0.24957785E+00 0.21945161E+04</pdfrwt>
<totfact> 0.15933679E+00</totfact>
</mgrwt>
</event>
<event>
12    1  0.1495204E-007  0.1491357E+04  0.7818608E-02  0.8890221E-01
          1   -1    0    0  501    0  0.00000000000E+00  0.00000000000E+00  0.21967635986E+04  0.21967635986E+04  0.00000000000E+00 0. -1.
         -1   -1    0    0    0  501 -0.00000000000E+00 -0.00000000000E+00 -0.25311620048E+03  0.25311620048E+03  0.00000000000E+00 0.  1.
         23    2    1    2    0    0 -0.35876761741E+03 -0.68651143438E+02  0.14533522044E+03  0.40348911758E+03  0.90851301036E+02 0.  0.
        254    2    1    2    0    0  0.35876761741E+03  0.68651143438E+02  0.17983121776E+04  0.20463906815E+04  0.90573779328E+03 0.  0.
        -24    2    4    4    0    0  0.12244475028E+03 -0.40423650024E+03  0.96148300221E+03  0.10533495154E+04  0.81827703665E+02 0.  0.
         24    2    4    4    0    0  0.23632286714E+03  0.47288764368E+03  0.83682917544E+03  0.99304116607E+03  0.79852786806E+02 0.  0.
         13    1    3    3    0    0 -0.32111025188E+03 -0.30717178031E+02  0.11825251287E+03  0.34356803648E+03  0.00000000000E+00 0.  1.
        -13    1    3    3    0    0 -0.37657365534E+02 -0.37933965407E+02  0.27082707574E+02  0.59921081098E+02  0.00000000000E+00 0. -1.
          2    1    6    6  502    0  0.21216480043E+03  0.41801896903E+03  0.78229282126E+03  0.91199551490E+03  0.00000000000E+00 0. -1.
          1    1    5    5  503    0  0.11662235819E+03 -0.24999804235E+03  0.62103426168E+03  0.67954642946E+03  0.00000000000E+00 0. -1.
         -2    1    5    5    0  503  0.58223920890E+01 -0.15423845789E+03  0.34044874052E+03  0.37380308595E+03  0.00000000000E+00 0.  1.
         -1    1    6    6    0  502  0.24158066711E+02  0.54868674656E+02  0.54536354174E+02  0.81045651163E+02  0.00000000000E+00 0.  1.
<mgrwt>
<rscale>  0 0.14913570E+04</rscale>
<asrwt>0</asrwt>
<pdfrwt beam="1">  1        1 0.33796362E+00 0.14913570E+04</pdfrwt>
<pdfrwt beam="2">  1       -1 0.38940955E-01 0.14913570E+04</pdfrwt>
<totfact> 0.13577435E+01</totfact>
</mgrwt>
</event>
<event>
12    1  0.1495204E-007  0.1435642E+04  0.7818608E-02  0.8928416E-01
          2   -1    0    0  501    0  0.00000000000E+00  0.00000000000E+00  0.15628948015E+04  0.15628948015E+04  0.00000000000E+00 0. -1.
         -2   -1    0    0    0  501 -0.00000000000E+00 -0.00000000000E+00 -0.32968751136E+03  0.32968751136E+03  0.00000000000E+00 0.  1.
         23    2    1    2    0    0 -0.25996081943E+03  0.29171593275E+03  0.59271644975E+03  0.71571039720E+03  0.90833748132E+02 0.  0.
        254    2    1    2    0    0  0.25996081943E+03 -0.29171593275E+03  0.64049084035E+03  0.11768719156E+04  0.90670898095E+03 0.  0.
        -24    2    4    4    0    0 -0.15511739551E+03 -0.19315505353E+03  0.69226040946E+03  0.73948158158E+03  0.78982617624E+02 0.  0.
         24    2    4    4    0    0  0.41507821495E+03 -0.98560879222E+02 -0.51769569117E+02  0.43739033404E+03  0.81400519599E+02 0.  0.
         13    1    3    3    0    0 -0.18959477967E+03  0.17328020993E+03  0.32141707183E+03  0.41143790017E+03  0.00000000000E+00 0.  1.
        -13    1    3    3    0    0 -0.70366039761E+02  0.11843572283E+03  0.27129937791E+03  0.30427249703E+03  0.00000000000E+00 0. -1.
          4    1    6    6  502    0  0.94486972108E+02 -0.55719721557E+02  0.85626676774E+00  0.10969598197E+03  0.00000000000E+00 0. -1.
          1    1    5    5  503    0 -0.96506249473E+01  0.66358442598E+01  0.48994710934E+02  0.50375099905E+02  0.00000000000E+00 0. -1.
         -2    1    5    5    0  503 -0.14546677057E+03 -0.19979089779E+03  0.64326569853E+03  0.68910648167E+03  0.00000000000E+00 0.  1.
         -3    1    6    6    0  502  0.32059124284E+03 -0.42841157665E+02 -0.52625835885E+02  0.32769435207E+03  0.00000000000E+00 0.  1.
<mgrwt>
<rscale>  0 0.14356419E+04</rscale>
<asrwt>0</asrwt>
<pdfrwt beam="1">  1        2 0.24044535E+00 0.14356419E+04</pdfrwt>
<pdfrwt beam="2">  1       -2 0.50721156E-01 0.14356419E+04</pdfrwt>
<totfact> 0.41730753E+01</totfact>
</mgrwt>
</event>
<event>
12    1  0.1495204E-007  0.1666495E+04  0.7818608E-02  0.8780708E-01
          2   -1    0    0  501    0  0.00000000000E+00  0.00000000000E+00  0.11944632693E+04  0.11944632693E+04  0.00000000000E+00 0. -1.
         -2   -1    0    0    0  501 -0.00000000000E+00 -0.00000000000E+00 -0.58126644015E+03  0.58126644015E+03  0.00000000000E+00 0.  1.
         23    2    1    2    0    0 -0.19300953421E+03 -0.34036183339E+03 -0.24657199545E+03  0.47137831810E+03  0.91109340422E+02 0.  0.
        254    2    1    2    0    0  0.19300953421E+03  0.34036183339E+03  0.85976882456E+03  0.13043513913E+04  0.89946165144E+03 0.  0.
        -24    2    4    4    0    0  0.11229903890E+03  0.25787132317E+03  0.10376083329E+04  0.10778257600E+04  0.77256864029E+02 0.  0.
         24    2    4    4    0    0  0.80710495316E+02  0.82490510218E+02 -0.17783950831E+03  0.22652563131E+03  0.79800392194E+02 0.  0.
         11    1    3    3    0    0 -0.24080054942E+02 -0.11692405008E+03 -0.51369196082E+02  0.12996105894E+03  0.00000000000E+00 0. -1.
        -11    1    3    3    0    0 -0.16892947927E+03 -0.22343778331E+03 -0.19520279937E+03  0.34141725917E+03  0.00000000000E+00 0.  1.
          2    1    6    6  502    0  0.40548562227E+02  0.14533071805E+02 -0.15086891599E+02  0.45640008467E+02  0.00000000000E+00 0. -1.
          3    1    5    5  503    0 -0.61207940229E+01  0.12571082367E+01  0.55832154480E+02  0.56180725471E+02  0.00000000000E+00 0. -1.
         -4    1    5    5    0  503  0.11841983292E+03  0.25661421494E+03  0.98177617838E+03  0.10216450345E+04  0.00000000000E+00 0.  1.
         -1    1    6    6    0  502  0.40161933089E+02  0.67957438414E+02 -0.16275261671E+03  0.18088562284E+03  0.00000000000E+00 0.  1.
<mgrwt>
<rscale>  0 0.16664950E+04</rscale>
<asrwt>0</asrwt>
<pdfrwt beam="1">  1        2 0.18376358E+00 0.16664950E+04</pdfrwt>
<pdfrwt beam="2">  1       -2 0.89425606E-01 0.16664950E+04</pdfrwt>
<totfact> 0.19532799E+01</totfact>
</mgrwt>
</event>
<event>
12    1  0.1495204E-007  0.1216745E+04  0.7818608E-02  0.9098324E-01
         -2   -1    0    0    0  501 -0.00000000000E+00  0.00000000000E+00  0.19029099627E+03  0.19029099627E+03  0.00000000000E+00 0. -1.
          2   -1    0    0  501    0  0.00000000000E+00 -0.00000000000E+00 -0.19450068316E+04  0.19450068316E+04  0.00000000000E+00 0.  1.
         23    2    1    2    0    0 -0.17045517622E+03  0.19857759696E+03 -0.30287728169E+03  0.41043667568E+03  0.90750139775E+02 0.  0.
        254    2    1    2    0    0  0.17045517622E+03 -0.19857759696E+03 -0.14518385537E+04  0.17248611522E+04  0.89376886241E+03 0.  0.
        -24    2    4    4    0    0 -0.15894615373E+02  0.74782540561E+02 -0.13702747661E+04  0.13747044560E+04  0.79462819924E+02 0.  0.
         24    2    4    4    0    0  0.18634979160E+03 -0.27336013752E+03 -0.81563787601E+02  0.35015669619E+03  0.80653895286E+02 0.  0.
         11    1    3    3    0    0 -0.99433527038E+02  0.71124390143E+02 -0.87697512111E+02  0.15045450742E+03  0.00000000000E+00 0. -1.
        -11    1    3    3    0    0 -0.71021649185E+02  0.12745320681E+03 -0.21517976958E+03  0.25998216826E+03  0.00000000000E+00 0.  1.
          2    1    6    6  502    0 -0.55280536170E+01 -0.24162894754E+01 -0.81351554841E+01  0.10128108726E+02  0.00000000000E+00 0. -1.
          3    1    5    5  503    0  0.18696321161E+02  0.15771105846E+01 -0.93440579806E+02  0.95305727306E+02  0.00000000000E+00 0. -1.
         -4    1    5    5    0  503 -0.34590936534E+02  0.73205429977E+02 -0.12768341863E+04  0.12793987287E+04  0.00000000000E+00 0.  1.
         -1    1    6    6    0  502  0.19187784521E+03 -0.27094384804E+03 -0.73428632117E+02  0.34002858746E+03  0.00000000000E+00 0.  1.
<mgrwt>
<rscale>  0 0.12167453E+04</rscale>
<asrwt>0</asrwt>
<pdfrwt beam="1">  1        2 0.29923178E+00 0.12167453E+04</pdfrwt>
<pdfrwt beam="2">  1       -2 0.29275541E-01 0.12167453E+04</pdfrwt>
<totfact> 0.75906609E+01</totfact>
</mgrwt>
</event>
<event>
12    1  0.1495204E-007  0.1601757E+04  0.7818608E-02  0.8819469E-01
          2   -1    0    0  501    0  0.00000000000E+00  0.00000000000E+00  0.95254343553E+03  0.95254343553E+03  0.00000000000E+00 0. -1.
         -2   -1    0    0    0  501 -0.00000000000E+00 -0.00000000000E+00 -0.67336208081E+03  0.67336208081E+03  0.00000000000E+00 0.  1.
         23    2    1    2    0    0 -0.20774246966E+03 -0.47966344255E+03 -0.26993158960E+02  0.53214396234E+03  0.95992782044E+02 0.  0.
        254    2    1    2    0    0  0.20774246966E+03  0.47966344255E+03  0.30617451367E+03  0.10937615540E+04  0.91067971998E+03 0.  0.
        -24    2    4    4    0    0 -0.31835356948E+03  0.38748622181E+02  0.21900289895E+03  0.39682347084E+03  0.81585209091E+02 0.  0.
         24    2    4    4    0    0  0.52609603913E+03  0.44091482037E+03  0.87171614728E+02  0.69693808317E+03  0.83311944772E+02 0.  0.
         11    1    3    3    0    0 -0.17266235905E+03 -0.38583066213E+03  0.16291765347E+02  0.42301656196E+03  0.00000000000E+00 0.  1.
        -11    1    3    3    0    0 -0.35080110608E+02 -0.93832780415E+02 -0.43284924307E+02  0.10912740038E+03  0.00000000000E+00 0. -1.
          4    1    6    6  502    0  0.28037516053E+03  0.20720077464E+03  0.80265283951E+02  0.35774978331E+03  0.00000000000E+00 0. -1.
          1    1    5    5  503    0 -0.19038437424E+03  0.29575357238E+02  0.82789372237E+02  0.20970215036E+03  0.00000000000E+00 0. -1.
         -2    1    5    5    0  503 -0.12796919524E+03  0.91732649423E+01  0.13621352671E+03  0.18712132048E+03  0.00000000000E+00 0.  1.
         -3    1    6    6    0  502  0.24572087861E+03  0.23371404573E+03  0.69063307765E+01  0.33918829985E+03  0.00000000000E+00 0.  1.
<mgrwt>
<rscale>  0 0.16017573E+04</rscale>
<asrwt>0</asrwt>
<pdfrwt beam="1">  1        2 0.14654514E+00 0.16017573E+04</pdfrwt>
<pdfrwt beam="2">  1       -2 0.10359417E+00 0.16017573E+04</pdfrwt>
<totfact> 0.19691554E+01</totfact>
</mgrwt>
</event>
<event>
12    1  0.1495204E-007  0.1906848E+04  0.7818608E-02  0.8651455E-01
         -1   -1    0    0    0  501 -0.00000000000E+00  0.00000000000E+00  0.11435482033E+04  0.11435482033E+04  0.00000000000E+00 0.  1.
          1   -1    0    0  501    0  0.00000000000E+00 -0.00000000000E+00 -0.79490913568E+03  0.79490913568E+03  0.00000000000E+00 0. -1.
         23    2    1    2    0    0  0.51805149893E+03  0.13241153583E+03 -0.38044403659E+03  0.66246729968E+03  0.90637121534E+02 0.  0.
        254    2    1    2    0    0 -0.51805149893E+03 -0.13241153583E+03  0.72908310426E+03  0.12759900394E+04  0.90037671963E+03 0.  0.
        -24    2    4    4    0    0 -0.61218692963E+03 -0.30631414534E+03  0.21908328626E+03  0.72325245193E+03  0.80594233460E+02 0.  0.
         24    2    4    4    0    0  0.94135430700E+02  0.17390260951E+03  0.50999981800E+03  0.55273758742E+03  0.79469675208E+02 0.  0.
         13    1    3    3    0    0  0.40997392552E+02  0.36815052001E+02 -0.49240096906E+02  0.73896694062E+02  0.00000000000E+00 0.  1.
        -13    1    3    3    0    0  0.47705410638E+03  0.95596483828E+02 -0.33120393969E+03  0.58857060561E+03  0.00000000000E+00 0. -1.
          2    1    6    6  502    0  0.53496721222E+02  0.13123246747E+03  0.43411079583E+03  0.45665746764E+03  0.00000000000E+00 0. -1.
          1    1    5    5  503    0 -0.60931156516E+03 -0.30367379806E+03  0.22425160612E+03  0.71677551710E+03  0.00000000000E+00 0. -1.
         -4    1    5    5    0  503 -0.28753644649E+01 -0.26403472833E+01 -0.51683198651E+01  0.64769348314E+01  0.00000000000E+00 0.  1.
         -1    1    6    6    0  502  0.40638709478E+02  0.42670142046E+02  0.75889022176E+02  0.96080119781E+02  0.00000000000E+00 0.  1.
<mgrwt>
<rscale>  0 0.19068476E+04</rscale>
<asrwt>0</asrwt>
<pdfrwt beam="1">  1        1 0.12229371E+00 0.19068476E+04</pdfrwt>
<pdfrwt beam="2">  1       -1 0.17593049E+00 0.19068476E+04</pdfrwt>
<totfact> 0.46511481E+00</totfact>
</mgrwt>
</event>
<event>
12    1  0.1495204E-007  0.1465650E+04  0.7818608E-02  0.8907622E-01
          2   -1    0    0  501    0  0.00000000000E+00  0.00000000000E+00  0.41941227813E+04  0.41941227813E+04  0.00000000000E+00 0. -1.
         -2   -1    0    0    0  501 -0.00000000000E+00 -0.00000000000E+00 -0.12804412406E+03  0.12804412406E+03  0.00000000000E+00 0.  1.
         23    2    1    2    0    0  0.32856166699E+03  0.25334375523E+03  0.80242829161E+03  0.90793364835E+03  0.91194952113E+02 0.  0.
        254    2    1    2    0    0 -0.32856166699E+03 -0.25334375523E+03  0.32636503657E+04  0.34142332571E+04  0.91292891121E+03 0.  0.
        -24    2    4    4    0    0  0.11145684128E+03 -0.16523357621E+03  0.26024958244E+04  0.26113325233E+04  0.79676024325E+02 0.  0.
         24    2    4    4    0    0 -0.44001850827E+03 -0.88110179021E+02  0.66115454127E+03  0.80290073379E+03  0.78387305182E+02 0.  0.
         13    1    3    3    0    0  0.29707259757E+03  0.25628221657E+03  0.72627521586E+03  0.82547464645E+03  0.00000000000E+00 0.  1.
        -13    1    3    3    0    0  0.31489069419E+02 -0.29384613318E+01  0.76153075744E+02  0.82459001893E+02  0.00000000000E+00 0. -1.
          4    1    6    6  502    0 -0.21145330642E+03 -0.25623249052E+01  0.31147731030E+03  0.37647998770E+03  0.00000000000E+00 0. -1.
          3    1    5    5  503    0  0.21397538729E+02 -0.10290474673E+03  0.12904950312E+04  0.12947681905E+04  0.00000000000E+00 0. -1.
         -4    1    5    5    0  503  0.90059302550E+02 -0.62328829485E+02  0.13120007932E+04  0.13165643328E+04  0.00000000000E+00 0.  1.
         -3    1    6    6    0  502 -0.22856520185E+03 -0.85547854116E+02  0.34967723096E+03  0.42642074609E+03  0.00000000000E+00 0.  1.
<mgrwt>
<rscale>  0 0.14656504E+04</rscale>
<asrwt>0</asrwt>
<pdfrwt beam="1">  1        2 0.64524955E+00 0.14656504E+04</pdfrwt>
<pdfrwt beam="2">  1       -2 0.19699099E-01 0.14656504E+04</pdfrwt>
<totfact> 0.51540413E+00</totfact>
</mgrwt>
</event>
<event>
12    1  0.1495204E-007  0.1595773E+04  0.7818608E-02  0.8823149E-01
          1   -1    0    0  501    0  0.00000000000E+00  0.00000000000E+00  0.26101624632E+04  0.26101624632E+04  0.00000000000E+00 0. -1.
         -1   -1    0    0    0  501 -0.00000000000E+00 -0.00000000000E+00 -0.24390177754E+03  0.24390177754E+03  0.00000000000E+00 0.  1.
         23    2    1    2    0    0  0.18305385875E+03 -0.31995139289E+03  0.10569746970E+03  0.39420483188E+03  0.91366762924E+02 0.  0.
        254    2    1    2    0    0 -0.18305385875E+03  0.31995139289E+03  0.22605632160E+04  0.24598594089E+04  0.89715363733E+03 0.  0.
        -24    2    4    4    0    0 -0.30799609785E+03  0.24190065932E+03  0.32001471081E+03  0.51198496470E+03  0.79634563278E+02 0.  0.
         24    2    4    4    0    0  0.12494223911E+03  0.78050733562E+02  0.19405485052E+04  0.19478744442E+04  0.82364247240E+02 0.  0.
         11    1    3    3    0    0  0.11458602001E+03 -0.10997414528E+03  0.48468449034E+02  0.16605257952E+03  0.00000000000E+00 0. -1.
        -11    1    3    3    0    0  0.68467838732E+02 -0.20997724761E+03  0.57229020661E+02  0.22815225236E+03  0.00000000000E+00 0.  1.
          4    1    6    6  502    0  0.11042811315E+03  0.95058559359E+02  0.17374224902E+04  0.17435215535E+04  0.00000000000E+00 0. -1.
          3    1    5    5  503    0 -0.17811410679E+03  0.16894956350E+03  0.15826782957E+03  0.29209124588E+03  0.00000000000E+00 0. -1.
         -4    1    5    5    0  503 -0.12988199106E+03  0.72951095827E+02  0.16174688124E+03  0.21989371881E+03  0.00000000000E+00 0.  1.
         -3    1    6    6    0  502  0.14514125955E+02 -0.17007825797E+02  0.20312601498E+03  0.20435289074E+03  0.00000000000E+00 0.  1.
<mgrwt>
<rscale>  0 0.15957735E+04</rscale>
<asrwt>0</asrwt>
<pdfrwt beam="1">  1        1 0.40156344E+00 0.15957735E+04</pdfrwt>
<pdfrwt beam="2">  1       -1 0.37523352E-01 0.15957735E+04</pdfrwt>
<totfact> 0.74757507E+00</totfact>
</mgrwt>
</event>
<event>
12    1  0.1495204E-007  0.2019667E+04  0.7818608E-02  0.8597481E-01
          2   -1    0    0  501    0  0.00000000000E+00  0.00000000000E+00  0.13718673123E+04  0.13718673123E+04  0.00000000000E+00 0.  1.
         -2   -1    0    0    0  501 -0.00000000000E+00 -0.00000000000E+00 -0.74333988608E+03  0.74333988608E+03  0.00000000000E+00 0. -1.
         23    2    1    2    0    0 -0.11880055004E+03  0.81077640353E+03  0.30228895388E+03  0.87808369145E+03  0.90445620854E+02 0.  0.
        254    2    1    2    0    0  0.11880055004E+03 -0.81077640353E+03  0.32623847230E+03  0.12371235069E+04  0.86750854942E+03 0.  0.
        -24    2    4    4    0    0  0.22137979493E+03  0.55377183505E+02  0.26499580754E+03  0.35913920831E+03  0.81746846265E+02 0.  0.
         24    2    4    4    0    0 -0.10257924488E+03 -0.86615358703E+03  0.61242664757E+02  0.87798429859E+03  0.79757299199E+02 0.  0.
         11    1    3    3    0    0 -0.30887723486E+02  0.16926291862E+03  0.10330931934E+03  0.20069081330E+03  0.00000000000E+00 0.  1.
        -11    1    3    3    0    0 -0.87912826559E+02  0.64151348491E+03  0.19897963454E+03  0.67739287815E+03  0.00000000000E+00 0. -1.
          2    1    6    6  502    0 -0.47361541859E+02 -0.16682301236E+03  0.28250326011E+02  0.17570177580E+03  0.00000000000E+00 0. -1.
          1    1    5    5  503    0  0.19301848908E+03  0.16120921323E+02  0.20488848381E+03  0.28194913021E+03  0.00000000000E+00 0. -1.
         -2    1    5    5    0  503  0.28361305849E+02  0.39256262182E+02  0.60107323734E+02  0.77190078096E+02  0.00000000000E+00 0.  1.
         -1    1    6    6    0  502 -0.55217703024E+02 -0.69933057468E+03  0.32992338745E+02  0.70228252279E+03  0.00000000000E+00 0.  1.
<mgrwt>
<rscale>  0 0.20196670E+04</rscale>
<asrwt>0</asrwt>
<pdfrwt beam="1">  1        2 0.21105651E+00 0.20196670E+04</pdfrwt>
<pdfrwt beam="2">  1       -2 0.11435998E+00 0.20196670E+04</pdfrwt>
<totfact> 0.83289442E+00</totfact>
</mgrwt>
</event>
<event>
12    1  0.1495204E-007  0.2682428E+04  0.7818608E-02  0.8340729E-01
         -2   -1    0    0    0  501 -0.00000000000E+00  0.00000000000E+00  0.10624139858E+04  0.10624139858E+04  0.00000000000E+00 0.  1.
          2   -1    0    0  501    0  0.00000000000E+00 -0.00000000000E+00 -0.16931764489E+04  0.16931764489E+04  0.00000000000E+00 0. -1.
         23    2    1    2    0    0  0.24527947852E+03 -0.11350865555E+04 -0.16283902028E+00  0.11647168118E+04  0.89340439887E+02 0.  0.
        254    2    1    2    0    0 -0.24527947852E+03  0.11350865555E+04 -0.63059962409E+03  0.15908736229E+04  0.88579878488E+03 0.  0.
        -24    2    4    4    0    0  0.19407087527E+02  0.26742249840E+03  0.21118497733E+03  0.35082446135E+03  0.81162062172E+02 0.  0.
         24    2    4    4    0    0 -0.26468656604E+03  0.86766405706E+03 -0.84178460142E+03  0.12400491616E+04  0.78871501876E+02 0.  0.
         13    1    3    3    0    0  0.20596151588E+03 -0.97158657402E+03 -0.31427077902E+02  0.99367413072E+03  0.00000000000E+00 0.  1.
        -13    1    3    3    0    0  0.39317962634E+02 -0.16349998144E+03  0.31264238882E+02  0.17104268107E+03  0.00000000000E+00 0. -1.
          2    1    6    6  502    0 -0.25574227427E+03  0.78072601903E+03 -0.73778195940E+03  0.11042008184E+04  0.00000000000E+00 0. -1.
          3    1    5    5  503    0 -0.46488937702E+01  0.20568792351E+03  0.19305310646E+03  0.28213230230E+03  0.00000000000E+00 0. -1.
         -4    1    5    5    0  503  0.24055981297E+02  0.61734574890E+02  0.18131870871E+02  0.68692159045E+02  0.00000000000E+00 0.  1.
         -1    1    6    6    0  502 -0.89442917714E+01  0.86938038035E+02 -0.10400264202E+03  0.13584834324E+03  0.00000000000E+00 0.  1.
<mgrwt>
<rscale>  0 0.26824275E+04</rscale>
<asrwt>0</asrwt>
<pdfrwt beam="1">  1        2 0.26048868E+00 0.26824275E+04</pdfrwt>
<pdfrwt beam="2">  1       -2 0.16344831E+00 0.26824275E+04</pdfrwt>
<totfact> 0.20656113E+00</totfact>
</mgrwt>
</event>
<event>
12    1  0.1495204E-007  0.1628094E+04  0.7818608E-02  0.8803472E-01
          1   -1    0    0  501    0  0.00000000000E+00  0.00000000000E+00  0.20623409575E+04  0.20623409575E+04  0.00000000000E+00 0. -1.
         -1   -1    0    0    0  501 -0.00000000000E+00 -0.00000000000E+00 -0.32132058599E+03  0.32132058599E+03  0.00000000000E+00 0.  1.
         23    2    1    2    0    0  0.45092512290E+03 -0.26882389016E+03  0.95060527354E+03  0.10898682909E+04  0.92535155201E+02 0.  0.
        254    2    1    2    0    0 -0.45092512290E+03  0.26882389016E+03  0.79041509802E+03  0.12937932527E+04  0.87951418586E+03 0.  0.
        -24    2    4    4    0    0 -0.51184553327E+03  0.16183635465E+03  0.93879015326E+03  0.10844126673E+04  0.80293371609E+02 0.  0.
         24    2    4    4    0    0  0.60920410371E+02  0.10698753551E+03 -0.14837505525E+03  0.20938058538E+03  0.81654414220E+02 0.  0.
         11    1    3    3    0    0  0.45328162355E+03 -0.25781236720E+03  0.92431711484E+03  0.10612697940E+04  0.00000000000E+00 0. -1.
        -11    1    3    3    0    0 -0.23565006429E+01 -0.11011522958E+02  0.26288158702E+02  0.28598496833E+02  0.00000000000E+00 0.  1.
          4    1    6    6  502    0  0.45154735179E+02  0.37420951996E+02 -0.19003455212E+02  0.61647457915E+02  0.00000000000E+00 0. -1.
          1    1    5    5  503    0 -0.10148542270E+03  0.27271481260E+02  0.25322595427E+03  0.27416492961E+03  0.00000000000E+00 0. -1.
         -2    1    5    5    0  503 -0.41036011057E+03  0.13456487339E+03  0.68556419900E+03  0.81024773770E+03  0.00000000000E+00 0.  1.
         -1    1    6    6    0  502  0.15765675192E+02  0.69566583510E+02 -0.12937160003E+03  0.14773312747E+03  0.00000000000E+00 0.  1.
<mgrwt>
<rscale>  0 0.16280941E+04</rscale>
<asrwt>0</asrwt>
<pdfrwt beam="1">  1        1 0.31728322E+00 0.16280941E+04</pdfrwt>
<pdfrwt beam="2">  1       -1 0.49433938E-01 0.16280941E+04</pdfrwt>
<totfact> 0.10620288E+01</totfact>
</mgrwt>
</event>
<event>
12    1  0.1495204E-007  0.1165178E+04  0.7818608E-02  0.9143894E-01
          2   -1    0    0  501    0  0.00000000000E+00  0.00000000000E+00  0.94426283381E+03  0.94426283381E+03  0.00000000000E+00 0. -1.
         -2   -1    0    0    0  501 -0.00000000000E+00 -0.00000000000E+00 -0.35944438051E+03  0.35944438051E+03  0.00000000000E+00 0.  1.
         23    2    1    2    0    0 -0.68987534355E+00  0.21123695205E+03  0.14964770423E+03  0.27304341366E+03  0.86814425786E+02 0.  0.
        254    2    1    2    0    0  0.68987534355E+00 -0.21123695205E+03  0.43517074908E+03  0.10306638007E+04  0.91009491993E+03 0.  0.
        -24    2    4    4    0    0 -0.27182710992E+02  0.31110383260E+03 -0.32823225846E+02  0.32425326202E+03  0.80859874742E+02 0.  0.
         24    2    4    4    0    0  0.27872586336E+02 -0.52234078465E+03  0.46799397493E+03  0.70641053863E+03  0.79879359969E+02 0.  0.
         11    1    3    3    0    0 -0.44578660615E+01  0.37779937785E+01  0.35988368342E+02  0.36459682702E+02  0.00000000000E+00 0. -1.
        -11    1    3    3    0    0  0.37679907179E+01  0.20745895827E+03  0.11365933588E+03  0.23658373096E+03  0.00000000000E+00 0.  1.
          4    1    6    6  502    0  0.14123595369E+02 -0.13877464405E+02  0.11163140690E+02  0.22730500974E+02  0.00000000000E+00 0. -1.
          3    1    5    5  503    0 -0.90149662611E+01  0.70023786446E+01 -0.15322792729E+02  0.19107351998E+02  0.00000000000E+00 0. -1.
         -4    1    5    5    0  503 -0.18167744731E+02  0.30410145395E+03 -0.17500433116E+02  0.30514591002E+03  0.00000000000E+00 0.  1.
         -3    1    6    6    0  502  0.13748990967E+02 -0.50846332024E+03  0.45683083424E+03  0.68368003766E+03  0.00000000000E+00 0.  1.
<mgrwt>
<rscale>  0 0.11651780E+04</rscale>
<asrwt>0</asrwt>
<pdfrwt beam="1">  1        2 0.14527120E+00 0.11651780E+04</pdfrwt>
<pdfrwt beam="2">  1       -2 0.55299136E-01 0.11651780E+04</pdfrwt>
<totfact> 0.83264187E+01</totfact>
</mgrwt>
</event>
<event>
12    1  0.1495204E-007  0.1960103E+04  0.7818608E-02  0.8625504E-01
         -1   -1    0    0    0  501 -0.00000000000E+00  0.00000000000E+00  0.25315695543E+04  0.25315695543E+04  0.00000000000E+00 0.  1.
          1   -1    0    0  501    0  0.00000000000E+00 -0.00000000000E+00 -0.37940942006E+03  0.37940942006E+03  0.00000000000E+00 0. -1.
         23    2    1    2    0    0 -0.52994486959E+03  0.57881698785E+03  0.80766432902E+03  0.11291921299E+04  0.82960999970E+02 0.  0.
        254    2    1    2    0    0  0.52994486959E+03 -0.57881698785E+03  0.13444958052E+04  0.17817868445E+04  0.86673220708E+03 0.  0.
        -24    2    4    4    0    0  0.72730290764E+03 -0.53927496784E+03  0.86080222031E+03  0.12518142141E+04  0.79191878498E+02 0.  0.
         24    2    4    4    0    0 -0.19735803805E+03 -0.39542020012E+02  0.48369358492E+03  0.52997263047E+03  0.79985863866E+02 0.  0.
         11    1    3    3    0    0 -0.46049446702E+03  0.53858581571E+03  0.73427485704E+03  0.10204358876E+04  0.00000000000E+00 0.  1.
        -11    1    3    3    0    0 -0.69450402569E+02  0.40231172140E+02  0.73389471981E+02  0.10875624224E+03  0.00000000000E+00 0. -1.
          4    1    6    6  502    0 -0.19725095134E+03 -0.28661561181E+02  0.47754792394E+03  0.51747603089E+03  0.00000000000E+00 0. -1.
          3    1    5    5  503    0  0.54159368906E+03 -0.40677053703E+03  0.68938452481E+03  0.96645590529E+03  0.00000000000E+00 0. -1.
         -4    1    5    5    0  503  0.18570921858E+03 -0.13250443082E+03  0.17141769550E+03  0.28535830877E+03  0.00000000000E+00 0.  1.
         -3    1    6    6    0  502 -0.10708670931E+00 -0.10880458831E+02  0.61456609892E+01  0.12496599575E+02  0.00000000000E+00 0.  1.
<mgrwt>
<rscale>  0 0.19601034E+04</rscale>
<asrwt>0</asrwt>
<pdfrwt beam="1">  1        1 0.58370681E-01 0.19601034E+04</pdfrwt>
<pdfrwt beam="2">  1       -1 0.38947223E+00 0.19601034E+04</pdfrwt>
<totfact> 0.50671212E-01</totfact>
</mgrwt>
</event>
<event>
12    1  0.1495204E-007  0.2355439E+04  0.7818608E-02  0.8456377E-01
          2   -1    0    0  501    0  0.00000000000E+00  0.00000000000E+00  0.14410253399E+04  0.14410253399E+04  0.00000000000E+00 0. -1.
         -2   -1    0    0    0  501 -0.00000000000E+00 -0.00000000000E+00 -0.96252532256E+03  0.96252532256E+03  0.00000000000E+00 0.  1.
         23    2    1    2    0    0  0.37674154745E+03  0.35177218130E+02 -0.74608026923E+03  0.84151381447E+03  0.91313205842E+02 0.  0.
        254    2    1    2    0    0 -0.37674154745E+03 -0.35177218130E+02  0.12245802866E+04  0.15620368480E+04  0.89285531078E+03 0.  0.
        -24    2    4    4    0    0 -0.62325255536E+03 -0.15061508746E+03  0.10381587459E+04  0.12226181222E+04  0.76764827121E+02 0.  0.
         24    2    4    4    0    0  0.24651100791E+03  0.11543786933E+03  0.18642154067E+03  0.33941872580E+03  0.79740215091E+02 0.  0.
         13    1    3    3    0    0  0.18486664565E+02 -0.18513784502E+02 -0.65416883082E+02  0.70454847779E+02  0.00000000000E+00 0. -1.
        -13    1    3    3    0    0  0.35825488289E+03  0.53691002632E+02 -0.68066338615E+03  0.77105896670E+03  0.00000000000E+00 0.  1.
          2    1    6    6  502    0  0.90273436575E+02  0.30588043777E+01  0.47432297412E+02  0.10202192153E+03  0.00000000000E+00 0. -1.
          1    1    5    5  503    0 -0.37137361195E+02 -0.29364713576E+01  0.33233716990E+02  0.49922804464E+02  0.00000000000E+00 0. -1.
         -2    1    5    5    0  503 -0.58611519417E+03 -0.14767861610E+03  0.10049250289E+04  0.11726953177E+04  0.00000000000E+00 0.  1.
         -1    1    6    6    0  502  0.15623757134E+03  0.11237906495E+03  0.13898924326E+03  0.23739680427E+03  0.00000000000E+00 0.  1.
<mgrwt>
<rscale>  0 0.23554391E+04</rscale>
<asrwt>0</asrwt>
<pdfrwt beam="1">  1        2 0.22169620E+00 0.23554391E+04</pdfrwt>
<pdfrwt beam="2">  1       -2 0.14808082E+00 0.23554391E+04</pdfrwt>
<totfact> 0.38367201E+00</totfact>
</mgrwt>
</event>
<event>
12    1  0.1495204E-007  0.1440631E+04  0.7818608E-02  0.8924922E-01
         -2   -1    0    0    0  501 -0.00000000000E+00  0.00000000000E+00  0.23038626428E+03  0.23038626428E+03  0.00000000000E+00 0. -1.
          2   -1    0    0  501    0  0.00000000000E+00 -0.00000000000E+00 -0.22521075118E+04  0.22521075118E+04  0.00000000000E+00 0.  1.
         23    2    1    2    0    0 -0.38647801577E+02 -0.41269649927E+03 -0.75617558237E+03  0.86722273306E+03  0.91987522530E+02 0.  0.
        254    2    1    2    0    0  0.38647801577E+02  0.41269649927E+03 -0.12655456652E+04  0.16152710430E+04  0.91415680206E+03 0.  0.
        -24    2    4    4    0    0 -0.19959272157E+03 -0.13410080179E+03 -0.48819627646E+02  0.25781307985E+03  0.79145110732E+02 0.  0.
         24    2    4    4    0    0  0.23824052315E+03  0.54679730106E+03 -0.12167260375E+04  0.13574579632E+04  0.80771505529E+02 0.  0.
         13    1    3    3    0    0  0.23960297005E+01 -0.15752784586E+02 -0.84129280363E+02  0.85624920408E+02  0.00000000000E+00 0. -1.
        -13    1    3    3    0    0 -0.41043831278E+02 -0.39694371468E+03 -0.67204630200E+03  0.78159781266E+03  0.00000000000E+00 0.  1.
          4    1    6    6  502    0  0.10917474974E+03  0.25249478437E+03 -0.65281258226E+03  0.70840455227E+03  0.00000000000E+00 0. -1.
          1    1    5    5  503    0 -0.14336149501E+03 -0.13248520924E+03 -0.25290221192E+02  0.19683608461E+03  0.00000000000E+00 0. -1.
         -2    1    5    5    0  503 -0.56231226566E+02 -0.16155925545E+01 -0.23529406454E+02  0.60976995240E+02  0.00000000000E+00 0.  1.
         -3    1    6    6    0  502  0.12906577341E+03  0.29430251669E+03 -0.56391345526E+03  0.64905341091E+03  0.00000000000E+00 0.  1.
<mgrwt>
<rscale>  0 0.14406313E+04</rscale>
<asrwt>0</asrwt>
<pdfrwt beam="1">  1        2 0.34647807E+00 0.14406313E+04</pdfrwt>
<pdfrwt beam="2">  1       -2 0.35444042E-01 0.14406313E+04</pdfrwt>
<totfact> 0.35077369E+01</totfact>
</mgrwt>
</event>
<event>
12    1  0.1495204E-007  0.1528800E+04  0.7818608E-02  0.8865524E-01
          1   -1    0    0  501    0  0.00000000000E+00  0.00000000000E+00  0.22808205253E+04  0.22808205253E+04  0.00000000000E+00 0. -1.
         -1   -1    0    0    0  501 -0.00000000000E+00 -0.00000000000E+00 -0.25618295567E+03  0.25618295567E+03  0.00000000000E+00 0.  1.
         23    2    1    2    0    0 -0.19937033028E+02 -0.35879788983E+03  0.96427749742E+02  0.38255576816E+03  0.88978614287E+02 0.  0.
        254    2    1    2    0    0  0.19937033028E+02  0.35879788983E+03  0.19282098199E+04  0.21544477129E+04  0.89135763121E+03 0.  0.
        -24    2    4    4    0    0 -0.19575896053E+03  0.57295888437E+03  0.97245737751E+03  0.11483333759E+04  0.79954595243E+02 0.  0.
         24    2    4    4    0    0  0.21569599356E+03 -0.21416099454E+03  0.95575244242E+03  0.10061143370E+04  0.80085171178E+02 0.  0.
         11    1    3    3    0    0  0.25381640637E+02 -0.36067395643E+02  0.74216977736E+01  0.44723218888E+02  0.00000000000E+00 0. -1.
        -11    1    3    3    0    0 -0.45318673665E+02 -0.32273049419E+03  0.89006051968E+02  0.33783254927E+03  0.00000000000E+00 0.  1.
          4    1    6    6  502    0  0.19055859543E+03 -0.21342541705E+03  0.83169793666E+03  0.87953649428E+03  0.00000000000E+00 0. -1.
          1    1    5    5  503    0 -0.10861987987E+03  0.40460500285E+03  0.62268975563E+03  0.75049718081E+03  0.00000000000E+00 0. -1.
         -2    1    5    5    0  503 -0.87139080656E+02  0.16835388152E+03  0.34976762188E+03  0.39783619508E+03  0.00000000000E+00 0.  1.
         -3    1    6    6    0  502  0.25137398123E+02 -0.73557748936E+00  0.12405450577E+03  0.12657784269E+03  0.00000000000E+00 0.  1.
<mgrwt>
<rscale>  0 0.15288000E+04</rscale>
<asrwt>0</asrwt>
<pdfrwt beam="1">  1        1 0.35089545E+00 0.15288000E+04</pdfrwt>
<pdfrwt beam="2">  1       -1 0.39412764E-01 0.15288000E+04</pdfrwt>
<totfact> 0.11602862E+01</totfact>
</mgrwt>
</event>
<event>
12    1  0.1495204E-007  0.2072098E+04  0.7818608E-02  0.8573635E-01
          2   -1    0    0  501    0  0.00000000000E+00  0.00000000000E+00  0.11256713353E+04  0.11256713353E+04  0.00000000000E+00 0. -1.
         -2   -1    0    0    0  501 -0.00000000000E+00 -0.00000000000E+00 -0.95356227191E+03  0.95356227191E+03  0.00000000000E+00 0.  1.
         23    2    1    2    0    0  0.70362540076E+03 -0.45988272107E+03  0.61185499047E+02  0.84756961363E+03  0.89720470976E+02 0.  0.
        254    2    1    2    0    0 -0.70362540076E+03  0.45988272107E+03  0.11092356437E+03  0.12316639936E+04  0.89337077089E+03 0.  0.
        -24    2    4    4    0    0 -0.46379654813E+03  0.71848351430E+03  0.26086852603E+02  0.85955145151E+03  0.82597672715E+02 0.  0.
         24    2    4    4    0    0 -0.23982885264E+03 -0.25860079323E+03  0.84836711766E+02  0.37211254210E+03  0.82935080107E+02 0.  0.
         11    1    3    3    0    0  0.41926662887E+03 -0.27791346054E+03  0.80532686131E+02  0.50941722700E+03  0.00000000000E+00 0.  1.
        -11    1    3    3    0    0  0.28435877190E+03 -0.18196926053E+03 -0.19347187084E+02  0.33815238663E+03  0.00000000000E+00 0. -1.
          2    1    6    6  502    0 -0.77116385191E+02 -0.13315987831E+03  0.60008834171E+02  0.16516522102E+03  0.00000000000E+00 0. -1.
          3    1    5    5  503    0 -0.42572149459E+03  0.61169528216E+03  0.32801479028E+02  0.74597978940E+03  0.00000000000E+00 0. -1.
         -4    1    5    5    0  503 -0.38075053538E+02  0.10678823214E+03 -0.67146264246E+01  0.11357166211E+03  0.00000000000E+00 0.  1.
         -1    1    6    6    0  502 -0.16271246744E+03 -0.12544091492E+03  0.24827877594E+02  0.20694732108E+03  0.00000000000E+00 0.  1.
<mgrwt>
<rscale>  0 0.20720982E+04</rscale>
<asrwt>0</asrwt>
<pdfrwt beam="1">  1        2 0.17318020E+00 0.20720982E+04</pdfrwt>
<pdfrwt beam="2">  1       -2 0.14670189E+00 0.20720982E+04</pdfrwt>
<totfact> 0.61661814E+00</totfact>
</mgrwt>
</event>
<event>
12    1  0.1495204E-007  0.1244536E+04  0.7818608E-02  0.9074744E-01
         -2   -1    0    0    0  501 -0.00000000000E+00  0.00000000000E+00  0.50796568512E+03  0.50796568512E+03  0.00000000000E+00 0. -1.
          2   -1    0    0  501    0  0.00000000000E+00 -0.00000000000E+00 -0.76229014599E+03  0.76229014599E+03  0.00000000000E+00 0.  1.
         23    2    1    2    0    0  0.44872953848E+02 -0.27961245977E+03 -0.85367069999E+01  0.29729895179E+03  0.90094848487E+02 0.  0.
        254    2    1    2    0    0 -0.44872953848E+02  0.27961245977E+03 -0.24578775388E+03  0.97295687932E+03  0.89779549978E+03 0.  0.
        -24    2    4    4    0    0 -0.64491725482E+02 -0.16367971485E+03 -0.44150173562E+03  0.48203588550E+03  0.80526893955E+02 0.  0.
         24    2    4    4    0    0  0.19618771634E+02  0.44329217462E+03  0.19571398174E+03  0.49092099382E+03  0.76201123670E+02 0.  0.
         11    1    3    3    0    0  0.33569796516E+02 -0.22955548545E+03  0.28882234062E+02  0.23378801419E+03  0.00000000000E+00 0. -1.
        -11    1    3    3    0    0  0.11303157331E+02 -0.50056974320E+02 -0.37418941062E+02  0.63510937593E+02  0.00000000000E+00 0.  1.
          4    1    6    6  502    0 -0.16501307252E+01  0.17457162838E+02  0.27410092175E+02  0.32539032236E+02  0.00000000000E+00 0. -1.
          1    1    5    5  503    0 -0.32333523874E+02 -0.23010112451E+02 -0.44510592892E+02  0.59633169635E+02  0.00000000000E+00 0. -1.
         -2    1    5    5    0  503 -0.32158201608E+02 -0.14066960240E+03 -0.39699114273E+03  0.42240271587E+03  0.00000000000E+00 0.  1.
         -3    1    6    6    0  502  0.21268902359E+02  0.42583501178E+03  0.16830388957E+03  0.45838196158E+03  0.00000000000E+00 0.  1.
<mgrwt>
<rscale>  0 0.12445356E+04</rscale>
<asrwt>0</asrwt>
<pdfrwt beam="1">  1        2 0.11727541E+00 0.12445356E+04</pdfrwt>
<pdfrwt beam="2">  1       -2 0.78148567E-01 0.12445356E+04</pdfrwt>
<totfact> 0.52650089E+01</totfact>
</mgrwt>
</event>
<event>
12    1  0.1495204E-007  0.2480865E+04  0.7818608E-02  0.8409834E-01
          1   -1    0    0  501    0  0.00000000000E+00  0.00000000000E+00  0.23414586046E+04  0.23414586046E+04  0.00000000000E+00 0. -1.
         -1   -1    0    0    0  501 -0.00000000000E+00 -0.00000000000E+00 -0.65714264348E+03  0.65714264348E+03  0.00000000000E+00 0.  1.
         23    2    1    2    0    0 -0.44349136706E+03 -0.44344154682E+03  0.17964458729E+04  0.19048349626E+04  0.88619762541E+02 0.  0.
        254    2    1    2    0    0  0.44349136706E+03  0.44344154682E+03 -0.11212991181E+03  0.10937662855E+04  0.88905937486E+03 0.  0.
        -24    2    4    4    0    0  0.29045671575E+02 -0.10331954357E+03 -0.34045979463E+03  0.36562380113E+03  0.79052596888E+02 0.  0.
         24    2    4    4    0    0  0.41444569548E+03  0.54676109039E+03  0.22832988282E+03  0.72814248434E+03  0.85697244122E+02 0.  0.
         13    1    3    3    0    0 -0.43642142887E+03 -0.42460990355E+03  0.16862437999E+04  0.17928121448E+04  0.00000000000E+00 0. -1.
        -13    1    3    3    0    0 -0.70699381845E+01 -0.18831643266E+02  0.11020207303E+03  0.11202281783E+03  0.00000000000E+00 0.  1.
          4    1    6    6  502    0  0.20504942797E+03  0.21506816415E+03  0.12595161836E+03  0.32274354108E+03  0.00000000000E+00 0. -1.
          3    1    5    5  503    0  0.37386934122E+02 -0.11247565530E+03 -0.28253520409E+03  0.30638978023E+03  0.00000000000E+00 0. -1.
         -4    1    5    5    0  503 -0.83412625469E+01  0.91561117373E+01 -0.57924590539E+02  0.59234020901E+02  0.00000000000E+00 0.  1.
         -3    1    6    6    0  502  0.20939626751E+03  0.33169292623E+03  0.10237826446E+03  0.40539894326E+03  0.00000000000E+00 0.  1.
<mgrwt>
<rscale>  0 0.24808646E+04</rscale>
<asrwt>0</asrwt>
<pdfrwt beam="1">  1        1 0.36022440E+00 0.24808646E+04</pdfrwt>
<pdfrwt beam="2">  1       -1 0.10109887E+00 0.24808646E+04</pdfrwt>
<totfact> 0.14413482E+00</totfact>
</mgrwt>
</event>
<event>
12    1  0.1495204E-007  0.1772228E+04  0.7818608E-02  0.8721209E-01
          1   -1    0    0  501    0  0.00000000000E+00  0.00000000000E+00  0.14885249100E+04  0.14885249100E+04  0.00000000000E+00 0. -1.
         -1   -1    0    0    0  501 -0.00000000000E+00 -0.00000000000E+00 -0.52750053686E+03  0.52750053686E+03  0.00000000000E+00 0.  1.
         23    2    1    2    0    0  0.41800280287E+03 -0.47683854233E+03  0.17995548252E+03  0.66546242052E+03  0.91405244823E+02 0.  0.
        254    2    1    2    0    0 -0.41800280287E+03  0.47683854233E+03  0.78106889065E+03  0.13505630264E+04  0.90102748992E+03 0.  0.
        -24    2    4    4    0    0  0.62173022954E+02 -0.72544506528E+02 -0.13056150343E+03  0.18013727190E+03  0.79214521017E+02 0.  0.
         24    2    4    4    0    0 -0.48017582583E+03  0.54938304886E+03  0.91163039408E+03  0.11704257545E+04  0.80224143650E+02 0.  0.
         11    1    3    3    0    0  0.25678273559E+03 -0.25271152732E+03  0.63562610982E+02  0.36584244539E+03  0.00000000000E+00 0. -1.
        -11    1    3    3    0    0  0.16122006728E+03 -0.22412701502E+03  0.11639287153E+03  0.29961997513E+03  0.00000000000E+00 0.  1.
          4    1    6    6  502    0 -0.38869401619E+03  0.39632007487E+03  0.71015549142E+03  0.90137309809E+03  0.00000000000E+00 0. -1.
          1    1    5    5  503    0  0.74343728594E+02 -0.73790879253E+02 -0.13120097795E+03  0.16788621283E+03  0.00000000000E+00 0. -1.
         -2    1    5    5    0  503 -0.12170705640E+02  0.12463727250E+01  0.63947452280E+00  0.12251059073E+02  0.00000000000E+00 0.  1.
         -3    1    6    6    0  502 -0.91481809634E+02  0.15306297399E+03  0.20147490266E+03  0.26905265637E+03  0.00000000000E+00 0.  1.
<mgrwt>
<rscale>  0 0.17722276E+04</rscale>
<asrwt>0</asrwt>
<pdfrwt beam="1">  1        1 0.22900383E+00 0.17722276E+04</pdfrwt>
<pdfrwt beam="2">  1       -1 0.81153929E-01 0.17722276E+04</pdfrwt>
<totfact> 0.95336408E+00</totfact>
</mgrwt>
</event>
<event>
12    1  0.1557432E-007  0.1209907E+04  0.7818608E-02  0.9104229E-01
         -2   -1    0    0    0  501 -0.00000000000E+00  0.00000000000E+00  0.14768800078E+03  0.14768800078E+03  0.00000000000E+00 0. -1.
          2   -1    0    0  501    0  0.00000000000E+00 -0.00000000000E+00 -0.24779856116E+04  0.24779856116E+04  0.00000000000E+00 0.  1.
         23    2    1    2    0    0  0.66170845371E+02 -0.17425762775E+03 -0.64861052945E+02  0.21594905322E+03  0.87651216712E+02 0.  0.
        254    2    1    2    0    0 -0.66170845371E+02  0.17425762775E+03 -0.22654365578E+04  0.24097245591E+04  0.79989083730E+03 0.  0.
        -24    2    4    4    0    0  0.96287969450E+02  0.15671767997E+03 -0.22109031712E+04  0.22199702459E+04  0.79644562199E+02 0.  0.
         24    2    4    4    0    0 -0.16245881482E+03  0.17539947788E+02 -0.54533386696E+02  0.18975431320E+03  0.79575705039E+02 0.  0.
         11    1    3    3    0    0  0.17580655971E+02 -0.33414011772E+02 -0.54895409785E+02  0.66626433662E+02  0.00000000000E+00 0. -1.
        -11    1    3    3    0    0  0.48590189400E+02 -0.14084361598E+03 -0.99656431603E+01  0.14932261956E+03  0.00000000000E+00 0.  1.
          4    1    6    6  502    0 -0.16330683190E+03  0.10925550757E+01 -0.40849108340E+02  0.16834180905E+03  0.00000000000E+00 0. -1.
          3    1    5    5  503    0  0.43805253702E+02  0.12261802095E+03 -0.17499436090E+04  0.17547811014E+04  0.00000000000E+00 0. -1.
         -4    1    5    5    0  503  0.52482715748E+02  0.34099659015E+02 -0.46095956217E+03  0.46518914449E+03  0.00000000000E+00 0.  1.
         -3    1    6    6    0  502  0.84801707781E+00  0.16447392712E+02 -0.13684278356E+02  0.21412504153E+02  0.00000000000E+00 0.  1.
<mgrwt>
<rscale>  0 0.12099070E+04</rscale>
<asrwt>0</asrwt>
<pdfrwt beam="1">  1        2 0.38122852E+00 0.12099070E+04</pdfrwt>
<pdfrwt beam="2">  1       -2 0.22721233E-01 0.12099070E+04</pdfrwt>
<totfact> 0.60611491E+01</totfact>
</mgrwt>
</event>
<event>
12    1  0.1495204E-007  0.1365402E+04  0.7818608E-02  0.8979250E-01
          2   -1    0    0  501    0  0.00000000000E+00  0.00000000000E+00  0.88934626554E+03  0.88934626554E+03  0.00000000000E+00 0. -1.
         -2   -1    0    0    0  501 -0.00000000000E+00 -0.00000000000E+00 -0.52407141278E+03  0.52407141278E+03  0.00000000000E+00 0.  1.
         23    2    1    2    0    0  0.27353985708E+01  0.31545453614E+03 -0.11174302862E+03  0.34685226878E+03  0.91109522777E+02 0.  0.
        254    2    1    2    0    0 -0.27353985708E+01 -0.31545453614E+03  0.47701788138E+03  0.10665654095E+04  0.90027588377E+03 0.  0.
        -24    2    4    4    0    0  0.24778995903E+03 -0.55335600042E+02 -0.17249505624E+03  0.31926438891E+03  0.87825469947E+02 0.  0.
         24    2    4    4    0    0 -0.25052535760E+03 -0.26011893610E+03  0.64951293761E+03  0.74730102063E+03  0.78529889768E+02 0.  0.
         13    1    3    3    0    0  0.19832335764E+02  0.25352642775E+03 -0.12156071865E+03  0.28186163171E+03  0.00000000000E+00 0.  1.
        -13    1    3    3    0    0 -0.17096937193E+02  0.61928108384E+02  0.98176900365E+01  0.64990637072E+02  0.00000000000E+00 0. -1.
          2    1    6    6  502    0 -0.12881716501E+03 -0.13332965995E+03  0.41240067529E+03  0.45215592134E+03  0.00000000000E+00 0. -1.
          1    1    5    5  503    0  0.15057961873E+03 -0.58106095364E+02 -0.14798118739E+03  0.21897253644E+03  0.00000000000E+00 0. -1.
         -4    1    5    5    0  503  0.97210340298E+02  0.27704953224E+01 -0.24513868851E+02  0.10029185247E+03  0.00000000000E+00 0.  1.
         -1    1    6    6    0  502 -0.12170819260E+03 -0.12678927614E+03  0.23711226233E+03  0.29514509929E+03  0.00000000000E+00 0.  1.
<mgrwt>
<rscale>  0 0.13654024E+04</rscale>
<asrwt>0</asrwt>
<pdfrwt beam="1">  1        2 0.13682250E+00 0.13654024E+04</pdfrwt>
<pdfrwt beam="2">  1       -2 0.80626371E-01 0.13654024E+04</pdfrwt>
<totfact> 0.39524880E+01</totfact>
</mgrwt>
</event>
<event>
12    1  0.1495204E-007  0.1143359E+04  0.7818608E-02  0.9163932E-01
          2   -1    0    0  501    0  0.00000000000E+00  0.00000000000E+00  0.14115251455E+04  0.14115251455E+04  0.00000000000E+00 0. -1.
         -2   -1    0    0    0  501 -0.00000000000E+00 -0.00000000000E+00 -0.23153483968E+03  0.23153483968E+03  0.00000000000E+00 0.  1.
         23    2    1    2    0    0 -0.88304533636E+02 -0.22154357046E+02 -0.35063347353E+02  0.13448112456E+03  0.92559323354E+02 0.  0.
        254    2    1    2    0    0  0.88304533636E+02  0.22154357046E+02  0.12150536532E+04  0.15085788607E+04  0.88947529051E+03 0.  0.
        -24    2    4    4    0    0 -0.18448356686E+03 -0.33586150291E+03  0.80309788220E+03  0.89329778163E+03  0.78597599738E+02 0.  0.
         24    2    4    4    0    0  0.27278810050E+03  0.35801585996E+03  0.41195577102E+03  0.61528107903E+03  0.79212026754E+02 0.  0.
         13    1    3    3    0    0 -0.21281208874E+02 -0.14537509432E+02  0.30829842117E+02  0.40183431867E+02  0.00000000000E+00 0. -1.
        -13    1    3    3    0    0 -0.67023324762E+02 -0.76168476142E+01 -0.65893189470E+02  0.94297692698E+02  0.00000000000E+00 0.  1.
          4    1    6    6  502    0  0.18974351445E+03  0.28419550829E+03  0.34483378525E+03  0.48546887403E+03  0.00000000000E+00 0. -1.
          3    1    5    5  503    0 -0.16539183340E+03 -0.33301038423E+03  0.76638061814E+03  0.85181548848E+03  0.00000000000E+00 0. -1.
         -4    1    5    5    0  503 -0.19091733460E+02 -0.28511186802E+01  0.36717264059E+02  0.41482293141E+02  0.00000000000E+00 0.  1.
         -1    1    6    6    0  502  0.83044586046E+02  0.73820351671E+02  0.67121985772E+02  0.12981220500E+03  0.00000000000E+00 0.  1.
<mgrwt>
<rscale>  0 0.11433586E+04</rscale>
<asrwt>0</asrwt>
<pdfrwt beam="1">  1        2 0.21715771E+00 0.11433586E+04</pdfrwt>
<pdfrwt beam="2">  1       -2 0.35620746E-01 0.11433586E+04</pdfrwt>
<totfact> 0.10445624E+02</totfact>
</mgrwt>
</event>
<event>
12    1  0.1495204E-007  0.2043216E+04  0.7818608E-02  0.8586678E-01
          1   -1    0    0  501    0  0.00000000000E+00  0.00000000000E+00  0.42319432347E+04  0.42319432347E+04  0.00000000000E+00 0. -1.
         -1   -1    0    0    0  501 -0.00000000000E+00 -0.00000000000E+00 -0.24662030300E+03  0.24662030300E+03  0.00000000000E+00 0.  1.
         23    2    1    2    0    0 -0.21705461171E+02  0.25348924408E+03 -0.99323242971E+02  0.28781342791E+03  0.90793935835E+02 0.  0.
        254    2    1    2    0    0  0.21705461171E+02 -0.25348924408E+03  0.40846461747E+04  0.41907501098E+04  0.90184487944E+03 0.  0.
        -24    2    4    4    0    0  0.43067506375E+03 -0.27388379237E+03  0.24365771266E+04  0.24907101556E+04  0.78966088231E+02 0.  0.
         24    2    4    4    0    0 -0.40896960258E+03  0.20394548293E+02  0.16480690480E+04  0.17000399542E+04  0.79575028782E+02 0.  0.
         11    1    3    3    0    0 -0.60112805945E+01 -0.19983904481E+00 -0.21001590533E+02  0.21845874553E+02  0.00000000000E+00 0. -1.
        -11    1    3    3    0    0 -0.15694180576E+02  0.25368908312E+03 -0.78321652438E+02  0.26596755336E+03  0.00000000000E+00 0.  1.
          2    1    6    6  502    0 -0.71710847848E+02 -0.15016090176E+02  0.40352740238E+03  0.41012472876E+03  0.00000000000E+00 0. -1.
          1    1    5    5  503    0  0.21922078599E+03 -0.94513241762E+02  0.11790558492E+04  0.12029809647E+04  0.00000000000E+00 0. -1.
         -2    1    5    5    0  503  0.21145427775E+03 -0.17937055061E+03  0.12575212774E+04  0.12877291909E+04  0.00000000000E+00 0.  1.
         -1    1    6    6    0  502 -0.33725875473E+03  0.35410638469E+02  0.12445416457E+04  0.12899152254E+04  0.00000000000E+00 0.  1.
<mgrwt>
<rscale>  0 0.20432162E+04</rscale>
<asrwt>0</asrwt>
<pdfrwt beam="1">  1        1 0.65106814E+00 0.20432162E+04</pdfrwt>
<pdfrwt beam="2">  1       -1 0.37941588E-01 0.20432162E+04</pdfrwt>
<totfact> 0.36962362E-01</totfact>
</mgrwt>
</event>
<event>
12    1  0.1495204E-007  0.1311677E+04  0.7818608E-02  0.9020356E-01
          2   -1    0    0  501    0  0.00000000000E+00  0.00000000000E+00  0.11354224336E+04  0.11354224336E+04  0.00000000000E+00 0. -1.
         -2   -1    0    0    0  501 -0.00000000000E+00 -0.00000000000E+00 -0.37882310120E+03  0.37882310120E+03  0.00000000000E+00 0.  1.
         23    2    1    2    0    0  0.60237854110E+02  0.72614327551E+02 -0.17643366674E+03  0.22007908302E+03  0.91676193142E+02 0.  0.
        254    2    1    2    0    0 -0.60237854110E+02 -0.72614327551E+02  0.93303299913E+03  0.12941664518E+04  0.89186029612E+03 0.  0.
        -24    2    4    4    0    0 -0.54722870528E+02  0.31149235927E+03  0.52165978948E+02  0.33010667387E+03  0.78911623549E+02 0.  0.
         24    2    4    4    0    0 -0.55149835818E+01 -0.38410668682E+03  0.88086702019E+03  0.96405977791E+03  0.76916748701E+02 0.  0.
         11    1    3    3    0    0  0.72561987597E+02  0.35814900993E+02 -0.15711378243E+03  0.17672772790E+03  0.00000000000E+00 0.  1.
        -11    1    3    3    0    0 -0.12324133486E+02  0.36799426558E+02 -0.19319884308E+02  0.43351355121E+02  0.00000000000E+00 0. -1.
          4    1    6    6  502    0  0.65247116879E+01 -0.35129507340E+03  0.74386730210E+03  0.82267208752E+03  0.00000000000E+00 0. -1.
          1    1    5    5  503    0 -0.49865278413E+02  0.28036942579E+03  0.70892427638E+02  0.29346089553E+03  0.00000000000E+00 0. -1.
         -2    1    5    5    0  503 -0.48575921153E+01  0.31122933478E+02 -0.18726448690E+02  0.36645778338E+02  0.00000000000E+00 0.  1.
         -3    1    6    6    0  502 -0.12039695270E+02 -0.32811613421E+02  0.13699971808E+03  0.14138769039E+03  0.00000000000E+00 0.  1.
<mgrwt>
<rscale>  0 0.13116772E+04</rscale>
<asrwt>0</asrwt>
<pdfrwt beam="1">  1        2 0.17468037E+00 0.13116772E+04</pdfrwt>
<pdfrwt beam="2">  1       -2 0.58280478E-01 0.13116772E+04</pdfrwt>
<totfact> 0.55888662E+01</totfact>
</mgrwt>
</event>
<event>
12    1  0.1495204E-007  0.1468571E+04  0.7818608E-02  0.8905626E-01
          2   -1    0    0  501    0  0.00000000000E+00  0.00000000000E+00  0.14116042004E+04  0.14116042004E+04  0.00000000000E+00 0. -1.
         -2   -1    0    0    0  501 -0.00000000000E+00 -0.00000000000E+00 -0.38195908200E+03  0.38195908200E+03  0.00000000000E+00 0.  1.
         23    2    1    2    0    0 -0.31295651340E+03  0.15964364505E+03  0.65283996086E+03  0.74691362436E+03  0.90840932772E+02 0.  0.
        254    2    1    2    0    0  0.31295651340E+03 -0.15964364505E+03  0.37680515756E+03  0.10466496581E+04  0.91107930900E+03 0.  0.
        -24    2    4    4    0    0  0.91654694358E+02 -0.49605549634E+03  0.34378652146E+02  0.51191792525E+03  0.80040190055E+02 0.  0.
         24    2    4    4    0    0  0.22130181904E+03  0.33641185128E+03  0.34242650541E+03  0.53473173282E+03  0.80837402725E+02 0.  0.
         11    1    3    3    0    0 -0.38499295415E+01  0.65621540689E+01 -0.99221550618E+00  0.76725690032E+01  0.00000000000E+00 0.  1.
        -11    1    3    3    0    0 -0.30910658386E+03  0.15308149099E+03  0.65383217637E+03  0.73924105536E+03  0.00000000000E+00 0. -1.
          4    1    6    6  502    0  0.12498801120E+03  0.18034614476E+03  0.13398112716E+03  0.25709468549E+03  0.00000000000E+00 0. -1.
          1    1    5    5  503    0 -0.10522269520E+02 -0.76783099121E+02  0.20435115825E+02  0.80149587805E+02  0.00000000000E+00 0. -1.
         -2    1    5    5    0  503  0.10217696388E+03 -0.41927239721E+03  0.13943536321E+02  0.43176833744E+03  0.00000000000E+00 0.  1.
         -3    1    6    6    0  502  0.96313807844E+02  0.15606570652E+03  0.20844537825E+03  0.27763704732E+03  0.00000000000E+00 0.  1.
<mgrwt>
<rscale>  0 0.14685708E+04</rscale>
<asrwt>0</asrwt>
<pdfrwt beam="1">  1        2 0.21716988E+00 0.14685708E+04</pdfrwt>
<pdfrwt beam="2">  1       -2 0.58762936E-01 0.14685708E+04</pdfrwt>
<totfact> 0.37348611E+01</totfact>
</mgrwt>
</event>
<event>
12    1  0.1495204E-007  0.1616212E+04  0.7818608E-02  0.8810650E-01
         -2   -1    0    0    0  501 -0.00000000000E+00  0.00000000000E+00  0.20707698952E+03  0.20707698952E+03  0.00000000000E+00 0.  1.
          2   -1    0    0  501    0  0.00000000000E+00 -0.00000000000E+00 -0.31535889174E+04  0.31535889174E+04  0.00000000000E+00 0. -1.
         23    2    1    2    0    0 -0.30120571667E+03 -0.41037868164E+03 -0.14439904014E+04  0.15338644095E+04  0.92174840547E+02 0.  0.
        254    2    1    2    0    0  0.30120571667E+03  0.41037868164E+03 -0.15025215265E+04  0.18268014974E+04  0.90581302010E+03 0.  0.
        -24    2    4    4    0    0  0.50691513146E+03  0.39261018807E+01 -0.10945411058E+04  0.12087029876E+04  0.77228979221E+02 0.  0.
         24    2    4    4    0    0 -0.20570941479E+03  0.40645257976E+03 -0.40798042071E+03  0.61809850983E+03  0.89875921405E+02 0.  0.
         11    1    3    3    0    0 -0.14279917196E+03 -0.15293754625E+03 -0.70645239679E+03  0.73678795152E+03  0.00000000000E+00 0. -1.
        -11    1    3    3    0    0 -0.15840654470E+03 -0.25744113539E+03 -0.73753800462E+03  0.79707645798E+03  0.00000000000E+00 0.  1.
          4    1    6    6  502    0 -0.16962116743E+03  0.25378214017E+03 -0.29732980090E+03  0.42612407303E+03  0.00000000000E+00 0. -1.
          1    1    5    5  503    0  0.41129169213E+03  0.17903896807E+02 -0.94332323406E+03  0.10292425027E+04  0.00000000000E+00 0. -1.
         -2    1    5    5    0  503  0.95623439321E+02 -0.13977794926E+02 -0.15121787170E+03  0.17946048484E+03  0.00000000000E+00 0.  1.
         -1    1    6    6    0  502 -0.36088247358E+02  0.15267043959E+03 -0.11065061980E+03  0.19197443680E+03  0.00000000000E+00 0.  1.
<mgrwt>
<rscale>  0 0.16162125E+04</rscale>
<asrwt>0</asrwt>
<pdfrwt beam="1">  1        2 0.48516749E+00 0.16162125E+04</pdfrwt>
<pdfrwt beam="2">  1       -2 0.31858001E-01 0.16162125E+04</pdfrwt>
<totfact> 0.12285073E+01</totfact>
</mgrwt>
</event>
<event>
12    1  0.1495204E-007  0.1897698E+04  0.7818608E-02  0.8656003E-01
          1   -1    0    0  501    0  0.00000000000E+00  0.00000000000E+00  0.19235770614E+04  0.19235770614E+04  0.00000000000E+00 0. -1.
         -1   -1    0    0    0  501 -0.00000000000E+00 -0.00000000000E+00 -0.46804196771E+03  0.46804196771E+03  0.00000000000E+00 0.  1.
         23    2    1    2    0    0 -0.58577249926E+02  0.31389508625E+03  0.14417820412E+04  0.14792033669E+04  0.85707216451E+02 0.  0.
        254    2    1    2    0    0  0.58577249926E+02 -0.31389508625E+03  0.13753052566E+02  0.91241566228E+03  0.85460621045E+03 0.  0.
        -24    2    4    4    0    0 -0.19565988762E+03  0.70739673573E+02 -0.28146880424E+03  0.35908140406E+03  0.80174022886E+02 0.  0.
         24    2    4    4    0    0  0.25423713754E+03 -0.38463475982E+03  0.29522185681E+03  0.55333425821E+03  0.80264786833E+02 0.  0.
         13    1    3    3    0    0  0.69709549506E+00  0.20588259784E+03  0.83163386611E+03  0.85673976055E+03  0.00000000000E+00 0. -1.
        -13    1    3    3    0    0 -0.59274345421E+02  0.10801248841E+03  0.61014817504E+03  0.62246360631E+03  0.00000000000E+00 0.  1.
          4    1    6    6  502    0  0.11170962036E+03 -0.10873302866E+03  0.12034569657E+03  0.19693907049E+03  0.00000000000E+00 0. -1.
          1    1    5    5  503    0 -0.29920008055E+02 -0.12530615234E+02 -0.73947471918E+02  0.80749314568E+02  0.00000000000E+00 0. -1.
         -2    1    5    5    0  503 -0.16573987956E+03  0.83270288807E+02 -0.20752133232E+03  0.27833208950E+03  0.00000000000E+00 0.  1.
         -3    1    6    6    0  502  0.14252751718E+03 -0.27590173116E+03  0.17487616024E+03  0.35639518772E+03  0.00000000000E+00 0.  1.
<mgrwt>
<rscale>  0 0.18976984E+04</rscale>
<asrwt>0</asrwt>
<pdfrwt beam="1">  1        1 0.29593493E+00 0.18976984E+04</pdfrwt>
<pdfrwt beam="2">  1       -1 0.72006457E-01 0.18976984E+04</pdfrwt>
<totfact> 0.61158584E+00</totfact>
</mgrwt>
</event>
<event>
12    1  0.1495204E-007  0.1838751E+04  0.7818608E-02  0.8685959E-01
          2   -1    0    0  501    0  0.00000000000E+00  0.00000000000E+00  0.21652945555E+04  0.21652945555E+04  0.00000000000E+00 0. -1.
         -2   -1    0    0    0  501 -0.00000000000E+00 -0.00000000000E+00 -0.39036306410E+03  0.39036306410E+03  0.00000000000E+00 0.  1.
         23    2    1    2    0    0 -0.15034601167E+03  0.59442833913E+03  0.22378480728E+03  0.65895253619E+03  0.90497687241E+02 0.  0.
        254    2    1    2    0    0  0.15034601167E+03 -0.59442833913E+03  0.15511466841E+04  0.18967050834E+04  0.90304217188E+03 0.  0.
        -24    2    4    4    0    0 -0.35458932157E+03 -0.40980738597E+03  0.79216921729E+03  0.96305816844E+03  0.79204080758E+02 0.  0.
         24    2    4    4    0    0  0.50493533325E+03 -0.18462095315E+03  0.75897746681E+03  0.93364691496E+03  0.81272255844E+02 0.  0.
         13    1    3    3    0    0 -0.29745739159E+01  0.13312677742E+03  0.25079217803E+02  0.13550112222E+03  0.00000000000E+00 0. -1.
        -13    1    3    3    0    0 -0.14737143776E+03  0.46130156171E+03  0.19870558947E+03  0.52345141397E+03  0.00000000000E+00 0.  1.
          4    1    6    6  502    0 -0.30236724028E+01 -0.11522911033E+01  0.21783677709E+01  0.39007250264E+01  0.00000000000E+00 0. -1.
          1    1    5    5  503    0 -0.62184901507E+02 -0.11263086713E+03  0.15252726326E+03  0.19954257752E+03  0.00000000000E+00 0. -1.
         -2    1    5    5    0  503 -0.29240442007E+03 -0.29717651885E+03  0.63964195403E+03  0.76351559092E+03  0.00000000000E+00 0.  1.
         -3    1    6    6    0  502  0.50795900565E+03 -0.18346866205E+03  0.75679909904E+03  0.92974618993E+03  0.00000000000E+00 0.  1.
<mgrwt>
<rscale>  0 0.18387507E+04</rscale>
<asrwt>0</asrwt>
<pdfrwt beam="1">  1        2 0.33312223E+00 0.18387507E+04</pdfrwt>
<pdfrwt beam="2">  1       -2 0.60055857E-01 0.18387507E+04</pdfrwt>
<totfact> 0.13141510E+01</totfact>
</mgrwt>
</event>
<event>
12    1  0.1495204E-007  0.1271995E+04  0.7818608E-02  0.9052073E-01
          2   -1    0    0  501    0  0.00000000000E+00  0.00000000000E+00  0.84686852182E+03  0.84686852182E+03  0.00000000000E+00 0. -1.
         -2   -1    0    0    0  501 -0.00000000000E+00 -0.00000000000E+00 -0.47763371731E+03  0.47763371731E+03  0.00000000000E+00 0.  1.
         23    2    1    2    0    0 -0.13415994763E+03  0.20085875288E+03  0.26221409563E+03  0.36777796338E+03  0.90339737905E+02 0.  0.
        254    2    1    2    0    0  0.13415994763E+03 -0.20085875288E+03  0.10702070888E+03  0.95672427575E+03  0.91952421258E+03 0.  0.
        -24    2    4    4    0    0  0.12094660954E+03 -0.56003607032E+03  0.10568334292E+03  0.58806327679E+03  0.79880949607E+02 0.  0.
         24    2    4    4    0    0  0.13213338087E+02  0.35917731745E+03  0.13373659604E+01  0.36866099896E+03  0.82013449716E+02 0.  0.
         13    1    3    3    0    0 -0.42356602722E+02  0.10973251553E+02  0.25138063375E+02  0.50462028042E+02  0.00000000000E+00 0.  1.
        -13    1    3    3    0    0 -0.91803344909E+02  0.18988550132E+03  0.23707603225E+03  0.31731593534E+03  0.00000000000E+00 0. -1.
          4    1    6    6  502    0  0.44651396677E+02  0.13278543125E+03  0.11615023318E+01  0.14009663474E+03  0.00000000000E+00 0. -1.
          1    1    5    5  503    0  0.79465076160E+02 -0.48808697903E+03  0.10204907953E+03  0.50493327486E+03  0.00000000000E+00 0. -1.
         -2    1    5    5    0  503  0.41481533385E+02 -0.71949091293E+02  0.36342633908E+01  0.83130001926E+02  0.00000000000E+00 0.  1.
         -3    1    6    6    0  502 -0.31438058590E+02  0.22639188620E+03  0.17586362860E+00  0.22856436422E+03  0.00000000000E+00 0.  1.
<mgrwt>
<rscale>  0 0.12719952E+04</rscale>
<asrwt>0</asrwt>
<pdfrwt beam="1">  1        2 0.13028746E+00 0.12719952E+04</pdfrwt>
<pdfrwt beam="2">  1       -2 0.73482111E-01 0.12719952E+04</pdfrwt>
<totfact> 0.52360295E+01</totfact>
</mgrwt>
</event>
<event>
12    1  0.1495204E-007  0.1990975E+04  0.7818608E-02  0.8610852E-01
          2   -1    0    0  501    0  0.00000000000E+00  0.00000000000E+00  0.84894153234E+03  0.84894153234E+03  0.00000000000E+00 0. -1.
         -2   -1    0    0    0  501 -0.00000000000E+00 -0.00000000000E+00 -0.11673304802E+04  0.11673304802E+04  0.00000000000E+00 0.  1.
         23    2    1    2    0    0  0.46132717830E+03 -0.66145915230E+03 -0.23014155159E+03  0.84344429107E+03  0.89900849669E+02 0.  0.
        254    2    1    2    0    0 -0.46132717830E+03  0.66145915230E+03 -0.88247396300E+02  0.11728277215E+04  0.84698659123E+03 0.  0.
        -24    2    4    4    0    0  0.10796546399E+03  0.22913477921E+03  0.26152395207E+03  0.37280327764E+03  0.80176167636E+02 0.  0.
         24    2    4    4    0    0 -0.56929264229E+03  0.43232437310E+03 -0.34977134837E+03  0.80002444385E+03  0.81857427759E+02 0.  0.
         11    1    3    3    0    0  0.32400102936E+03 -0.42553046500E+03 -0.18967428392E+03  0.56747614721E+03  0.00000000000E+00 0.  1.
        -11    1    3    3    0    0  0.13732614894E+03 -0.23592868730E+03 -0.40467267666E+02  0.27596814386E+03  0.00000000000E+00 0. -1.
          4    1    6    6  502    0 -0.20473871771E+03  0.13537191902E+03 -0.15994152084E+03  0.29295868152E+03  0.00000000000E+00 0. -1.
          1    1    5    5  503    0  0.16849030165E+02  0.11669906521E+03  0.14575362720E+03  0.18747448221E+03  0.00000000000E+00 0. -1.
         -2    1    5    5    0  503  0.91116433823E+02  0.11243571400E+03  0.11577032486E+03  0.18532879543E+03  0.00000000000E+00 0.  1.
         -3    1    6    6    0  502 -0.36455392458E+03  0.29695245408E+03 -0.18982982753E+03  0.50706576233E+03  0.00000000000E+00 0.  1.
<mgrwt>
<rscale>  0 0.19909750E+04</rscale>
<asrwt>0</asrwt>
<pdfrwt beam="1">  1        2 0.13060639E+00 0.19909750E+04</pdfrwt>
<pdfrwt beam="2">  1       -2 0.17958930E+00 0.19909750E+04</pdfrwt>
<totfact> 0.53927136E+00</totfact>
</mgrwt>
</event>
<event>
12    1  0.1495204E-007  0.1996101E+04  0.7818608E-02  0.8608446E-01
         -2   -1    0    0    0  501 -0.00000000000E+00  0.00000000000E+00  0.64662493332E+03  0.64662493332E+03  0.00000000000E+00 0.  1.
          2   -1    0    0  501    0  0.00000000000E+00 -0.00000000000E+00 -0.15404681884E+04  0.15404681884E+04  0.00000000000E+00 0. -1.
         23    2    1    2    0    0 -0.25803965168E+03 -0.64283129774E+03  0.46436109184E+02  0.69986604277E+03  0.88541664752E+02 0.  0.
        254    2    1    2    0    0  0.25803965168E+03  0.64283129774E+03 -0.94027936429E+03  0.14872270790E+04  0.92081624787E+03 0.  0.
        -24    2    4    4    0    0 -0.25850723374E+03  0.46935733550E+03 -0.23021147154E+03  0.58863275921E+03  0.79805421436E+02 0.  0.
         24    2    4    4    0    0  0.51654688542E+03  0.17347396224E+03 -0.71006789275E+03  0.89859431978E+03  0.79758628423E+02 0.  0.
         13    1    3    3    0    0 -0.51422614069E+02 -0.16857670405E+03 -0.23674432918E+02  0.17782820126E+03  0.00000000000E+00 0. -1.
        -13    1    3    3    0    0 -0.20661703761E+03 -0.47425459368E+03  0.70110542102E+02  0.52203784152E+03  0.00000000000E+00 0.  1.
          2    1    6    6  502    0  0.20021543992E+03  0.38381406675E+02 -0.30950385164E+03  0.37061029255E+03  0.00000000000E+00 0. -1.
          3    1    5    5  503    0 -0.10001712907E+02 -0.25889979302E+00 -0.76182998733E+01  0.12575364136E+02  0.00000000000E+00 0. -1.
         -2    1    5    5    0  503 -0.24850552083E+03  0.46961623530E+03 -0.22259317167E+03  0.57605739507E+03  0.00000000000E+00 0.  1.
         -1    1    6    6    0  502  0.31633144550E+03  0.13509255556E+03 -0.40056404111E+03  0.52798402723E+03  0.00000000000E+00 0.  1.
<mgrwt>
<rscale>  0 0.19961013E+04</rscale>
<asrwt>0</asrwt>
<pdfrwt beam="1">  1        2 0.23699511E+00 0.19961013E+04</pdfrwt>
<pdfrwt beam="2">  1       -2 0.99480759E-01 0.19961013E+04</pdfrwt>
<totfact> 0.93611587E+00</totfact>
</mgrwt>
</event>
<event>
12    1  0.1495204E-007  0.2828695E+04  0.7818608E-02  0.8294415E-01
         -2   -1    0    0    0  501 -0.00000000000E+00  0.00000000000E+00  0.33663707485E+04  0.33663707485E+04  0.00000000000E+00 0.  1.
          2   -1    0    0  501    0  0.00000000000E+00 -0.00000000000E+00 -0.59422411731E+03  0.59422411731E+03  0.00000000000E+00 0. -1.
         23    2    1    2    0    0  0.10079434575E+04  0.11122319649E+03  0.18245149275E+03  0.10342237111E+04  0.89495946140E+02 0.  0.
        254    2    1    2    0    0 -0.10079434575E+04 -0.11122319649E+03  0.25896951385E+04  0.29263711547E+04  0.91038816554E+03 0.  0.
        -24    2    4    4    0    0 -0.58007747853E+03 -0.29078583005E+03  0.61928252585E+03  0.90045995792E+03  0.79189702302E+02 0.  0.
         24    2    4    4    0    0 -0.42786597902E+03  0.17956263356E+03  0.19704126126E+04  0.20259111968E+04  0.80487750460E+02 0.  0.
         13    1    3    3    0    0  0.30083425086E+03 -0.35138792915E+01  0.35416926581E+02  0.30293225732E+03  0.00000000000E+00 0. -1.
        -13    1    3    3    0    0  0.70710920669E+03  0.11473707578E+03  0.14703456617E+03  0.73129145379E+03  0.00000000000E+00 0.  1.
          4    1    6    6  502    0 -0.12512952593E+03  0.80476798257E+02  0.51568214527E+03  0.53671406565E+03  0.00000000000E+00 0. -1.
          3    1    5    5  503    0 -0.10684254919E+03 -0.26145736600E+02  0.82546403858E+02  0.13752395664E+03  0.00000000000E+00 0. -1.
         -4    1    5    5    0  503 -0.47323492933E+03 -0.26464009345E+03  0.53673612199E+03  0.76293600128E+03  0.00000000000E+00 0.  1.
         -3    1    6    6    0  502 -0.30273645309E+03  0.99085835305E+02  0.14547304674E+04  0.14891971312E+04  0.00000000000E+00 0.  1.
<mgrwt>
<rscale>  0 0.28286949E+04</rscale>
<asrwt>0</asrwt>
<pdfrwt beam="1">  1        2 0.91419097E-01 0.28286949E+04</pdfrwt>
<pdfrwt beam="2">  1       -2 0.51790318E+00 0.28286949E+04</pdfrwt>
<totfact> 0.55695937E-02</totfact>
</mgrwt>
</event>
<event>
12    1  0.1495204E-007  0.1090296E+04  0.7818608E-02  0.9214702E-01
         -2   -1    0    0    0  501 -0.00000000000E+00  0.00000000000E+00  0.44716709601E+03  0.44716709601E+03  0.00000000000E+00 0.  1.
          2   -1    0    0  501    0  0.00000000000E+00 -0.00000000000E+00 -0.66459805585E+03  0.66459805585E+03  0.00000000000E+00 0. -1.
         23    2    1    2    0    0  0.12002173753E+03  0.30385613553E+02  0.48328244015E+02  0.15988951629E+03  0.88884955188E+02 0.  0.
        254    2    1    2    0    0 -0.12002173753E+03 -0.30385613553E+02 -0.26575920386E+03  0.95187563558E+03  0.90559967324E+03 0.  0.
        -24    2    4    4    0    0 -0.36524451650E+03 -0.55878565915E+02 -0.48295756908E+03  0.61321621822E+03  0.79121083099E+02 0.  0.
         24    2    4    4    0    0  0.24522277897E+03  0.25492952362E+02  0.21719836523E+03  0.33865941736E+03  0.82042483887E+02 0.  0.
         13    1    3    3    0    0  0.10586199702E+03  0.53235788296E+02  0.57205444730E+02  0.13157991668E+03  0.00000000000E+00 0.  1.
        -13    1    3    3    0    0  0.14159740510E+02 -0.22850174743E+02 -0.88772007147E+01  0.28309599602E+02  0.00000000000E+00 0. -1.
          2    1    6    6  502    0  0.11864733758E+03  0.32039219614E+02  0.15401543490E+03  0.19703922577E+03  0.00000000000E+00 0. -1.
          1    1    5    5  503    0 -0.11276383798E+03 -0.61524756799E+00 -0.20284073361E+03  0.23207848866E+03  0.00000000000E+00 0. -1.
         -2    1    5    5    0  503 -0.25248067852E+03 -0.55263318347E+02 -0.28011683547E+03  0.38113772956E+03  0.00000000000E+00 0.  1.
         -1    1    6    6    0  502  0.12657544140E+03 -0.65462672520E+01  0.63182930329E+02  0.14162019158E+03  0.00000000000E+00 0.  1.
<mgrwt>
<rscale>  0 0.10902961E+04</rscale>
<asrwt>0</asrwt>
<pdfrwt beam="1">  1        2 0.10224585E+00 0.10902961E+04</pdfrwt>
<pdfrwt beam="2">  1       -2 0.68794938E-01 0.10902961E+04</pdfrwt>
<totfact> 0.83942135E+01</totfact>
</mgrwt>
</event>
<event>
12    1  0.1495204E-007  0.3295302E+04  0.7818608E-02  0.8164092E-01
          2   -1    0    0  501    0  0.00000000000E+00  0.00000000000E+00  0.17540650007E+04  0.17540650007E+04  0.00000000000E+00 0. -1.
         -2   -1    0    0    0  501 -0.00000000000E+00 -0.00000000000E+00 -0.15476925151E+04  0.15476925151E+04  0.00000000000E+00 0.  1.
         23    2    1    2    0    0 -0.13127073309E+04 -0.63835772999E+03  0.52806355178E+03  0.15552415801E+04  0.96042332605E+02 0.  0.
        254    2    1    2    0    0  0.13127073309E+04  0.63835772999E+03 -0.32169106615E+03  0.17465159358E+04  0.90340004649E+03 0.  0.
        -24    2    4    4    0    0  0.93310897479E+03  0.27321605601E+03 -0.60024169223E+03  0.11454324295E+04  0.79912385443E+02 0.  0.
         24    2    4    4    0    0  0.37959835609E+03  0.36514167398E+03  0.27855062608E+03  0.60108350631E+03  0.79294238405E+02 0.  0.
         13    1    3    3    0    0 -0.10464478248E+04 -0.47172812867E+03  0.39216576024E+03  0.12130022510E+04  0.00000000000E+00 0. -1.
        -13    1    3    3    0    0 -0.26625950604E+03 -0.16662960132E+03  0.13589779155E+03  0.34223932904E+03  0.00000000000E+00 0.  1.
          2    1    6    6  502    0  0.46094459357E+02  0.86673913408E+02  0.50898596468E+02  0.11057908288E+03  0.00000000000E+00 0. -1.
          3    1    5    5  503    0  0.36288708917E+03  0.68119338774E+02 -0.21234476639E+03  0.42593143065E+03  0.00000000000E+00 0. -1.
         -4    1    5    5    0  503  0.57022188561E+03  0.20509671724E+03 -0.38789692584E+03  0.71950099884E+03  0.00000000000E+00 0.  1.
         -1    1    6    6    0  502  0.33350389673E+03  0.27846776057E+03  0.22765202961E+03  0.49050442343E+03  0.00000000000E+00 0.  1.
<mgrwt>
<rscale>  0 0.32953017E+04</rscale>
<asrwt>0</asrwt>
<pdfrwt beam="1">  1        2 0.26985615E+00 0.32953017E+04</pdfrwt>
<pdfrwt beam="2">  1       -2 0.23810654E+00 0.32953017E+04</pdfrwt>
<totfact> 0.58192668E-01</totfact>
</mgrwt>
</event>
<event>
12    1  0.1495204E-007  0.1390064E+04  0.7818608E-02  0.8961043E-01
         -1   -1    0    0    0  501 -0.00000000000E+00  0.00000000000E+00  0.89362037003E+03  0.89362037003E+03  0.00000000000E+00 0.  1.
          1   -1    0    0  501    0  0.00000000000E+00 -0.00000000000E+00 -0.54057546203E+03  0.54057546203E+03  0.00000000000E+00 0. -1.
         23    2    1    2    0    0 -0.25285226599E+03  0.28126387391E+02  0.41799589754E+03  0.49829886464E+03  0.94105398646E+02 0.  0.
        254    2    1    2    0    0  0.25285226599E+03 -0.28126387391E+02 -0.64950989543E+02  0.93589696742E+03  0.89830904510E+03 0.  0.
        -24    2    4    4    0    0  0.51140428036E+03  0.14970171121E+03  0.13417669603E+03  0.55560197640E+03  0.82129349851E+02 0.  0.
         24    2    4    4    0    0 -0.25855201437E+03 -0.17782809860E+03 -0.19912768558E+03  0.38029499102E+03  0.80625481383E+02 0.  0.
         13    1    3    3    0    0 -0.24167845998E+03  0.22768349918E+01  0.38829830080E+03  0.45737209403E+03  0.00000000000E+00 0.  1.
        -13    1    3    3    0    0 -0.11173806008E+02  0.25849552399E+02  0.29697596746E+02  0.40926770608E+02  0.00000000000E+00 0. -1.
          4    1    6    6  502    0 -0.22644172307E+03 -0.12825856422E+03 -0.18576342616E+03  0.31974077585E+03  0.00000000000E+00 0. -1.
          1    1    5    5  503    0  0.36596314438E+03  0.72939477845E+02  0.11233274006E+03  0.38970223885E+03  0.00000000000E+00 0. -1.
         -2    1    5    5    0  503  0.14544113598E+03  0.76762233360E+02  0.21843955968E+02  0.16589973754E+03  0.00000000000E+00 0.  1.
         -1    1    6    6    0  502 -0.32110291302E+02 -0.49569534373E+02 -0.13364259420E+02  0.60554215174E+02  0.00000000000E+00 0.  1.
<mgrwt>
<rscale>  0 0.13900637E+04</rscale>
<asrwt>0</asrwt>
<pdfrwt beam="1">  1        1 0.83165456E-01 0.13900637E+04</pdfrwt>
<pdfrwt beam="2">  1       -1 0.13748006E+00 0.13900637E+04</pdfrwt>
<totfact> 0.17050700E+01</totfact>
</mgrwt>
</event>
<event>
12    1  0.1495204E-007  0.1333000E+04  0.7818608E-02  0.9003798E-01
          1   -1    0    0  501    0  0.00000000000E+00  0.00000000000E+00  0.10534967575E+04  0.10534967575E+04  0.00000000000E+00 0. -1.
         -1   -1    0    0    0  501 -0.00000000000E+00 -0.00000000000E+00 -0.42166445712E+03  0.42166445712E+03  0.00000000000E+00 0.  1.
         23    2    1    2    0    0 -0.18397119920E+03  0.21246741490E+03  0.45209466550E+03  0.54056589534E+03  0.93989872319E+02 0.  0.
        254    2    1    2    0    0  0.18397119920E+03 -0.21246741490E+03  0.17973763485E+03  0.93459531925E+03  0.87302633915E+03 0.  0.
        -24    2    4    4    0    0 -0.33284671938E+03  0.11487510497E+02  0.20332037863E+02  0.34297409340E+03  0.79365833188E+02 0.  0.
         24    2    4    4    0    0  0.51681791858E+03 -0.22395492539E+03  0.15940559699E+03  0.59162122585E+03  0.85726080932E+02 0.  0.
         11    1    3    3    0    0 -0.75939949879E+01  0.47978051293E+02  0.12550700063E+03  0.13457923084E+03  0.00000000000E+00 0.  1.
        -11    1    3    3    0    0 -0.17637720421E+03  0.16448936361E+03  0.32658766487E+03  0.40598666450E+03  0.00000000000E+00 0. -1.
          4    1    6    6  502    0  0.35482979182E+03 -0.10934299676E+03  0.10575287620E+03  0.38606183822E+03  0.00000000000E+00 0. -1.
          1    1    5    5  503    0 -0.29545041888E+03 -0.94733084679E+01  0.17647310128E+00  0.29560230840E+03  0.00000000000E+00 0. -1.
         -2    1    5    5    0  503 -0.37396300504E+02  0.20960818965E+02  0.20155564762E+02  0.47371784998E+02  0.00000000000E+00 0.  1.
         -3    1    6    6    0  502  0.16198812676E+03 -0.11461192863E+03  0.53652720790E+02  0.20555938763E+03  0.00000000000E+00 0.  1.
<mgrwt>
<rscale>  0 0.13329998E+04</rscale>
<asrwt>0</asrwt>
<pdfrwt beam="1">  1        1 0.16207642E+00 0.13329998E+04</pdfrwt>
<pdfrwt beam="2">  1       -1 0.64871456E-01 0.13329998E+04</pdfrwt>
<totfact> 0.32480291E+01</totfact>
</mgrwt>
</event>
<event>
12    1  0.1495204E-007  0.1357270E+04  0.7818608E-02  0.8985343E-01
         -2   -1    0    0    0  501 -0.00000000000E+00  0.00000000000E+00  0.11032419950E+04  0.11032419950E+04  0.00000000000E+00 0.  1.
          2   -1    0    0  501    0  0.00000000000E+00 -0.00000000000E+00 -0.41744737709E+03  0.41744737709E+03  0.00000000000E+00 0. -1.
         23    2    1    2    0    0 -0.22218223959E+03  0.18564473582E+02  0.52013047819E+03  0.57321142321E+03  0.91247104539E+02 0.  0.
        254    2    1    2    0    0  0.22218223959E+03 -0.18564473582E+02  0.16566413967E+03  0.94747794883E+03  0.90584781784E+03 0.  0.
        -24    2    4    4    0    0  0.13070702711E+03 -0.22241608671E+03 -0.31336121730E+03  0.41327289243E+03  0.77755955048E+02 0.  0.
         24    2    4    4    0    0  0.91475212478E+02  0.20385161312E+03  0.47902535698E+03  0.53420505640E+03  0.77372831083E+02 0.  0.
         13    1    3    3    0    0 -0.54147956363E+02 -0.29724098526E+02  0.92579383971E+02  0.11129449918E+03  0.00000000000E+00 0. -1.
        -13    1    3    3    0    0 -0.16803428323E+03  0.48288572108E+02  0.42755109422E+03  0.46191692403E+03  0.00000000000E+00 0.  1.
          4    1    6    6  502    0  0.29019222812E+02  0.10473642905E+03  0.31041158667E+03  0.32888780458E+03  0.00000000000E+00 0. -1.
          1    1    5    5  503    0  0.96220219953E+02 -0.96721899212E+02 -0.18920837628E+03  0.23326651318E+03  0.00000000000E+00 0. -1.
         -2    1    5    5    0  503  0.34486807161E+02 -0.12569418749E+03 -0.12415284102E+03  0.18000637925E+03  0.00000000000E+00 0.  1.
         -3    1    6    6    0  502  0.62455989666E+02  0.99115184072E+02  0.16861377030E+03  0.20531725182E+03  0.00000000000E+00 0.  1.
<mgrwt>
<rscale>  0 0.13572700E+04</rscale>
<asrwt>0</asrwt>
<pdfrwt beam="1">  1        2 0.64222674E-01 0.13572700E+04</pdfrwt>
<pdfrwt beam="2">  1       -2 0.16972954E+00 0.13572700E+04</pdfrwt>
<totfact> 0.15816492E+01</totfact>
</mgrwt>
</event>
<event>
12    1  0.1495204E-007  0.1084263E+04  0.7818608E-02  0.9220667E-01
          1   -1    0    0  501    0  0.00000000000E+00  0.00000000000E+00  0.40437317715E+03  0.40437317715E+03  0.00000000000E+00 0. -1.
         -1   -1    0    0    0  501 -0.00000000000E+00 -0.00000000000E+00 -0.72682073751E+03  0.72682073751E+03  0.00000000000E+00 0.  1.
         23    2    1    2    0    0  0.11066425619E+02  0.45407094735E+02  0.92167924619E+02  0.14056209977E+03  0.95281202424E+02 0.  0.
        254    2    1    2    0    0 -0.11066425619E+02 -0.45407094735E+02 -0.41461548498E+03  0.99063181489E+03  0.89847711282E+03 0.  0.
        -24    2    4    4    0    0 -0.40286864960E+03 -0.16695440744E+03 -0.35568702844E+03  0.56834214663E+03  0.79514844163E+02 0.  0.
         24    2    4    4    0    0  0.39180222398E+03  0.12154731270E+03 -0.58928456537E+02  0.42228966826E+03  0.81075699110E+02 0.  0.
         11    1    3    3    0    0  0.49592030406E+02  0.28131761154E+02  0.27424944671E+02  0.63268420683E+02  0.00000000000E+00 0. -1.
        -11    1    3    3    0    0 -0.38525604787E+02  0.17275333581E+02  0.64742979947E+02  0.77293679088E+02  0.00000000000E+00 0.  1.
          4    1    6    6  502    0  0.19248338922E+02 -0.75441524638E+00 -0.20761675804E+02  0.28321632647E+02  0.00000000000E+00 0. -1.
          3    1    5    5  503    0 -0.89094632401E+00  0.48809803383E+01 -0.94531859778E+01  0.10676164084E+02  0.00000000000E+00 0. -1.
         -4    1    5    5    0  503 -0.40197770328E+03 -0.17183538777E+03 -0.34623384246E+03  0.55766598255E+03  0.00000000000E+00 0.  1.
         -3    1    6    6    0  502  0.37255388506E+03  0.12230172795E+03 -0.38166780733E+02  0.39396803561E+03  0.00000000000E+00 0.  1.
<mgrwt>
<rscale>  0 0.10842635E+04</rscale>
<asrwt>0</asrwt>
<pdfrwt beam="1">  1        1 0.62211259E-01 0.10842635E+04</pdfrwt>
<pdfrwt beam="2">  1       -1 0.11181857E+00 0.10842635E+04</pdfrwt>
<totfact> 0.43316769E+01</totfact>
</mgrwt>
</event>
<event>
12    1  0.1495204E-007  0.1431383E+04  0.7818608E-02  0.8931410E-01
          2   -1    0    0  501    0  0.00000000000E+00  0.00000000000E+00  0.18526319298E+04  0.18526319298E+04  0.00000000000E+00 0. -1.
         -2   -1    0    0    0  501 -0.00000000000E+00 -0.00000000000E+00 -0.27647923740E+03  0.27647923740E+03  0.00000000000E+00 0.  1.
         23    2    1    2    0    0 -0.14423666248E+03  0.98648017647E+02  0.10619797912E+04  0.10800427642E+04  0.90308634031E+02 0.  0.
        254    2    1    2    0    0  0.14423666248E+03 -0.98648017647E+02  0.51417290114E+03  0.10490684030E+04  0.89757177743E+03 0.  0.
        -24    2    4    4    0    0  0.23641721064E+03 -0.51538656885E+02  0.74278973961E+03  0.78513421257E+03  0.78420685070E+02 0.  0.
         24    2    4    4    0    0 -0.92180548163E+02 -0.47109360762E+02 -0.22861683846E+03  0.26393419039E+03  0.81725471520E+02 0.  0.
         11    1    3    3    0    0 -0.12355677503E+03  0.33636482925E+02  0.72600086902E+03  0.73720753622E+03  0.00000000000E+00 0. -1.
        -11    1    3    3    0    0 -0.20679887452E+02  0.65011534722E+02  0.33597892222E+03  0.34283522802E+03  0.00000000000E+00 0.  1.
          4    1    6    6  502    0 -0.43292764124E+02 -0.10144342153E+02 -0.18082996539E+03  0.18621666812E+03  0.00000000000E+00 0. -1.
          1    1    5    5  503    0  0.14628071541E+03 -0.49188758736E+02  0.56620626833E+03  0.58686209622E+03  0.00000000000E+00 0. -1.
         -2    1    5    5    0  503  0.90136495232E+02 -0.23498981491E+01  0.17658347128E+03  0.19827211635E+03  0.00000000000E+00 0.  1.
         -3    1    6    6    0  502 -0.48887784039E+02 -0.36965018609E+02 -0.47786873073E+02  0.77717522265E+02  0.00000000000E+00 0.  1.
<mgrwt>
<rscale>  0 0.14313829E+04</rscale>
<asrwt>0</asrwt>
<pdfrwt beam="1">  1        2 0.28502029E+00 0.14313829E+04</pdfrwt>
<pdfrwt beam="2">  1       -2 0.42535268E-01 0.14313829E+04</pdfrwt>
<totfact> 0.41052118E+01</totfact>
</mgrwt>
</event>
<event>
12    1  0.1495204E-007  0.3777519E+04  0.7818608E-02  0.8050996E-01
         -1   -1    0    0    0  501 -0.00000000000E+00  0.00000000000E+00  0.92989897314E+03  0.92989897314E+03  0.00000000000E+00 0.  1.
          1   -1    0    0  501    0  0.00000000000E+00 -0.00000000000E+00 -0.38363449610E+04  0.38363449610E+04  0.00000000000E+00 0. -1.
         23    2    1    2    0    0 -0.33028091600E+03 -0.17925182134E+03  0.82402592812E+03  0.91024310563E+03  0.91143196235E+02 0.  0.
        254    2    1    2    0    0  0.33028091600E+03  0.17925182134E+03 -0.37304719160E+04  0.38560008285E+04  0.90061366558E+03 0.  0.
        -24    2    4    4    0    0  0.35461594889E+03  0.29996346238E+03 -0.36640670145E+04  0.36942374079E+04  0.79198414853E+02 0.  0.
         24    2    4    4    0    0 -0.24335032887E+02 -0.12071164105E+03 -0.66404901481E+02  0.16176342065E+03  0.81205290527E+02 0.  0.
         11    1    3    3    0    0 -0.29122329420E+03 -0.16621740243E+03  0.78453684423E+03  0.85319241201E+03  0.00000000000E+00 0.  1.
        -11    1    3    3    0    0 -0.39057621800E+02 -0.13034418910E+02  0.39489083886E+02  0.57050693625E+02  0.00000000000E+00 0. -1.
          4    1    6    6  502    0 -0.26126211350E+01 -0.74003186760E+02  0.44262815147E+01  0.74181462697E+02  0.00000000000E+00 0. -1.
          3    1    5    5  503    0  0.33343651506E+03  0.28182427417E+03 -0.32440558423E+04  0.32733015655E+04  0.00000000000E+00 0. -1.
         -4    1    5    5    0  503  0.21179433823E+02  0.18139188217E+02 -0.42001117222E+03  0.42093584233E+03  0.00000000000E+00 0.  1.
         -3    1    6    6    0  502 -0.21722411752E+02 -0.46708454288E+02 -0.70831182995E+02  0.87581957953E+02  0.00000000000E+00 0.  1.
<mgrwt>
<rscale>  0 0.37775194E+04</rscale>
<asrwt>0</asrwt>
<pdfrwt beam="1">  1        1 0.59020692E+00 0.37775194E+04</pdfrwt>
<pdfrwt beam="2">  1       -1 0.14306138E+00 0.37775194E+04</pdfrwt>
<totfact> 0.41820212E-02</totfact>
</mgrwt>
</event>
<event>
12    1  0.1495204E-007  0.1536553E+04  0.7818608E-02  0.8860503E-01
         -2   -1    0    0    0  501 -0.00000000000E+00  0.00000000000E+00  0.56202013327E+03  0.56202013327E+03  0.00000000000E+00 0.  1.
          2   -1    0    0  501    0  0.00000000000E+00 -0.00000000000E+00 -0.10502267327E+04  0.10502267327E+04  0.00000000000E+00 0. -1.
         23    2    1    2    0    0  0.20885420978E+03 -0.32791491308E+03 -0.36963708781E+03  0.54405462799E+03  0.90639894069E+02 0.  0.
        254    2    1    2    0    0 -0.20885420978E+03  0.32791491308E+03 -0.11856951160E+03  0.10681922380E+04  0.98783989440E+03 0.  0.
        -24    2    4    4    0    0  0.32860036196E+03 -0.11801410563E+03 -0.47099132342E+02  0.36182935317E+03  0.82441649305E+02 0.  0.
         24    2    4    4    0    0 -0.53745457174E+03  0.44592901871E+03 -0.71470379255E+02  0.70636288478E+03  0.78296893069E+02 0.  0.
         13    1    3    3    0    0  0.20991289043E+03 -0.30122087398E+03 -0.36348198166E+03  0.51663970761E+03  0.00000000000E+00 0. -1.
        -13    1    3    3    0    0 -0.10586806481E+01 -0.26694039095E+02 -0.61551061522E+01  0.27414920384E+02  0.00000000000E+00 0.  1.
          4    1    6    6  502    0 -0.51386361942E+03  0.43157393094E+03 -0.83525564367E+02  0.67623102349E+03  0.00000000000E+00 0. -1.
          3    1    5    5  503    0  0.27076073876E+03 -0.61060553774E+02 -0.34967240059E+02  0.27975431500E+03  0.00000000000E+00 0. -1.
         -4    1    5    5    0  503  0.57839623200E+02 -0.56953551857E+02 -0.12131892283E+02  0.82075038175E+02  0.00000000000E+00 0.  1.
         -3    1    6    6    0  502 -0.23590952324E+02  0.14355087770E+02  0.12055185112E+02  0.30131861285E+02  0.00000000000E+00 0.  1.
<mgrwt>
<rscale>  0 0.15365527E+04</rscale>
<asrwt>0</asrwt>
<pdfrwt beam="1">  1        2 0.16157334E+00 0.15365527E+04</pdfrwt>
<pdfrwt beam="2">  1       -2 0.86464636E-01 0.15365527E+04</pdfrwt>
<totfact> 0.26133981E+01</totfact>
</mgrwt>
</event>
<event>
12    1  0.1495204E-007  0.2420246E+04  0.7818608E-02  0.8431963E-01
         -1   -1    0    0    0  501 -0.00000000000E+00  0.00000000000E+00  0.15088785213E+04  0.15088785213E+04  0.00000000000E+00 0.  1.
          1   -1    0    0  501    0  0.00000000000E+00 -0.00000000000E+00 -0.97052043826E+03  0.97052043826E+03  0.00000000000E+00 0. -1.
         23    2    1    2    0    0  0.87943503041E+03  0.33785855628E+03  0.67327537578E+03  0.11627090984E+04  0.10506350015E+03 0.  0.
        254    2    1    2    0    0 -0.87943503041E+03 -0.33785855628E+03 -0.13491729271E+03  0.13166898612E+04  0.90989842179E+03 0.  0.
        -24    2    4    4    0    0 -0.77003893908E+03 -0.31932621672E+03  0.27740212378E+03  0.88214113188E+03  0.79321106242E+02 0.  0.
         24    2    4    4    0    0 -0.10939609133E+03 -0.18532339556E+02 -0.41231941648E+03  0.43454872933E+03  0.80711489541E+02 0.  0.
         11    1    3    3    0    0  0.46643929222E+03  0.22372637709E+03  0.40704268030E+03  0.65825743346E+03  0.00000000000E+00 0.  1.
        -11    1    3    3    0    0  0.41299573819E+03  0.11413217919E+03  0.26623269549E+03  0.50445166492E+03  0.00000000000E+00 0. -1.
          4    1    6    6  502    0 -0.10845203347E+03 -0.36349295146E+02 -0.38717556556E+03  0.40371776452E+03  0.00000000000E+00 0. -1.
          3    1    5    5  503    0 -0.60976439907E+03 -0.22391292215E+03  0.19490717317E+03  0.67818760327E+03  0.00000000000E+00 0. -1.
         -4    1    5    5    0  503 -0.16027454001E+03 -0.95413294574E+02  0.82494950607E+02  0.20395352861E+03  0.00000000000E+00 0.  1.
         -3    1    6    6    0  502 -0.94405785791E+00  0.17816955590E+02 -0.25143850919E+02  0.30830964805E+02  0.00000000000E+00 0.  1.
<mgrwt>
<rscale>  0 0.24202458E+04</rscale>
<asrwt>0</asrwt>
<pdfrwt beam="1">  1        1 0.14931084E+00 0.24202458E+04</pdfrwt>
<pdfrwt beam="2">  1       -1 0.23213516E+00 0.24202458E+04</pdfrwt>
<totfact> 0.13045412E+00</totfact>
</mgrwt>
</event>
<event>
12    1  0.1495204E-007  0.1376684E+04  0.7818608E-02  0.8970871E-01
         -2   -1    0    0    0  501 -0.00000000000E+00  0.00000000000E+00  0.12527332394E+04  0.12527332394E+04  0.00000000000E+00 0. -1.
          2   -1    0    0  501    0  0.00000000000E+00 -0.00000000000E+00 -0.37822499511E+03  0.37822499511E+03  0.00000000000E+00 0.  1.
         23    2    1    2    0    0  0.22519238065E+03 -0.32397753851E+03  0.16794081467E+03  0.43849828467E+03  0.91671013199E+02 0.  0.
        254    2    1    2    0    0 -0.22519238065E+03  0.32397753851E+03  0.70656742962E+03  0.11924599499E+04  0.87581399032E+03 0.  0.
        -24    2    4    4    0    0 -0.28639749016E+02  0.32975807604E+02  0.81199075287E+03  0.81708892797E+03  0.79985588457E+02 0.  0.
         24    2    4    4    0    0 -0.19655263164E+03  0.29100173091E+03 -0.10542332325E+03  0.37537102188E+03  0.80463548177E+02 0.  0.
         13    1    3    3    0    0  0.55558540355E+02 -0.56020071917E+02  0.72908257155E+02  0.10742724899E+03  0.00000000000E+00 0.  1.
        -13    1    3    3    0    0  0.16963384030E+03 -0.26795746660E+03  0.95032557517E+02  0.33107103568E+03  0.00000000000E+00 0. -1.
          2    1    6    6  502    0  0.60773328198E+01  0.93277916720E+01 -0.11262218565E+02  0.15836010820E+02  0.00000000000E+00 0. -1.
          3    1    5    5  503    0 -0.39902371081E+02  0.53702746626E+02  0.55507978253E+03  0.55909726273E+03  0.00000000000E+00 0. -1.
         -4    1    5    5    0  503  0.11262622065E+02 -0.20726939022E+02  0.25691097034E+03  0.25799166525E+03  0.00000000000E+00 0.  1.
         -1    1    6    6    0  502 -0.20262996446E+03  0.28167393924E+03 -0.94161104684E+02  0.35953501106E+03  0.00000000000E+00 0.  1.
<mgrwt>
<rscale>  0 0.13766845E+04</rscale>
<asrwt>0</asrwt>
<pdfrwt beam="1">  1        2 0.58188461E-01 0.13766845E+04</pdfrwt>
<pdfrwt beam="2">  1       -2 0.19272819E+00 0.13766845E+04</pdfrwt>
<totfact> 0.12258805E+01</totfact>
</mgrwt>
</event>
<event>
12    1  0.1495204E-007  0.1817026E+04  0.7818608E-02  0.8697297E-01
          1   -1    0    0  501    0  0.00000000000E+00  0.00000000000E+00  0.19229392424E+04  0.19229392424E+04  0.00000000000E+00 0. -1.
         -1   -1    0    0    0  501 -0.00000000000E+00 -0.00000000000E+00 -0.42923677897E+03  0.42923677897E+03  0.00000000000E+00 0.  1.
         23    2    1    2    0    0  0.31610266745E+03 -0.31012405831E+03 -0.10674718720E+03  0.46742623770E+03  0.10485465083E+03 0.  0.
        254    2    1    2    0    0 -0.31610266745E+03  0.31012405831E+03  0.16004496507E+04  0.18847497837E+04  0.89148462408E+03 0.  0.
        -24    2    4    4    0    0 -0.41346926669E+03 -0.20264806158E+03  0.75075895510E+03  0.88428721092E+03  0.79383823130E+02 0.  0.
         24    2    4    4    0    0  0.97366599241E+02  0.51277211990E+03  0.84969069558E+03  0.10004625728E+04  0.80842933097E+02 0.  0.
         11    1    3    3    0    0  0.10750234054E+03 -0.11988296734E+03  0.11296413864E+02  0.16141960242E+03  0.00000000000E+00 0. -1.
        -11    1    3    3    0    0  0.20860032691E+03 -0.19024109098E+03 -0.11804360106E+03  0.30600663528E+03  0.00000000000E+00 0.  1.
          4    1    6    6  502    0  0.38571321269E+02  0.39132469003E+03  0.63048879268E+03  0.74306048041E+03  0.00000000000E+00 0. -1.
          1    1    5    5  503    0 -0.16151900193E+03 -0.11917467688E+03  0.35367204320E+03  0.40666313545E+03  0.00000000000E+00 0. -1.
         -2    1    5    5    0  503 -0.25195026476E+03 -0.83473384704E+02  0.39708691190E+03  0.47762407547E+03  0.00000000000E+00 0.  1.
         -3    1    6    6    0  502  0.58795277972E+02  0.12144742986E+03  0.21920190290E+03  0.25740209239E+03  0.00000000000E+00 0.  1.
<mgrwt>
<rscale>  0 0.18170264E+04</rscale>
<asrwt>0</asrwt>
<pdfrwt beam="1">  1        1 0.29583680E+00 0.18170264E+04</pdfrwt>
<pdfrwt beam="2">  1       -1 0.66036429E-01 0.18170264E+04</pdfrwt>
<totfact> 0.73610810E+00</totfact>
</mgrwt>
</event>
<event>
12    1  0.1495204E-007  0.1669854E+04  0.7818608E-02  0.8778747E-01
          1   -1    0    0  501    0  0.00000000000E+00  0.00000000000E+00  0.60336814666E+03  0.60336814666E+03  0.00000000000E+00 0. -1.
         -1   -1    0    0    0  501 -0.00000000000E+00 -0.00000000000E+00 -0.11553532120E+04  0.11553532120E+04  0.00000000000E+00 0.  1.
         23    2    1    2    0    0  0.57966399186E+03  0.11576833495E+03 -0.18788128459E+03  0.62688959278E+03  0.90986447310E+02 0.  0.
        254    2    1    2    0    0 -0.57966399186E+03 -0.11576833495E+03 -0.36410378071E+03  0.11318317658E+04  0.89390096331E+03 0.  0.
        -24    2    4    4    0    0  0.13677392298E+03 -0.28775025722E+03 -0.14533445386E+03  0.35924423264E+03  0.80168564121E+02 0.  0.
         24    2    4    4    0    0 -0.71643791485E+03  0.17198192227E+03 -0.21876932685E+03  0.77258753320E+03  0.78551961584E+02 0.  0.
         13    1    3    3    0    0  0.81313502982E+02 -0.12167456516E+02 -0.11679813511E+02  0.83044270175E+02  0.00000000000E+00 0. -1.
        -13    1    3    3    0    0  0.49835048888E+03  0.12793579147E+03 -0.17620147108E+03  0.54384532261E+03  0.00000000000E+00 0.  1.
          4    1    6    6  502    0 -0.62499133895E+03  0.16943562163E+03 -0.20969064873E+03  0.68065613331E+03  0.00000000000E+00 0. -1.
          3    1    5    5  503    0  0.13770188272E+03 -0.23375576360E+03 -0.13910632347E+03  0.30488380533E+03  0.00000000000E+00 0. -1.
         -4    1    5    5    0  503 -0.92795973765E+00 -0.53994493616E+02 -0.62281303928E+01  0.54360427319E+02  0.00000000000E+00 0.  1.
         -1    1    6    6    0  502 -0.91446575892E+02  0.25463006351E+01 -0.90786781147E+01  0.91931399889E+02  0.00000000000E+00 0.  1.
<mgrwt>
<rscale>  0 0.16698543E+04</rscale>
<asrwt>0</asrwt>
<pdfrwt beam="1">  1        1 0.92825868E-01 0.16698543E+04</pdfrwt>
<pdfrwt beam="2">  1       -1 0.17774665E+00 0.16698543E+04</pdfrwt>
<totfact> 0.70009955E+00</totfact>
</mgrwt>
</event>
<event>
12    1  0.1495204E-007  0.1853785E+04  0.7818608E-02  0.8678209E-01
         -2   -1    0    0    0  501 -0.00000000000E+00  0.00000000000E+00  0.92650000670E+03  0.92650000670E+03  0.00000000000E+00 0.  1.
          2   -1    0    0  501    0  0.00000000000E+00 -0.00000000000E+00 -0.92728501557E+03  0.92728501557E+03  0.00000000000E+00 0. -1.
         23    2    1    2    0    0  0.37772145415E+03 -0.34454968927E+03  0.48799819086E+03  0.71336416356E+03  0.96737842953E+02 0.  0.
        254    2    1    2    0    0 -0.37772145415E+03  0.34454968927E+03 -0.48878319973E+03  0.11404208587E+04  0.89457405135E+03 0.  0.
        -24    2    4    4    0    0 -0.62622462353E+03  0.35465007756E+03 -0.19981405148E+03  0.75126911510E+03  0.80905324307E+02 0.  0.
         24    2    4    4    0    0  0.24850316938E+03 -0.10100388294E+02 -0.28896914825E+03  0.38915174362E+03  0.77974790063E+02 0.  0.
         13    1    3    3    0    0  0.17681878367E+03 -0.22456818512E+03  0.28390876756E+03  0.40286466751E+03  0.00000000000E+00 0.  1.
        -13    1    3    3    0    0  0.20090267048E+03 -0.11998150415E+03  0.20408942330E+03  0.31049949605E+03  0.00000000000E+00 0. -1.
          4    1    6    6  502    0  0.16478637808E+03 -0.39395852330E+02 -0.16314006866E+03  0.23520473121E+03  0.00000000000E+00 0. -1.
          3    1    5    5  503    0 -0.28512831488E+03  0.14015931486E+03 -0.51246059700E+02  0.32182129843E+03  0.00000000000E+00 0. -1.
         -4    1    5    5    0  503 -0.34109630865E+03  0.21449076270E+03 -0.14856799178E+03  0.42944781666E+03  0.00000000000E+00 0.  1.
         -3    1    6    6    0  502  0.83716791298E+02  0.29295464036E+02 -0.12582907959E+03  0.15394701241E+03  0.00000000000E+00 0.  1.
<mgrwt>
<rscale>  0 0.18537849E+04</rscale>
<asrwt>0</asrwt>
<pdfrwt beam="1">  1        2 0.14265923E+00 0.18537849E+04</pdfrwt>
<pdfrwt beam="2">  1       -2 0.14253846E+00 0.18537849E+04</pdfrwt>
<totfact> 0.90541492E+00</totfact>
</mgrwt>
</event>
<event>
12    1  0.1495204E-007  0.1701161E+04  0.7818608E-02  0.8760703E-01
         -2   -1    0    0    0  501 -0.00000000000E+00  0.00000000000E+00  0.23926103573E+04  0.23926103573E+04  0.00000000000E+00 0. -1.
          2   -1    0    0  501    0  0.00000000000E+00 -0.00000000000E+00 -0.30238387205E+03  0.30238387205E+03  0.00000000000E+00 0.  1.
         23    2    1    2    0    0 -0.57468323735E+03  0.85842363114E+02  0.47181989970E+03  0.75384364331E+03  0.89646451176E+02 0.  0.
        254    2    1    2    0    0  0.57468323735E+03 -0.85842363114E+02  0.16184065856E+04  0.19411505861E+04  0.90066419212E+03 0.  0.
        -24    2    4    4    0    0  0.59752750730E+03  0.17177641371E+03  0.15351654560E+04  0.16583700065E+04  0.83137493400E+02 0.  0.
         24    2    4    4    0    0 -0.22844269944E+02 -0.25761877682E+03  0.83241129552E+02  0.28278057957E+03  0.78399462313E+02 0.  0.
         13    1    3    3    0    0 -0.17559260614E+03  0.11386981211E+02  0.19397060182E+03  0.26189123896E+03  0.00000000000E+00 0. -1.
        -13    1    3    3    0    0 -0.39909063122E+03  0.74455381902E+02  0.27784929788E+03  0.49195240436E+03  0.00000000000E+00 0.  1.
          4    1    6    6  502    0 -0.31383025818E+02 -0.25902108369E+03  0.83975965448E+02  0.27409629490E+03  0.00000000000E+00 0. -1.
          3    1    5    5  503    0  0.39844467283E+03  0.12882659867E+03  0.11253883586E+04  0.12007720048E+04  0.00000000000E+00 0. -1.
         -4    1    5    5    0  503  0.19908283447E+03  0.42949815044E+02  0.40977709745E+03  0.45759800173E+03  0.00000000000E+00 0.  1.
         -3    1    6    6    0  502  0.85387558732E+01  0.14023068662E+01 -0.73483589609E+00  0.86842846685E+01  0.00000000000E+00 0.  1.
<mgrwt>
<rscale>  0 0.17011605E+04</rscale>
<asrwt>0</asrwt>
<pdfrwt beam="1">  1        2 0.46520597E-01 0.17011605E+04</pdfrwt>
<pdfrwt beam="2">  1       -2 0.36809389E+00 0.17011605E+04</pdfrwt>
<totfact> 0.12429816E+00</totfact>
</mgrwt>
</event>
<event>
12    1  0.1495204E-007  0.1284708E+04  0.7818608E-02  0.9041780E-01
         -2   -1    0    0    0  501 -0.00000000000E+00  0.00000000000E+00  0.38076268249E+03  0.38076268249E+03  0.00000000000E+00 0. -1.
          2   -1    0    0  501    0  0.00000000000E+00 -0.00000000000E+00 -0.10836639919E+04  0.10836639919E+04  0.00000000000E+00 0.  1.
         23    2    1    2    0    0  0.17459411575E+02  0.32254194723E+03 -0.17632267803E+03  0.37941530333E+03  0.92347966106E+02 0.  0.
        254    2    1    2    0    0 -0.17459411575E+02 -0.32254194723E+03 -0.52657863141E+03  0.10850113711E+04  0.89197896924E+03 0.  0.
        -24    2    4    4    0    0  0.15478292264E+03 -0.68077773508E+02 -0.69923436981E+03  0.72317421019E+03  0.73891122490E+02 0.  0.
         24    2    4    4    0    0 -0.17224233421E+03 -0.25446417372E+03  0.17265573840E+03  0.36183716089E+03  0.81833303724E+02 0.  0.
         13    1    3    3    0    0  0.56848235883E+01  0.20389244490E+03 -0.15965125038E+03  0.25902310332E+03  0.00000000000E+00 0.  1.
        -13    1    3    3    0    0  0.11774587986E+02  0.11864950233E+03 -0.16671427653E+02  0.12039220001E+03  0.00000000000E+00 0. -1.
          4    1    6    6  502    0 -0.10289520720E+03 -0.21246913538E+03  0.11680280901E+03  0.26338840777E+03  0.00000000000E+00 0. -1.
          1    1    5    5  503    0  0.77044137222E+02 -0.30294666519E+01 -0.39630816422E+03  0.40373894756E+03  0.00000000000E+00 0. -1.
         -2    1    5    5    0  503  0.77738785418E+02 -0.65048306856E+02 -0.30292620558E+03  0.31943526263E+03  0.00000000000E+00 0.  1.
         -3    1    6    6    0  502 -0.69347127015E+02 -0.41995038338E+02  0.55852929391E+02  0.98448753125E+02  0.00000000000E+00 0.  1.
<mgrwt>
<rscale>  0 0.12847082E+04</rscale>
<asrwt>0</asrwt>
<pdfrwt beam="1">  1        2 0.16671753E+00 0.12847082E+04</pdfrwt>
<pdfrwt beam="2">  1       -2 0.58578875E-01 0.12847082E+04</pdfrwt>
<totfact> 0.59614668E+01</totfact>
</mgrwt>
</event>
<event>
12    1  0.1625938E-007  0.1666404E+04  0.7818608E-02  0.8780761E-01
          2   -1    0    0  501    0  0.00000000000E+00  0.00000000000E+00  0.13576343379E+04  0.13576343379E+04  0.00000000000E+00 0. -1.
         -2   -1    0    0    0  501 -0.00000000000E+00 -0.00000000000E+00 -0.51134930104E+03  0.51134930104E+03  0.00000000000E+00 0.  1.
         23    2    1    2    0    0 -0.15845458717E+03 -0.24305905411E+03  0.86470510855E+03  0.91644828600E+03  0.89313919276E+02 0.  0.
        254    2    1    2    0    0  0.15845458717E+03  0.24305905411E+03 -0.18420071721E+02  0.95253535291E+03  0.90708254284E+03 0.  0.
        -24    2    4    4    0    0 -0.10409023557E+03  0.11093812380E+03  0.39993355726E+03  0.43525751533E+03  0.79750924618E+02 0.  0.
         24    2    4    4    0    0  0.26254482274E+03  0.13212093031E+03 -0.41835362898E+03  0.51727783758E+03  0.78554937392E+02 0.  0.
         11    1    3    3    0    0 -0.97968709928E+02 -0.19419350924E+03  0.53135215347E+03  0.57414640829E+03  0.00000000000E+00 0. -1.
        -11    1    3    3    0    0 -0.60485877246E+02 -0.48865544869E+02  0.33335295508E+03  0.34230187771E+03  0.00000000000E+00 0.  1.
          2    1    6    6  502    0  0.23554586566E+03  0.96143973275E+02 -0.38420665597E+03  0.46080394195E+03  0.00000000000E+00 0. -1.
          1    1    5    5  503    0 -0.91878220851E+02  0.10841071031E+03  0.39803614599E+03  0.42264318650E+03  0.00000000000E+00 0. -1.
         -2    1    5    5    0  503 -0.12212014720E+02  0.25274134907E+01  0.18974112692E+01  0.12614328836E+02  0.00000000000E+00 0.  1.
         -1    1    6    6    0  502  0.26998957087E+02  0.35976957035E+02 -0.34146973014E+02  0.56473895627E+02  0.00000000000E+00 0.  1.
<mgrwt>
<rscale>  0 0.16664038E+04</rscale>
<asrwt>0</asrwt>
<pdfrwt beam="1">  1        2 0.20886682E+00 0.16664038E+04</pdfrwt>
<pdfrwt beam="2">  1       -2 0.78669124E-01 0.16664038E+04</pdfrwt>
<totfact> 0.20960984E+01</totfact>
</mgrwt>
</event>
<event>
12    1  0.1495204E-007  0.3055394E+04  0.7818608E-02  0.8228087E-01
         -2   -1    0    0    0  501 -0.00000000000E+00  0.00000000000E+00  0.24050626700E+04  0.24050626700E+04  0.00000000000E+00 0.  1.
          2   -1    0    0  501    0  0.00000000000E+00 -0.00000000000E+00 -0.97039405352E+03  0.97039405352E+03  0.00000000000E+00 0. -1.
         23    2    1    2    0    0 -0.41162457919E+03  0.57181303415E+03 -0.66492103275E+03  0.97304686302E+03  0.91078414700E+02 0.  0.
        254    2    1    2    0    0  0.41162457919E+03 -0.57181303415E+03  0.20995896493E+04  0.24024098605E+04  0.93107008461E+03 0.  0.
        -24    2    4    4    0    0  0.65514972563E+02  0.16373189327E+03  0.10733738562E+04  0.10907255813E+04  0.80315091623E+02 0.  0.
         24    2    4    4    0    0  0.34610960662E+03 -0.73554492742E+03  0.10262157931E+04  0.13116842793E+04  0.81108535204E+02 0.  0.
         13    1    3    3    0    0 -0.98649500644E+02  0.17353514316E+03 -0.14164861099E+03  0.24476621271E+03  0.00000000000E+00 0.  1.
        -13    1    3    3    0    0 -0.31297507854E+03  0.39827789099E+03 -0.52327242176E+03  0.72828065031E+03  0.00000000000E+00 0. -1.
          2    1    6    6  502    0  0.10219137067E+03 -0.25042547399E+03  0.39969021285E+03  0.48260569879E+03  0.00000000000E+00 0. -1.
          1    1    5    5  503    0  0.23175089792E+01  0.10273386146E+03  0.47913558665E+03  0.49003114955E+03  0.00000000000E+00 0. -1.
         -2    1    5    5    0  503  0.63197463583E+02  0.60998031813E+02  0.59423826956E+03  0.60069443172E+03  0.00000000000E+00 0.  1.
         -1    1    6    6    0  502  0.24391823596E+03 -0.48511945343E+03  0.62652558021E+03  0.82907858047E+03  0.00000000000E+00 0.  1.
<mgrwt>
<rscale>  0 0.30553943E+04</rscale>
<asrwt>0</asrwt>
<pdfrwt beam="1">  1        2 0.14929139E+00 0.30553943E+04</pdfrwt>
<pdfrwt beam="2">  1       -2 0.37000964E+00 0.30553943E+04</pdfrwt>
<totfact> 0.26029422E-01</totfact>
</mgrwt>
</event>
<event>
12    1  0.1495204E-007  0.1586532E+04  0.7818608E-02  0.8828865E-01
          2   -1    0    0  501    0  0.00000000000E+00  0.00000000000E+00  0.65672279357E+03  0.65672279357E+03  0.00000000000E+00 0. -1.
         -2   -1    0    0    0  501 -0.00000000000E+00 -0.00000000000E+00 -0.95819870381E+03  0.95819870381E+03  0.00000000000E+00 0.  1.
         23    2    1    2    0    0  0.86690028472E+02 -0.45773005908E+03  0.16415115839E+03  0.50235568790E+03  0.91562363090E+02 0.  0.
        254    2    1    2    0    0 -0.86690028472E+02  0.45773005908E+03 -0.46562706864E+03  0.11125658095E+04  0.89663936192E+03 0.  0.
        -24    2    4    4    0    0  0.14614999445E+03  0.52368204108E+03 -0.60960480231E+03  0.82063879982E+03  0.78913393979E+02 0.  0.
         24    2    4    4    0    0 -0.23284002293E+03 -0.65951981992E+02  0.14397773367E+03  0.29192700966E+03  0.76991239559E+02 0.  0.
         13    1    3    3    0    0  0.43344644722E+02 -0.18128190212E+03  0.11277321997E+03  0.21785243952E+03  0.00000000000E+00 0.  1.
        -13    1    3    3    0    0  0.43345383750E+02 -0.27644815696E+03  0.51377938428E+02  0.28450324838E+03  0.00000000000E+00 0. -1.
          4    1    6    6  502    0 -0.18069177353E+03 -0.46585495816E+02  0.69844589860E+02  0.19924354990E+03  0.00000000000E+00 0. -1.
          1    1    5    5  503    0  0.67468081279E+02  0.20079398515E+03 -0.18348151123E+03  0.28024209432E+03  0.00000000000E+00 0. -1.
         -2    1    5    5    0  503  0.78681913175E+02  0.32288805593E+03 -0.42612329108E+03  0.54039670550E+03  0.00000000000E+00 0.  1.
         -3    1    6    6    0  502 -0.52148249395E+02 -0.19366486176E+02  0.74133143814E+02  0.92683459762E+02  0.00000000000E+00 0.  1.
<mgrwt>
<rscale>  0 0.15865320E+04</rscale>
<asrwt>0</asrwt>
<pdfrwt beam="1">  1        2 0.10103428E+00 0.15865320E+04</pdfrwt>
<pdfrwt beam="2">  1       -2 0.14741519E+00 0.15865320E+04</pdfrwt>
<totfact> 0.13360581E+01</totfact>
</mgrwt>
</event>
<event>
12    1  0.1495204E-007  0.1799484E+04  0.7818608E-02  0.8706574E-01
         -2   -1    0    0    0  501 -0.00000000000E+00  0.00000000000E+00  0.87884149110E+03  0.87884149110E+03  0.00000000000E+00 0.  1.
          2   -1    0    0  501    0  0.00000000000E+00 -0.00000000000E+00 -0.92113944107E+03  0.92113944107E+03  0.00000000000E+00 0. -1.
         23    2    1    2    0    0 -0.76324938217E+02  0.37766073160E+03 -0.56517928145E+03  0.69002561410E+03  0.90854848828E+02 0.  0.
        254    2    1    2    0    0  0.76324938217E+02 -0.37766073160E+03  0.52288133148E+03  0.11099553181E+04  0.90007932812E+03 0.  0.
        -24    2    4    4    0    0  0.37138155256E+03 -0.62678334064E+01 -0.24985133817E+02  0.38056987098E+03  0.79029275996E+02 0.  0.
         24    2    4    4    0    0 -0.29505661434E+03 -0.37139289819E+03  0.54786646530E+03  0.72938544709E+03  0.82791159764E+02 0.  0.
         11    1    3    3    0    0 -0.51646148809E+02  0.22479236126E+03 -0.41227220272E+03  0.47240586311E+03  0.00000000000E+00 0. -1.
        -11    1    3    3    0    0 -0.24678789408E+02  0.15286837033E+03 -0.15290707873E+03  0.21761975099E+03  0.00000000000E+00 0.  1.
          4    1    6    6  502    0 -0.23920441795E+03 -0.27071834079E+03  0.45804144825E+03  0.58336021626E+03  0.00000000000E+00 0. -1.
          1    1    5    5  503    0  0.28419087358E+03  0.99465572505E+01  0.11678397671E+02  0.28460458816E+03  0.00000000000E+00 0. -1.
         -2    1    5    5    0  503  0.87190678980E+02 -0.16214390657E+02 -0.36663531487E+02  0.95965282819E+02  0.00000000000E+00 0.  1.
         -3    1    6    6    0  502 -0.55852196396E+02 -0.10067455740E+03  0.89825017051E+02  0.14602523083E+03  0.00000000000E+00 0.  1.
<mgrwt>
<rscale>  0 0.17994839E+04</rscale>
<asrwt>0</asrwt>
<pdfrwt beam="1">  1        2 0.14171376E+00 0.17994839E+04</pdfrwt>
<pdfrwt beam="2">  1       -2 0.13520638E+00 0.17994839E+04</pdfrwt>
<totfact> 0.10526540E+01</totfact>
</mgrwt>
</event>
<event>
12    1  0.1495204E-007  0.5141199E+04  0.7818608E-02  0.7807088E-01
          2   -1    0    0  501    0  0.00000000000E+00  0.00000000000E+00  0.23866019750E+04  0.23866019750E+04  0.00000000000E+00 0. -1.
         -2   -1    0    0    0  501 -0.00000000000E+00 -0.00000000000E+00 -0.27687823349E+04  0.27687823349E+04  0.00000000000E+00 0.  1.
         23    2    1    2    0    0 -0.77789794659E+03 -0.72767905089E+03  0.20731248703E+04  0.23325455151E+04  0.90993602243E+02 0.  0.
        254    2    1    2    0    0  0.77789794659E+03  0.72767905089E+03 -0.24553052302E+04  0.28228387949E+04  0.89735894266E+03 0.  0.
        -24    2    4    4    0    0  0.73320514447E+01  0.65956349685E+02 -0.12077375306E+04  0.12121159713E+04  0.78684090192E+02 0.  0.
         24    2    4    4    0    0  0.77056589514E+03  0.66172270121E+03 -0.12475676996E+04  0.16107228236E+04  0.79712716811E+02 0.  0.
         11    1    3    3    0    0 -0.41898228736E+03 -0.41154995472E+03  0.12355858142E+04  0.13680613387E+04  0.00000000000E+00 0.  1.
        -11    1    3    3    0    0 -0.35891565922E+03 -0.31612909617E+03  0.83753905613E+03  0.96448417635E+03  0.00000000000E+00 0. -1.
          4    1    6    6  502    0  0.65163479005E+03  0.54776957643E+03 -0.99864159023E+03  0.13122364247E+04  0.00000000000E+00 0. -1.
          1    1    5    5  503    0 -0.16361648727E+02  0.75595166172E+02 -0.90095806871E+03  0.90427195814E+03  0.00000000000E+00 0. -1.
         -2    1    5    5    0  503  0.23693700172E+02 -0.96388164873E+01 -0.30677946185E+03  0.30784401313E+03  0.00000000000E+00 0.  1.
         -3    1    6    6    0  502  0.11893110509E+03  0.11395312477E+03 -0.24892610940E+03  0.29848639893E+03  0.00000000000E+00 0.  1.
<mgrwt>
<rscale>  0 0.51411988E+04</rscale>
<asrwt>0</asrwt>
<pdfrwt beam="1">  1        2 0.36716953E+00 0.51411988E+04</pdfrwt>
<pdfrwt beam="2">  1       -2 0.42596651E+00 0.51411988E+04</pdfrwt>
<totfact> 0.14611591E-02</totfact>
</mgrwt>
</event>
<event>
12    1  0.1495204E-007  0.1842939E+04  0.7818608E-02  0.8683793E-01
          2   -1    0    0  501    0  0.00000000000E+00  0.00000000000E+00  0.18466281425E+04  0.18466281425E+04  0.00000000000E+00 0. -1.
         -2   -1    0    0    0  501 -0.00000000000E+00 -0.00000000000E+00 -0.45981411515E+03  0.45981411515E+03  0.00000000000E+00 0.  1.
         23    2    1    2    0    0 -0.58711624088E+03 -0.29192399667E+03  0.83096350116E+03  0.10625974730E+04  0.93209169532E+02 0.  0.
        254    2    1    2    0    0  0.58711624088E+03  0.29192399667E+03  0.55585052616E+03  0.12438447846E+04  0.89902999983E+03 0.  0.
        -24    2    4    4    0    0 -0.21278204832E+03  0.16550785706E+03  0.24437976040E+03  0.37222896418E+03  0.78510404682E+02 0.  0.
         24    2    4    4    0    0  0.79989828920E+03  0.12641613961E+03  0.31147076576E+03  0.87161582041E+03  0.82956537105E+02 0.  0.
         13    1    3    3    0    0 -0.22423545619E+03 -0.14655263938E+03  0.39217513067E+03  0.47493215204E+03  0.00000000000E+00 0. -1.
        -13    1    3    3    0    0 -0.36288078468E+03 -0.14537135730E+03  0.43878837048E+03  0.58766532098E+03  0.00000000000E+00 0.  1.
          4    1    6    6  502    0  0.65351147010E+03  0.99385571968E+02  0.28748418302E+03  0.72083416189E+03  0.00000000000E+00 0. -1.
          3    1    5    5  503    0 -0.60091306057E+02  0.82213033128E+02  0.57555262110E+02  0.11697245862E+03  0.00000000000E+00 0. -1.
         -2    1    5    5    0  503 -0.15269074227E+03  0.83294823937E+02  0.18682449829E+03  0.25525650556E+03  0.00000000000E+00 0.  1.
         -1    1    6    6    0  502  0.14638681911E+03  0.27030567641E+02  0.23986582740E+02  0.15078165852E+03  0.00000000000E+00 0.  1.
<mgrwt>
<rscale>  0 0.18429386E+04</rscale>
<asrwt>0</asrwt>
<pdfrwt beam="1">  1        2 0.28409663E+00 0.18429386E+04</pdfrwt>
<pdfrwt beam="2">  1       -2 0.70740634E-01 0.18429386E+04</pdfrwt>
<totfact> 0.13892720E+01</totfact>
</mgrwt>
</event>
<event>
12    1  0.1495204E-007  0.1957269E+04  0.7818608E-02  0.8626863E-01
          2   -1    0    0  501    0  0.00000000000E+00  0.00000000000E+00  0.25246420192E+04  0.25246420192E+04  0.00000000000E+00 0. -1.
         -2   -1    0    0    0  501 -0.00000000000E+00 -0.00000000000E+00 -0.37935106501E+03  0.37935106501E+03  0.00000000000E+00 0.  1.
         23    2    1    2    0    0  0.95964636772E+02  0.76130986900E+03  0.89334247799E+03  0.11811627501E+04  0.91009510399E+02 0.  0.
        254    2    1    2    0    0 -0.95964636772E+02 -0.76130986900E+03  0.12519484762E+04  0.17228303341E+04  0.90109236209E+03 0.  0.
        -24    2    4    4    0    0 -0.28991354796E+03 -0.83955367420E+03  0.11963432234E+04  0.14922249137E+04  0.81227137139E+02 0.  0.
         24    2    4    4    0    0  0.19394891119E+03  0.78243805200E+02  0.55605252787E+02  0.23060542041E+03  0.79678369581E+02 0.  0.
         13    1    3    3    0    0  0.38524506946E+01  0.11838769925E+03  0.93978294873E+02  0.15120320306E+03  0.00000000000E+00 0.  1.
        -13    1    3    3    0    0  0.92112186077E+02  0.64292216975E+03  0.79936418311E+03  0.10299595470E+04  0.00000000000E+00 0. -1.
          2    1    6    6  502    0  0.93280313323E+02  0.22948028210E+02  0.64023326249E+02  0.11544182585E+03  0.00000000000E+00 0. -1.
          1    1    5    5  503    0 -0.92626403947E+02 -0.17601750712E+03  0.29325659141E+03  0.35434621760E+03  0.00000000000E+00 0. -1.
         -4    1    5    5    0  503 -0.19728714402E+03 -0.66353616708E+03  0.90308663196E+03  0.11378786961E+04  0.00000000000E+00 0.  1.
         -1    1    6    6    0  502  0.10066859787E+03  0.55295776990E+02 -0.84180734619E+01  0.11516359455E+03  0.00000000000E+00 0.  1.
<mgrwt>
<rscale>  0 0.19572692E+04</rscale>
<asrwt>0</asrwt>
<pdfrwt beam="1">  1        2 0.38840645E+00 0.19572692E+04</pdfrwt>
<pdfrwt beam="2">  1       -2 0.58361704E-01 0.19572692E+04</pdfrwt>
<totfact> 0.86285188E+00</totfact>
</mgrwt>
</event>
<event>
12    1  0.1495204E-007  0.1298643E+04  0.7818608E-02  0.9030642E-01
          1   -1    0    0  501    0  0.00000000000E+00  0.00000000000E+00  0.17524855551E+04  0.17524855551E+04  0.00000000000E+00 0. -1.
         -1   -1    0    0    0  501 -0.00000000000E+00 -0.00000000000E+00 -0.24058313551E+03  0.24058313551E+03  0.00000000000E+00 0.  1.
         23    2    1    2    0    0  0.31910712146E+03  0.51137123164E+02  0.42741839719E+03  0.54392608810E+03  0.93406331331E+02 0.  0.
        254    2    1    2    0    0 -0.31910712146E+03 -0.51137123164E+02  0.10844840224E+04  0.14491426025E+04  0.90524268969E+03 0.  0.
        -24    2    4    4    0    0 -0.36917145919E+03  0.30592377569E+03  0.92933953578E+03  0.10488273957E+04  0.80560600367E+02 0.  0.
         24    2    4    4    0    0  0.50064337732E+02 -0.35706089885E+03  0.15514448665E+03  0.40031520686E+03  0.78635422735E+02 0.  0.
         11    1    3    3    0    0  0.33423416404E+02 -0.19442729493E+02  0.78318430888E+02  0.87343695314E+02  0.00000000000E+00 0.  1.
        -11    1    3    3    0    0  0.28568370505E+03  0.70579852656E+02  0.34909996630E+03  0.45658239279E+03  0.00000000000E+00 0. -1.
          4    1    6    6  502    0  0.52341426277E+02 -0.34764537412E+03  0.13253146613E+03  0.37571467973E+03  0.00000000000E+00 0. -1.
          1    1    5    5  503    0 -0.23156248176E+03  0.21756180279E+03  0.54007909226E+03  0.62660972455E+03  0.00000000000E+00 0. -1.
         -2    1    5    5    0  503 -0.13760897742E+03  0.88361972892E+02  0.38926044352E+03  0.42221767112E+03  0.00000000000E+00 0.  1.
         -3    1    6    6    0  502 -0.22770885446E+01 -0.94155247332E+01  0.22613020521E+02  0.24600527135E+02  0.00000000000E+00 0.  1.
<mgrwt>
<rscale>  0 0.12986431E+04</rscale>
<asrwt>0</asrwt>
<pdfrwt beam="1">  1        1 0.26961315E+00 0.12986431E+04</pdfrwt>
<pdfrwt beam="2">  1       -1 0.37012791E-01 0.12986431E+04</pdfrwt>
<totfact> 0.30267159E+01</totfact>
</mgrwt>
</event>
<event>
12    1  0.1495204E-007  0.1117085E+04  0.7818608E-02  0.9188698E-01
         -1   -1    0    0    0  501 -0.00000000000E+00  0.00000000000E+00  0.14147504775E+03  0.14147504775E+03  0.00000000000E+00 0.  1.
          1   -1    0    0  501    0  0.00000000000E+00 -0.00000000000E+00 -0.22051231094E+04  0.22051231094E+04  0.00000000000E+00 0. -1.
         23    2    1    2    0    0  0.13983198986E+03  0.90937573285E+02 -0.21526151619E+03  0.28753341516E+03  0.92278474525E+02 0.  0.
        254    2    1    2    0    0 -0.13983198986E+03 -0.90937573285E+02 -0.18483865454E+04  0.20590647420E+04  0.89184761178E+03 0.  0.
        -24    2    4    4    0    0 -0.44321898025E+03  0.13243048879E+03 -0.66177918133E+03  0.81148142108E+03  0.81052533009E+02 0.  0.
         24    2    4    4    0    0  0.30338699039E+03 -0.22336806207E+03 -0.11866073641E+04  0.12475833209E+04  0.80561460390E+02 0.  0.
         13    1    3    3    0    0  0.42179602569E+02 -0.79555483071E+01 -0.18746131015E+02  0.46838307503E+02  0.00000000000E+00 0. -1.
        -13    1    3    3    0    0  0.97652387295E+02  0.98893121592E+02 -0.19651538517E+03  0.24069510766E+03  0.00000000000E+00 0.  1.
          4    1    6    6  502    0  0.73303041233E+02 -0.15131948165E+02 -0.24142332000E+03  0.25275982898E+03  0.00000000000E+00 0. -1.
          3    1    5    5  503    0 -0.27791295419E+02  0.14414659992E+02 -0.87541786419E+02  0.92971516569E+02  0.00000000000E+00 0. -1.
         -4    1    5    5    0  503 -0.41542768483E+03  0.11801582880E+03 -0.57423739491E+03  0.71850990451E+03  0.00000000000E+00 0.  1.
         -3    1    6    6    0  502  0.23008394916E+03 -0.20823611391E+03 -0.94518404410E+03  0.99482349189E+03  0.00000000000E+00 0.  1.
<mgrwt>
<rscale>  0 0.11170853E+04</rscale>
<asrwt>0</asrwt>
<pdfrwt beam="1">  1        1 0.33924971E+00 0.11170853E+04</pdfrwt>
<pdfrwt beam="2">  1       -1 0.21765392E-01 0.11170853E+04</pdfrwt>
<totfact> 0.38338324E+01</totfact>
</mgrwt>
</event>
<event>
12    1  0.1495204E-007  0.2105004E+04  0.7818608E-02  0.8559042E-01
          1   -1    0    0  501    0  0.00000000000E+00  0.00000000000E+00  0.16906606830E+04  0.16906606830E+04  0.00000000000E+00 0. -1.
         -1   -1    0    0    0  501 -0.00000000000E+00 -0.00000000000E+00 -0.65522345411E+03  0.65522345411E+03  0.00000000000E+00 0.  1.
         23    2    1    2    0    0 -0.30696205025E+03 -0.74673154675E+03  0.11361284290E+03  0.82036966205E+03  0.90910951686E+02 0.  0.
        254    2    1    2    0    0  0.30696205025E+03  0.74673154675E+03  0.92182438600E+03  0.15255144751E+04  0.90862561699E+03 0.  0.
        -24    2    4    4    0    0 -0.11154486762E+03 -0.80415861076E+02 -0.62349978117E+02  0.17115119683E+03  0.80599281630E+02 0.  0.
         24    2    4    4    0    0  0.41850691787E+03  0.82714740783E+03  0.98417436412E+03  0.13543632783E+04  0.79873875068E+02 0.  0.
         13    1    3    3    0    0 -0.94111158022E+01 -0.96097544016E+02  0.22524527672E+02  0.99149691948E+02  0.00000000000E+00 0. -1.
        -13    1    3    3    0    0 -0.29755093444E+03 -0.65063400273E+03  0.91088315230E+02  0.72121997010E+03  0.00000000000E+00 0.  1.
          2    1    6    6  502    0  0.38852968670E+03  0.79931578623E+03  0.92866627184E+03  0.12854112525E+04  0.00000000000E+00 0. -1.
          1    1    5    5  503    0 -0.82174694036E+02 -0.69081901919E+02 -0.71340676589E+01  0.10759128419E+03  0.00000000000E+00 0. -1.
         -2    1    5    5    0  503 -0.29370173584E+02 -0.11333959158E+02 -0.55215910458E+02  0.63559912636E+02  0.00000000000E+00 0.  1.
         -1    1    6    6    0  502  0.29977231164E+02  0.27831621593E+02  0.55508092276E+02  0.68952025763E+02  0.00000000000E+00 0.  1.
<mgrwt>
<rscale>  0 0.21050041E+04</rscale>
<asrwt>0</asrwt>
<pdfrwt beam="1">  1        1 0.26010164E+00 0.21050041E+04</pdfrwt>
<pdfrwt beam="2">  1       -1 0.10080361E+00 0.21050041E+04</pdfrwt>
<totfact> 0.41600575E+00</totfact>
</mgrwt>
</event>
<event>
12    1  0.1495204E-007  0.4040474E+04  0.7818608E-02  0.7996431E-01
          1   -1    0    0  501    0  0.00000000000E+00  0.00000000000E+00  0.16268840403E+04  0.16268840403E+04  0.00000000000E+00 0. -1.
         -1   -1    0    0    0  501 -0.00000000000E+00 -0.00000000000E+00 -0.25086957340E+04  0.25086957340E+04  0.00000000000E+00 0.  1.
         23    2    1    2    0    0  0.10794487317E+04  0.11933135443E+04 -0.14905805811E+04  0.21952819499E+04  0.90695048181E+02 0.  0.
        254    2    1    2    0    0 -0.10794487317E+04 -0.11933135443E+04  0.60876888737E+03  0.19402978244E+04  0.89718967316E+03 0.  0.
        -24    2    4    4    0    0 -0.37697235348E+03  0.69218379144E+02  0.17967734664E+03  0.43097333865E+03  0.80961289725E+02 0.  0.
         24    2    4    4    0    0 -0.70247637820E+03 -0.12625319235E+04  0.42909154073E+03  0.15093244857E+04  0.80504243025E+02 0.  0.
         13    1    3    3    0    0  0.98308512913E+03  0.10649458175E+04 -0.13093960162E+04  0.19532239740E+04  0.00000000000E+00 0.  1.
        -13    1    3    3    0    0  0.96363602553E+02  0.12836772684E+03 -0.18118456481E+03  0.24205797594E+03  0.00000000000E+00 0. -1.
          2    1    6    6  502    0 -0.41377966773E+03 -0.74564466269E+03  0.29442595603E+03  0.90215642768E+03  0.00000000000E+00 0. -1.
          1    1    5    5  503    0 -0.35260358444E+01  0.12019471195E+02 -0.21903305314E+00  0.12527912518E+02  0.00000000000E+00 0. -1.
         -2    1    5    5    0  503 -0.37344631764E+03  0.57198907949E+02  0.17989637969E+03  0.41844542614E+03  0.00000000000E+00 0.  1.
         -1    1    6    6    0  502 -0.28869671047E+03 -0.51688726077E+03  0.13466558470E+03  0.60716805803E+03  0.00000000000E+00 0.  1.
<mgrwt>
<rscale>  0 0.40404738E+04</rscale>
<asrwt>0</asrwt>
<pdfrwt beam="1">  1        1 0.25028985E+00 0.40404738E+04</pdfrwt>
<pdfrwt beam="2">  1       -1 0.38595319E+00 0.40404738E+04</pdfrwt>
<totfact> 0.37175572E-02</totfact>
</mgrwt>
</event>
<event>
12    1  0.1495204E-007  0.1635391E+04  0.7818608E-02  0.8799096E-01
         -2   -1    0    0    0  501 -0.00000000000E+00  0.00000000000E+00  0.24344917693E+03  0.24344917693E+03  0.00000000000E+00 0.  1.
          2   -1    0    0  501    0  0.00000000000E+00 -0.00000000000E+00 -0.27464689265E+04  0.27464689265E+04  0.00000000000E+00 0. -1.
         23    2    1    2    0    0 -0.41412171063E+03 -0.34790965324E+01 -0.15733454012E+04  0.16294126429E+04  0.89782593269E+02 0.  0.
        254    2    1    2    0    0  0.41412171063E+03  0.34790965324E+01 -0.92967434837E+03  0.13605054605E+04  0.90286866085E+03 0.  0.
        -24    2    4    4    0    0  0.45473952153E+02  0.27754197775E+03  0.27033368372E+02  0.29620322627E+03  0.88927602636E+02 0.  0.
         24    2    4    4    0    0  0.36864775848E+03 -0.27406288122E+03 -0.95670771675E+03  0.10643022342E+04  0.80236885855E+02 0.  0.
         11    1    3    3    0    0 -0.28228346783E+03  0.29943401119E+02 -0.11617411578E+04  0.11959193456E+04  0.00000000000E+00 0. -1.
        -11    1    3    3    0    0 -0.13183824281E+03 -0.33422497651E+02 -0.41160424341E+03  0.43349329731E+03  0.00000000000E+00 0.  1.
          2    1    6    6  502    0  0.14028134459E+03 -0.90538406493E+02 -0.43533431128E+03  0.46625317293E+03  0.00000000000E+00 0. -1.
          1    1    5    5  503    0  0.18669670740E+02  0.88140724554E+02  0.50820898059E+02  0.10344132448E+03  0.00000000000E+00 0. -1.
         -2    1    5    5    0  503  0.26804281412E+02  0.18940125320E+03 -0.23787529687E+02  0.19276190179E+03  0.00000000000E+00 0.  1.
         -1    1    6    6    0  502  0.22836641389E+03 -0.18352447472E+03 -0.52137340547E+03  0.59804906132E+03  0.00000000000E+00 0.  1.
<mgrwt>
<rscale>  0 0.16353906E+04</rscale>
<asrwt>0</asrwt>
<pdfrwt beam="1">  1        2 0.42253367E+00 0.16353906E+04</pdfrwt>
<pdfrwt beam="2">  1       -2 0.37453720E-01 0.16353906E+04</pdfrwt>
<totfact> 0.16071293E+01</totfact>
</mgrwt>
</event>
<event>
12    1  0.1495204E-007  0.1358996E+04  0.7818608E-02  0.8984046E-01
         -1   -1    0    0    0  501 -0.00000000000E+00  0.00000000000E+00  0.77340414895E+03  0.77340414895E+03  0.00000000000E+00 0.  1.
          1   -1    0    0  501    0  0.00000000000E+00 -0.00000000000E+00 -0.59699378572E+03  0.59699378572E+03  0.00000000000E+00 0. -1.
         23    2    1    2    0    0 -0.30261235505E+03  0.12871469044E+03 -0.14884088747E+03  0.36507248520E+03  0.54613191690E+02 0.  0.
        254    2    1    2    0    0  0.30261235505E+03 -0.12871469044E+03  0.32525125070E+03  0.10053254495E+04  0.89260807429E+03 0.  0.
        -24    2    4    4    0    0 -0.44314774052E+01  0.31126822829E+03  0.33377597680E+03  0.46355703794E+03  0.81062795414E+02 0.  0.
         24    2    4    4    0    0  0.30704383245E+03 -0.43998291873E+03 -0.85247260984E+01  0.54176841153E+03  0.74695762602E+02 0.  0.
         13    1    3    3    0    0 -0.18371773800E+03  0.82978162228E+02 -0.11951187116E+03  0.23435159485E+03  0.00000000000E+00 0. -1.
        -13    1    3    3    0    0 -0.11889461705E+03  0.45736528216E+02 -0.29329016313E+02  0.13072089035E+03  0.00000000000E+00 0.  1.
          2    1    6    6  502    0  0.13750232154E+03 -0.23507142910E+03 -0.34661797295E+02  0.27453033602E+03  0.00000000000E+00 0. -1.
          3    1    5    5  503    0  0.29427491083E+02  0.84857477253E+02  0.12355266725E+03  0.15274825780E+03  0.00000000000E+00 0. -1.
         -4    1    5    5    0  503 -0.33858968489E+02  0.22641075104E+03  0.21022330955E+03  0.31080878013E+03  0.00000000000E+00 0.  1.
         -1    1    6    6    0  502  0.16954151092E+03 -0.20491148964E+03  0.26137071197E+02  0.26723807550E+03  0.00000000000E+00 0.  1.
<mgrwt>
<rscale>  0 0.13589959E+04</rscale>
<asrwt>0</asrwt>
<pdfrwt beam="1">  1        1 0.91845197E-01 0.13589959E+04</pdfrwt>
<pdfrwt beam="2">  1       -1 0.11898525E+00 0.13589959E+04</pdfrwt>
<totfact> 0.21338041E+01</totfact>
</mgrwt>
</event>
<event>
12    1  0.1495204E-007  0.1627393E+04  0.7818608E-02  0.8803894E-01
          2   -1    0    0  501    0  0.00000000000E+00  0.00000000000E+00  0.82015700265E+03  0.82015700265E+03  0.00000000000E+00 0.  1.
         -2   -1    0    0    0  501 -0.00000000000E+00 -0.00000000000E+00 -0.80728643816E+03  0.80728643816E+03  0.00000000000E+00 0. -1.
         23    2    1    2    0    0  0.90272225806E+02  0.34931088776E+03  0.39952687744E+03  0.54563060761E+03  0.89016083380E+02 0.  0.
        254    2    1    2    0    0 -0.90272225806E+02 -0.34931088776E+03 -0.38665631296E+03  0.10818128332E+04  0.94374187714E+03 0.  0.
        -24    2    4    4    0    0 -0.11189158079E+03 -0.66585750538E+03 -0.30376179856E+03  0.74456552250E+03  0.78871057451E+02 0.  0.
         24    2    4    4    0    0  0.21619354987E+02  0.31654661762E+03 -0.82894514395E+02  0.33724731070E+03  0.78708896729E+02 0.  0.
         13    1    3    3    0    0  0.15882815955E+02  0.11881171123E+03  0.19365688358E+03  0.22775310124E+03  0.00000000000E+00 0.  1.
        -13    1    3    3    0    0  0.74389409851E+02  0.23049917654E+03  0.20586999386E+03  0.31787750637E+03  0.00000000000E+00 0. -1.
          4    1    6    6  502    0 -0.19481623479E+01  0.18418827692E+03 -0.10364095193E+02  0.18448992157E+03  0.00000000000E+00 0. -1.
          1    1    5    5  503    0 -0.16316897053E+02 -0.89669063706E+02 -0.72205812186E+02  0.11627751902E+03  0.00000000000E+00 0. -1.
         -2    1    5    5    0  503 -0.95574683740E+02 -0.57618844168E+03 -0.23155598637E+03  0.62828800348E+03  0.00000000000E+00 0.  1.
         -3    1    6    6    0  502  0.23567517335E+02  0.13235834070E+03 -0.72530419202E+02  0.15275738914E+03  0.00000000000E+00 0.  1.
<mgrwt>
<rscale>  0 0.16273925E+04</rscale>
<asrwt>0</asrwt>
<pdfrwt beam="1">  1        2 0.12617800E+00 0.16273925E+04</pdfrwt>
<pdfrwt beam="2">  1       -2 0.12419791E+00 0.16273925E+04</pdfrwt>
<totfact> 0.15533960E+01</totfact>
</mgrwt>
</event>
<event>
12    1  0.1495204E-007  0.1490669E+04  0.7818608E-02  0.8890681E-01
          3   -1    0    0  501    0  0.00000000000E+00  0.00000000000E+00  0.51410663955E+04  0.51410663955E+04  0.00000000000E+00 0. -1.
         -3   -1    0    0    0  501 -0.00000000000E+00 -0.00000000000E+00 -0.10805613988E+03  0.10805613988E+03  0.00000000000E+00 0.  1.
         23    2    1    2    0    0 -0.18767007647E+03 -0.40360736839E+03  0.20522579707E+04  0.21017995499E+04  0.87633350730E+02 0.  0.
        254    2    1    2    0    0  0.18767007647E+03  0.40360736839E+03  0.29807522849E+04  0.31473229855E+04  0.90699439112E+03 0.  0.
        -24    2    4    4    0    0  0.34792610130E+03 -0.15580015007E+03  0.81593318548E+03  0.90413269796E+03  0.79891887196E+02 0.  0.
         24    2    4    4    0    0 -0.16025602482E+03  0.55940751846E+03  0.21648190994E+04  0.22431902875E+04  0.82717395735E+02 0.  0.
         13    1    3    3    0    0 -0.16926102919E+03 -0.27516612788E+03  0.14047408525E+04  0.14414099197E+04  0.00000000000E+00 0. -1.
        -13    1    3    3    0    0 -0.18409047283E+02 -0.12844124051E+03  0.64751711829E+03  0.66038963027E+03  0.00000000000E+00 0.  1.
          2    1    6    6  502    0 -0.10896008083E+02  0.77846691377E+02  0.40557956133E+03  0.41312662819E+03  0.00000000000E+00 0. -1.
          1    1    5    5  503    0  0.55305039221E+02 -0.42633139632E+02  0.21762729657E+03  0.22855605914E+03  0.00000000000E+00 0. -1.
         -2    1    5    5    0  503  0.29262106207E+03 -0.11316701044E+03  0.59830588891E+03  0.67557663882E+03  0.00000000000E+00 0.  1.
         -1    1    6    6    0  502 -0.14936001674E+03  0.48156082708E+03  0.17592395381E+04  0.18300636593E+04  0.00000000000E+00 0.  1.
<mgrwt>
<rscale>  0 0.14906694E+04</rscale>
<asrwt>0</asrwt>
<pdfrwt beam="1">  1        3 0.79093310E+00 0.14906694E+04</pdfrwt>
<pdfrwt beam="2">  1       -3 0.16624026E-01 0.14906694E+04</pdfrwt>
<totfact> 0.65838408E-03</totfact>
</mgrwt>
</event>
<event>
12    1  0.1495204E-007  0.1539043E+04  0.7818608E-02  0.8858897E-01
          2   -1    0    0  501    0  0.00000000000E+00  0.00000000000E+00  0.11019114298E+04  0.11019114298E+04  0.00000000000E+00 0.  1.
         -2   -1    0    0    0  501 -0.00000000000E+00 -0.00000000000E+00 -0.53739635184E+03  0.53739635184E+03  0.00000000000E+00 0. -1.
         23    2    1    2    0    0 -0.13799986112E+03  0.48807080743E+02  0.69364134589E+03  0.71487499136E+03  0.92096925830E+02 0.  0.
        254    2    1    2    0    0  0.13799986112E+03 -0.48807080743E+02 -0.12912626792E+03  0.92443279029E+03  0.90359078011E+03 0.  0.
        -24    2    4    4    0    0 -0.27497196154E+03 -0.48142586103E+02  0.23026134253E+03  0.37119201317E+03  0.82679722719E+02 0.  0.
         24    2    4    4    0    0  0.41297182266E+03 -0.66449464017E+00 -0.35938761044E+03  0.55324077712E+03  0.79810619966E+02 0.  0.
         11    1    3    3    0    0  0.74547054496E+01  0.21005077312E+02  0.14034292752E+03  0.14210180579E+03  0.00000000000E+00 0. -1.
        -11    1    3    3    0    0 -0.14545456657E+03  0.27802003431E+02  0.55329841837E+03  0.57277318556E+03  0.00000000000E+00 0.  1.
          2    1    6    6  502    0  0.96057790826E+02 -0.14675606429E+02 -0.12745857804E+03  0.16027526858E+03  0.00000000000E+00 0. -1.
          1    1    5    5  503    0 -0.94115439989E+02  0.19128479297E+00  0.34269667940E+02  0.10016068478E+03  0.00000000000E+00 0. -1.
         -2    1    5    5    0  503 -0.18085652155E+03 -0.48333870896E+02  0.19599167459E+03  0.27103132840E+03  0.00000000000E+00 0.  1.
         -1    1    6    6    0  502  0.31691403183E+03  0.14011111789E+02 -0.23192903240E+03  0.39296550853E+03  0.00000000000E+00 0.  1.
<mgrwt>
<rscale>  0 0.15390428E+04</rscale>
<asrwt>0</asrwt>
<pdfrwt beam="1">  1        2 0.16952483E+00 0.15390428E+04</pdfrwt>
<pdfrwt beam="2">  1       -2 0.82676362E-01 0.15390428E+04</pdfrwt>
<totfact> 0.26865093E+01</totfact>
</mgrwt>
</event>
<event>
12    1  0.1495204E-007  0.1630192E+04  0.7818608E-02  0.8802212E-01
         -1   -1    0    0    0  501 -0.00000000000E+00  0.00000000000E+00  0.30325791189E+03  0.30325791189E+03  0.00000000000E+00 0.  1.
          1   -1    0    0  501    0  0.00000000000E+00 -0.00000000000E+00 -0.21908126930E+04  0.21908126930E+04  0.00000000000E+00 0. -1.
         23    2    1    2    0    0  0.52920043566E+03  0.20044036300E+03 -0.76926963715E+03  0.95937441400E+03  0.91619055681E+02 0.  0.
        254    2    1    2    0    0 -0.52920043566E+03 -0.20044036300E+03 -0.11182851440E+04  0.15346961909E+04  0.88572077706E+03 0.  0.
        -24    2    4    4    0    0  0.22135287368E+03 -0.12111933690E+03 -0.14837198972E+03  0.30311092452E+03  0.78708301775E+02 0.  0.
         24    2    4    4    0    0 -0.75055330934E+03 -0.79321026100E+02 -0.96991315426E+03  0.12315852664E+04  0.80303463479E+02 0.  0.
         13    1    3    3    0    0  0.20659010857E+02  0.29645994921E+02 -0.38037981356E+02  0.52464919423E+02  0.00000000000E+00 0. -1.
        -13    1    3    3    0    0  0.50854142480E+03  0.17079436808E+03 -0.73123165580E+03  0.90690949457E+03  0.00000000000E+00 0.  1.
          4    1    6    6  502    0 -0.41040090371E+03 -0.31528101941E+02 -0.46624587026E+03  0.62193901189E+03  0.00000000000E+00 0. -1.
          1    1    5    5  503    0  0.18674840233E+03 -0.85439439270E+02 -0.14845867880E+03  0.25340647755E+03  0.00000000000E+00 0. -1.
         -2    1    5    5    0  503  0.34604471356E+02 -0.35679897634E+02  0.86689080562E-01  0.49704446964E+02  0.00000000000E+00 0.  1.
         -3    1    6    6    0  502 -0.34015240563E+03 -0.47792924159E+02 -0.50366728400E+03  0.60964625450E+03  0.00000000000E+00 0.  1.
<mgrwt>
<rscale>  0 0.16301917E+04</rscale>
<asrwt>0</asrwt>
<pdfrwt beam="1">  1        1 0.33704813E+00 0.16301917E+04</pdfrwt>
<pdfrwt beam="2">  1       -1 0.46655061E-01 0.16301917E+04</pdfrwt>
<totfact> 0.96894846E+00</totfact>
</mgrwt>
</event>
<event>
12    1  0.1495204E-007  0.2712810E+04  0.7818608E-02  0.8330860E-01
          1   -1    0    0  501    0  0.00000000000E+00  0.00000000000E+00  0.22311122010E+04  0.22311122010E+04  0.00000000000E+00 0. -1.
         -1   -1    0    0    0  501 -0.00000000000E+00 -0.00000000000E+00 -0.82462688086E+03  0.82462688086E+03  0.00000000000E+00 0.  1.
         23    2    1    2    0    0 -0.61429907069E+03 -0.10040831782E+04  0.34888721359E+03  0.12309603969E+04  0.89413834957E+02 0.  0.
        254    2    1    2    0    0  0.61429907069E+03  0.10040831782E+04  0.10575981066E+04  0.18247786850E+04  0.90871178991E+03 0.  0.
        -24    2    4    4    0    0  0.63443011790E+03  0.11377165354E+04  0.10359676691E+04  0.16662540361E+04  0.79202348466E+02 0.  0.
         24    2    4    4    0    0 -0.20131047207E+02 -0.13363335720E+03  0.21630437510E+02  0.15852464889E+03  0.79994095154E+02 0.  0.
         11    1    3    3    0    0 -0.61748129576E+03 -0.99718592668E+03  0.34651870574E+03  0.12230037352E+04  0.00000000000E+00 0. -1.
        -11    1    3    3    0    0  0.31822250736E+01 -0.68972515476E+01  0.23685078482E+01  0.79566616590E+01  0.00000000000E+00 0.  1.
          4    1    6    6  502    0  0.61398966532E+01  0.95568011925E+01  0.30653336324E+01  0.11765502549E+02  0.00000000000E+00 0. -1.
          1    1    5    5  503    0  0.12980267956E+03  0.27237030330E+03  0.27532454092E+03  0.40845797896E+03  0.00000000000E+00 0. -1.
         -2    1    5    5    0  503  0.50462743834E+03  0.86534623212E+03  0.76064312816E+03  0.12577960572E+04  0.00000000000E+00 0.  1.
         -3    1    6    6    0  502 -0.26270943860E+02 -0.14319015839E+03  0.18565103878E+02  0.14675914634E+03  0.00000000000E+00 0.  1.
<mgrwt>
<rscale>  0 0.27128104E+04</rscale>
<asrwt>0</asrwt>
<pdfrwt beam="1">  1        1 0.34324803E+00 0.27128104E+04</pdfrwt>
<pdfrwt beam="2">  1       -1 0.12686567E+00 0.27128104E+04</pdfrwt>
<totfact> 0.97551991E-01</totfact>
</mgrwt>
</event>
<event>
12    1  0.1495204E-007  0.1352151E+04  0.7818608E-02  0.8989202E-01
          1   -1    0    0  501    0  0.00000000000E+00  0.00000000000E+00  0.10210986365E+04  0.10210986365E+04  0.00000000000E+00 0. -1.
         -1   -1    0    0    0  501 -0.00000000000E+00 -0.00000000000E+00 -0.44763345791E+03  0.44763345791E+03  0.00000000000E+00 0.  1.
         23    2    1    2    0    0  0.43536397695E+02 -0.36042904335E+03  0.12961394227E+03  0.39538477114E+03  0.87891012091E+02 0.  0.
        254    2    1    2    0    0 -0.43536397695E+02  0.36042904335E+03  0.44385123628E+03  0.10733473232E+04  0.90734009231E+03 0.  0.
        -24    2    4    4    0    0  0.81475460146E+02  0.59196813944E+03  0.66792757705E+02  0.60647195616E+03  0.79261796688E+02 0.  0.
         24    2    4    4    0    0 -0.12501185784E+03 -0.23153909608E+03  0.37705847858E+03  0.46687536707E+03  0.81001200564E+02 0.  0.
         13    1    3    3    0    0  0.10360725579E+02 -0.28312812333E+03  0.12890085371E+03  0.31126244383E+03  0.00000000000E+00 0.  1.
        -13    1    3    3    0    0  0.33175672115E+02 -0.77300920026E+02  0.71308855732E+00  0.84122327312E+02  0.00000000000E+00 0. -1.
          2    1    6    6  502    0 -0.66856732003E+02 -0.66076428418E+02  0.18004448340E+03  0.20310571880E+03  0.00000000000E+00 0. -1.
          3    1    5    5  503    0  0.86627702301E+02  0.35418255373E+03  0.30778223843E+02  0.36591930700E+03  0.00000000000E+00 0. -1.
         -4    1    5    5    0  503 -0.51522421550E+01  0.23778558571E+03  0.36014533862E+02  0.24055264916E+03  0.00000000000E+00 0.  1.
         -1    1    6    6    0  502 -0.58155125838E+02 -0.16546266767E+03  0.19701399518E+03  0.26376964827E+03  0.00000000000E+00 0.  1.
<mgrwt>
<rscale>  0 0.13521508E+04</rscale>
<asrwt>0</asrwt>
<pdfrwt beam="1">  1        1 0.15709210E+00 0.13521508E+04</pdfrwt>
<pdfrwt beam="2">  1       -1 0.68866686E-01 0.13521508E+04</pdfrwt>
<totfact> 0.30424235E+01</totfact>
</mgrwt>
</event>
<event>
12    1  0.1495204E-007  0.3847047E+04  0.7818608E-02  0.8036134E-01
         -1   -1    0    0    0  501 -0.00000000000E+00  0.00000000000E+00  0.22933377295E+04  0.22933377295E+04  0.00000000000E+00 0.  1.
          1   -1    0    0  501    0  0.00000000000E+00 -0.00000000000E+00 -0.16133436385E+04  0.16133436385E+04  0.00000000000E+00 0. -1.
         23    2    1    2    0    0 -0.16520702739E+04  0.42294273122E+03 -0.30078105088E+03  0.17340230109E+04  0.90276342659E+02 0.  0.
        254    2    1    2    0    0  0.16520702739E+04 -0.42294273122E+03  0.98077514189E+03  0.21726583570E+04  0.92212131179E+03 0.  0.
        -24    2    4    4    0    0  0.48494079401E+03 -0.26748238269E+02 -0.13262835311E+03  0.50980061067E+03  0.80145746267E+02 0.  0.
         24    2    4    4    0    0  0.11671294799E+04 -0.39619449295E+03  0.11134034950E+04  0.16628577464E+04  0.79165920131E+02 0.  0.
         13    1    3    3    0    0 -0.15600373633E+03  0.20310736081E+02 -0.97167721760E+01  0.15762013644E+03  0.00000000000E+00 0. -1.
        -13    1    3    3    0    0 -0.14960665376E+04  0.40263199514E+03 -0.29106427871E+03  0.15764028745E+04  0.00000000000E+00 0.  1.
          4    1    6    6  502    0  0.11410006983E+04 -0.39611478774E+03  0.10992684335E+04  0.16331505159E+04  0.00000000000E+00 0. -1.
          1    1    5    5  503    0  0.26343087595E+03  0.33289128106E+01 -0.10864628962E+03  0.28497530474E+03  0.00000000000E+00 0. -1.
         -2    1    5    5    0  503  0.22150991806E+03 -0.30077151079E+02 -0.23982063487E+02  0.22482530593E+03  0.00000000000E+00 0.  1.
         -3    1    6    6    0  502  0.26128781578E+02 -0.79705209812E-01  0.14135061471E+02  0.29707230475E+02  0.00000000000E+00 0.  1.
<mgrwt>
<rscale>  0 0.38470466E+04</rscale>
<asrwt>0</asrwt>
<pdfrwt beam="1">  1        1 0.24820671E+00 0.38470466E+04</pdfrwt>
<pdfrwt beam="2">  1       -1 0.35282119E+00 0.38470466E+04</pdfrwt>
<totfact> 0.64413826E-02</totfact>
</mgrwt>
</event>
<event>
12    1  0.1495204E-007  0.1208993E+04  0.7818608E-02  0.9105022E-01
         -1   -1    0    0    0  501 -0.00000000000E+00  0.00000000000E+00  0.86375236755E+03  0.86375236755E+03  0.00000000000E+00 0.  1.
          1   -1    0    0  501    0  0.00000000000E+00 -0.00000000000E+00 -0.42305618609E+03  0.42305618609E+03  0.00000000000E+00 0. -1.
         23    2    1    2    0    0 -0.97077190070E+02  0.13973334018E+03 -0.10339281428E+03  0.21879732779E+03  0.90734830211E+02 0.  0.
        254    2    1    2    0    0  0.97077190070E+02 -0.13973334018E+03  0.54408899574E+03  0.10680112259E+04  0.90314215718E+03 0.  0.
        -24    2    4    4    0    0 -0.31703596313E+02 -0.42522595856E+03  0.59895695263E+03  0.73961433666E+03  0.80359828491E+02 0.  0.
         24    2    4    4    0    0  0.12878078638E+03  0.28549261838E+03 -0.54867956894E+02  0.32839688919E+03  0.82118804445E+02 0.  0.
         13    1    3    3    0    0  0.42872056152E+01  0.15669603326E+02 -0.45727330442E+02  0.48527367018E+02  0.00000000000E+00 0. -1.
        -13    1    3    3    0    0 -0.10136439569E+03  0.12406373685E+03 -0.57665483837E+02  0.17026996077E+03  0.00000000000E+00 0.  1.
          2    1    6    6  502    0  0.31006483088E+02  0.37533601351E+02  0.18278137461E+02  0.52002533908E+02  0.00000000000E+00 0. -1.
          1    1    5    5  503    0 -0.21409452260E+02 -0.23368333795E+02  0.50316928342E+02  0.59466267314E+02  0.00000000000E+00 0. -1.
         -4    1    5    5    0  503 -0.10294144053E+02 -0.40185762476E+03  0.54864002429E+03  0.68014806935E+03  0.00000000000E+00 0.  1.
         -1    1    6    6    0  502  0.97774303295E+02  0.24795901703E+03 -0.73146094355E+02  0.27639435528E+03  0.00000000000E+00 0.  1.
<mgrwt>
<rscale>  0 0.12089926E+04</rscale>
<asrwt>0</asrwt>
<pdfrwt beam="1">  1        1 0.65085567E-01 0.12089926E+04</pdfrwt>
<pdfrwt beam="2">  1       -1 0.13288498E+00 0.12089926E+04</pdfrwt>
<totfact> 0.26410573E+01</totfact>
</mgrwt>
</event>
<event>
12    1  0.1495204E-007  0.1316187E+04  0.7818608E-02  0.9016826E-01
          2   -1    0    0  501    0  0.00000000000E+00  0.00000000000E+00  0.23530385362E+04  0.23530385362E+04  0.00000000000E+00 0. -1.
         -2   -1    0    0    0  501 -0.00000000000E+00 -0.00000000000E+00 -0.18405434283E+03  0.18405434283E+03  0.00000000000E+00 0.  1.
         23    2    1    2    0    0 -0.11649344585E+03  0.29321538713E+02  0.11838737357E+04  0.11930315910E+04  0.85655586851E+02 0.  0.
        254    2    1    2    0    0  0.11649344585E+03 -0.29321538713E+02  0.98511045767E+03  0.13440612880E+04  0.90643679126E+03 0.  0.
        -24    2    4    4    0    0 -0.52253098525E+01 -0.25691369641E+03 -0.51130198319E+02  0.27310975087E+03  0.77088829132E+02 0.  0.
         24    2    4    4    0    0  0.12171875570E+03  0.22759215769E+03  0.10362406560E+04  0.10709515371E+04  0.80801312054E+02 0.  0.
         13    1    3    3    0    0 -0.62330031140E+02  0.18088528099E+02  0.96834635453E+03  0.97051887667E+03  0.00000000000E+00 0. -1.
        -13    1    3    3    0    0 -0.54163414707E+02  0.11233010614E+02  0.21552738114E+03  0.22251271433E+03  0.00000000000E+00 0.  1.
          2    1    6    6  502    0 -0.20977565759E+01  0.35108459220E+02  0.74956434419E+02  0.82797775044E+02  0.00000000000E+00 0. -1.
          1    1    5    5  503    0  0.37158226870E+01 -0.18330223214E+02 -0.27410495742E+02  0.33183425051E+02  0.00000000000E+00 0. -1.
         -4    1    5    5    0  503 -0.89411325395E+01 -0.23858347319E+03 -0.23719702577E+02  0.23992632582E+03  0.00000000000E+00 0.  1.
         -1    1    6    6    0  502  0.12381651227E+03  0.19248369847E+03  0.96128422157E+03  0.98815376209E+03  0.00000000000E+00 0.  1.
<mgrwt>
<rscale>  0 0.13161869E+04</rscale>
<asrwt>0</asrwt>
<pdfrwt beam="1">  1        2 0.36200591E+00 0.13161869E+04</pdfrwt>
<pdfrwt beam="2">  1       -2 0.28316055E-01 0.13161869E+04</pdfrwt>
<totfact> 0.47428154E+01</totfact>
</mgrwt>
</event>
<event>
12    1  0.1495204E-007  0.1444273E+04  0.7818608E-02  0.8922381E-01
         -2   -1    0    0    0  501 -0.00000000000E+00  0.00000000000E+00  0.34839408487E+03  0.34839408487E+03  0.00000000000E+00 0.  1.
          2   -1    0    0  501    0  0.00000000000E+00 -0.00000000000E+00 -0.14968137800E+04  0.14968137800E+04  0.00000000000E+00 0. -1.
         23    2    1    2    0    0 -0.35191298294E+03  0.19195756546E+03 -0.14100091091E+03  0.43523507771E+03  0.94116212685E+02 0.  0.
        254    2    1    2    0    0  0.35191298294E+03 -0.19195756546E+03 -0.10074187843E+04  0.14099727872E+04  0.90135464676E+03 0.  0.
        -24    2    4    4    0    0  0.40222546725E+03 -0.50751584778E+03 -0.61047447451E+03  0.89399269349E+03  0.84771396997E+02 0.  0.
         24    2    4    4    0    0 -0.50312484306E+02  0.31555828232E+03 -0.39694430975E+03  0.51598009370E+03  0.81008002257E+02 0.  0.
         13    1    3    3    0    0 -0.10580141279E+03  0.40861422823E+02 -0.83334368869E+02  0.14074164934E+03  0.00000000000E+00 0.  1.
        -13    1    3    3    0    0 -0.24611157015E+03  0.15109614263E+03 -0.57666542037E+02  0.29449342837E+03  0.00000000000E+00 0. -1.
          4    1    6    6  502    0 -0.47848374705E+01  0.23014175139E+03 -0.24817887628E+03  0.33849796902E+03  0.00000000000E+00 0. -1.
          1    1    5    5  503    0  0.14738818180E+03 -0.24811520016E+03 -0.29321961319E+03  0.41141483960E+03  0.00000000000E+00 0. -1.
         -2    1    5    5    0  503  0.25483728545E+03 -0.25940064762E+03 -0.31725486131E+03  0.48257785389E+03  0.00000000000E+00 0.  1.
         -3    1    6    6    0  502 -0.45527646835E+02  0.85416530935E+02 -0.14876543347E+03  0.17748212467E+03  0.00000000000E+00 0.  1.
<mgrwt>
<rscale>  0 0.14442729E+04</rscale>
<asrwt>0</asrwt>
<pdfrwt beam="1">  1        2 0.23027904E+00 0.14442729E+04</pdfrwt>
<pdfrwt beam="2">  1       -2 0.53599091E-01 0.14442729E+04</pdfrwt>
<totfact> 0.40555642E+01</totfact>
</mgrwt>
</event>
<event>
12    1  0.1495204E-007  0.1461968E+04  0.7818608E-02  0.8910145E-01
          3   -1    0    0  501    0  0.00000000000E+00  0.00000000000E+00  0.59000765545E+03  0.59000765545E+03  0.00000000000E+00 0. -1.
         -3   -1    0    0    0  501 -0.00000000000E+00 -0.00000000000E+00 -0.90564513068E+03  0.90564513068E+03  0.00000000000E+00 0.  1.
         23    2    1    2    0    0  0.27080397035E+03 -0.30085767852E+03 -0.26688801926E+03  0.49333859686E+03  0.91124218775E+02 0.  0.
        254    2    1    2    0    0 -0.27080397035E+03  0.30085767852E+03 -0.48749455977E+02  0.10023141893E+04  0.91564572378E+03 0.  0.
        -24    2    4    4    0    0 -0.15224922073E+03  0.51172917443E+03  0.26238507653E+03  0.60043564524E+03  0.81427652022E+02 0.  0.
         24    2    4    4    0    0 -0.11855474961E+03 -0.21087149592E+03 -0.31113453251E+03  0.40187854403E+03  0.78610752347E+02 0.  0.
         11    1    3    3    0    0  0.21358802847E+03 -0.23283625912E+03 -0.15950581228E+03  0.35394162459E+03  0.00000000000E+00 0.  1.
        -11    1    3    3    0    0  0.57215941872E+02 -0.68021419402E+02 -0.10738220698E+03  0.13939697227E+03  0.00000000000E+00 0. -1.
          4    1    6    6  502    0 -0.12788466076E+03 -0.20553612740E+03 -0.30537839279E+03  0.38968647514E+03  0.00000000000E+00 0. -1.
          3    1    5    5  503    0 -0.14498961263E+03  0.36157922133E+03  0.18233703956E+03  0.43012593163E+03  0.00000000000E+00 0. -1.
         -4    1    5    5    0  503 -0.72596080979E+01  0.15014995310E+03  0.80048036973E+02  0.17030971361E+03  0.00000000000E+00 0.  1.
         -3    1    6    6    0  502  0.93299111480E+01 -0.53353685201E+01 -0.57561397115E+01  0.12192068883E+02  0.00000000000E+00 0.  1.
<mgrwt>
<rscale>  0 0.14619679E+04</rscale>
<asrwt>0</asrwt>
<pdfrwt beam="1">  1        3 0.90770409E-01 0.14619679E+04</pdfrwt>
<pdfrwt beam="2">  1       -3 0.13933002E+00 0.14619679E+04</pdfrwt>
<totfact> 0.10827837E+00</totfact>
</mgrwt>
</event>
<event>
12    1  0.1495204E-007  0.1249195E+04  0.7818608E-02  0.9070854E-01
          2   -1    0    0  501    0  0.00000000000E+00  0.00000000000E+00  0.88461681323E+03  0.88461681323E+03  0.00000000000E+00 0. -1.
         -2   -1    0    0    0  501 -0.00000000000E+00 -0.00000000000E+00 -0.44100647982E+03  0.44100647982E+03  0.00000000000E+00 0.  1.
         23    2    1    2    0    0  0.11107751118E+03 -0.19118421152E+03  0.31090095207E+03  0.39179180939E+03  0.89172886499E+02 0.  0.
        254    2    1    2    0    0 -0.11107751118E+03  0.19118421152E+03  0.13270938135E+03  0.93383148366E+03  0.89751871499E+03 0.  0.
        -24    2    4    4    0    0 -0.39156265211E+03 -0.17879490758E+03  0.14914765177E+03  0.46285739743E+03  0.81871965994E+02 0.  0.
         24    2    4    4    0    0  0.28048514094E+03  0.36997911910E+03 -0.16438270427E+02  0.47097408624E+03  0.77394510865E+02 0.  0.
         13    1    3    3    0    0  0.12050665603E+03 -0.14632849158E+03  0.22319504692E+03  0.29283085658E+03  0.00000000000E+00 0. -1.
        -13    1    3    3    0    0 -0.94291448512E+01 -0.44855719938E+02  0.87705905147E+02  0.98960952812E+02  0.00000000000E+00 0.  1.
          2    1    6    6  502    0  0.24406438829E+03  0.26861660497E+03 -0.99609630200E+01  0.36307234387E+03  0.00000000000E+00 0. -1.
          3    1    5    5  503    0 -0.52255614396E+02 -0.49051273637E+02  0.46252641964E+02  0.85299376141E+02  0.00000000000E+00 0. -1.
         -4    1    5    5    0  503 -0.33930703772E+03 -0.12974363395E+03  0.10289500981E+03  0.37755802129E+03  0.00000000000E+00 0.  1.
         -1    1    6    6    0  502  0.36420752644E+02  0.10136251413E+03 -0.64773074075E+01  0.10790174236E+03  0.00000000000E+00 0.  1.
<mgrwt>
<rscale>  0 0.12491945E+04</rscale>
<asrwt>0</asrwt>
<pdfrwt beam="1">  1        2 0.13609489E+00 0.12491945E+04</pdfrwt>
<pdfrwt beam="2">  1       -2 0.67847151E-01 0.12491945E+04</pdfrwt>
<totfact> 0.58807229E+01</totfact>
</mgrwt>
</event>
<event>
12    1  0.1495204E-007  0.1270581E+04  0.7818608E-02  0.9053226E-01
         -2   -1    0    0    0  501 -0.00000000000E+00  0.00000000000E+00  0.42955187906E+03  0.42955187906E+03  0.00000000000E+00 0.  1.
          2   -1    0    0  501    0  0.00000000000E+00 -0.00000000000E+00 -0.93956999851E+03  0.93956999851E+03  0.00000000000E+00 0. -1.
         23    2    1    2    0    0 -0.21763353244E+03 -0.10622051477E+03 -0.35178391305E+03  0.43811072041E+03  0.97682801234E+02 0.  0.
        254    2    1    2    0    0  0.21763353244E+03  0.10622051477E+03 -0.15823420640E+03  0.93101115715E+03  0.88492743118E+03 0.  0.
        -24    2    4    4    0    0 -0.25541464445E+03  0.24312346872E+03 -0.22861806943E+03  0.42782240182E+03  0.80125677421E+02 0.  0.
         24    2    4    4    0    0  0.47304817690E+03 -0.13690295395E+03  0.70383863035E+02  0.50318875533E+03  0.75683808376E+02 0.  0.
         13    1    3    3    0    0 -0.14005673768E+03 -0.59468585370E+02 -0.29293635753E+03  0.33009712507E+03  0.00000000000E+00 0.  1.
        -13    1    3    3    0    0 -0.77576794765E+02 -0.46751929404E+02 -0.58847555525E+02  0.10801359535E+03  0.00000000000E+00 0. -1.
          4    1    6    6  502    0  0.25433513999E+03 -0.54540507471E+02  0.36587549585E+01  0.26014307002E+03  0.00000000000E+00 0. -1.
          3    1    5    5  503    0 -0.25070866693E+03  0.22529026081E+03 -0.23184331753E+03  0.40909884034E+03  0.00000000000E+00 0. -1.
         -4    1    5    5    0  503 -0.47059775240E+01  0.17833207917E+02  0.32252480958E+01  0.18723561476E+02  0.00000000000E+00 0.  1.
         -3    1    6    6    0  502  0.21871303691E+03 -0.82362446478E+02  0.66725108076E+02  0.24304568531E+03  0.00000000000E+00 0.  1.
<mgrwt>
<rscale>  0 0.12705811E+04</rscale>
<asrwt>0</asrwt>
<pdfrwt beam="1">  1        2 0.14454923E+00 0.12705811E+04</pdfrwt>
<pdfrwt beam="2">  1       -2 0.66084905E-01 0.12705811E+04</pdfrwt>
<totfact> 0.57086858E+01</totfact>
</mgrwt>
</event>
<event>
12    1  0.1495204E-007  0.1917934E+04  0.7818608E-02  0.8645981E-01
          2   -1    0    0  501    0  0.00000000000E+00  0.00000000000E+00  0.19988655955E+04  0.19988655955E+04  0.00000000000E+00 0. -1.
         -2   -1    0    0    0  501 -0.00000000000E+00 -0.00000000000E+00 -0.46006991715E+03  0.46006991715E+03  0.00000000000E+00 0.  1.
         23    2    1    2    0    0  0.64705333734E+03  0.18897610869E+03  0.18121437109E+03  0.70397966203E+03  0.91426064363E+02 0.  0.
        254    2    1    2    0    0 -0.64705333734E+03 -0.18897610869E+03  0.13575813073E+04  0.17549558507E+04  0.88456375738E+03 0.  0.
        -24    2    4    4    0    0 -0.29692368275E+03  0.33040911912E+03  0.37878114291E+03  0.58956807690E+03  0.82349885871E+02 0.  0.
         24    2    4    4    0    0 -0.35012965459E+03 -0.51938522781E+03  0.97880016436E+03  0.11653877738E+04  0.87903990611E+02 0.  0.
         11    1    3    3    0    0  0.46865213866E+03  0.12548408656E+03  0.88609913404E+02  0.49318637431E+03  0.00000000000E+00 0.  1.
        -11    1    3    3    0    0  0.17840119867E+03  0.63492022133E+02  0.92604457691E+02  0.21079328772E+03  0.00000000000E+00 0. -1.
          4    1    6    6  502    0 -0.12482549707E+02 -0.18439638487E+02  0.75334479964E+02  0.78556464955E+02  0.00000000000E+00 0. -1.
          3    1    5    5  503    0 -0.16241803496E+02  0.38037854514E+02  0.64830028977E+02  0.76899981885E+02  0.00000000000E+00 0. -1.
         -4    1    5    5    0  503 -0.28068187925E+03  0.29237126460E+03  0.31395111393E+03  0.51266809502E+03  0.00000000000E+00 0.  1.
         -3    1    6    6    0  502 -0.33764710488E+03 -0.50094558932E+03  0.90346568440E+03  0.10868313088E+04  0.00000000000E+00 0.  1.
<mgrwt>
<rscale>  0 0.19179342E+04</rscale>
<asrwt>0</asrwt>
<pdfrwt beam="1">  1        2 0.30751778E+00 0.19179342E+04</pdfrwt>
<pdfrwt beam="2">  1       -2 0.70779988E-01 0.19179342E+04</pdfrwt>
<totfact> 0.11352641E+01</totfact>
</mgrwt>
</event>
<event>
12    1  0.1495204E-007  0.2806501E+04  0.7818608E-02  0.8301253E-01
         -2   -1    0    0    0  501 -0.00000000000E+00  0.00000000000E+00  0.16147206320E+04  0.16147206320E+04  0.00000000000E+00 0.  1.
          2   -1    0    0  501    0  0.00000000000E+00 -0.00000000000E+00 -0.12194749752E+04  0.12194749752E+04  0.00000000000E+00 0. -1.
         23    2    1    2    0    0  0.38428025955E+03  0.48574988960E+03  0.12822827567E+04  0.14269156488E+04  0.90636237324E+02 0.  0.
        254    2    1    2    0    0 -0.38428025955E+03 -0.48574988960E+03 -0.88703709982E+03  0.14072799584E+04  0.89998766206E+03 0.  0.
        -24    2    4    4    0    0 -0.34347286627E+03 -0.22430501414E+03  0.58620227308E+02  0.42201179872E+03  0.79820285507E+02 0.  0.
         24    2    4    4    0    0 -0.40807393285E+02 -0.26144487546E+03 -0.94565732713E+03  0.98526815973E+03  0.80417037785E+02 0.  0.
         11    1    3    3    0    0  0.29895328698E+03  0.42394114470E+03  0.10219998288E+04  0.11461164042E+04  0.00000000000E+00 0.  1.
        -11    1    3    3    0    0  0.85326972570E+02  0.61808744894E+02  0.26028292789E+03  0.28079924456E+03  0.00000000000E+00 0. -1.
          4    1    6    6  502    0 -0.47495311720E+02 -0.20619355675E+03 -0.83514655451E+03  0.86153430285E+03  0.00000000000E+00 0. -1.
          3    1    5    5  503    0 -0.97653030395E+02 -0.70258644959E+02  0.54026758622E+02  0.13187601065E+03  0.00000000000E+00 0. -1.
         -4    1    5    5    0  503 -0.24581983587E+03 -0.15404636918E+03  0.45934686862E+01  0.29013578807E+03  0.00000000000E+00 0.  1.
         -3    1    6    6    0  502  0.66879184355E+01 -0.55251318710E+02 -0.11051077263E+03  0.12373385688E+03  0.00000000000E+00 0.  1.
<mgrwt>
<rscale>  0 0.28065006E+04</rscale>
<asrwt>0</asrwt>
<pdfrwt beam="1">  1        2 0.18761154E+00 0.28065006E+04</pdfrwt>
<pdfrwt beam="2">  1       -2 0.24841856E+00 0.28065006E+04</pdfrwt>
<totfact> 0.10539642E+00</totfact>
</mgrwt>
</event>
<event>
12    1  0.1495204E-007  0.1882359E+04  0.7818608E-02  0.8663688E-01
          1   -1    0    0  501    0  0.00000000000E+00  0.00000000000E+00  0.43965554801E+04  0.43965554801E+04  0.00000000000E+00 0. -1.
         -1   -1    0    0    0  501 -0.00000000000E+00 -0.00000000000E+00 -0.20148021539E+03  0.20148021539E+03  0.00000000000E+00 0.  1.
         23    2    1    2    0    0  0.22124971760E+03 -0.42509740850E+03  0.30864257424E+03  0.57692514184E+03  0.89012001455E+02 0.  0.
        254    2    1    2    0    0 -0.22124971760E+03  0.42509740850E+03  0.38864326904E+04  0.40211105536E+04  0.91395392817E+03 0.  0.
        -24    2    4    4    0    0 -0.15297336704E+03 -0.22002034732E+03  0.50488587295E+03  0.57698003588E+03  0.78653752894E+02 0.  0.
         24    2    4    4    0    0 -0.68276350562E+02  0.64511775582E+03  0.33815468175E+04  0.34441305177E+04  0.79608827161E+02 0.  0.
         13    1    3    3    0    0  0.16736629761E+03 -0.30059358671E+03  0.17304189898E+03  0.38511229628E+03  0.00000000000E+00 0.  1.
        -13    1    3    3    0    0  0.53883419995E+02 -0.12450382179E+03  0.13560067526E+03  0.19181284556E+03  0.00000000000E+00 0. -1.
          4    1    6    6  502    0 -0.57816886124E+01  0.39047307194E+02  0.32997488891E+03  0.33232747017E+03  0.00000000000E+00 0. -1.
          3    1    5    5  503    0 -0.76171244911E+01 -0.40040302464E+02  0.13207788505E+03  0.13822378278E+03  0.00000000000E+00 0. -1.
         -4    1    5    5    0  503 -0.14535624255E+03 -0.17998004486E+03  0.37280798790E+03  0.43875625310E+03  0.00000000000E+00 0.  1.
         -3    1    6    6    0  502 -0.62494661950E+02  0.60607044863E+03  0.30515719286E+04  0.31118030476E+04  0.00000000000E+00 0.  1.
<mgrwt>
<rscale>  0 0.18823591E+04</rscale>
<asrwt>0</asrwt>
<pdfrwt beam="1">  1        1 0.67639308E+00 0.18823591E+04</pdfrwt>
<pdfrwt beam="2">  1       -1 0.30996960E-01 0.18823591E+04</pdfrwt>
<totfact> 0.37531781E-01</totfact>
</mgrwt>
</event>
<event>
12    1  0.1495204E-007  0.1280362E+04  0.7818608E-02  0.9045285E-01
          3   -1    0    0  501    0  0.00000000000E+00  0.00000000000E+00  0.46355910461E+03  0.46355910461E+03  0.00000000000E+00 0. -1.
         -3   -1    0    0    0  501 -0.00000000000E+00 -0.00000000000E+00 -0.88409835109E+03  0.88409835109E+03  0.00000000000E+00 0.  1.
         23    2    1    2    0    0 -0.13565375215E+03  0.81833581759E+02  0.17668679739E+03  0.25438564782E+03  0.91625094106E+02 0.  0.
        254    2    1    2    0    0  0.13565375215E+03 -0.81833581759E+02 -0.59722604387E+03  0.10932718079E+04  0.90192329101E+03 0.  0.
        -24    2    4    4    0    0  0.27178648545E+03  0.11649059446E+03  0.12380475014E+03  0.32888459145E+03  0.73481331444E+02 0.  0.
         24    2    4    4    0    0 -0.13613273330E+03 -0.19832417622E+03 -0.72103079401E+03  0.76438721643E+03  0.80856730012E+02 0.  0.
         11    1    3    3    0    0 -0.19391074209E+02 -0.34770715657E+01 -0.69551039376E+01  0.20892038111E+02  0.00000000000E+00 0.  1.
        -11    1    3    3    0    0 -0.11626267794E+03  0.85310653325E+02  0.18364190132E+03  0.23349360971E+03  0.00000000000E+00 0. -1.
          4    1    6    6  502    0 -0.11192685932E+03 -0.16183655755E+03 -0.46938996243E+03  0.50896525424E+03  0.00000000000E+00 0. -1.
          3    1    5    5  503    0  0.26109003544E+03  0.11642366169E+03  0.13251363267E+03  0.31509100027E+03  0.00000000000E+00 0. -1.
         -4    1    5    5    0  503  0.10696450005E+02  0.66932769315E-01 -0.87088825352E+01  0.13793591183E+02  0.00000000000E+00 0.  1.
         -3    1    6    6    0  502 -0.24205873980E+02 -0.36487618671E+02 -0.25164083158E+03  0.25542196219E+03  0.00000000000E+00 0.  1.
<mgrwt>
<rscale>  0 0.12803622E+04</rscale>
<asrwt>0</asrwt>
<pdfrwt beam="1">  1        3 0.71316786E-01 0.12803622E+04</pdfrwt>
<pdfrwt beam="2">  1       -3 0.13601513E+00 0.12803622E+04</pdfrwt>
<totfact> 0.19979880E+00</totfact>
</mgrwt>
</event>
<event>
12    1  0.1495204E-007  0.1375599E+04  0.7818608E-02  0.8971673E-01
         -1   -1    0    0    0  501 -0.00000000000E+00  0.00000000000E+00  0.27455987066E+03  0.27455987066E+03  0.00000000000E+00 0.  1.
          1   -1    0    0  501    0  0.00000000000E+00 -0.00000000000E+00 -0.17230047051E+04  0.17230047051E+04  0.00000000000E+00 0. -1.
         23    2    1    2    0    0 -0.37927805944E+03 -0.78831807466E+02 -0.34925118976E+03  0.53000220079E+03  0.94125655629E+02 0.  0.
        254    2    1    2    0    0  0.37927805944E+03  0.78831807466E+02 -0.10991936447E+04  0.14675623750E+04  0.89187799373E+03 0.  0.
        -24    2    4    4    0    0  0.21566162576E+03 -0.15803641931E+03  0.46606305538E+02  0.28313497230E+03  0.80671049140E+02 0.  0.
         24    2    4    4    0    0  0.16361643368E+03  0.23686822677E+03 -0.11457999502E+04  0.11844274027E+04  0.84462133875E+02 0.  0.
         13    1    3    3    0    0 -0.11478914533E+03 -0.27803970165E+02 -0.52567558632E+02  0.12927860172E+03  0.00000000000E+00 0.  1.
        -13    1    3    3    0    0 -0.26448891411E+03 -0.51027837301E+02 -0.29668363113E+03  0.40072359907E+03  0.00000000000E+00 0. -1.
          2    1    6    6  502    0  0.23576439352E+02  0.23002798674E+02 -0.27242290292E+03  0.27440702483E+03  0.00000000000E+00 0. -1.
          3    1    5    5  503    0  0.14072774037E+03 -0.53330369304E+02  0.23365553199E+02  0.15229699365E+03  0.00000000000E+00 0. -1.
         -4    1    5    5    0  503  0.74933885397E+02 -0.10470605000E+03  0.23240752339E+02  0.13083797865E+03  0.00000000000E+00 0.  1.
         -1    1    6    6    0  502  0.14003999433E+03  0.21386542810E+03 -0.87337704731E+03  0.91002037786E+03  0.00000000000E+00 0.  1.
<mgrwt>
<rscale>  0 0.13755987E+04</rscale>
<asrwt>0</asrwt>
<pdfrwt beam="1">  1        1 0.26507765E+00 0.13755987E+04</pdfrwt>
<pdfrwt beam="2">  1       -1 0.42239979E-01 0.13755987E+04</pdfrwt>
<totfact> 0.24745308E+01</totfact>
</mgrwt>
</event>
<event>
12    1  0.1495204E-007  0.1149247E+04  0.7818608E-02  0.9158478E-01
          2   -1    0    0  501    0  0.00000000000E+00  0.00000000000E+00  0.47791481620E+03  0.47791481620E+03  0.00000000000E+00 0.  1.
         -2   -1    0    0    0  501 -0.00000000000E+00 -0.00000000000E+00 -0.69090187147E+03  0.69090187147E+03  0.00000000000E+00 0. -1.
         23    2    1    2    0    0  0.20931292715E+03 -0.56685402399E+02 -0.17110672740E+03  0.29101987524E+03  0.91596502694E+02 0.  0.
        254    2    1    2    0    0 -0.20931292715E+03  0.56685402399E+02 -0.41880327876E+02  0.87779681243E+03  0.84955761766E+03 0.  0.
        -24    2    4    4    0    0 -0.19849812228E+03  0.20769883169E+03  0.34394725909E+03  0.45601464340E+03  0.84316835418E+02 0.  0.
         24    2    4    4    0    0 -0.10814804877E+02 -0.15101342929E+03 -0.38582758696E+03  0.42178216902E+03  0.78200098565E+02 0.  0.
         11    1    3    3    0    0  0.18704801915E+03 -0.14580778181E+02 -0.14070054905E+03  0.23451269702E+03  0.00000000000E+00 0. -1.
        -11    1    3    3    0    0  0.22264908006E+02 -0.42104624218E+02 -0.30406178343E+02  0.56507178221E+02  0.00000000000E+00 0.  1.
          4    1    6    6  502    0 -0.19347790722E+02 -0.27955292615E+02 -0.30577994565E+02  0.45725803904E+02  0.00000000000E+00 0. -1.
          3    1    5    5  503    0 -0.60332656338E+02  0.17190494775E+02  0.55640325715E+02  0.83853374273E+02  0.00000000000E+00 0. -1.
         -4    1    5    5    0  503 -0.13816546594E+03  0.19050833691E+03  0.28830693337E+03  0.37216126913E+03  0.00000000000E+00 0.  1.
         -3    1    6    6    0  502  0.85329858456E+01 -0.12305813667E+03 -0.35524959240E+03  0.37605636512E+03  0.00000000000E+00 0.  1.
<mgrwt>
<rscale>  0 0.11492471E+04</rscale>
<asrwt>0</asrwt>
<pdfrwt beam="1">  1        2 0.73525357E-01 0.11492471E+04</pdfrwt>
<pdfrwt beam="2">  1       -2 0.10629259E+00 0.11492471E+04</pdfrwt>
<totfact> 0.45855471E+01</totfact>
</mgrwt>
</event>
<event>
12    1  0.1495204E-007  0.1863098E+04  0.7818608E-02  0.8673446E-01
         -2   -1    0    0    0  501 -0.00000000000E+00  0.00000000000E+00  0.10392051027E+04  0.10392051027E+04  0.00000000000E+00 0. -1.
          2   -1    0    0  501    0  0.00000000000E+00 -0.00000000000E+00 -0.83504593310E+03  0.83504593310E+03  0.00000000000E+00 0.  1.
         23    2    1    2    0    0 -0.31925293523E+03  0.65521764630E+02 -0.59143126815E+03  0.68136541045E+03  0.90842387284E+02 0.  0.
        254    2    1    2    0    0  0.31925293523E+03 -0.65521764630E+02  0.79559043770E+03  0.11928856253E+04  0.82691984630E+03 0.  0.
        -24    2    4    4    0    0 -0.17756687303E+03  0.22814780311E+03  0.20510360964E+03  0.36358752143E+03  0.80913414130E+02 0.  0.
         24    2    4    4    0    0  0.49681980826E+03 -0.29366956774E+03  0.59048682806E+03  0.82929810388E+03  0.77388074579E+02 0.  0.
         11    1    3    3    0    0 -0.54488420023E+02  0.15925154502E+02 -0.18709657699E+03  0.19551912332E+03  0.00000000000E+00 0. -1.
        -11    1    3    3    0    0 -0.26476451520E+03  0.49596610128E+02 -0.40433469116E+03  0.48584628713E+03  0.00000000000E+00 0.  1.
          2    1    6    6  502    0  0.97290979121E+02 -0.78551000956E+02  0.16695583472E+03  0.20859061608E+03  0.00000000000E+00 0. -1.
          1    1    5    5  503    0 -0.29904628723E+02  0.82993231385E+01  0.43172328875E+02  0.53169686515E+02  0.00000000000E+00 0. -1.
         -2    1    5    5    0  503 -0.14766224431E+03  0.21984847997E+03  0.16193128077E+03  0.31041783491E+03  0.00000000000E+00 0.  1.
         -1    1    6    6    0  502  0.39952882914E+03 -0.21511856678E+03  0.42353099333E+03  0.62070748779E+03  0.00000000000E+00 0.  1.
<mgrwt>
<rscale>  0 0.18630985E+04</rscale>
<asrwt>0</asrwt>
<pdfrwt beam="1">  1        2 0.12846860E+00 0.18630985E+04</pdfrwt>
<pdfrwt beam="2">  1       -2 0.15987771E+00 0.18630985E+04</pdfrwt>
<totfact> 0.77065350E+00</totfact>
</mgrwt>
</event>
<event>
12    1  0.1495204E-007  0.2658159E+04  0.7818608E-02  0.8348710E-01
          2   -1    0    0  501    0  0.00000000000E+00  0.00000000000E+00  0.31258252324E+04  0.31258252324E+04  0.00000000000E+00 0. -1.
         -2   -1    0    0    0  501 -0.00000000000E+00 -0.00000000000E+00 -0.56511544829E+03  0.56511544829E+03  0.00000000000E+00 0.  1.
         23    2    1    2    0    0 -0.15416254825E+03 -0.85440832026E+03  0.22329923541E+04  0.23975392738E+04  0.90332975883E+02 0.  0.
        254    2    1    2    0    0  0.15416254825E+03  0.85440832026E+03  0.32771743000E+03  0.12934014070E+04  0.90094884239E+03 0.  0.
        -24    2    4    4    0    0  0.40325344459E+03  0.83704442546E+03  0.85542643544E+02  0.93649263520E+03  0.80275781919E+02 0.  0.
         24    2    4    4    0    0 -0.24909089634E+03  0.17363894800E+02  0.24217478645E+03  0.35690877176E+03  0.79921615895E+02 0.  0.
         13    1    3    3    0    0 -0.16032285401E+03 -0.85060468427E+03  0.22170521561E+04  0.23800319345E+04  0.00000000000E+00 0. -1.
        -13    1    3    3    0    0  0.61603057602E+01 -0.38036359841E+01  0.15940198028E+02  0.17507339230E+02  0.00000000000E+00 0.  1.
          2    1    6    6  502    0 -0.94311849387E+02 -0.29730332053E+02  0.73685573764E+02  0.12332145539E+03  0.00000000000E+00 0. -1.
          1    1    5    5  503    0  0.26070310708E+02  0.11496792986E+03  0.13571439614E+02  0.11866536972E+03  0.00000000000E+00 0. -1.
         -2    1    5    5    0  503  0.37718313388E+03  0.72207649560E+03  0.71971203930E+02  0.81782726549E+03  0.00000000000E+00 0.  1.
         -1    1    6    6    0  502 -0.15477904695E+03  0.47094226852E+02  0.16848921269E+03  0.23358731637E+03  0.00000000000E+00 0.  1.
<mgrwt>
<rscale>  0 0.26581589E+04</rscale>
<asrwt>0</asrwt>
<pdfrwt beam="1">  1        2 0.48089618E+00 0.26581589E+04</pdfrwt>
<pdfrwt beam="2">  1       -2 0.86940840E-01 0.26581589E+04</pdfrwt>
<totfact> 0.14590325E+00</totfact>
</mgrwt>
</event>
<event>
12    1  0.1495204E-007  0.1348673E+04  0.7818608E-02  0.8991833E-01
          2   -1    0    0  501    0  0.00000000000E+00  0.00000000000E+00  0.91459872244E+03  0.91459872244E+03  0.00000000000E+00 0.  1.
         -2   -1    0    0    0  501 -0.00000000000E+00 -0.00000000000E+00 -0.49719042607E+03  0.49719042607E+03  0.00000000000E+00 0. -1.
         23    2    1    2    0    0 -0.27291278155E+03  0.11380383011E+02 -0.13235307235E+03  0.31878692854E+03  0.97451888629E+02 0.  0.
        254    2    1    2    0    0  0.27291278155E+03 -0.11380383011E+02  0.54976136872E+03  0.10930022200E+04  0.90432593177E+03 0.  0.
        -24    2    4    4    0    0  0.53154142179E+03  0.11506014516E+03  0.57193748768E+03  0.79333421680E+03  0.80570277725E+02 0.  0.
         24    2    4    4    0    0 -0.25862864025E+03 -0.12644052817E+03 -0.22176118956E+02  0.29966800317E+03  0.80206927096E+02 0.  0.
         11    1    3    3    0    0 -0.22004141268E+03  0.38814261258E+02 -0.13140503429E+03  0.25921429977E+03  0.00000000000E+00 0. -1.
        -11    1    3    3    0    0 -0.52871368869E+02 -0.27433878247E+02 -0.94803805899E+00  0.59572628765E+02  0.00000000000E+00 0.  1.
          4    1    6    6  502    0 -0.27160609229E+02 -0.44119561160E+02 -0.14817787685E+02  0.53886929793E+02  0.00000000000E+00 0. -1.
          3    1    5    5  503    0  0.16395336785E+03  0.50178106876E+02  0.23189707460E+03  0.28840042033E+03  0.00000000000E+00 0. -1.
         -4    1    5    5    0  503  0.36758805394E+03  0.64882038280E+02  0.34004041308E+03  0.50493379648E+03  0.00000000000E+00 0.  1.
         -3    1    6    6    0  502 -0.23146803102E+03 -0.82320967007E+02 -0.73583312707E+01  0.24578107338E+03  0.00000000000E+00 0.  1.
<mgrwt>
<rscale>  0 0.13486730E+04</rscale>
<asrwt>0</asrwt>
<pdfrwt beam="1">  1        2 0.14070750E+00 0.13486730E+04</pdfrwt>
<pdfrwt beam="2">  1       -2 0.76490835E-01 0.13486730E+04</pdfrwt>
<totfact> 0.42810653E+01</totfact>
</mgrwt>
</event>
<event>
12    1  0.1495204E-007  0.1494193E+04  0.7818608E-02  0.8888324E-01
         -1   -1    0    0    0  501 -0.00000000000E+00  0.00000000000E+00  0.51342612758E+03  0.51342612758E+03  0.00000000000E+00 0.  1.
          1   -1    0    0  501    0  0.00000000000E+00 -0.00000000000E+00 -0.10871148431E+04  0.10871148431E+04  0.00000000000E+00 0. -1.
         23    2    1    2    0    0  0.29316677147E+03  0.12067482444E+03  0.17236957176E+03  0.38231621954E+03  0.12627451568E+03 0.  0.
        254    2    1    2    0    0 -0.29316677147E+03 -0.12067482444E+03 -0.74605828731E+03  0.12182247512E+04  0.90937308467E+03 0.  0.
        -24    2    4    4    0    0 -0.46954452613E+03  0.19808400349E+03 -0.19197262047E+03  0.55048645755E+03  0.80451963760E+02 0.  0.
         24    2    4    4    0    0  0.17637775466E+03 -0.31875882793E+03 -0.55408566683E+03  0.66773829361E+03  0.78404080510E+02 0.  0.
         11    1    3    3    0    0  0.17924996613E+03  0.10852087189E+03  0.16643970310E+03  0.26759952310E+03  0.00000000000E+00 0.  1.
        -11    1    3    3    0    0  0.11391680534E+03  0.12153952549E+02  0.59298686605E+01  0.11471669645E+03  0.00000000000E+00 0. -1.
          2    1    6    6  502    0  0.30619857799E+02 -0.12522936229E+02 -0.40835179077E+02  0.52553891138E+02  0.00000000000E+00 0. -1.
          3    1    5    5  503    0 -0.23830026760E+03  0.57653137936E+02 -0.83469420401E+02  0.25899429722E+03  0.00000000000E+00 0. -1.
         -4    1    5    5    0  503 -0.23124425853E+03  0.14043086556E+03 -0.10850320007E+03  0.29149216032E+03  0.00000000000E+00 0.  1.
         -1    1    6    6    0  502  0.14575789686E+03 -0.30623589170E+03 -0.51325048776E+03  0.61518440247E+03  0.00000000000E+00 0.  1.
<mgrwt>
<rscale>  0 0.14941930E+04</rscale>
<asrwt>0</asrwt>
<pdfrwt beam="1">  1        1 0.16724844E+00 0.14941930E+04</pdfrwt>
<pdfrwt beam="2">  1       -1 0.78988635E-01 0.14941930E+04</pdfrwt>
<totfact> 0.20115614E+01</totfact>
</mgrwt>
</event>
<event>
12    1  0.1495204E-007  0.2090954E+04  0.7818608E-02  0.8565239E-01
         -2   -1    0    0    0  501 -0.00000000000E+00  0.00000000000E+00  0.40112434687E+03  0.40112434687E+03  0.00000000000E+00 0.  1.
          2   -1    0    0  501    0  0.00000000000E+00 -0.00000000000E+00 -0.27248971687E+04  0.27248971687E+04  0.00000000000E+00 0. -1.
         23    2    1    2    0    0  0.57267944011E+02  0.83793204353E+03 -0.10968127574E+04  0.13843903126E+04  0.90158670799E+02 0.  0.
        254    2    1    2    0    0 -0.57267944011E+02 -0.83793204353E+03 -0.12269600644E+04  0.17416312029E+04  0.90688396188E+03 0.  0.
        -24    2    4    4    0    0  0.37645719068E+03 -0.57973656991E+03 -0.51396779009E+03  0.86475658159E+03  0.76331836439E+02 0.  0.
         24    2    4    4    0    0 -0.43372513469E+03 -0.25819547362E+03 -0.71299227431E+03  0.87687462131E+03  0.75952111347E+02 0.  0.
         11    1    3    3    0    0  0.33249880757E+02  0.45851248474E+03 -0.67323480613E+03  0.81522043486E+03  0.00000000000E+00 0. -1.
        -11    1    3    3    0    0  0.24018063254E+02  0.37941955879E+03 -0.42357795127E+03  0.56916987776E+03  0.00000000000E+00 0.  1.
          4    1    6    6  502    0 -0.22472303748E+02 -0.26693366564E+00 -0.53092679519E+02  0.57653346024E+02  0.00000000000E+00 0. -1.
          1    1    5    5  503    0  0.89123495242E+02 -0.17700757515E+03 -0.18120701281E+03  0.26853428190E+03  0.00000000000E+00 0. -1.
         -2    1    5    5    0  503  0.28733369544E+03 -0.40272899476E+03 -0.33276077727E+03  0.59622229969E+03  0.00000000000E+00 0.  1.
         -3    1    6    6    0  502 -0.41125283094E+03 -0.25792853995E+03 -0.65989959479E+03  0.81922127528E+03  0.00000000000E+00 0.  1.
<mgrwt>
<rscale>  0 0.20909544E+04</rscale>
<asrwt>0</asrwt>
<pdfrwt beam="1">  1        2 0.41921494E+00 0.20909544E+04</pdfrwt>
<pdfrwt beam="2">  1       -2 0.61711439E-01 0.20909544E+04</pdfrwt>
<totfact> 0.57789127E+00</totfact>
</mgrwt>
</event>
<event>
12    1  0.1495204E-007  0.1918715E+04  0.7818608E-02  0.8645596E-01
          2   -1    0    0  501    0  0.00000000000E+00  0.00000000000E+00  0.10673546118E+04  0.10673546118E+04  0.00000000000E+00 0. -1.
         -2   -1    0    0    0  501 -0.00000000000E+00 -0.00000000000E+00 -0.86228774875E+03  0.86228774875E+03  0.00000000000E+00 0.  1.
         23    2    1    2    0    0  0.31937238409E+03  0.40030868470E+03 -0.45960184152E+03  0.69293349436E+03  0.81714209932E+02 0.  0.
        254    2    1    2    0    0 -0.31937238409E+03 -0.40030868470E+03  0.66466870454E+03  0.12367088662E+04  0.90852549225E+03 0.  0.
        -24    2    4    4    0    0 -0.24192324865E+03 -0.68716814877E+03  0.42959164571E+03  0.84940696220E+03  0.78843404612E+02 0.  0.
         24    2    4    4    0    0 -0.77449135445E+02  0.28685946407E+03  0.23507705882E+03  0.38730190396E+03  0.80341897649E+02 0.  0.
         11    1    3    3    0    0  0.44372975303E+02  0.89002220865E+02 -0.12380923481E+03  0.15880517271E+03  0.00000000000E+00 0. -1.
        -11    1    3    3    0    0  0.27499940879E+03  0.31130646384E+03 -0.33579260671E+03  0.53412832164E+03  0.00000000000E+00 0.  1.
          4    1    6    6  502    0 -0.90048407018E+02  0.19641563697E+03  0.17425304390E+03  0.27758231457E+03  0.00000000000E+00 0. -1.
          1    1    5    5  503    0 -0.58063948969E+02 -0.24849498356E+03  0.17972304102E+03  0.31212425490E+03  0.00000000000E+00 0. -1.
         -2    1    5    5    0  503 -0.18385929968E+03 -0.43867316521E+03  0.24986860470E+03  0.53728270730E+03  0.00000000000E+00 0.  1.
         -3    1    6    6    0  502  0.12599271573E+02  0.90443827098E+02  0.60824014919E+02  0.10971958939E+03  0.00000000000E+00 0.  1.
<mgrwt>
<rscale>  0 0.19187150E+04</rscale>
<asrwt>0</asrwt>
<pdfrwt beam="1">  1        2 0.16420840E+00 0.19187150E+04</pdfrwt>
<pdfrwt beam="2">  1       -2 0.13265965E+00 0.19187150E+04</pdfrwt>
<totfact> 0.88070365E+00</totfact>
</mgrwt>
</event>
<event>
12    1  0.1495204E-007  0.1463869E+04  0.7818608E-02  0.8908842E-01
          1   -1    0    0  501    0  0.00000000000E+00  0.00000000000E+00  0.62240687174E+03  0.62240687174E+03  0.00000000000E+00 0. -1.
         -1   -1    0    0    0  501 -0.00000000000E+00 -0.00000000000E+00 -0.86073623160E+03  0.86073623160E+03  0.00000000000E+00 0.  1.
         23    2    1    2    0    0 -0.38185048519E+02  0.14843397060E+03  0.35269672366E+03  0.39575951076E+03  0.93487271406E+02 0.  0.
        254    2    1    2    0    0  0.38185048519E+02 -0.14843397060E+03 -0.59102608352E+03  0.10873835926E+04  0.89977803067E+03 0.  0.
        -24    2    4    4    0    0  0.24264055974E+03 -0.16917393785E+03  0.13044889799E+03  0.33255393637E+03  0.77980402224E+02 0.  0.
         24    2    4    4    0    0 -0.20445551122E+03  0.20739967247E+02 -0.72147498151E+03  0.75482965622E+03  0.83722509846E+02 0.  0.
         13    1    3    3    0    0 -0.67707699498E+02  0.88491123972E+02  0.24276265881E+03  0.26711181199E+03  0.00000000000E+00 0. -1.
        -13    1    3    3    0    0  0.29522650980E+02  0.59942846632E+02  0.10993406485E+03  0.12864769877E+03  0.00000000000E+00 0.  1.
          2    1    6    6  502    0 -0.45471406700E+02 -0.89855860606E+01 -0.29680480507E+03  0.30040220022E+03  0.00000000000E+00 0. -1.
          3    1    5    5  503    0  0.14252413736E+03 -0.93583738586E+02  0.11612435586E+03  0.20629084294E+03  0.00000000000E+00 0. -1.
         -4    1    5    5    0  503  0.10011642238E+03 -0.75590199265E+02  0.14324542128E+02  0.12626309343E+03  0.00000000000E+00 0.  1.
         -1    1    6    6    0  502 -0.15898410452E+03  0.29725553308E+02 -0.42467017644E+03  0.45442745600E+03  0.00000000000E+00 0.  1.
<mgrwt>
<rscale>  0 0.14638690E+04</rscale>
<asrwt>0</asrwt>
<pdfrwt beam="1">  1        1 0.95754903E-01 0.14638690E+04</pdfrwt>
<pdfrwt beam="2">  1       -1 0.13242096E+00 0.14638690E+04</pdfrwt>
<totfact> 0.15247115E+01</totfact>
</mgrwt>
</event>
<event>
12    1  0.1495204E-007  0.1790740E+04  0.7818608E-02  0.8711239E-01
         -1   -1    0    0    0  501 -0.00000000000E+00  0.00000000000E+00  0.11626855106E+04  0.11626855106E+04  0.00000000000E+00 0.  1.
          1   -1    0    0  501    0  0.00000000000E+00 -0.00000000000E+00 -0.68951373192E+03  0.68951373192E+03  0.00000000000E+00 0. -1.
         23    2    1    2    0    0  0.34451116602E+03 -0.35503571474E+03  0.63470651010E+03  0.80961818805E+03  0.88831042991E+02 0.  0.
        254    2    1    2    0    0 -0.34451116602E+03  0.35503571474E+03 -0.16153473140E+03  0.10425810545E+04  0.90340659921E+03 0.  0.
        -24    2    4    4    0    0  0.96979897649E+02 -0.12317258177E+03  0.22175155623E+03  0.28320450073E+03  0.80339598543E+02 0.  0.
         24    2    4    4    0    0 -0.44149106367E+03  0.47820829652E+03 -0.38328628763E+03  0.75937655377E+03  0.78401772741E+02 0.  0.
         13    1    3    3    0    0  0.27982403784E+03 -0.30863148776E+03  0.57523692251E+03  0.71024812876E+03  0.00000000000E+00 0.  1.
        -13    1    3    3    0    0  0.64687128189E+02 -0.46404226984E+02  0.59469587590E+02  0.99370059291E+02  0.00000000000E+00 0. -1.
          2    1    6    6  502    0 -0.27053119529E+03  0.24448837680E+03 -0.23762300792E+03  0.43523141879E+03  0.00000000000E+00 0. -1.
          1    1    5    5  503    0  0.91094837933E+02 -0.11355545091E+03  0.22784979322E+03  0.27038609099E+03  0.00000000000E+00 0. -1.
         -2    1    5    5    0  503  0.58850597162E+01 -0.96171308590E+01 -0.60982369910E+01  0.12818409738E+02  0.00000000000E+00 0.  1.
         -1    1    6    6    0  502 -0.17095986838E+03  0.23371991972E+03 -0.14566327971E+03  0.32414513497E+03  0.00000000000E+00 0.  1.
<mgrwt>
<rscale>  0 0.17907402E+04</rscale>
<asrwt>0</asrwt>
<pdfrwt beam="1">  1        1 0.10607904E+00 0.17907402E+04</pdfrwt>
<pdfrwt beam="2">  1       -1 0.17887469E+00 0.17907402E+04</pdfrwt>
<totfact> 0.55811237E+00</totfact>
</mgrwt>
</event>
<event>
12    1  0.1495204E-007  0.1309932E+04  0.7818608E-02  0.9021726E-01
          2   -1    0    0  501    0  0.00000000000E+00  0.00000000000E+00  0.14073765830E+04  0.14073765830E+04  0.00000000000E+00 0. -1.
         -2   -1    0    0    0  501 -0.00000000000E+00 -0.00000000000E+00 -0.30480865363E+03  0.30480865363E+03  0.00000000000E+00 0.  1.
         23    2    1    2    0    0 -0.32742286201E+03 -0.37588158327E+02  0.41974684498E+03  0.54119959038E+03  0.89949889081E+02 0.  0.
        254    2    1    2    0    0  0.32742286201E+03  0.37588158327E+02  0.68282108436E+03  0.11709856462E+04  0.89238116867E+03 0.  0.
        -24    2    4    4    0    0  0.42877941177E+03 -0.26448260104E+03  0.67034012152E+03  0.84238764773E+03  0.80363177563E+02 0.  0.
         24    2    4    4    0    0 -0.10135654976E+03  0.30207075936E+03  0.12480962839E+02  0.32859799850E+03  0.79378689469E+02 0.  0.
         13    1    3    3    0    0 -0.15253857675E+03 -0.34454690644E+02  0.26478934459E+03  0.30751998327E+03  0.00000000000E+00 0. -1.
        -13    1    3    3    0    0 -0.17488428526E+03 -0.31334676829E+01  0.15495750039E+03  0.23367960710E+03  0.00000000000E+00 0.  1.
          2    1    6    6  502    0 -0.26251566273E+02  0.19952116383E+03  0.88503313637E+01  0.20143526978E+03  0.00000000000E+00 0. -1.
          1    1    5    5  503    0  0.73981806952E+02 -0.41606500103E+02  0.68551364882E+02  0.10910407068E+03  0.00000000000E+00 0. -1.
         -2    1    5    5    0  503  0.35479760482E+03 -0.22287610093E+03  0.60178875664E+03  0.73328357705E+03  0.00000000000E+00 0.  1.
         -1    1    6    6    0  502 -0.75104983490E+02  0.10254959553E+03  0.36306314751E+01  0.12716272871E+03  0.00000000000E+00 0.  1.
<mgrwt>
<rscale>  0 0.13099322E+04</rscale>
<asrwt>0</asrwt>
<pdfrwt beam="1">  1        2 0.21651947E+00 0.13099322E+04</pdfrwt>
<pdfrwt beam="2">  1       -2 0.46893640E-01 0.13099322E+04</pdfrwt>
<totfact> 0.60488234E+01</totfact>
</mgrwt>
</event>
<event>
12    1  0.1495204E-007  0.3491547E+04  0.7818608E-02  0.8115796E-01
         -2   -1    0    0    0  501 -0.00000000000E+00  0.00000000000E+00  0.14656885111E+04  0.14656885111E+04  0.00000000000E+00 0.  1.
          2   -1    0    0  501    0  0.00000000000E+00 -0.00000000000E+00 -0.20793807972E+04  0.20793807972E+04  0.00000000000E+00 0. -1.
         23    2    1    2    0    0  0.76106585254E+03  0.13408009287E+04  0.27546388017E+03  0.15689987304E+04  0.94383813939E+02 0.  0.
        254    2    1    2    0    0 -0.76106585254E+03 -0.13408009287E+04 -0.88915616631E+03  0.19760705779E+04  0.85865469094E+03 0.  0.
        -24    2    4    4    0    0 -0.21482244148E+03 -0.22524235480E+03 -0.62635431686E+03  0.70377298849E+03  0.78063367310E+02 0.  0.
         24    2    4    4    0    0 -0.54624341106E+03 -0.11155585739E+04 -0.26280184945E+03  0.12722975894E+04  0.82604769197E+02 0.  0.
         13    1    3    3    0    0  0.11631285222E+03  0.18359702815E+03  0.74989362658E+01  0.21746903775E+03  0.00000000000E+00 0.  1.
        -13    1    3    3    0    0  0.64475300032E+03  0.11572039006E+04  0.26796494391E+03  0.13515296926E+04  0.00000000000E+00 0. -1.
          4    1    6    6  502    0 -0.61954803439E+01 -0.17456276706E+02 -0.14787390496E+02  0.23701740248E+02  0.00000000000E+00 0. -1.
          3    1    5    5  503    0 -0.10855435557E+02 -0.43829948601E+02 -0.12528611514E+03  0.13317475557E+03  0.00000000000E+00 0. -1.
         -4    1    5    5    0  503 -0.20396700592E+03 -0.18141240620E+03 -0.50106820172E+03  0.57059823291E+03  0.00000000000E+00 0.  1.
         -3    1    6    6    0  502 -0.54004793072E+03 -0.10981022972E+04 -0.24801445895E+03  0.12485958491E+04  0.00000000000E+00 0.  1.
<mgrwt>
<rscale>  0 0.34915467E+04</rscale>
<asrwt>0</asrwt>
<pdfrwt beam="1">  1        2 0.31990474E+00 0.34915467E+04</pdfrwt>
<pdfrwt beam="2">  1       -2 0.22549054E+00 0.34915467E+04</pdfrwt>
<totfact> 0.45278208E-01</totfact>
</mgrwt>
</event>
<event>
12    1  0.1495204E-007  0.2556201E+04  0.7818608E-02  0.8383233E-01
         -1   -1    0    0    0  501 -0.00000000000E+00  0.00000000000E+00  0.11505069276E+04  0.11505069276E+04  0.00000000000E+00 0.  1.
          1   -1    0    0  501    0  0.00000000000E+00 -0.00000000000E+00 -0.14198445939E+04  0.14198445939E+04  0.00000000000E+00 0. -1.
         23    2    1    2    0    0  0.10355379344E+04  0.14954334371E+03  0.28355355648E+03  0.10884174114E+04  0.97712930379E+02 0.  0.
        254    2    1    2    0    0 -0.10355379344E+04 -0.14954334371E+03 -0.55289122278E+03  0.14819341100E+04  0.89204146591E+03 0.  0.
        -24    2    4    4    0    0 -0.60800182738E+03  0.14063318982E+03 -0.69686512812E+03  0.93886451473E+03  0.80010337116E+02 0.  0.
         24    2    4    4    0    0 -0.42753610705E+03 -0.29017653352E+03  0.14397390534E+03  0.54306959529E+03  0.84891439337E+02 0.  0.
         11    1    3    3    0    0  0.16335026763E+03  0.41858278923E+02  0.78484909408E+02  0.18599813562E+03  0.00000000000E+00 0. -1.
        -11    1    3    3    0    0  0.87218766680E+03  0.10768506479E+03  0.20506864708E+03  0.90241927578E+03  0.00000000000E+00 0.  1.
          4    1    6    6  502    0 -0.13504960485E+03 -0.13849315094E+03  0.67050925619E+02  0.20473049420E+03  0.00000000000E+00 0. -1.
          1    1    5    5  503    0 -0.33438870987E+02  0.22574044420E+02 -0.27328564211E+02  0.48729826556E+02  0.00000000000E+00 0. -1.
         -2    1    5    5    0  503 -0.57456295640E+03  0.11805914540E+03 -0.66953656391E+03  0.89013468817E+03  0.00000000000E+00 0.  1.
         -3    1    6    6    0  502 -0.29248650220E+03 -0.15168338258E+03  0.76922979718E+02  0.33833910109E+03  0.00000000000E+00 0.  1.
<mgrwt>
<rscale>  0 0.25562011E+04</rscale>
<asrwt>0</asrwt>
<pdfrwt beam="1">  1        1 0.21843763E+00 0.25562011E+04</pdfrwt>
<pdfrwt beam="2">  1       -1 0.17700107E+00 0.25562011E+04</pdfrwt>
<totfact> 0.14389597E+00</totfact>
</mgrwt>
</event>
<event>
12    1  0.1873980E-007  0.2186656E+04  0.7818608E-02  0.8524003E-01
          1   -1    0    0  501    0  0.00000000000E+00  0.00000000000E+00  0.10924779999E+04  0.10924779999E+04  0.00000000000E+00 0. -1.
         -1   -1    0    0    0  501 -0.00000000000E+00 -0.00000000000E+00 -0.10941788196E+04  0.10941788196E+04  0.00000000000E+00 0.  1.
         23    2    1    2    0    0  0.12473000313E+03  0.56720779239E+03 -0.69877486874E+03  0.91322449636E+03  0.91708288263E+02 0.  0.
        254    2    1    2    0    0 -0.12473000313E+03 -0.56720779239E+03  0.69707404903E+03  0.12734323232E+04  0.89355212407E+03 0.  0.
        -24    2    4    4    0    0 -0.45617860131E+03 -0.54381640136E+03  0.39181180958E+03  0.81486741311E+03  0.81591740665E+02 0.  0.
         24    2    4    4    0    0  0.33144859817E+03 -0.23391391030E+02  0.30526223944E+03  0.45856491005E+03  0.81801048266E+02 0.  0.
         13    1    3    3    0    0  0.12302960465E+03  0.36593767400E+03 -0.47887732063E+03  0.61511799932E+03  0.00000000000E+00 0. -1.
        -13    1    3    3    0    0  0.17003984831E+01  0.20127011839E+03 -0.21989754811E+03  0.29810649704E+03  0.00000000000E+00 0.  1.
          2    1    6    6  502    0  0.51431247289E+01 -0.14808703558E+02  0.16381877675E+02  0.22674111872E+02  0.00000000000E+00 0. -1.
          1    1    5    5  503    0 -0.56960661431E+01 -0.12922337487E+02 -0.30259701497E+01  0.14442592253E+02  0.00000000000E+00 0. -1.
         -2    1    5    5    0  503 -0.45048253516E+03 -0.53089406387E+03  0.39483777973E+03  0.80042482086E+03  0.00000000000E+00 0.  1.
         -1    1    6    6    0  502  0.32630547344E+03 -0.85826874717E+01  0.28888036177E+03  0.43589079818E+03  0.00000000000E+00 0.  1.
<mgrwt>
<rscale>  0 0.21866562E+04</rscale>
<asrwt>0</asrwt>
<pdfrwt beam="1">  1        1 0.16807354E+00 0.21866562E+04</pdfrwt>
<pdfrwt beam="2">  1       -1 0.16833520E+00 0.21866562E+04</pdfrwt>
<totfact> 0.29680772E+00</totfact>
</mgrwt>
</event>
<event>
12    1  0.1697950E-007  0.1663853E+04  0.7818608E-02  0.8782253E-01
          2   -1    0    0  501    0  0.00000000000E+00  0.00000000000E+00  0.63004973010E+03  0.63004973010E+03  0.00000000000E+00 0.  1.
         -2   -1    0    0    0  501 -0.00000000000E+00 -0.00000000000E+00 -0.10984873189E+04  0.10984873189E+04  0.00000000000E+00 0. -1.
         23    2    1    2    0    0 -0.17097819535E+03  0.40981746277E+03  0.22484423256E+03  0.50614388662E+03  0.91884759181E+02 0.  0.
        254    2    1    2    0    0  0.17097819535E+03 -0.40981746277E+03 -0.69328182140E+03  0.12223931624E+04  0.90356043715E+03 0.  0.
        -24    2    4    4    0    0 -0.33571523143E+02 -0.66402568065E+03 -0.48411552254E+03  0.82638894370E+03  0.80583468395E+02 0.  0.
         24    2    4    4    0    0  0.20454971849E+03  0.25420821788E+03 -0.20916629886E+03  0.39600421872E+03  0.81279734825E+02 0.  0.
         13    1    3    3    0    0 -0.18218031008E+03  0.39306308025E+03  0.21289746632E+03  0.48271480359E+03  0.00000000000E+00 0.  1.
        -13    1    3    3    0    0  0.11202114732E+02  0.16754382516E+02  0.11946766234E+02  0.23429083026E+02  0.00000000000E+00 0. -1.
          4    1    6    6  502    0  0.20125709423E+03  0.23651101883E+03 -0.21426541854E+03  0.37729504316E+03  0.00000000000E+00 0. -1.
          3    1    5    5  503    0 -0.29977045916E+02 -0.56833074812E+03 -0.44703557428E+03  0.72369832611E+03  0.00000000000E+00 0. -1.
         -4    1    5    5    0  503 -0.35944772271E+01 -0.95694932533E+02 -0.37079948260E+02  0.10269061759E+03  0.00000000000E+00 0.  1.
         -3    1    6    6    0  502  0.32926242590E+01  0.17697199051E+02  0.50991196840E+01  0.18709175565E+02  0.00000000000E+00 0.  1.
<mgrwt>
<rscale>  0 0.16638529E+04</rscale>
<asrwt>0</asrwt>
<pdfrwt beam="1">  1        2 0.96930729E-01 0.16638529E+04</pdfrwt>
<pdfrwt beam="2">  1       -2 0.16899805E+00 0.16638529E+04</pdfrwt>
<totfact> 0.96526328E+00</totfact>
</mgrwt>
</event>
<event>
12    1  0.1495204E-007  0.3488820E+04  0.7818608E-02  0.8116445E-01
          1   -1    0    0  501    0  0.00000000000E+00  0.00000000000E+00  0.13810761734E+04  0.13810761734E+04  0.00000000000E+00 0. -1.
         -1   -1    0    0    0  501 -0.00000000000E+00 -0.00000000000E+00 -0.22033297711E+04  0.22033297711E+04  0.00000000000E+00 0.  1.
         23    2    1    2    0    0 -0.54630947235E+03 -0.10874310683E+04 -0.14876397909E+04  0.19241407575E+04  0.91022738891E+02 0.  0.
        254    2    1    2    0    0  0.54630947235E+03  0.10874310683E+04  0.66538619325E+03  0.16602651871E+04  0.91256853845E+03 0.  0.
        -24    2    4    4    0    0  0.35863222970E+03  0.12181118225E+04  0.50152913494E+03  0.13676296924E+04  0.80411529360E+02 0.  0.
         24    2    4    4    0    0  0.18767724266E+03 -0.13068075422E+03  0.16385705830E+03  0.29263549465E+03  0.80536887445E+02 0.  0.
         11    1    3    3    0    0 -0.28374709531E+03 -0.52746482612E+03 -0.66524238884E+03  0.89514188417E+03  0.00000000000E+00 0.  1.
        -11    1    3    3    0    0 -0.26256237704E+03 -0.55996624219E+03 -0.82239740210E+03  0.10289988733E+04  0.00000000000E+00 0. -1.
          2    1    6    6  502    0  0.87852973388E+02 -0.41840637206E+02  0.26175799884E+02  0.10076684154E+03  0.00000000000E+00 0. -1.
          1    1    5    5  503    0  0.10019592882E+03  0.46883083785E+03  0.20429163239E+03  0.52113016583E+03  0.00000000000E+00 0. -1.
         -2    1    5    5    0  503  0.25843630087E+03  0.74928098468E+03  0.29723750256E+03  0.84649952660E+03  0.00000000000E+00 0.  1.
         -1    1    6    6    0  502  0.99824269269E+02 -0.88840117019E+02  0.13768125842E+03  0.19186865311E+03  0.00000000000E+00 0.  1.
<mgrwt>
<rscale>  0 0.34888200E+04</rscale>
<asrwt>0</asrwt>
<pdfrwt beam="1">  1        1 0.21247326E+00 0.34888200E+04</pdfrwt>
<pdfrwt beam="2">  1       -1 0.33897381E+00 0.34888200E+04</pdfrwt>
<totfact> 0.11885010E-01</totfact>
</mgrwt>
</event>
<event>
12    1  0.1495204E-007  0.1648626E+04  0.7818608E-02  0.8791220E-01
         -1   -1    0    0    0  501 -0.00000000000E+00  0.00000000000E+00  0.77931409106E+03  0.77931409106E+03  0.00000000000E+00 0.  1.
          1   -1    0    0  501    0  0.00000000000E+00 -0.00000000000E+00 -0.87191024501E+03  0.87191024501E+03  0.00000000000E+00 0. -1.
         23    2    1    2    0    0 -0.47457630542E+03  0.91997784822E+02 -0.34495710190E+03  0.60101313840E+03  0.92385758045E+02 0.  0.
        254    2    1    2    0    0  0.47457630542E+03 -0.91997784822E+02  0.25236094796E+03  0.10502111977E+04  0.89753621074E+03 0.  0.
        -24    2    4    4    0    0  0.58891850240E+02  0.25405611352E+03  0.39851530634E+03  0.48286346437E+03  0.79560775506E+02 0.  0.
         24    2    4    4    0    0  0.41568445518E+03 -0.34605389834E+03 -0.14615435838E+03  0.56734773330E+03  0.89305583100E+02 0.  0.
         13    1    3    3    0    0 -0.22637612562E+03  0.56126610558E+02 -0.22085973855E+03  0.32120923208E+03  0.00000000000E+00 0.  1.
        -13    1    3    3    0    0 -0.24820017980E+03  0.35871174265E+02 -0.12409736336E+03  0.27980390631E+03  0.00000000000E+00 0. -1.
          2    1    6    6  502    0  0.25979316261E+03 -0.23420878145E+03 -0.51990595264E+02  0.35362305163E+03  0.00000000000E+00 0. -1.
          1    1    5    5  503    0 -0.18986685258E+02  0.45009003156E+02  0.58722528022E+02  0.76384814456E+02  0.00000000000E+00 0. -1.
         -2    1    5    5    0  503  0.77878535498E+02  0.20904711036E+03  0.33979277832E+03  0.40647864992E+03  0.00000000000E+00 0.  1.
         -1    1    6    6    0  502  0.15589129257E+03 -0.11184511689E+03 -0.94163763118E+02  0.21372468167E+03  0.00000000000E+00 0.  1.
<mgrwt>
<rscale>  0 0.16486260E+04</rscale>
<asrwt>0</asrwt>
<pdfrwt beam="1">  1        1 0.13414004E+00 0.16486260E+04</pdfrwt>
<pdfrwt beam="2">  1       -1 0.11989448E+00 0.16486260E+04</pdfrwt>
<totfact> 0.11385330E+01</totfact>
</mgrwt>
</event>
<event>
12    1  0.1495204E-007  0.1106401E+04  0.7818608E-02  0.9198975E-01
         -2   -1    0    0    0  501 -0.00000000000E+00  0.00000000000E+00  0.34918169922E+03  0.34918169922E+03  0.00000000000E+00 0.  1.
          2   -1    0    0  501    0  0.00000000000E+00 -0.00000000000E+00 -0.87642352658E+03  0.87642352658E+03  0.00000000000E+00 0. -1.
         23    2    1    2    0    0 -0.20737264293E+02  0.41053759989E+02 -0.31470370160E+03  0.33048799246E+03  0.89824540178E+02 0.  0.
        254    2    1    2    0    0  0.20737264293E+02 -0.41053759989E+02 -0.21253812576E+03  0.89511723334E+03  0.86830119266E+03 0.  0.
        -24    2    4    4    0    0 -0.59272590363E+02 -0.33855060910E+03  0.17476191319E+03  0.39386363411E+03  0.80355964828E+02 0.  0.
         24    2    4    4    0    0  0.80009854656E+02  0.29749684911E+03 -0.38730003895E+03  0.50125359923E+03  0.79673700202E+02 0.  0.
         13    1    3    3    0    0  0.28258820087E+02 -0.68472439300E+01 -0.13655015516E+03  0.13961157021E+03  0.00000000000E+00 0.  1.
        -13    1    3    3    0    0 -0.48996084380E+02  0.47901003919E+02 -0.17815354644E+03  0.19087642224E+03  0.00000000000E+00 0. -1.
          4    1    6    6  502    0  0.11445155691E+02  0.10298056847E+03 -0.18679540216E+03  0.21360831290E+03  0.00000000000E+00 0. -1.
          3    1    5    5  503    0 -0.32111438008E+02 -0.31589720158E+03  0.15966193495E+03  0.35540697783E+03  0.00000000000E+00 0. -1.
         -4    1    5    5    0  503 -0.27161152355E+02 -0.22653407514E+02  0.15099978236E+02  0.38456656277E+02  0.00000000000E+00 0.  1.
         -3    1    6    6    0  502  0.68564698965E+02  0.19451628063E+03 -0.20050463679E+03  0.28764528633E+03  0.00000000000E+00 0.  1.
<mgrwt>
<rscale>  0 0.11064015E+04</rscale>
<asrwt>0</asrwt>
<pdfrwt beam="1">  1        2 0.13483439E+00 0.11064015E+04</pdfrwt>
<pdfrwt beam="2">  1       -2 0.53720262E-01 0.11064015E+04</pdfrwt>
<totfact> 0.98601666E+01</totfact>
</mgrwt>
</event>
<event>
12    1  0.1495204E-007  0.1411446E+04  0.7818608E-02  0.8945575E-01
         -2   -1    0    0    0  501 -0.00000000000E+00  0.00000000000E+00  0.35193663785E+03  0.35193663785E+03  0.00000000000E+00 0.  1.
          2   -1    0    0  501    0  0.00000000000E+00 -0.00000000000E+00 -0.14151552088E+04  0.14151552088E+04  0.00000000000E+00 0. -1.
         23    2    1    2    0    0  0.39990456461E+02 -0.40603085532E+03 -0.37025680686E+03  0.55802382280E+03  0.88544857040E+02 0.  0.
        254    2    1    2    0    0 -0.39990456461E+02  0.40603085532E+03 -0.69296176412E+03  0.12090680239E+04  0.90287827960E+03 0.  0.
        -24    2    4    4    0    0 -0.28933572397E+03  0.27750907935E+03  0.48772604475E+02  0.41209813213E+03  0.81973491269E+02 0.  0.
         24    2    4    4    0    0  0.24934526751E+03  0.12852177597E+03 -0.74173436860E+03  0.79696989176E+03  0.79373959760E+02 0.  0.
         11    1    3    3    0    0  0.48340372433E+02 -0.30481267169E+03 -0.23020091461E+03  0.38501950278E+03  0.00000000000E+00 0.  1.
        -11    1    3    3    0    0 -0.83499159721E+01 -0.10121818363E+03 -0.14005589225E+03  0.17300432003E+03  0.00000000000E+00 0. -1.
          2    1    6    6  502    0  0.19034065903E+03  0.64644559977E+02 -0.57129118130E+03  0.60562537880E+03  0.00000000000E+00 0. -1.
          3    1    5    5  503    0 -0.11836386359E+03  0.15499206040E+03  0.51642742400E+02  0.20174121006E+03  0.00000000000E+00 0. -1.
         -4    1    5    5    0  503 -0.17097186038E+03  0.12251701895E+03 -0.28701379249E+01  0.21035692207E+03  0.00000000000E+00 0.  1.
         -1    1    6    6    0  502  0.59004608478E+02  0.63877215991E+02 -0.17044318730E+03  0.19134451296E+03  0.00000000000E+00 0.  1.
<mgrwt>
<rscale>  0 0.14114460E+04</rscale>
<asrwt>0</asrwt>
<pdfrwt beam="1">  1        2 0.21771619E+00 0.14114460E+04</pdfrwt>
<pdfrwt beam="2">  1       -2 0.54144097E-01 0.14114460E+04</pdfrwt>
<totfact> 0.44299785E+01</totfact>
</mgrwt>
</event>
<event>
12    1  0.1495204E-007  0.1010828E+04  0.7818608E-02  0.9296748E-01
          1   -1    0    0  501    0  0.00000000000E+00  0.00000000000E+00  0.15375967549E+04  0.15375967549E+04  0.00000000000E+00 0. -1.
         -1   -1    0    0    0  501 -0.00000000000E+00 -0.00000000000E+00 -0.16613159956E+03  0.16613159956E+03  0.00000000000E+00 0.  1.
         23    2    1    2    0    0 -0.12543308084E+02  0.44294491527E+02  0.75748654772E+02  0.12705080372E+03  0.91020390397E+02 0.  0.
        254    2    1    2    0    0  0.12543308084E+02 -0.44294491527E+02  0.12957165006E+04  0.15766775508E+04  0.89716860881E+03 0.  0.
        -24    2    4    4    0    0 -0.16939033912E+03 -0.36889853403E+03  0.30118545307E+03  0.51182741373E+03  0.80469925464E+02 0.  0.
         24    2    4    4    0    0  0.18193364720E+03  0.32460404250E+03  0.99453104754E+03  0.10648501371E+04  0.79662873897E+02 0.  0.
         11    1    3    3    0    0  0.18353438895E+02 -0.22118878904E+02  0.22145398260E+02  0.36283773058E+02  0.00000000000E+00 0. -1.
        -11    1    3    3    0    0 -0.30896746979E+02  0.66413370431E+02  0.53603256513E+02  0.90767030659E+02  0.00000000000E+00 0.  1.
          4    1    6    6  502    0  0.17635446948E+02  0.31477664612E+02  0.18258972144E+03  0.18612054893E+03  0.00000000000E+00 0. -1.
          1    1    5    5  503    0 -0.24580030185E+02 -0.59263281486E+02  0.88241416081E+02  0.10910023798E+03  0.00000000000E+00 0. -1.
         -2    1    5    5    0  503 -0.14481030894E+03 -0.30963525254E+03  0.21294403699E+03  0.40272717574E+03  0.00000000000E+00 0.  1.
         -3    1    6    6    0  502  0.16429820026E+03  0.29312637789E+03  0.81194132611E+03  0.87872958813E+03  0.00000000000E+00 0.  1.
<mgrwt>
<rscale>  0 0.10108282E+04</rscale>
<asrwt>0</asrwt>
<pdfrwt beam="1">  1        1 0.23655334E+00 0.10108282E+04</pdfrwt>
<pdfrwt beam="2">  1       -1 0.25558709E-01 0.10108282E+04</pdfrwt>
<totfact> 0.83257276E+01</totfact>
</mgrwt>
</event>
<event>
12    1  0.1495204E-007  0.1096979E+04  0.7818608E-02  0.9208141E-01
          2   -1    0    0  501    0  0.00000000000E+00  0.00000000000E+00  0.59409750649E+03  0.59409750649E+03  0.00000000000E+00 0. -1.
         -2   -1    0    0    0  501 -0.00000000000E+00 -0.00000000000E+00 -0.50638293334E+03  0.50638293334E+03  0.00000000000E+00 0.  1.
         23    2    1    2    0    0  0.11534473298E+03 -0.70086340452E+01 -0.98010433920E+02  0.17702398632E+03  0.91530968521E+02 0.  0.
        254    2    1    2    0    0 -0.11534473298E+03  0.70086340452E+01  0.18572500707E+03  0.92345645350E+03  0.89717585505E+03 0.  0.
        -24    2    4    4    0    0  0.30731954259E+03  0.16393072126E+03 -0.11600241684E+03  0.37565443662E+03  0.79631102019E+02 0.  0.
         24    2    4    4    0    0 -0.42266427557E+03 -0.15692208722E+03  0.30172742391E+03  0.54780201688E+03  0.76013025611E+02 0.  0.
         13    1    3    3    0    0 -0.13121972209E+02  0.22311420232E+01  0.26315493601E+01  0.13567947576E+02  0.00000000000E+00 0. -1.
        -13    1    3    3    0    0  0.12846670519E+03 -0.92397760683E+01 -0.10064198328E+03  0.16345603874E+03  0.00000000000E+00 0.  1.
          2    1    6    6  502    0 -0.13392160915E+03 -0.51849289519E+02  0.14006388912E+03  0.20060219156E+03  0.00000000000E+00 0. -1.
          3    1    5    5  503    0  0.21261370424E+03  0.86029722969E+02 -0.10585024955E+03  0.25260636531E+03  0.00000000000E+00 0. -1.
         -4    1    5    5    0  503  0.94705838350E+02  0.77900998294E+02 -0.10152167288E+02  0.12304807131E+03  0.00000000000E+00 0.  1.
         -1    1    6    6    0  502 -0.28874266642E+03 -0.10507279770E+03  0.16166353479E+03  0.34719982532E+03  0.00000000000E+00 0.  1.
<mgrwt>
<rscale>  0 0.10969792E+04</rscale>
<asrwt>0</asrwt>
<pdfrwt beam="1">  1        2 0.91399617E-01 0.10969792E+04</pdfrwt>
<pdfrwt beam="2">  1       -2 0.77905066E-01 0.10969792E+04</pdfrwt>
<totfact> 0.73175093E+01</totfact>
</mgrwt>
</event>
<event>
12    1  0.1495204E-007  0.1408971E+04  0.7818608E-02  0.8947350E-01
          2   -1    0    0  501    0  0.00000000000E+00  0.00000000000E+00  0.14835550247E+04  0.14835550247E+04  0.00000000000E+00 0. -1.
         -2   -1    0    0    0  501 -0.00000000000E+00 -0.00000000000E+00 -0.33453437335E+03  0.33453437335E+03  0.00000000000E+00 0.  1.
         23    2    1    2    0    0  0.24497225018E+03 -0.23892356421E+03  0.48735118111E+02  0.35687354055E+03  0.88812945629E+02 0.  0.
        254    2    1    2    0    0 -0.24497225018E+03  0.23892356421E+03  0.11002855332E+04  0.14612158575E+04  0.89856978283E+03 0.  0.
        -24    2    4    4    0    0 -0.35365399145E+03  0.13285910177E+03  0.12008296563E+04  0.12614250604E+04  0.80489955706E+02 0.  0.
         24    2    4    4    0    0  0.10868174127E+03  0.10606446244E+03 -0.10054412308E+03  0.19979079707E+03  0.82133128706E+02 0.  0.
         13    1    3    3    0    0  0.23481422488E+03 -0.18689543725E+03  0.47501719812E+02  0.30384870915E+03  0.00000000000E+00 0.  1.
        -13    1    3    3    0    0  0.10158025308E+02 -0.52028126960E+02  0.12333982993E+01  0.53024831395E+02  0.00000000000E+00 0. -1.
          2    1    6    6  502    0 -0.10833789610E+02  0.26673699163E+02 -0.12019272742E+02  0.31198079133E+02  0.00000000000E+00 0. -1.
          3    1    5    5  503    0 -0.16898834922E+03  0.26007605481E+02  0.47217728257E+03  0.50218009109E+03  0.00000000000E+00 0. -1.
         -4    1    5    5    0  503 -0.18466564223E+03  0.10685149629E+03  0.72865237372E+03  0.75924496930E+03  0.00000000000E+00 0.  1.
         -1    1    6    6    0  502  0.11951553088E+03  0.79390763277E+02 -0.88524850340E+02  0.16859271794E+03  0.00000000000E+00 0.  1.
<mgrwt>
<rscale>  0 0.14089715E+04</rscale>
<asrwt>0</asrwt>
<pdfrwt beam="1">  1        2 0.22823923E+00 0.14089715E+04</pdfrwt>
<pdfrwt beam="2">  1       -2 0.51466827E-01 0.14089715E+04</pdfrwt>
<totfact> 0.44980515E+01</totfact>
</mgrwt>
</event>
<event>
12    1  0.1495204E-007  0.2875756E+04  0.7818608E-02  0.8280128E-01
          1   -1    0    0  501    0  0.00000000000E+00  0.00000000000E+00  0.36263333104E+04  0.36263333104E+04  0.00000000000E+00 0. -1.
         -1   -1    0    0    0  501 -0.00000000000E+00 -0.00000000000E+00 -0.57013324598E+03  0.57013324598E+03  0.00000000000E+00 0.  1.
         23    2    1    2    0    0 -0.88142249263E+03  0.88905873539E+03  0.90219971974E+03  0.15470561897E+04  0.10994305064E+03 0.  0.
        254    2    1    2    0    0  0.88142249263E+03 -0.88905873539E+03  0.21540003447E+04  0.26494103666E+04  0.90129171782E+03 0.  0.
        -24    2    4    4    0    0 -0.88932194346E+02 -0.39072884705E+02 -0.14850089506E+02  0.12466200577E+03  0.76710266678E+02 0.  0.
         24    2    4    4    0    0  0.97035468698E+03 -0.84998585068E+03  0.21688504342E+04  0.25247483609E+04  0.79861849848E+02 0.  0.
         11    1    3    3    0    0 -0.73041158613E+03  0.75536020556E+03  0.70762542015E+03  0.12668085335E+04  0.00000000000E+00 0.  1.
        -11    1    3    3    0    0 -0.15101090650E+03  0.13369852983E+03  0.19457429960E+03  0.28024765623E+03  0.00000000000E+00 0. -1.
          4    1    6    6  502    0  0.73302451515E+03 -0.59840018407E+03  0.15626660049E+04  0.18268368189E+04  0.00000000000E+00 0. -1.
          1    1    5    5  503    0 -0.92850897438E+02 -0.52497610924E+02 -0.22069401418E+02  0.10892358233E+03  0.00000000000E+00 0. -1.
         -2    1    5    5    0  503  0.39187030921E+01  0.13424726219E+02  0.72193119127E+01  0.15738423443E+02  0.00000000000E+00 0.  1.
         -3    1    6    6    0  502  0.23733017182E+03 -0.25158566661E+03  0.60618442927E+03  0.69791154195E+03  0.00000000000E+00 0.  1.
<mgrwt>
<rscale>  0 0.28757560E+04</rscale>
<asrwt>0</asrwt>
<pdfrwt beam="1">  1        1 0.55789742E+00 0.28757560E+04</pdfrwt>
<pdfrwt beam="2">  1       -1 0.87712809E-01 0.28757560E+04</pdfrwt>
<totfact> 0.21772118E-01</totfact>
</mgrwt>
</event>
<event>
12    1  0.1495204E-007  0.1414597E+04  0.7818608E-02  0.8943320E-01
          2   -1    0    0  501    0  0.00000000000E+00  0.00000000000E+00  0.10124548185E+04  0.10124548185E+04  0.00000000000E+00 0. -1.
         -2   -1    0    0    0  501 -0.00000000000E+00 -0.00000000000E+00 -0.49411718810E+03  0.49411718810E+03  0.00000000000E+00 0.  1.
         23    2    1    2    0    0  0.73514140990E+02 -0.21200421149E+03  0.52400505352E+03  0.57730419451E+03  0.91371342710E+02 0.  0.
        254    2    1    2    0    0 -0.73514140990E+02  0.21200421149E+03 -0.56674231231E+01  0.92926781209E+03  0.90175186847E+03 0.  0.
        -24    2    4    4    0    0 -0.38897538613E+03 -0.16565771940E+03  0.94549262928E+01  0.43042982224E+03  0.80225340327E+02 0.  0.
         24    2    4    4    0    0  0.31546124514E+03  0.37766193090E+03 -0.15122349416E+02  0.49883798985E+03  0.80413453052E+02 0.  0.
         13    1    3    3    0    0  0.88781364185E+01 -0.71719695070E+02  0.83106218255E+02  0.11013255413E+03  0.00000000000E+00 0.  1.
        -13    1    3    3    0    0  0.64636004571E+02 -0.14028451642E+03  0.44089883527E+03  0.46717164038E+03  0.00000000000E+00 0. -1.
          4    1    6    6  502    0  0.31769352886E+03  0.37383899873E+03 -0.21508358020E+02  0.49106759689E+03  0.00000000000E+00 0. -1.
          1    1    5    5  503    0 -0.35957523476E+03 -0.13179917172E+03 -0.59514985454E+01  0.38301539323E+03  0.00000000000E+00 0. -1.
         -2    1    5    5    0  503 -0.29400151370E+02 -0.33858547685E+02  0.15406424838E+02  0.47414429009E+02  0.00000000000E+00 0.  1.
         -1    1    6    6    0  502 -0.22322837141E+01  0.38229321705E+01  0.63860086039E+01  0.77703929663E+01  0.00000000000E+00 0.  1.
<mgrwt>
<rscale>  0 0.14145972E+04</rscale>
<asrwt>0</asrwt>
<pdfrwt beam="1">  1        2 0.15576228E+00 0.14145972E+04</pdfrwt>
<pdfrwt beam="2">  1       -2 0.76018029E-01 0.14145972E+04</pdfrwt>
<totfact> 0.37268760E+01</totfact>
</mgrwt>
</event>
<event>
12    1  0.1495204E-007  0.1589807E+04  0.7818608E-02  0.8826834E-01
         -1   -1    0    0    0  501 -0.00000000000E+00  0.00000000000E+00  0.55945407880E+03  0.55945407880E+03  0.00000000000E+00 0.  1.
          1   -1    0    0  501    0  0.00000000000E+00 -0.00000000000E+00 -0.11294438072E+04  0.11294438072E+04  0.00000000000E+00 0. -1.
         23    2    1    2    0    0  0.36258505485E+03 -0.33239300149E+03  0.21642958186E+02  0.50055381737E+03  0.90181356134E+02 0.  0.
        254    2    1    2    0    0 -0.36258505485E+03  0.33239300149E+03 -0.59163268660E+03  0.11883440686E+04  0.90563754350E+03 0.  0.
        -24    2    4    4    0    0 -0.16071276016E+02  0.54118247717E+03 -0.11659836148E+03  0.55935988115E+03  0.78431748909E+02 0.  0.
         24    2    4    4    0    0 -0.34651377884E+03 -0.20878947567E+03 -0.47503432512E+03  0.62898418750E+03  0.79364059910E+02 0.  0.
         13    1    3    3    0    0  0.26501967080E+03 -0.24564451990E+03 -0.24254780659E+02  0.36216702011E+03  0.00000000000E+00 0. -1.
        -13    1    3    3    0    0  0.97565384054E+02 -0.86748481593E+02  0.45897738845E+02  0.13838679726E+03  0.00000000000E+00 0.  1.
          2    1    6    6  502    0 -0.34383647820E+03 -0.18948394313E+03 -0.44836587873E+03  0.59595272434E+03  0.00000000000E+00 0. -1.
          1    1    5    5  503    0 -0.41411880575E+02  0.17788260747E+03 -0.30979075873E+02  0.18524812829E+03  0.00000000000E+00 0. -1.
         -2    1    5    5    0  503  0.25340604559E+02  0.36329986969E+03 -0.85619285610E+02  0.37411175286E+03  0.00000000000E+00 0.  1.
         -1    1    6    6    0  502 -0.26773006430E+01 -0.19305532540E+02 -0.26668446384E+02  0.33031463152E+02  0.00000000000E+00 0.  1.
<mgrwt>
<rscale>  0 0.15898075E+04</rscale>
<asrwt>0</asrwt>
<pdfrwt beam="1">  1        1 0.17376059E+00 0.15898075E+04</pdfrwt>
<pdfrwt beam="2">  1       -1 0.86069857E-01 0.15898075E+04</pdfrwt>
<totfact> 0.15419647E+01</totfact>
</mgrwt>
</event>
<event>
12    1  0.1495204E-007  0.1619361E+04  0.7818608E-02  0.8808741E-01
          1   -1    0    0  501    0  0.00000000000E+00  0.00000000000E+00  0.86688745183E+03  0.86688745183E+03  0.00000000000E+00 0. -1.
         -1   -1    0    0    0  501 -0.00000000000E+00 -0.00000000000E+00 -0.75624852621E+03  0.75624852621E+03  0.00000000000E+00 0.  1.
         23    2    1    2    0    0 -0.28362219954E+03  0.45139953687E+03  0.18241147245E+03  0.57084116999E+03  0.91556551455E+02 0.  0.
        254    2    1    2    0    0  0.28362219954E+03 -0.45139953687E+03 -0.71772546836E+02  0.10522948080E+04  0.90441692300E+03 0.  0.
        -24    2    4    4    0    0  0.30809000728E+03 -0.66393024586E+03  0.12905444823E+03  0.74744637472E+03  0.79361253258E+02 0.  0.
         24    2    4    4    0    0 -0.24467807736E+02  0.21253070899E+03 -0.20082699507E+03  0.30484843333E+03  0.82662624443E+02 0.  0.
         13    1    3    3    0    0 -0.28853869686E+02  0.65177760248E+02 -0.54245575952E+01  0.71485047750E+02  0.00000000000E+00 0.  1.
        -13    1    3    3    0    0 -0.25476832986E+03  0.38622177663E+03  0.18783603004E+03  0.49935612224E+03  0.00000000000E+00 0. -1.
          2    1    6    6  502    0  0.68016950768E+00  0.12811274035E+03 -0.16702550810E+03  0.21050144234E+03  0.00000000000E+00 0. -1.
          3    1    5    5  503    0  0.11933214154E+03 -0.27208876509E+03  0.91571017863E+02  0.31089822677E+03  0.00000000000E+00 0. -1.
         -4    1    5    5    0  503  0.18875786573E+03 -0.39184148077E+03  0.37483430368E+02  0.43654814795E+03  0.00000000000E+00 0.  1.
         -1    1    6    6    0  502 -0.25147977244E+02  0.84417968635E+02 -0.33801486963E+02  0.94346990990E+02  0.00000000000E+00 0.  1.
<mgrwt>
<rscale>  0 0.16193608E+04</rscale>
<asrwt>0</asrwt>
<pdfrwt beam="1">  1        1 0.13336730E+00 0.16193608E+04</pdfrwt>
<pdfrwt beam="2">  1       -1 0.11634593E+00 0.16193608E+04</pdfrwt>
<totfact> 0.12397320E+01</totfact>
</mgrwt>
</event>
<event>
12    1  0.1495204E-007  0.2266967E+04  0.7818608E-02  0.8491060E-01
         -1   -1    0    0    0  501 -0.00000000000E+00  0.00000000000E+00  0.59493077327E+03  0.59493077327E+03  0.00000000000E+00 0.  1.
          1   -1    0    0  501    0  0.00000000000E+00 -0.00000000000E+00 -0.21595539728E+04  0.21595539728E+04  0.00000000000E+00 0. -1.
         23    2    1    2    0    0 -0.17619085742E+03  0.38762386806E+03  0.37476169923E+03  0.57443923630E+03  0.90766864324E+02 0.  0.
        254    2    1    2    0    0  0.17619085742E+03 -0.38762386806E+03 -0.19393848987E+04  0.21800455097E+04  0.90004953075E+03 0.  0.
        -24    2    4    4    0    0  0.34751756525E+03 -0.20923769022E+03 -0.27525042406E+03  0.49579536883E+03  0.74171306047E+02 0.  0.
         24    2    4    4    0    0 -0.17132670783E+03 -0.17838617784E+03 -0.16641344747E+04  0.16842501409E+04  0.78616271471E+02 0.  0.
         13    1    3    3    0    0 -0.34540387907E+02  0.18368598922E+03  0.16829040312E+03  0.25150594589E+03  0.00000000000E+00 0.  1.
        -13    1    3    3    0    0 -0.14165046952E+03  0.20393787884E+03  0.20647129610E+03  0.32293329041E+03  0.00000000000E+00 0. -1.
          2    1    6    6  502    0 -0.10964155140E+03 -0.83655028420E+02 -0.11228286854E+04  0.11312664100E+04  0.00000000000E+00 0. -1.
          3    1    5    5  503    0  0.33075392619E+03 -0.17488502950E+03 -0.24910826534E+03  0.44948621903E+03  0.00000000000E+00 0. -1.
         -4    1    5    5    0  503  0.16763639061E+02 -0.34352660716E+02 -0.26142158727E+02  0.46309149806E+02  0.00000000000E+00 0.  1.
         -1    1    6    6    0  502 -0.61685156430E+02 -0.94731149421E+02 -0.54130578922E+03  0.55298373090E+03  0.00000000000E+00 0.  1.
<mgrwt>
<rscale>  0 0.22669672E+04</rscale>
<asrwt>0</asrwt>
<pdfrwt beam="1">  1        1 0.33223907E+00 0.22669672E+04</pdfrwt>
<pdfrwt beam="2">  1       -1 0.91527811E-01 0.22669672E+04</pdfrwt>
<totfact> 0.24482069E+00</totfact>
</mgrwt>
</event>
<event>
12    1  0.1495204E-007  0.1470353E+04  0.7818608E-02  0.8904411E-01
          2   -1    0    0  501    0  0.00000000000E+00  0.00000000000E+00  0.74617498416E+03  0.74617498416E+03  0.00000000000E+00 0. -1.
         -2   -1    0    0    0  501 -0.00000000000E+00 -0.00000000000E+00 -0.72433979074E+03  0.72433979074E+03  0.00000000000E+00 0.  1.
         23    2    1    2    0    0 -0.24345497421E+03 -0.35532325127E+03 -0.13959817363E+03  0.46220456984E+03  0.92846523562E+02 0.  0.
        254    2    1    2    0    0  0.24345497421E+03  0.35532325127E+03  0.16143336705E+03  0.10083102051E+04  0.89727576601E+03 0.  0.
        -24    2    4    4    0    0 -0.47601969927E+02 -0.27771849888E+03  0.28717706175E+02  0.29469617423E+03  0.81410173180E+02 0.  0.
         24    2    4    4    0    0  0.29105694413E+03  0.63304175016E+03  0.13271566087E+03  0.71361403082E+03  0.78584579771E+02 0.  0.
         13    1    3    3    0    0 -0.19790184515E+03 -0.24616008238E+03 -0.13594464614E+03  0.34386170663E+03  0.00000000000E+00 0.  1.
        -13    1    3    3    0    0 -0.45553129055E+02 -0.10916316889E+03 -0.36535274882E+01  0.11834286321E+03  0.00000000000E+00 0. -1.
          2    1    6    6  502    0  0.28644712058E+03  0.59031941807E+03  0.13743297625E+03  0.67038555414E+03  0.00000000000E+00 0. -1.
          3    1    5    5  503    0 -0.66052384001E+02 -0.25552348497E+03  0.20659564523E+02  0.26473002551E+03  0.00000000000E+00 0. -1.
         -4    1    5    5    0  503  0.18450414074E+02 -0.22195013915E+02  0.80581416516E+01  0.29966148719E+02  0.00000000000E+00 0.  1.
         -1    1    6    6    0  502  0.46098235545E+01  0.42722332081E+02 -0.47173153758E+01  0.43228476680E+02  0.00000000000E+00 0.  1.
<mgrwt>
<rscale>  0 0.14703527E+04</rscale>
<asrwt>0</asrwt>
<pdfrwt beam="1">  1        2 0.11479615E+00 0.14703527E+04</pdfrwt>
<pdfrwt beam="2">  1       -2 0.11143689E+00 0.14703527E+04</pdfrwt>
<totfact> 0.23273288E+01</totfact>
</mgrwt>
</event>
<event>
12    1  0.1495204E-007  0.1576695E+04  0.7818608E-02  0.8834994E-01
         -2   -1    0    0    0  501 -0.00000000000E+00  0.00000000000E+00  0.16810640684E+03  0.16810640684E+03  0.00000000000E+00 0.  1.
          2   -1    0    0  501    0  0.00000000000E+00 -0.00000000000E+00 -0.36970152469E+04  0.36970152469E+04  0.00000000000E+00 0. -1.
         23    2    1    2    0    0 -0.40306844095E+02 -0.42391514708E+03 -0.44853348434E+03  0.62599441384E+03  0.96736890447E+02 0.  0.
        254    2    1    2    0    0  0.40306844095E+02  0.42391514708E+03 -0.30803753557E+04  0.32391272399E+04  0.90658935059E+03 0.  0.
        -24    2    4    4    0    0  0.38350119715E+03 -0.60955754175E+02 -0.10636868102E+04  0.11354615605E+04  0.83991385533E+02 0.  0.
         24    2    4    4    0    0 -0.34319435306E+03  0.48487090126E+03 -0.20166885455E+04  0.21036656795E+04  0.74124533912E+02 0.  0.
         13    1    3    3    0    0 -0.29657999608E+02 -0.60629527540E+02 -0.37077867161E+02  0.77008472155E+02  0.00000000000E+00 0. -1.
        -13    1    3    3    0    0 -0.10648844487E+02 -0.36328561954E+03 -0.41145561718E+03  0.54898594168E+03  0.00000000000E+00 0.  1.
          4    1    6    6  502    0 -0.26239349396E+03  0.41540725192E+03 -0.16960278326E+04  0.17657644066E+04  0.00000000000E+00 0. -1.
          3    1    5    5  503    0  0.30725450565E+03 -0.63120017815E+02 -0.93089737698E+03  0.98232346727E+03  0.00000000000E+00 0. -1.
         -4    1    5    5    0  503  0.76246691500E+02  0.21642636406E+01 -0.13278943326E+03  0.15313809319E+03  0.00000000000E+00 0.  1.
         -3    1    6    6    0  502 -0.80800859101E+02  0.69463649340E+02 -0.32066071289E+03  0.33790127287E+03  0.00000000000E+00 0.  1.
<mgrwt>
<rscale>  0 0.15766952E+04</rscale>
<asrwt>0</asrwt>
<pdfrwt beam="1">  1        2 0.56877158E+00 0.15766952E+04</pdfrwt>
<pdfrwt beam="2">  1       -2 0.25862524E-01 0.15766952E+04</pdfrwt>
<totfact> 0.77193888E+00</totfact>
</mgrwt>
</event>
<event>
12    1  0.1495204E-007  0.4736355E+04  0.7818608E-02  0.7870516E-01
          2   -1    0    0  501    0  0.00000000000E+00  0.00000000000E+00  0.22977741008E+04  0.22977741008E+04  0.00000000000E+00 0. -1.
         -2   -1    0    0    0  501 -0.00000000000E+00 -0.00000000000E+00 -0.24407376500E+04  0.24407376500E+04  0.00000000000E+00 0.  1.
         23    2    1    2    0    0 -0.74672943430E+02  0.12514767805E+03 -0.23466789674E+04  0.23528804617E+04  0.88917384029E+02 0.  0.
        254    2    1    2    0    0  0.74672943430E+02 -0.12514767805E+03  0.22037154181E+04  0.23856312892E+04  0.90201830035E+03 0.  0.
        -24    2    4    4    0    0 -0.87067833877E+02 -0.40765739934E+03  0.53138244639E+03  0.67999050194E+03  0.79084862455E+02 0.  0.
         24    2    4    4    0    0  0.16174077731E+03  0.28250972129E+03  0.16723329718E+04  0.17056407873E+04  0.80877099059E+02 0.  0.
         11    1    3    3    0    0 -0.12239542890E+02 -0.83620427754E+01 -0.76547156913E+02  0.77969208031E+02  0.00000000000E+00 0. -1.
        -11    1    3    3    0    0 -0.62433400540E+02  0.13350972082E+03 -0.22701318104E+04  0.22749112536E+04  0.00000000000E+00 0.  1.
          2    1    6    6  502    0  0.84886079077E+02  0.12610494626E+03  0.97958820390E+03  0.99131284321E+03  0.00000000000E+00 0. -1.
          3    1    5    5  503    0  0.44606014545E+00 -0.12180313257E+03  0.11589870047E+03  0.16813301533E+03  0.00000000000E+00 0. -1.
         -4    1    5    5    0  503 -0.87513894022E+02 -0.28585426677E+03  0.41548374592E+03  0.51185748661E+03  0.00000000000E+00 0.  1.
         -1    1    6    6    0  502  0.76854698230E+02  0.15640477503E+03  0.69274476787E+03  0.71432794408E+03  0.00000000000E+00 0.  1.
<mgrwt>
<rscale>  0 0.47363546E+04</rscale>
<asrwt>0</asrwt>
<pdfrwt beam="1">  1        2 0.35350371E+00 0.47363546E+04</pdfrwt>
<pdfrwt beam="2">  1       -2 0.37549810E+00 0.47363546E+04</pdfrwt>
<totfact> 0.36186923E-02</totfact>
</mgrwt>
</event>
<event>
12    1  0.1495204E-007  0.1750403E+04  0.7818608E-02  0.8733128E-01
         -1   -1    0    0    0  501 -0.00000000000E+00  0.00000000000E+00  0.94184928866E+03  0.94184928866E+03  0.00000000000E+00 0. -1.
          1   -1    0    0  501    0  0.00000000000E+00 -0.00000000000E+00 -0.81327003929E+03  0.81327003929E+03  0.00000000000E+00 0.  1.
         23    2    1    2    0    0  0.57483545727E+03 -0.25354924365E+02 -0.22949327894E+03  0.62572571299E+03  0.88243003643E+02 0.  0.
        254    2    1    2    0    0 -0.57483545727E+03  0.25354924365E+02  0.35807252831E+03  0.11293936150E+04  0.90345742947E+03 0.  0.
        -24    2    4    4    0    0 -0.65221114104E+03  0.61025509893E+02  0.57937789758E+03  0.87835674428E+03  0.82026438830E+02 0.  0.
         24    2    4    4    0    0  0.77375683774E+02 -0.35670585528E+02 -0.22130536926E+03  0.25103687068E+03  0.82365386332E+02 0.  0.
         13    1    3    3    0    0  0.33009796550E+03 -0.38390368294E+02 -0.92515941920E+02  0.34496041326E+03  0.00000000000E+00 0. -1.
        -13    1    3    3    0    0  0.24473749176E+03  0.13035443929E+02 -0.13697733702E+03  0.28076529973E+03  0.00000000000E+00 0.  1.
          2    1    6    6  502    0  0.25168052003E+02  0.13442469225E+02 -0.14185178968E+02  0.31864559040E+02  0.00000000000E+00 0. -1.
          3    1    5    5  503    0 -0.81659930925E+02  0.20201935176E+02  0.10961004528E+03  0.13816954994E+03  0.00000000000E+00 0. -1.
         -4    1    5    5    0  503 -0.57055121012E+03  0.40823574717E+02  0.46976785229E+03  0.74018719434E+03  0.00000000000E+00 0.  1.
         -1    1    6    6    0  502  0.52207631771E+02 -0.49113054753E+02 -0.20712019030E+03  0.21917231164E+03  0.00000000000E+00 0.  1.
<mgrwt>
<rscale>  0 0.17504032E+04</rscale>
<asrwt>0</asrwt>
<pdfrwt beam="1">  1        1 0.12511847E+00 0.17504032E+04</pdfrwt>
<pdfrwt beam="2">  1       -1 0.14489989E+00 0.17504032E+04</pdfrwt>
<totfact> 0.78101752E+00</totfact>
</mgrwt>
</event>
<event>
12    1  0.1495204E-007  0.3839570E+04  0.7818608E-02  0.8037716E-01
          1   -1    0    0  501    0  0.00000000000E+00  0.00000000000E+00  0.23209715225E+04  0.23209715225E+04  0.00000000000E+00 0. -1.
         -1   -1    0    0    0  501 -0.00000000000E+00 -0.00000000000E+00 -0.15879448790E+04  0.15879448790E+04  0.00000000000E+00 0.  1.
         23    2    1    2    0    0 -0.11421689629E+03  0.11906542743E+04 -0.10408335141E+04  0.15881508204E+04  0.90473884664E+02 0.  0.
        254    2    1    2    0    0  0.11421689629E+03 -0.11906542743E+04  0.17738601577E+04  0.23207655812E+04  0.89926076506E+03 0.  0.
        -24    2    4    4    0    0  0.19722588454E+03 -0.83394330480E+03  0.17436343282E+04  0.19444596582E+04  0.79392736292E+02 0.  0.
         24    2    4    4    0    0 -0.83008988248E+02 -0.35671096949E+03  0.30225829421E+02  0.37630592298E+03  0.80989746437E+02 0.  0.
         13    1    3    3    0    0 -0.81642359669E+02  0.40873484365E+03 -0.35059112412E+03  0.54465014791E+03  0.00000000000E+00 0. -1.
        -13    1    3    3    0    0 -0.32574536622E+02  0.78191943064E+03 -0.69024239001E+03  0.10435006725E+04  0.00000000000E+00 0.  1.
          4    1    6    6  502    0  0.68497090993E+01 -0.42701716470E+01  0.88272249867E+01  0.11961303508E+02  0.00000000000E+00 0. -1.
          3    1    5    5  503    0  0.17574492990E+02 -0.25820836651E+02  0.88220043823E+02  0.93586080916E+02  0.00000000000E+00 0. -1.
         -4    1    5    5    0  503  0.17965139155E+03 -0.80812246815E+03  0.16554142844E+04  0.18508735773E+04  0.00000000000E+00 0.  1.
         -3    1    6    6    0  502 -0.89858697347E+02 -0.35244079784E+03  0.21398604434E+02  0.36434461948E+03  0.00000000000E+00 0.  1.
<mgrwt>
<rscale>  0 0.38395702E+04</rscale>
<asrwt>0</asrwt>
<pdfrwt beam="1">  1        1 0.35707254E+00 0.38395702E+04</pdfrwt>
<pdfrwt beam="2">  1       -1 0.24429921E+00 0.38395702E+04</pdfrwt>
<totfact> 0.10848979E-01</totfact>
</mgrwt>
</event>
<event>
12    1  0.1495204E-007  0.1867669E+04  0.7818608E-02  0.8671119E-01
          1   -1    0    0  501    0  0.00000000000E+00  0.00000000000E+00  0.62646100979E+03  0.62646100979E+03  0.00000000000E+00 0. -1.
         -1   -1    0    0    0  501 -0.00000000000E+00 -0.00000000000E+00 -0.13920203856E+04  0.13920203856E+04  0.00000000000E+00 0.  1.
         23    2    1    2    0    0  0.59935766319E+03 -0.38597069653E+03 -0.29241739490E+03  0.77609228520E+03  0.92781007244E+02 0.  0.
        254    2    1    2    0    0 -0.59935766319E+03  0.38597069653E+03 -0.47314198095E+03  0.12423891102E+04  0.90081317711E+03 0.  0.
        -24    2    4    4    0    0 -0.68459966694E+03  0.51549637095E+03 -0.57986217656E+03  0.10378337888E+04  0.80284599119E+02 0.  0.
         24    2    4    4    0    0  0.85242003744E+02 -0.12952567442E+03  0.10672019561E+03  0.20455532146E+03  0.80066096761E+02 0.  0.
         13    1    3    3    0    0  0.23064659621E+03 -0.98189225507E+02 -0.11581567366E+03  0.27613809338E+03  0.00000000000E+00 0. -1.
        -13    1    3    3    0    0  0.36871106699E+03 -0.28778147102E+03 -0.17660172124E+03  0.49995419183E+03  0.00000000000E+00 0.  1.
          2    1    6    6  502    0  0.61601948873E+02 -0.61676453525E+02  0.15666491409E+02  0.88567623754E+02  0.00000000000E+00 0. -1.
          3    1    5    5  503    0 -0.56992237542E+03  0.40460673400E+03 -0.50049009801E+03  0.85965601342E+03  0.00000000000E+00 0. -1.
         -4    1    5    5    0  503 -0.11467729152E+03  0.11088963694E+03 -0.79372078553E+02  0.17817777534E+03  0.00000000000E+00 0.  1.
         -1    1    6    6    0  502  0.23640054871E+02 -0.67849220893E+02  0.91053704204E+02  0.11598769771E+03  0.00000000000E+00 0.  1.
<mgrwt>
<rscale>  0 0.18676686E+04</rscale>
<asrwt>0</asrwt>
<pdfrwt beam="1">  1        1 0.96378618E-01 0.18676686E+04</pdfrwt>
<pdfrwt beam="2">  1       -1 0.21415698E+00 0.18676686E+04</pdfrwt>
<totfact> 0.36346526E+00</totfact>
</mgrwt>
</event>
<event>
12    1  0.1495204E-007  0.1337352E+04  0.7818608E-02  0.9000458E-01
         -2   -1    0    0    0  501 -0.00000000000E+00  0.00000000000E+00  0.21062364624E+03  0.21062364624E+03  0.00000000000E+00 0. -1.
          2   -1    0    0  501    0  0.00000000000E+00 -0.00000000000E+00 -0.21228741063E+04  0.21228741063E+04  0.00000000000E+00 0.  1.
         23    2    1    2    0    0 -0.36630491239E+02  0.24844462933E+02 -0.11311344489E+04  0.11356192545E+04  0.90591995064E+02 0.  0.
        254    2    1    2    0    0  0.36630491239E+02 -0.24844462933E+02 -0.78111601118E+03  0.11978784980E+04  0.90708964986E+03 0.  0.
        -24    2    4    4    0    0 -0.23340451860E+03  0.26160835037E+03 -0.70073780303E+03  0.78758343494E+03  0.79609045424E+02 0.  0.
         24    2    4    4    0    0  0.27003500984E+03 -0.28645281330E+03 -0.80378208150E+02  0.41029506309E+03  0.83109937232E+02 0.  0.
         11    1    3    3    0    0 -0.41233095541E+02 -0.12094018013E+02 -0.24759940237E+03  0.25130041284E+03  0.00000000000E+00 0. -1.
        -11    1    3    3    0    0  0.46026043022E+01  0.36938480946E+02 -0.88353504652E+03  0.88431884169E+03  0.00000000000E+00 0.  1.
          4    1    6    6  502    0  0.23607285984E+03 -0.22632753323E+03 -0.93201436473E+02  0.34006036995E+03  0.00000000000E+00 0. -1.
          1    1    5    5  503    0 -0.23873332194E+03  0.24670170427E+03 -0.67671112894E+03  0.75881043873E+03  0.00000000000E+00 0. -1.
         -2    1    5    5    0  503  0.53288033482E+01  0.14906646098E+02 -0.24026674096E+02  0.28772996214E+02  0.00000000000E+00 0.  1.
         -3    1    6    6    0  502  0.33962149996E+02 -0.60125280064E+02  0.12823228324E+02  0.70234693135E+02  0.00000000000E+00 0.  1.
<mgrwt>
<rscale>  0 0.13373518E+04</rscale>
<asrwt>0</asrwt>
<pdfrwt beam="1">  1        2 0.32659601E+00 0.13373518E+04</pdfrwt>
<pdfrwt beam="2">  1       -2 0.32403638E-01 0.13373518E+04</pdfrwt>
<totfact> 0.49551423E+01</totfact>
</mgrwt>
</event>
<event>
12    1  0.1495204E-007  0.1244165E+04  0.7818608E-02  0.9075054E-01
         -1   -1    0    0    0  501 -0.00000000000E+00  0.00000000000E+00  0.29139720513E+03  0.29139720513E+03  0.00000000000E+00 0.  1.
          1   -1    0    0  501    0  0.00000000000E+00 -0.00000000000E+00 -0.13280380196E+04  0.13280380196E+04  0.00000000000E+00 0. -1.
         23    2    1    2    0    0 -0.18618207397E+03 -0.21486458837E+03 -0.26948057037E+03  0.40169260403E+03  0.88919144848E+02 0.  0.
        254    2    1    2    0    0  0.18618207397E+03  0.21486458837E+03 -0.76716024408E+03  0.12177426207E+04  0.90195991824E+03 0.  0.
        -24    2    4    4    0    0 -0.24931630811E+03 -0.14896066345E+03 -0.50390967634E+03  0.58678594052E+03  0.77748809212E+02 0.  0.
         24    2    4    4    0    0  0.43549838208E+03  0.36382525182E+03 -0.26325056774E+03  0.63095668016E+03  0.82327493392E+02 0.  0.
         11    1    3    3    0    0 -0.15088698335E+03 -0.14880967578E+03 -0.14624889938E+03  0.25748775100E+03  0.00000000000E+00 0.  1.
        -11    1    3    3    0    0 -0.35295090625E+02 -0.66054912591E+02 -0.12323167099E+03  0.14420485302E+03  0.00000000000E+00 0. -1.
          4    1    6    6  502    0  0.10632520435E+03  0.48592221927E+02 -0.40995291462E+02  0.12388247267E+03  0.00000000000E+00 0. -1.
          1    1    5    5  503    0 -0.14090808247E+03 -0.41369990284E+02 -0.22240034644E+03  0.26651168435E+03  0.00000000000E+00 0. -1.
         -2    1    5    5    0  503 -0.10840822564E+03 -0.10759067317E+03 -0.28150932990E+03  0.32027425616E+03  0.00000000000E+00 0.  1.
         -3    1    6    6    0  502  0.32917317773E+03  0.31523302989E+03 -0.22225527628E+03  0.50707420749E+03  0.00000000000E+00 0.  1.
<mgrwt>
<rscale>  0 0.12441649E+04</rscale>
<asrwt>0</asrwt>
<pdfrwt beam="1">  1        1 0.20431354E+00 0.12441649E+04</pdfrwt>
<pdfrwt beam="2">  1       -1 0.44830340E-01 0.12441649E+04</pdfrwt>
<totfact> 0.42019916E+01</totfact>
</mgrwt>
</event>
<event>
12    1  0.1495204E-007  0.2540134E+04  0.7818608E-02  0.8388826E-01
          1   -1    0    0  501    0  0.00000000000E+00  0.00000000000E+00  0.17028450289E+04  0.17028450289E+04  0.00000000000E+00 0. -1.
         -1   -1    0    0    0  501 -0.00000000000E+00 -0.00000000000E+00 -0.94727914989E+03  0.94727914989E+03  0.00000000000E+00 0.  1.
         23    2    1    2    0    0 -0.71971151659E+03 -0.25855385272E+03 -0.49915244182E+03  0.91768195625E+03  0.90289815439E+02 0.  0.
        254    2    1    2    0    0  0.71971151659E+03  0.25855385272E+03  0.12547183208E+04  0.17324422225E+04  0.91771631122E+03 0.  0.
        -24    2    4    4    0    0 -0.18491920719E+03 -0.91081292650E+02  0.21044296489E+03  0.30506670135E+03  0.79300288422E+02 0.  0.
         24    2    4    4    0    0  0.90463072378E+03  0.34963514537E+03  0.10442753559E+04  0.14273755211E+04  0.79299294661E+02 0.  0.
         13    1    3    3    0    0 -0.35163500275E+03 -0.14245576601E+03 -0.29812805485E+03  0.48251544796E+03  0.00000000000E+00 0.  1.
        -13    1    3    3    0    0 -0.36807651384E+03 -0.11609808671E+03 -0.20102438697E+03  0.43516650829E+03  0.00000000000E+00 0. -1.
          2    1    6    6  502    0  0.85335744142E+03  0.31788385351E+03  0.10003685329E+04  0.13527772428E+04  0.00000000000E+00 0. -1.
          3    1    5    5  503    0 -0.13150026401E+03 -0.59874468410E+02  0.91581369926E+02  0.17106846208E+03  0.00000000000E+00 0. -1.
         -4    1    5    5    0  503 -0.53418943178E+02 -0.31206824240E+02  0.11886159497E+03  0.13399823927E+03  0.00000000000E+00 0.  1.
         -1    1    6    6    0  502  0.51273282361E+02  0.31751291867E+02  0.43906823010E+02  0.74598278305E+02  0.00000000000E+00 0.  1.
<mgrwt>
<rscale>  0 0.25401335E+04</rscale>
<asrwt>0</asrwt>
<pdfrwt beam="1">  1        1 0.26197616E+00 0.25401335E+04</pdfrwt>
<pdfrwt beam="2">  1       -1 0.14573525E+00 0.25401335E+04</pdfrwt>
<totfact> 0.15834753E+00</totfact>
</mgrwt>
</event>
<event>
12    1  0.1495204E-007  0.1975580E+04  0.7818608E-02  0.8618124E-01
          2   -1    0    0  501    0  0.00000000000E+00  0.00000000000E+00  0.43209492614E+03  0.43209492614E+03  0.00000000000E+00 0.  1.
         -2   -1    0    0    0  501 -0.00000000000E+00 -0.00000000000E+00 -0.22581363023E+04  0.22581363023E+04  0.00000000000E+00 0. -1.
         23    2    1    2    0    0 -0.74111244902E+03 -0.53292180915E+02 -0.42411288402E+03  0.86016871363E+03  0.89054808284E+02 0.  0.
        254    2    1    2    0    0  0.74111244902E+03  0.53292180915E+02 -0.14019284921E+04  0.18300625148E+04  0.91194166064E+03 0.  0.
        -24    2    4    4    0    0 -0.87649082345E+02  0.12667443341E+03 -0.75232381190E+03  0.77145687744E+03  0.73660179805E+02 0.  0.
         24    2    4    4    0    0  0.82876153136E+03 -0.73382252500E+02 -0.64960468023E+03  0.10586056374E+04  0.80181194962E+02 0.  0.
         13    1    3    3    0    0 -0.68182672854E+03 -0.72481355828E+02 -0.39600515819E+03  0.79180889108E+03  0.00000000000E+00 0.  1.
        -13    1    3    3    0    0 -0.59285720479E+02  0.19189174913E+02 -0.28107725830E+02  0.68359822542E+02  0.00000000000E+00 0. -1.
          4    1    6    6  502    0  0.78603550805E+03 -0.62253094725E+02 -0.59184864999E+03  0.98590673607E+03  0.00000000000E+00 0. -1.
          1    1    5    5  503    0 -0.56754424125E+02  0.11242659127E+03 -0.45216720255E+03  0.46937829322E+03  0.00000000000E+00 0. -1.
         -2    1    5    5    0  503 -0.30894658220E+02  0.14247842145E+02 -0.30015660935E+03  0.30207858422E+03  0.00000000000E+00 0.  1.
         -3    1    6    6    0  502  0.42726023309E+02 -0.11129157775E+02 -0.57756030234E+02  0.72698901291E+02  0.00000000000E+00 0.  1.
<mgrwt>
<rscale>  0 0.19755802E+04</rscale>
<asrwt>0</asrwt>
<pdfrwt beam="1">  1        2 0.66476145E-01 0.19755802E+04</pdfrwt>
<pdfrwt beam="2">  1       -2 0.34740557E+00 0.19755802E+04</pdfrwt>
<totfact> 0.10982777E+00</totfact>
</mgrwt>
</event>
<event>
12    1  0.1495204E-007  0.2994837E+04  0.7818608E-02  0.8245207E-01
         -1   -1    0    0    0  501 -0.00000000000E+00  0.00000000000E+00  0.18978164826E+04  0.18978164826E+04  0.00000000000E+00 0.  1.
          1   -1    0    0  501    0  0.00000000000E+00 -0.00000000000E+00 -0.11814956724E+04  0.11814956724E+04  0.00000000000E+00 0. -1.
         23    2    1    2    0    0  0.58226295311E+03  0.52223275954E+03  0.14684122818E+04  0.16664953577E+04  0.95994511576E+02 0.  0.
        254    2    1    2    0    0 -0.58226295311E+03 -0.52223275954E+03 -0.75209147165E+03  0.14128167973E+04  0.90479418611E+03 0.  0.
        -24    2    4    4    0    0 -0.53802126726E+03 -0.26796402397E+03 -0.91466099766E+03  0.10973838186E+04  0.79842986305E+02 0.  0.
         24    2    4    4    0    0 -0.44241685858E+02 -0.25426873557E+03  0.16256952600E+03  0.31543297870E+03  0.80369127239E+02 0.  0.
         13    1    3    3    0    0  0.26448456450E+03  0.17774525055E+03  0.62859725148E+03  0.70475525080E+03  0.00000000000E+00 0.  1.
        -13    1    3    3    0    0  0.31777838861E+03  0.34448750898E+03  0.83981503033E+03  0.96174010694E+03  0.00000000000E+00 0. -1.
          2    1    6    6  502    0 -0.85443943717E+01 -0.26444899673E+02 -0.76330133798E+01  0.28820171532E+02  0.00000000000E+00 0. -1.
          1    1    5    5  503    0 -0.32160410110E+02 -0.34055760694E+02 -0.48624729479E+02  0.67516302711E+02  0.00000000000E+00 0. -1.
         -2    1    5    5    0  503 -0.50586085715E+03 -0.23390826328E+03 -0.86603626818E+03  0.10298675159E+04  0.00000000000E+00 0.  1.
         -1    1    6    6    0  502 -0.35697291486E+02 -0.22782383589E+03  0.17020253938E+03  0.28661280717E+03  0.00000000000E+00 0.  1.
<mgrwt>
<rscale>  0 0.29948369E+04</rscale>
<asrwt>0</asrwt>
<pdfrwt beam="1">  1        1 0.18176857E+00 0.29948369E+04</pdfrwt>
<pdfrwt beam="2">  1       -1 0.29197177E+00 0.29948369E+04</pdfrwt>
<totfact> 0.34943981E-01</totfact>
</mgrwt>
</event>
<event>
12    1  0.1495204E-007  0.1776234E+04  0.7818608E-02  0.8719041E-01
         -1   -1    0    0    0  501 -0.00000000000E+00  0.00000000000E+00  0.29243659914E+03  0.29243659914E+03  0.00000000000E+00 0.  1.
          1   -1    0    0  501    0  0.00000000000E+00 -0.00000000000E+00 -0.26971705368E+04  0.26971705368E+04  0.00000000000E+00 0. -1.
         23    2    1    2    0    0  0.12755837666E+03 -0.53487252847E+03 -0.14984612982E+04  0.15987931866E+04  0.91616756849E+02 0.  0.
        254    2    1    2    0    0 -0.12755837666E+03  0.53487252847E+03 -0.90627263947E+03  0.13908139493E+04  0.90037413528E+03 0.  0.
        -24    2    4    4    0    0 -0.15604445083E+03  0.64020178937E+03 -0.23267177441E+03  0.70339143323E+03  0.80094643887E+02 0.  0.
         24    2    4    4    0    0  0.28486074168E+02 -0.10532926090E+03 -0.67360086505E+03  0.68742251612E+03  0.83101628416E+02 0.  0.
         11    1    3    3    0    0  0.94441217533E+02 -0.50183720252E+03 -0.13681043237E+04  0.14602976278E+04  0.00000000000E+00 0. -1.
        -11    1    3    3    0    0  0.33117159127E+02 -0.33035325948E+02 -0.13035697452E+03  0.13849555876E+03  0.00000000000E+00 0.  1.
          4    1    6    6  502    0 -0.11662671358E+02 -0.89073765713E+02 -0.37011529263E+03  0.38086150170E+03  0.00000000000E+00 0. -1.
          3    1    5    5  503    0 -0.15401227055E+03  0.64011596805E+03 -0.23607385143E+03  0.69942769131E+03  0.00000000000E+00 0. -1.
         -4    1    5    5    0  503 -0.20321802780E+01  0.85821321993E-01  0.34020770201E+01  0.39637419230E+01  0.00000000000E+00 0.  1.
         -3    1    6    6    0  502  0.40148745526E+02 -0.16255495188E+02 -0.30348557242E+03  0.30656101442E+03  0.00000000000E+00 0.  1.
<mgrwt>
<rscale>  0 0.17762335E+04</rscale>
<asrwt>0</asrwt>
<pdfrwt beam="1">  1        1 0.41494932E+00 0.17762335E+04</pdfrwt>
<pdfrwt beam="2">  1       -1 0.44990245E-01 0.17762335E+04</pdfrwt>
<totfact> 0.45758798E+00</totfact>
</mgrwt>
</event>
<event>
12    1  0.1495204E-007  0.1763061E+04  0.7818608E-02  0.8726193E-01
         -1   -1    0    0    0  501 -0.00000000000E+00  0.00000000000E+00  0.10735974880E+04  0.10735974880E+04  0.00000000000E+00 0.  1.
          1   -1    0    0  501    0  0.00000000000E+00 -0.00000000000E+00 -0.72382462805E+03  0.72382462805E+03  0.00000000000E+00 0. -1.
         23    2    1    2    0    0  0.12761819818E+03  0.91865539443E+02 -0.50969721033E+03  0.54120021347E+03  0.91546398034E+02 0.  0.
        254    2    1    2    0    0 -0.12761819818E+03 -0.91865539443E+02  0.85947007029E+03  0.12562219026E+04  0.90259569296E+03 0.  0.
        -24    2    4    4    0    0  0.36573867625E+03 -0.83272099674E+02  0.54302526435E+03  0.66479741864E+03  0.79875829976E+02 0.  0.
         24    2    4    4    0    0 -0.49335687444E+03 -0.85934397690E+01  0.31644480595E+03  0.59142448395E+03  0.78554135722E+02 0.  0.
         11    1    3    3    0    0  0.12016134148E+03  0.10300795212E+03 -0.39204890938E+03  0.42279041325E+03  0.00000000000E+00 0. -1.
        -11    1    3    3    0    0  0.74568567016E+01 -0.11142412673E+02 -0.11764830095E+03  0.11840980022E+03  0.00000000000E+00 0.  1.
          4    1    6    6  502    0 -0.18407392873E+03  0.24576924971E+02  0.14945560979E+03  0.23837830392E+03  0.00000000000E+00 0. -1.
          3    1    5    5  503    0  0.28990308493E+03 -0.90976514067E+02  0.46696500272E+03  0.55711474449E+03  0.00000000000E+00 0. -1.
         -4    1    5    5    0  503  0.75835591322E+02  0.77044143933E+01  0.76060261632E+02  0.10768267415E+03  0.00000000000E+00 0.  1.
         -3    1    6    6    0  502 -0.30928294570E+03 -0.33170364740E+02  0.16698919615E+03  0.35304618003E+03  0.00000000000E+00 0.  1.
<mgrwt>
<rscale>  0 0.17630613E+04</rscale>
<asrwt>0</asrwt>
<pdfrwt beam="1">  1        1 0.11135763E+00 0.17630613E+04</pdfrwt>
<pdfrwt beam="2">  1       -1 0.16516884E+00 0.17630613E+04</pdfrwt>
<totfact> 0.65462300E+00</totfact>
</mgrwt>
</event>
<event>
12    1  0.1495204E-007  0.1747246E+04  0.7818608E-02  0.8734867E-01
         -2   -1    0    0    0  501 -0.00000000000E+00  0.00000000000E+00  0.74829189424E+03  0.74829189424E+03  0.00000000000E+00 0.  1.
          2   -1    0    0  501    0  0.00000000000E+00 -0.00000000000E+00 -0.10199462114E+04  0.10199462114E+04  0.00000000000E+00 0. -1.
         23    2    1    2    0    0  0.10190569833E+03  0.28275116616E+03  0.47161867377E+03  0.56652496387E+03  0.90517224463E+02 0.  0.
        254    2    1    2    0    0 -0.10190569833E+03 -0.28275116616E+03 -0.74327299092E+03  0.12017131418E+04  0.89516855548E+03 0.  0.
        -24    2    4    4    0    0  0.24505192437E+03  0.38490903868E+02  0.59324000484E+02  0.26673723561E+03  0.78085981508E+02 0.  0.
         24    2    4    4    0    0 -0.34695762271E+03 -0.32124207003E+03 -0.80259699140E+03  0.93497590615E+03  0.80261790121E+02 0.  0.
         11    1    3    3    0    0  0.57362886874E+02  0.12337977688E+03  0.13625948187E+03  0.19256094239E+03  0.00000000000E+00 0.  1.
        -11    1    3    3    0    0  0.44542811459E+02  0.15937138928E+03  0.33535919190E+03  0.37396402149E+03  0.00000000000E+00 0. -1.
          4    1    6    6  502    0 -0.36126869283E+01 -0.26561169974E+02 -0.53415461679E+02  0.59764193324E+02  0.00000000000E+00 0. -1.
          3    1    5    5  503    0  0.27695296866E+02  0.84389175933E+01 -0.17994787231E+02  0.34088959593E+02  0.00000000000E+00 0. -1.
         -4    1    5    5    0  503  0.21735662751E+03  0.30051986275E+02  0.77318787714E+02  0.23264827602E+03  0.00000000000E+00 0.  1.
         -3    1    6    6    0  502 -0.34334493578E+03 -0.29468090006E+03 -0.74918152972E+03  0.87521171282E+03  0.00000000000E+00 0.  1.
<mgrwt>
<rscale>  0 0.17472464E+04</rscale>
<asrwt>0</asrwt>
<pdfrwt beam="1">  1        2 0.15691480E+00 0.17472464E+04</pdfrwt>
<pdfrwt beam="2">  1       -2 0.11512183E+00 0.17472464E+04</pdfrwt>
<totfact> 0.13638203E+01</totfact>
</mgrwt>
</event>
<event>
12    1  0.1495204E-007  0.2056488E+04  0.7818608E-02  0.8580657E-01
          1   -1    0    0  501    0  0.00000000000E+00  0.00000000000E+00  0.26427035704E+04  0.26427035704E+04  0.00000000000E+00 0. -1.
         -1   -1    0    0    0  501 -0.00000000000E+00 -0.00000000000E+00 -0.40007734450E+03  0.40007734450E+03  0.00000000000E+00 0.  1.
         23    2    1    2    0    0 -0.46054522081E+03 -0.46651008448E+02 -0.10815685403E+03  0.48419921958E+03  0.92047608169E+02 0.  0.
        254    2    1    2    0    0  0.46054522081E+03  0.46651008448E+02  0.23507830799E+04  0.25585816953E+04  0.89770874218E+03 0.  0.
        -24    2    4    4    0    0  0.43304223398E+02 -0.39014675608E+03  0.91665298450E+03  0.10000963841E+04  0.76487492455E+02 0.  0.
         24    2    4    4    0    0  0.41724099741E+03  0.43679776453E+03  0.14341300954E+04  0.15584853112E+04  0.85234955256E+02 0.  0.
         11    1    3    3    0    0 -0.33704394396E+03 -0.64402271924E+02 -0.10695119715E+03  0.35942291435E+03  0.00000000000E+00 0.  1.
        -11    1    3    3    0    0 -0.12350127685E+03  0.17751263476E+02 -0.12056568824E+01  0.12477630523E+03  0.00000000000E+00 0. -1.
          2    1    6    6  502    0  0.91702607640E+01  0.10102097929E+02  0.10298687573E+02  0.17094122696E+02  0.00000000000E+00 0. -1.
          1    1    5    5  503    0  0.11815120379E+02 -0.25661124036E+03  0.51221601384E+03  0.57302196344E+03  0.00000000000E+00 0. -1.
         -2    1    5    5    0  503  0.31489103019E+02 -0.13353551572E+03  0.40443697066E+03  0.42707442069E+03  0.00000000000E+00 0.  1.
         -1    1    6    6    0  502  0.40807073665E+03  0.42669566660E+03  0.14238314079E+04  0.15413911885E+04  0.00000000000E+00 0.  1.
<mgrwt>
<rscale>  0 0.20564881E+04</rscale>
<asrwt>0</asrwt>
<pdfrwt beam="1">  1        1 0.40656977E+00 0.20564881E+04</pdfrwt>
<pdfrwt beam="2">  1       -1 0.61550362E-01 0.20564881E+04</pdfrwt>
<totfact> 0.26633043E+00</totfact>
</mgrwt>
</event>
<event>
12    1  0.1495204E-007  0.2052845E+04  0.7818608E-02  0.8582305E-01
          4   -1    0    0  501    0  0.00000000000E+00  0.00000000000E+00  0.14265473743E+04  0.14265473743E+04  0.00000000000E+00 0. -1.
         -4   -1    0    0    0  501 -0.00000000000E+00 -0.00000000000E+00 -0.73852656573E+03  0.73852656573E+03  0.00000000000E+00 0.  1.
         23    2    1    2    0    0 -0.10636185961E+03 -0.33281256056E+03 -0.51225564498E+03  0.62673735991E+03  0.91196638344E+02 0.  0.
        254    2    1    2    0    0  0.10636185961E+03  0.33281256056E+03  0.12002764536E+04  0.15383365802E+04  0.89651482039E+03 0.  0.
        -24    2    4    4    0    0  0.10013599021E+03 -0.10264289025E+03 -0.81080476799E+02  0.18265235060E+03  0.78899036791E+02 0.  0.
         24    2    4    4    0    0  0.62258694028E+01  0.43545545081E+03  0.12813569304E+04  0.13556842296E+04  0.79648830187E+02 0.  0.
         13    1    3    3    0    0  0.81922556420E+01 -0.31978126441E+02 -0.89366037462E+02  0.95268054850E+02  0.00000000000E+00 0. -1.
        -13    1    3    3    0    0 -0.11455411526E+03 -0.30083443412E+03 -0.42288960752E+03  0.53146930506E+03  0.00000000000E+00 0.  1.
          4    1    6    6  502    0 -0.16963291689E+02  0.39990254705E+03  0.11616873786E+04  0.12287096345E+04  0.00000000000E+00 0. -1.
          3    1    5    5  503    0  0.11062280496E+03 -0.95409365693E+02 -0.59798445359E+02  0.15784868104E+03  0.00000000000E+00 0. -1.
         -4    1    5    5    0  503 -0.10486814752E+02 -0.72335245575E+01 -0.21282031441E+02  0.24803669555E+02  0.00000000000E+00 0.  1.
         -3    1    6    6    0  502  0.23189161092E+02  0.35552903754E+02  0.11966955180E+03  0.12697459504E+03  0.00000000000E+00 0.  1.
<mgrwt>
<rscale>  0 0.20528450E+04</rscale>
<asrwt>0</asrwt>
<pdfrwt beam="1">  1        4 0.21946883E+00 0.20528450E+04</pdfrwt>
<pdfrwt beam="2">  1       -4 0.11361947E+00 0.20528450E+04</pdfrwt>
<totfact> 0.11020878E-01</totfact>
</mgrwt>
</event>
<event>
12    1  0.1495204E-007  0.1139431E+04  0.7818608E-02  0.9167590E-01
          1   -1    0    0  501    0  0.00000000000E+00  0.00000000000E+00  0.19269416779E+04  0.19269416779E+04  0.00000000000E+00 0. -1.
         -1   -1    0    0    0  501 -0.00000000000E+00 -0.00000000000E+00 -0.16844081861E+03  0.16844081861E+03  0.00000000000E+00 0.  1.
         23    2    1    2    0    0  0.15142329508E+03 -0.10170246791E+03  0.46861584362E+03  0.51060685263E+03  0.88578455607E+02 0.  0.
        254    2    1    2    0    0 -0.15142329508E+03  0.10170246791E+03  0.12898850156E+04  0.15847756438E+04  0.90246223269E+03 0.  0.
        -24    2    4    4    0    0  0.17181792266E+03  0.21828280010E+03  0.11801320908E+04  0.12150172333E+04  0.79914617100E+02 0.  0.
         24    2    4    4    0    0 -0.32324121774E+03 -0.11658033219E+03  0.10975292483E+03  0.36975841056E+03  0.81238654396E+02 0.  0.
         11    1    3    3    0    0  0.14392164557E+03 -0.10696143665E+03  0.46828112190E+03  0.50143932646E+03  0.00000000000E+00 0. -1.
        -11    1    3    3    0    0  0.75016495066E+01  0.52589687410E+01  0.33472171870E+00  0.91675261749E+01  0.00000000000E+00 0.  1.
          4    1    6    6  502    0 -0.21203619850E+03 -0.38952952566E+02  0.48628059145E+02  0.22100083738E+03  0.00000000000E+00 0. -1.
          3    1    5    5  503    0  0.15732727080E+03  0.14890744641E+03  0.94048152601E+03  0.96510662546E+03  0.00000000000E+00 0. -1.
         -4    1    5    5    0  503  0.14490651861E+02  0.69375353687E+02  0.23965056479E+03  0.24991060781E+03  0.00000000000E+00 0.  1.
         -3    1    6    6    0  502 -0.11120501924E+03 -0.77627379620E+02  0.61124865684E+02  0.14875757317E+03  0.00000000000E+00 0.  1.
<mgrwt>
<rscale>  0 0.11394308E+04</rscale>
<asrwt>0</asrwt>
<pdfrwt beam="1">  1        1 0.29645255E+00 0.11394308E+04</pdfrwt>
<pdfrwt beam="2">  1       -1 0.25913973E-01 0.11394308E+04</pdfrwt>
<totfact> 0.43799091E+01</totfact>
</mgrwt>
</event>
<event>
12    1  0.1495204E-007  0.2107700E+04  0.7818608E-02  0.8557859E-01
         -2   -1    0    0    0  501 -0.00000000000E+00  0.00000000000E+00  0.86130280769E+03  0.86130280769E+03  0.00000000000E+00 0.  1.
          2   -1    0    0  501    0  0.00000000000E+00 -0.00000000000E+00 -0.12894422445E+04  0.12894422445E+04  0.00000000000E+00 0. -1.
         23    2    1    2    0    0  0.70267182889E+03  0.64945217714E+02 -0.66215006927E+03  0.97157154378E+03  0.86850273587E+02 0.  0.
        254    2    1    2    0    0 -0.70267182889E+03 -0.64945217714E+02  0.23401063251E+03  0.11791735084E+04  0.91527242190E+03 0.  0.
        -24    2    4    4    0    0 -0.14066246225E+03 -0.16142264229E+03  0.49585458177E+03  0.54591591941E+03  0.79430643171E+02 0.  0.
         24    2    4    4    0    0 -0.56200936664E+03  0.96477424572E+02 -0.26184394926E+03  0.63325758896E+03  0.85384416420E+02 0.  0.
         13    1    3    3    0    0  0.11131672289E+03 -0.19944051981E+02 -0.11883442740E+03  0.16404511312E+03  0.00000000000E+00 0.  1.
        -13    1    3    3    0    0  0.59135510600E+03  0.84889269694E+02 -0.54331564187E+03  0.80752643065E+03  0.00000000000E+00 0. -1.
          4    1    6    6  502    0 -0.20202205586E+03  0.71175689732E+02 -0.75495917612E+02  0.22710905627E+03  0.00000000000E+00 0. -1.
          1    1    5    5  503    0 -0.81735101568E+02 -0.14039616298E+03  0.31290775339E+03  0.35256626545E+03  0.00000000000E+00 0. -1.
         -2    1    5    5    0  503 -0.58927360678E+02 -0.21026479305E+02  0.18294682838E+03  0.19334965395E+03  0.00000000000E+00 0.  1.
         -3    1    6    6    0  502 -0.35998731078E+03  0.25301734839E+02 -0.18634803164E+03  0.40614853269E+03  0.00000000000E+00 0.  1.
<mgrwt>
<rscale>  0 0.21077004E+04</rscale>
<asrwt>0</asrwt>
<pdfrwt beam="1">  1        2 0.19837573E+00 0.21077004E+04</pdfrwt>
<pdfrwt beam="2">  1       -2 0.13250813E+00 0.21077004E+04</pdfrwt>
<totfact> 0.63901154E+00</totfact>
</mgrwt>
</event>
<event>
12    1  0.1495204E-007  0.1610964E+04  0.7818608E-02  0.8813841E-01
         -2   -1    0    0    0  501 -0.00000000000E+00  0.00000000000E+00  0.15466418477E+04  0.15466418477E+04  0.00000000000E+00 0.  1.
          2   -1    0    0  501    0  0.00000000000E+00 -0.00000000000E+00 -0.41949027512E+03  0.41949027512E+03  0.00000000000E+00 0. -1.
         23    2    1    2    0    0 -0.48967437835E+03 -0.25213956144E+03  0.37663932958E+03  0.67169489639E+03  0.77210711706E+02 0.  0.
        254    2    1    2    0    0  0.48967437835E+03  0.25213956144E+03  0.75051224298E+03  0.12944372264E+04  0.89941300355E+03 0.  0.
        -24    2    4    4    0    0  0.39383810492E+03  0.64911523099E+02 -0.96461064519E+02  0.41837683247E+03  0.80077951114E+02 0.  0.
         24    2    4    4    0    0  0.95836273424E+02  0.18722803834E+03  0.84697330750E+03  0.87606039393E+03  0.76675292962E+02 0.  0.
         11    1    3    3    0    0 -0.40920551910E+03 -0.22843109055E+03  0.29010081890E+03  0.55117003285E+03  0.00000000000E+00 0. -1.
        -11    1    3    3    0    0 -0.80468859252E+02 -0.23708470893E+02  0.86538510677E+02  0.12052486354E+03  0.00000000000E+00 0.  1.
          4    1    6    6  502    0  0.99548308603E+02  0.18185456412E+03  0.72899572697E+03  0.75790218246E+03  0.00000000000E+00 0. -1.
          1    1    5    5  503    0  0.29072300431E+03  0.25945866224E+02 -0.98721981757E+02  0.30812186370E+03  0.00000000000E+00 0. -1.
         -2    1    5    5    0  503  0.10311510062E+03  0.38965656875E+02  0.22609172374E+01  0.11025496877E+03  0.00000000000E+00 0.  1.
         -3    1    6    6    0  502 -0.37120351792E+01  0.53734742252E+01  0.11797758052E+03  0.11815821146E+03  0.00000000000E+00 0.  1.
<mgrwt>
<rscale>  0 0.16109640E+04</rscale>
<asrwt>0</asrwt>
<pdfrwt beam="1">  1        2 0.64536966E-01 0.16109640E+04</pdfrwt>
<pdfrwt beam="2">  1       -2 0.23794490E+00 0.16109640E+04</pdfrwt>
<totfact> 0.55058833E+00</totfact>
</mgrwt>
</event>
<event>
12    1  0.1495204E-007  0.1787928E+04  0.7818608E-02  0.8712745E-01
         -1   -1    0    0    0  501 -0.00000000000E+00  0.00000000000E+00  0.11877026307E+04  0.11877026307E+04  0.00000000000E+00 0.  1.
          1   -1    0    0  501    0  0.00000000000E+00 -0.00000000000E+00 -0.67287213750E+03  0.67287213750E+03  0.00000000000E+00 0. -1.
         23    2    1    2    0    0 -0.45577639106E+03 -0.48208070683E+03  0.16230473642E+03  0.68897148466E+03  0.90581193745E+02 0.  0.
        254    2    1    2    0    0  0.45577639106E+03  0.48208070683E+03  0.35252575674E+03  0.11716032835E+04  0.89902498196E+03 0.  0.
        -24    2    4    4    0    0  0.51847482560E+03  0.11448475695E+03 -0.13377151615E+03  0.55353626526E+03  0.81146004634E+02 0.  0.
         24    2    4    4    0    0 -0.62698434540E+02  0.36759594989E+03  0.48629727289E+03  0.61806701824E+03  0.80398540672E+02 0.  0.
         13    1    3    3    0    0 -0.28783453954E+03 -0.34790874952E+03  0.78804148712E+02  0.45836591715E+03  0.00000000000E+00 0. -1.
        -13    1    3    3    0    0 -0.16794185152E+03 -0.13417195731E+03  0.83500587705E+02  0.23060556751E+03  0.00000000000E+00 0.  1.
          2    1    6    6  502    0 -0.38789293856E+02  0.33655421198E+03  0.40646839407E+03  0.52914072070E+03  0.00000000000E+00 0. -1.
          3    1    5    5  503    0  0.49609579842E+03  0.10922973660E+03 -0.10861890125E+03  0.51946149258E+03  0.00000000000E+00 0. -1.
         -4    1    5    5    0  503  0.22379027183E+02  0.52550203476E+01 -0.25152614906E+02  0.34074772679E+02  0.00000000000E+00 0.  1.
         -1    1    6    6    0  502 -0.23909140684E+02  0.31041737906E+02  0.79828878818E+02  0.88926297538E+02  0.00000000000E+00 0.  1.
<mgrwt>
<rscale>  0 0.17879284E+04</rscale>
<asrwt>0</asrwt>
<pdfrwt beam="1">  1        1 0.10351879E+00 0.17879284E+04</pdfrwt>
<pdfrwt beam="2">  1       -1 0.18272348E+00 0.17879284E+04</pdfrwt>
<totfact> 0.54350882E+00</totfact>
</mgrwt>
</event>
<event>
12    1  0.1495204E-007  0.1408066E+04  0.7818608E-02  0.8948001E-01
          2   -1    0    0  501    0  0.00000000000E+00  0.00000000000E+00  0.11217807033E+04  0.11217807033E+04  0.00000000000E+00 0. -1.
         -2   -1    0    0    0  501 -0.00000000000E+00 -0.00000000000E+00 -0.44185328311E+03  0.44185328311E+03  0.00000000000E+00 0.  1.
         23    2    1    2    0    0  0.22394604632E+01  0.26826121116E+03  0.54496176200E+03  0.61425491409E+03  0.91414904923E+02 0.  0.
        254    2    1    2    0    0 -0.22394604632E+01 -0.26826121116E+03  0.13496565820E+03  0.94937907234E+03  0.90063077979E+03 0.  0.
        -24    2    4    4    0    0  0.22680815339E+03  0.25287725425E+03  0.13691634774E+03  0.37468342099E+03  0.79074240588E+02 0.  0.
         24    2    4    4    0    0 -0.22904761386E+03 -0.52113846541E+03 -0.19506895385E+01  0.57469565134E+03  0.78887115164E+02 0.  0.
         11    1    3    3    0    0  0.14332517842E+02  0.33107664099E+01  0.12146346642E+02  0.19076581944E+02  0.00000000000E+00 0.  1.
        -11    1    3    3    0    0 -0.12093057379E+02  0.26495044475E+03  0.53281541536E+03  0.59517833214E+03  0.00000000000E+00 0. -1.
          4    1    6    6  502    0 -0.82235995040E+02 -0.18943547815E+03  0.37234116885E+02  0.20984503502E+03  0.00000000000E+00 0. -1.
          3    1    5    5  503    0  0.11708420449E+03  0.77712159496E+02  0.38201077850E+02  0.14562696530E+03  0.00000000000E+00 0. -1.
         -4    1    5    5    0  503  0.10972394891E+03  0.17516509475E+03  0.98715269888E+02  0.22905645569E+03  0.00000000000E+00 0.  1.
         -3    1    6    6    0  502 -0.14681161882E+03 -0.33170298726E+03 -0.39184806423E+02  0.36485061633E+03  0.00000000000E+00 0.  1.
<mgrwt>
<rscale>  0 0.14080660E+04</rscale>
<asrwt>0</asrwt>
<pdfrwt beam="1">  1        2 0.17258165E+00 0.14080660E+04</pdfrwt>
<pdfrwt beam="2">  1       -2 0.67977428E-01 0.14080660E+04</pdfrwt>
<totfact> 0.40723160E+01</totfact>
</mgrwt>
</event>
<event>
12    1  0.1495204E-007  0.1498095E+04  0.7818608E-02  0.8885720E-01
          1   -1    0    0  501    0  0.00000000000E+00  0.00000000000E+00  0.15591224524E+04  0.15591224524E+04  0.00000000000E+00 0. -1.
         -1   -1    0    0    0  501 -0.00000000000E+00 -0.00000000000E+00 -0.35986424554E+03  0.35986424554E+03  0.00000000000E+00 0.  1.
         23    2    1    2    0    0 -0.91047213592E+02  0.46027358388E+03  0.28199628204E+03  0.55466417876E+03  0.89381659149E+02 0.  0.
        254    2    1    2    0    0  0.91047213592E+02 -0.46027358388E+03  0.91726192478E+03  0.13643225191E+04  0.89435179346E+03 0.  0.
        -24    2    4    4    0    0  0.33209501375E+03 -0.62139680598E+03  0.64390395263E+03  0.95788410957E+03  0.80675761611E+02 0.  0.
         24    2    4    4    0    0 -0.24104780016E+03  0.16112322209E+03  0.27335797215E+03  0.40643840958E+03  0.80017905377E+02 0.  0.
         11    1    3    3    0    0 -0.80487209146E+01  0.20060174511E+03  0.15648451381E+03  0.25454517303E+03  0.00000000000E+00 0. -1.
        -11    1    3    3    0    0 -0.82998492678E+02  0.25967183877E+03  0.12551176824E+03  0.30011900574E+03  0.00000000000E+00 0.  1.
          2    1    6    6  502    0 -0.19796507389E+03  0.16442020028E+03  0.23947864380E+03  0.35153121280E+03  0.00000000000E+00 0. -1.
          3    1    5    5  503    0  0.26036150190E+03 -0.54566691592E+03  0.53970537028E+03  0.81044579184E+03  0.00000000000E+00 0. -1.
         -4    1    5    5    0  503  0.71733511852E+02 -0.75729890058E+02  0.10419858235E+03  0.14743831773E+03  0.00000000000E+00 0.  1.
         -1    1    6    6    0  502 -0.43082726271E+02 -0.32969781813E+01  0.33879328354E+02  0.54907196775E+02  0.00000000000E+00 0.  1.
<mgrwt>
<rscale>  0 0.14980954E+04</rscale>
<asrwt>0</asrwt>
<pdfrwt beam="1">  1        1 0.23986499E+00 0.14980954E+04</pdfrwt>
<pdfrwt beam="2">  1       -1 0.55363731E-01 0.14980954E+04</pdfrwt>
<totfact> 0.18999429E+01</totfact>
</mgrwt>
</event>
<event>
12    1  0.1495204E-007  0.1912305E+04  0.7818608E-02  0.8648755E-01
          2   -1    0    0  501    0  0.00000000000E+00  0.00000000000E+00  0.13650796883E+04  0.13650796883E+04  0.00000000000E+00 0. -1.
         -2   -1    0    0    0  501 -0.00000000000E+00 -0.00000000000E+00 -0.66972485993E+03  0.66972485993E+03  0.00000000000E+00 0.  1.
         23    2    1    2    0    0 -0.24357942248E+03  0.20954037169E+03 -0.43451211018E+03  0.54789683389E+03  0.90288782643E+02 0.  0.
        254    2    1    2    0    0  0.24357942248E+03 -0.20954037169E+03  0.11298669385E+04  0.14869077143E+04  0.91162335953E+03 0.  0.
        -24    2    4    4    0    0 -0.77065522844E+02  0.30619667234E+03  0.23225095016E+03  0.40014909608E+03  0.80518931223E+02 0.  0.
         24    2    4    4    0    0  0.32064494533E+03 -0.51573704402E+03  0.89761598836E+03  0.10867586182E+04  0.80820493415E+02 0.  0.
         11    1    3    3    0    0 -0.25631375590E+02  0.55868060638E+02 -0.12535657177E+03  0.13961546369E+03  0.00000000000E+00 0. -1.
        -11    1    3    3    0    0 -0.21794804690E+03  0.15367231105E+03 -0.30915553841E+03  0.40828137021E+03  0.00000000000E+00 0.  1.
          2    1    6    6  502    0  0.12054595350E+02 -0.51333447657E+00  0.16972524292E+02  0.20824105315E+02  0.00000000000E+00 0. -1.
          1    1    5    5  503    0  0.34872303590E+01  0.14373442730E+03  0.89400473728E+02  0.16930502376E+03  0.00000000000E+00 0. -1.
         -2    1    5    5    0  503 -0.80552753203E+02  0.16246224503E+03  0.14285047643E+03  0.23084407232E+03  0.00000000000E+00 0.  1.
         -1    1    6    6    0  502  0.30859034998E+03 -0.51522370955E+03  0.88064346406E+03  0.10659345129E+04  0.00000000000E+00 0.  1.
<mgrwt>
<rscale>  0 0.19123052E+04</rscale>
<asrwt>0</asrwt>
<pdfrwt beam="1">  1        2 0.21001226E+00 0.19123052E+04</pdfrwt>
<pdfrwt beam="2">  1       -2 0.10303459E+00 0.19123052E+04</pdfrwt>
<totfact> 0.10908120E+01</totfact>
</mgrwt>
</event>
<event>
12    1  0.2109864E-007  0.3199831E+04  0.7818608E-02  0.8188862E-01
         -2   -1    0    0    0  501 -0.00000000000E+00  0.00000000000E+00  0.11225703396E+04  0.11225703396E+04  0.00000000000E+00 0.  1.
          2   -1    0    0  501    0  0.00000000000E+00 -0.00000000000E+00 -0.22802400206E+04  0.22802400206E+04  0.00000000000E+00 0. -1.
         23    2    1    2    0    0 -0.65196233076E+02 -0.14026930801E+04 -0.99135713326E+03  0.17212542846E+04  0.90160528864E+02 0.  0.
        254    2    1    2    0    0  0.65196233076E+02  0.14026930801E+04 -0.16631254774E+03  0.16815560756E+04  0.91003985959E+03 0.  0.
        -24    2    4    4    0    0  0.27233633789E+03  0.10454443907E+04 -0.45120696486E+03  0.11735008118E+04  0.79971088857E+02 0.  0.
         24    2    4    4    0    0 -0.20714010481E+03  0.35724868935E+03  0.28489441712E+03  0.50805526380E+03  0.80135342381E+02 0.  0.
         13    1    3    3    0    0 -0.18534241906E+02 -0.47828289580E+03 -0.28646056183E+03  0.55781511276E+03  0.00000000000E+00 0.  1.
        -13    1    3    3    0    0 -0.46661991170E+02 -0.92441018429E+03 -0.70489657144E+03  0.11634391719E+04  0.00000000000E+00 0. -1.
          4    1    6    6  502    0 -0.21185699468E+03  0.34970127130E+03  0.26774778484E+03  0.48873637232E+03  0.00000000000E+00 0. -1.
          1    1    5    5  503    0  0.26572896693E+03  0.10377891757E+04 -0.43920842788E+03  0.11578092676E+04  0.00000000000E+00 0. -1.
         -2    1    5    5    0  503  0.66073709601E+01  0.76552150223E+01 -0.11998536983E+02  0.15691544149E+02  0.00000000000E+00 0.  1.
         -3    1    6    6    0  502  0.47168898652E+01  0.75474180559E+01  0.17146632284E+02  0.19318891479E+02  0.00000000000E+00 0.  1.
<mgrwt>
<rscale>  0 0.31998311E+04</rscale>
<asrwt>0</asrwt>
<pdfrwt beam="1">  1        2 0.35080615E+00 0.31998311E+04</pdfrwt>
<pdfrwt beam="2">  1       -2 0.17270313E+00 0.31998311E+04</pdfrwt>
<totfact> 0.79887660E-01</totfact>
</mgrwt>
</event>
<event>
12    1  0.1495204E-007  0.1225607E+04  0.7818608E-02  0.9090733E-01
         -1   -1    0    0    0  501 -0.00000000000E+00  0.00000000000E+00  0.12896819489E+04  0.12896819489E+04  0.00000000000E+00 0.  1.
          1   -1    0    0  501    0  0.00000000000E+00 -0.00000000000E+00 -0.29117907203E+03  0.29117907203E+03  0.00000000000E+00 0. -1.
         23    2    1    2    0    0 -0.13946785055E+02 -0.12555766639E+02  0.57326238986E+03  0.58310041692E+03  0.10499604037E+03 0.  0.
        254    2    1    2    0    0  0.13946785055E+02  0.12555766639E+02  0.42524048699E+03  0.99776060400E+03  0.90241043380E+03 0.  0.
        -24    2    4    4    0    0  0.19752906548E+03  0.18720454058E+03 -0.18046620051E+03  0.33641137455E+03  0.80878252165E+02 0.  0.
         24    2    4    4    0    0 -0.18358228043E+03 -0.17464877394E+03  0.60570668750E+03  0.66134922945E+03  0.79357193056E+02 0.  0.
         13    1    3    3    0    0  0.13972181555E+02  0.41774450849E+02  0.29003221386E+03  0.29335816279E+03  0.00000000000E+00 0. -1.
        -13    1    3    3    0    0 -0.27918966609E+02 -0.54330217487E+02  0.28323017601E+03  0.28974225413E+03  0.00000000000E+00 0.  1.
          2    1    6    6  502    0 -0.78590119832E+02 -0.86691644126E+02  0.37725300728E+03  0.39498313837E+03  0.00000000000E+00 0. -1.
          3    1    5    5  503    0  0.13207107501E+03  0.13999086293E+03 -0.16653841125E+03  0.25450982885E+03  0.00000000000E+00 0. -1.
         -4    1    5    5    0  503  0.65457990476E+02  0.47213677647E+02 -0.13927789259E+02  0.81901545698E+02  0.00000000000E+00 0.  1.
         -1    1    6    6    0  502 -0.10499216059E+03 -0.87957129816E+02  0.22845368022E+03  0.26636609108E+03  0.00000000000E+00 0.  1.
<mgrwt>
<rscale>  0 0.12256074E+04</rscale>
<asrwt>0</asrwt>
<pdfrwt beam="1">  1        1 0.44796781E-01 0.12256074E+04</pdfrwt>
<pdfrwt beam="2">  1       -1 0.19841260E+00 0.12256074E+04</pdfrwt>
<totfact> 0.13903938E+01</totfact>
</mgrwt>
</event>
<event>
12    1  0.1495204E-007  0.1275540E+04  0.7818608E-02  0.9049191E-01
         -1   -1    0    0    0  501 -0.00000000000E+00  0.00000000000E+00  0.12284858060E+03  0.12284858060E+03  0.00000000000E+00 0.  1.
          1   -1    0    0  501    0  0.00000000000E+00 -0.00000000000E+00 -0.33109890765E+04  0.33109890765E+04  0.00000000000E+00 0. -1.
         23    2    1    2    0    0 -0.27141831036E+03  0.14230714441E+03 -0.90041635595E+03  0.95543896562E+03  0.90525026459E+02 0.  0.
        254    2    1    2    0    0  0.27141831036E+03 -0.14230714441E+03 -0.22877241399E+04  0.24783986915E+04  0.90269546964E+03 0.  0.
        -24    2    4    4    0    0  0.19728744068E+02  0.57600567890E+00 -0.21458178886E+04  0.21472729042E+04  0.76530773042E+02 0.  0.
         24    2    4    4    0    0  0.25168956629E+03 -0.14288315009E+03 -0.14190625135E+03  0.33112578722E+03  0.75787007040E+02 0.  0.
         11    1    3    3    0    0 -0.95173767881E+02  0.41866338931E+02 -0.44334653420E+03  0.45537565352E+03  0.00000000000E+00 0. -1.
        -11    1    3    3    0    0 -0.17624454247E+03  0.10044080548E+03 -0.45706982175E+03  0.50006331210E+03  0.00000000000E+00 0.  1.
          2    1    6    6  502    0  0.10800389874E+03 -0.32633391827E+02 -0.85083512436E+02  0.14131165731E+03  0.00000000000E+00 0. -1.
          1    1    5    5  503    0  0.35302557989E+02 -0.11365577144E+02 -0.51369772470E+03  0.51503475544E+03  0.00000000000E+00 0. -1.
         -2    1    5    5    0  503 -0.15573813921E+02  0.11941582823E+02 -0.16321201639E+04  0.16322381488E+04  0.00000000000E+00 0.  1.
         -1    1    6    6    0  502  0.14368566755E+03 -0.11024975826E+03 -0.56822738912E+02  0.18981412991E+03  0.00000000000E+00 0.  1.
<mgrwt>
<rscale>  0 0.12755396E+04</rscale>
<asrwt>0</asrwt>
<pdfrwt beam="1">  1        1 0.50938302E+00 0.12755396E+04</pdfrwt>
<pdfrwt beam="2">  1       -1 0.18899778E-01 0.12755396E+04</pdfrwt>
<totfact> 0.78734692E+00</totfact>
</mgrwt>
</event>
<event>
12    1  0.1495204E-007  0.1908110E+04  0.7818608E-02  0.8650830E-01
          2   -1    0    0  501    0  0.00000000000E+00  0.00000000000E+00  0.90763671470E+03  0.90763671470E+03  0.00000000000E+00 0. -1.
         -2   -1    0    0    0  501 -0.00000000000E+00 -0.00000000000E+00 -0.10028467428E+04  0.10028467428E+04  0.00000000000E+00 0.  1.
         23    2    1    2    0    0 -0.37236914474E+03  0.14210966849E+03 -0.65666954638E+03  0.77394212112E+03  0.94432917279E+02 0.  0.
        254    2    1    2    0    0  0.37236914474E+03 -0.14210966849E+03  0.56145951825E+03  0.11365413364E+04  0.90423198402E+03 0.  0.
        -24    2    4    4    0    0 -0.23637072614E+03  0.16657296237E+03  0.19256188175E+03  0.35649751251E+03  0.79954525538E+02 0.  0.
         24    2    4    4    0    0  0.60873987088E+03 -0.30868263086E+03  0.36889763651E+03  0.78004382391E+03  0.80831330582E+02 0.  0.
         13    1    3    3    0    0 -0.79101144487E+02  0.21752655497E+02 -0.73340022645E+02  0.11004057434E+03  0.00000000000E+00 0. -1.
        -13    1    3    3    0    0 -0.29326800025E+03  0.12035701299E+03 -0.58332952374E+03  0.66390154678E+03  0.00000000000E+00 0.  1.
          2    1    6    6  502    0  0.57625918392E+03 -0.28558451586E+03  0.32446413012E+03  0.72035417295E+03  0.00000000000E+00 0. -1.
          1    1    5    5  503    0 -0.19955205678E+03  0.11876647353E+03  0.11770270821E+03  0.26034674209E+03  0.00000000000E+00 0. -1.
         -2    1    5    5    0  503 -0.36818669366E+02  0.47806488835E+02  0.74859173538E+02  0.96150770415E+02  0.00000000000E+00 0.  1.
         -1    1    6    6    0  502  0.32480686965E+02 -0.23098114996E+02  0.44433506386E+02  0.59689650961E+02  0.00000000000E+00 0.  1.
<mgrwt>
<rscale>  0 0.19081096E+04</rscale>
<asrwt>0</asrwt>
<pdfrwt beam="1">  1        2 0.13963642E+00 0.19081096E+04</pdfrwt>
<pdfrwt beam="2">  1       -2 0.15428411E+00 0.19081096E+04</pdfrwt>
<totfact> 0.75359418E+00</totfact>
</mgrwt>
</event>
<event>
12    1  0.1495204E-007  0.3494829E+04  0.7818608E-02  0.8115017E-01
         -1   -1    0    0    0  501 -0.00000000000E+00  0.00000000000E+00  0.12640407233E+04  0.12640407233E+04  0.00000000000E+00 0.  1.
          1   -1    0    0  501    0  0.00000000000E+00 -0.00000000000E+00 -0.24156319561E+04  0.24156319561E+04  0.00000000000E+00 0. -1.
         23    2    1    2    0    0  0.15196689274E+03  0.61167864975E+03  0.10460376144E+04  0.12245716913E+04  0.90202159313E+02 0.  0.
        254    2    1    2    0    0 -0.15196689274E+03 -0.61167864975E+03 -0.21976288472E+04  0.24551009881E+04  0.89482043154E+03 0.  0.
        -24    2    4    4    0    0 -0.32868933485E+03 -0.52472300701E+03 -0.68200928160E+03  0.92468055265E+03  0.80787074038E+02 0.  0.
         24    2    4    4    0    0  0.17672244212E+03 -0.86955642741E+02 -0.15156195656E+04  0.15304204355E+04  0.79321726335E+02 0.  0.
         13    1    3    3    0    0  0.46655385827E+02  0.25216587144E+03  0.34696811361E+03  0.43145245811E+03  0.00000000000E+00 0. -1.
        -13    1    3    3    0    0  0.10531150691E+03  0.35951277831E+03  0.69906950074E+03  0.79311923323E+03  0.00000000000E+00 0.  1.
          4    1    6    6  502    0  0.10575407001E+03 -0.86003958422E+02 -0.11432188175E+04  0.11513165807E+04  0.00000000000E+00 0. -1.
          3    1    5    5  503    0 -0.32415358007E+03 -0.51286836739E+03 -0.68081580150E+03  0.91193182932E+03  0.00000000000E+00 0. -1.
         -4    1    5    5    0  503 -0.45357547790E+01 -0.11854639617E+02 -0.11934800950E+01  0.12748723332E+02  0.00000000000E+00 0.  1.
         -3    1    6    6    0  502  0.70968372104E+02 -0.95168431974E+00 -0.37240074808E+03  0.37910385478E+03  0.00000000000E+00 0.  1.
<mgrwt>
<rscale>  0 0.34948288E+04</rscale>
<asrwt>0</asrwt>
<pdfrwt beam="1">  1        1 0.37163568E+00 0.34948288E+04</pdfrwt>
<pdfrwt beam="2">  1       -1 0.19446781E+00 0.34948288E+04</pdfrwt>
<totfact> 0.20794913E-01</totfact>
</mgrwt>
</event>
<event>
12    1  0.1495204E-007  0.4405524E+04  0.7818608E-02  0.7927389E-01
         -2   -1    0    0    0  501 -0.00000000000E+00  0.00000000000E+00  0.24277999278E+04  0.24277999278E+04  0.00000000000E+00 0.  1.
          2   -1    0    0  501    0  0.00000000000E+00 -0.00000000000E+00 -0.19985834517E+04  0.19985834517E+04  0.00000000000E+00 0. -1.
         23    2    1    2    0    0  0.50210077874E+03  0.13197004446E+04  0.17783451496E+04  0.22723038902E+04  0.84492854911E+02 0.  0.
        254    2    1    2    0    0 -0.50210077874E+03 -0.13197004446E+04 -0.13491286735E+04  0.21540794894E+04  0.90895314139E+03 0.  0.
        -24    2    4    4    0    0  0.17103379042E+03 -0.64312050979E+03 -0.30248022630E+03  0.73539189553E+03  0.80314414193E+02 0.  0.
         24    2    4    4    0    0 -0.67313456916E+03 -0.67657993483E+03 -0.10466484472E+04  0.14186875938E+04  0.79567332725E+02 0.  0.
         11    1    3    3    0    0  0.42777797602E+03  0.11662189132E+04  0.15992275259E+04  0.20249911678E+04  0.00000000000E+00 0. -1.
        -11    1    3    3    0    0  0.74322802724E+02  0.15348153145E+03  0.17911762375E+03  0.24731272236E+03  0.00000000000E+00 0.  1.
          2    1    6    6  502    0 -0.27697161983E+03 -0.22659492395E+03 -0.40926126580E+03  0.54364815960E+03  0.00000000000E+00 0. -1.
          1    1    5    5  503    0  0.77970099588E+02 -0.36041041946E+03 -0.20668530960E+03  0.42272192288E+03  0.00000000000E+00 0. -1.
         -2    1    5    5    0  503  0.93063690829E+02 -0.28271009033E+03 -0.95794916702E+02  0.31266997264E+03  0.00000000000E+00 0.  1.
         -1    1    6    6    0  502 -0.39616294933E+03 -0.44998501089E+03 -0.63738718140E+03  0.87503943423E+03  0.00000000000E+00 0.  1.
<mgrwt>
<rscale>  0 0.44055242E+04</rscale>
<asrwt>0</asrwt>
<pdfrwt beam="1">  1        2 0.30747438E+00 0.44055242E+04</pdfrwt>
<pdfrwt beam="2">  1       -2 0.37350768E+00 0.44055242E+04</pdfrwt>
<totfact> 0.56331617E-02</totfact>
</mgrwt>
</event>
<event>
12    1  0.1495204E-007  0.2000853E+04  0.7818608E-02  0.8606222E-01
          2   -1    0    0  501    0  0.00000000000E+00  0.00000000000E+00  0.12078097115E+04  0.12078097115E+04  0.00000000000E+00 0. -1.
         -2   -1    0    0    0  501 -0.00000000000E+00 -0.00000000000E+00 -0.82865099773E+03  0.82865099773E+03  0.00000000000E+00 0.  1.
         23    2    1    2    0    0  0.12347601399E+03 -0.55872884473E+03 -0.40973347675E+03  0.70976256988E+03  0.91962686314E+02 0.  0.
        254    2    1    2    0    0 -0.12347601399E+03  0.55872884473E+03  0.78889219054E+03  0.13266981394E+04  0.90019598797E+03 0.  0.
        -24    2    4    4    0    0 -0.10520030634E+03  0.71223448569E+03  0.87253279112E+03  0.11340202683E+04  0.79645654649E+02 0.  0.
         24    2    4    4    0    0 -0.18275707652E+02 -0.15350564096E+03 -0.83640600586E+02  0.19267787106E+03  0.78936864851E+02 0.  0.
         11    1    3    3    0    0  0.79931261040E+02 -0.48717176383E+03 -0.37059322516E+03  0.61730435969E+03  0.00000000000E+00 0.  1.
        -11    1    3    3    0    0  0.43544752951E+02 -0.71557080901E+02 -0.39140251584E+02  0.92458210186E+02  0.00000000000E+00 0. -1.
          2    1    6    6  502    0 -0.19508347351E+02 -0.16290325046E+03 -0.79897647284E+02  0.18248747537E+03  0.00000000000E+00 0. -1.
          3    1    5    5  503    0 -0.93792184961E+02  0.36802874318E+03  0.44542461687E+03  0.58535905142E+03  0.00000000000E+00 0. -1.
         -4    1    5    5    0  503 -0.11408121379E+02  0.34420574250E+03  0.42710817426E+03  0.54866121689E+03  0.00000000000E+00 0.  1.
         -1    1    6    6    0  502  0.12326396989E+01  0.93976094960E+01 -0.37429533021E+01  0.10190395689E+02  0.00000000000E+00 0.  1.
<mgrwt>
<rscale>  0 0.20008525E+04</rscale>
<asrwt>0</asrwt>
<pdfrwt beam="1">  1        2 0.18581688E+00 0.20008525E+04</pdfrwt>
<pdfrwt beam="2">  1       -2 0.12748477E+00 0.20008525E+04</pdfrwt>
<totfact> 0.79443327E+00</totfact>
</mgrwt>
</event>
<event>
12    1  0.1495204E-007  0.1540910E+04  0.7818608E-02  0.8857695E-01
          2   -1    0    0  501    0  0.00000000000E+00  0.00000000000E+00  0.30949401578E+03  0.30949401578E+03  0.00000000000E+00 0. -1.
         -2   -1    0    0    0  501 -0.00000000000E+00 -0.00000000000E+00 -0.19179714326E+04  0.19179714326E+04  0.00000000000E+00 0.  1.
         23    2    1    2    0    0 -0.15478297145E+03 -0.26827073281E+03 -0.10834875642E+04  0.11304184664E+04  0.89295314056E+02 0.  0.
        254    2    1    2    0    0  0.15478297145E+03  0.26827073281E+03 -0.52498985263E+03  0.10970469820E+04  0.91212432318E+03 0.  0.
        -24    2    4    4    0    0  0.12344975684E+03  0.85703573473E+02  0.24652463389E+03  0.29951090820E+03  0.79670848149E+02 0.  0.
         24    2    4    4    0    0  0.31333214610E+02  0.18256715933E+03 -0.77151448652E+03  0.79753607376E+03  0.80725758151E+02 0.  0.
         13    1    3    3    0    0  0.51057299540E+01 -0.46629953248E+02 -0.11755656923E+03  0.12657001219E+03  0.00000000000E+00 0. -1.
        -13    1    3    3    0    0 -0.15988870141E+03 -0.22164077956E+03 -0.96593099497E+03  0.10038484542E+04  0.00000000000E+00 0.  1.
          2    1    6    6  502    0  0.24876932159E+02  0.15040719869E+03 -0.72349738363E+03  0.73938464366E+03  0.00000000000E+00 0. -1.
          1    1    5    5  503    0  0.12479997061E+03  0.57818953079E+02  0.17399136554E+03  0.22179057528E+03  0.00000000000E+00 0. -1.
         -2    1    5    5    0  503 -0.13502137688E+01  0.27884620393E+02  0.72533268352E+02  0.77720332922E+02  0.00000000000E+00 0.  1.
         -1    1    6    6    0  502  0.64562824515E+01  0.32159960643E+02 -0.48017102895E+02  0.58151430095E+02  0.00000000000E+00 0.  1.
<mgrwt>
<rscale>  0 0.15409097E+04</rscale>
<asrwt>0</asrwt>
<pdfrwt beam="1">  1        2 0.47614464E-01 0.15409097E+04</pdfrwt>
<pdfrwt beam="2">  1       -2 0.29507253E+00 0.15409097E+04</pdfrwt>
<totfact> 0.34902709E+00</totfact>
</mgrwt>
</event>
<event>
12    1  0.1495204E-007  0.2782047E+04  0.7818608E-02  0.8308864E-01
          1   -1    0    0  501    0  0.00000000000E+00  0.00000000000E+00  0.28588768295E+04  0.28588768295E+04  0.00000000000E+00 0. -1.
         -1   -1    0    0    0  501 -0.00000000000E+00 -0.00000000000E+00 -0.67682065917E+03  0.67682065917E+03  0.00000000000E+00 0.  1.
         23    2    1    2    0    0  0.90677415054E+03 -0.20180987381E+03 -0.72082080761E+02  0.93633711116E+03  0.92546064815E+02 0.  0.
        254    2    1    2    0    0 -0.90677415054E+03  0.20180987381E+03  0.22541382511E+04  0.25993603775E+04  0.90142583270E+03 0.  0.
        -24    2    4    4    0    0 -0.10039492958E+04  0.33182392746E+03  0.15914744607E+04  0.19124120053E+04  0.80668527716E+02 0.  0.
         24    2    4    4    0    0  0.97175145307E+02 -0.13001405364E+03  0.66266379037E+03  0.68694837222E+03  0.80175457698E+02 0.  0.
         13    1    3    3    0    0  0.29380221603E+03 -0.88034237921E+02 -0.61458715586E+02  0.31280495986E+03  0.00000000000E+00 0. -1.
        -13    1    3    3    0    0  0.61297193451E+03 -0.11377563589E+03 -0.10623365175E+02  0.62353215130E+03  0.00000000000E+00 0.  1.
          2    1    6    6  502    0  0.98622347044E+01 -0.28306050863E+02  0.39805456753E+02  0.49829414768E+02  0.00000000000E+00 0. -1.
          1    1    5    5  503    0 -0.21693181488E+02  0.10644043023E+02  0.61891987676E+02  0.66441763323E+02  0.00000000000E+00 0. -1.
         -2    1    5    5    0  503 -0.98225611436E+03  0.32117988443E+03  0.15295824730E+04  0.18459702419E+04  0.00000000000E+00 0.  1.
         -1    1    6    6    0  502  0.87312910603E+02 -0.10170800278E+03  0.62285833362E+03  0.63711895746E+03  0.00000000000E+00 0.  1.
<mgrwt>
<rscale>  0 0.27820474E+04</rscale>
<asrwt>0</asrwt>
<pdfrwt beam="1">  1        1 0.43982720E+00 0.27820474E+04</pdfrwt>
<pdfrwt beam="2">  1       -1 0.10412626E+00 0.27820474E+04</pdfrwt>
<totfact> 0.56894587E-01</totfact>
</mgrwt>
</event>
<event>
12    1  0.1495204E-007  0.1176513E+04  0.7818608E-02  0.9133667E-01
         -2   -1    0    0    0  501 -0.00000000000E+00  0.00000000000E+00  0.82326025481E+03  0.82326025481E+03  0.00000000000E+00 0.  1.
          2   -1    0    0  501    0  0.00000000000E+00 -0.00000000000E+00 -0.42033541455E+03  0.42033541455E+03  0.00000000000E+00 0. -1.
         23    2    1    2    0    0  0.36250628474E+02  0.19676677570E+03 -0.37178780650E+02  0.22211323919E+03  0.88998635981E+02 0.  0.
        254    2    1    2    0    0 -0.36250628474E+02 -0.19676677570E+03  0.44010362091E+03  0.10214824302E+04  0.89983547714E+03 0.  0.
        -24    2    4    4    0    0  0.37583810094E+03 -0.29638730509E+03  0.18469765829E+03  0.51971412943E+03  0.83005051714E+02 0.  0.
         24    2    4    4    0    0 -0.41208872942E+03  0.99620529390E+02  0.25540596262E+03  0.50176830074E+03  0.82449081876E+02 0.  0.
         13    1    3    3    0    0 -0.18820324325E+01  0.16340749698E+03 -0.79276670527E+01  0.16361051317E+03  0.00000000000E+00 0.  1.
        -13    1    3    3    0    0  0.38132660906E+02  0.33359278724E+02 -0.29251113597E+02  0.58502726017E+02  0.00000000000E+00 0. -1.
          2    1    6    6  502    0 -0.98792500876E+02 -0.11546918490E+02  0.58130141311E+02  0.11520591515E+03  0.00000000000E+00 0. -1.
          3    1    5    5  503    0  0.13980732107E+03 -0.62131803453E+02  0.50473682063E+02  0.16110257790E+03  0.00000000000E+00 0. -1.
         -4    1    5    5    0  503  0.23603077987E+03 -0.23425550164E+03  0.13422397622E+03  0.35861155153E+03  0.00000000000E+00 0.  1.
         -1    1    6    6    0  502 -0.31329622854E+03  0.11116744788E+03  0.19727582131E+03  0.38656238560E+03  0.00000000000E+00 0.  1.
<mgrwt>
<rscale>  0 0.11765125E+04</rscale>
<asrwt>0</asrwt>
<pdfrwt beam="1">  1        2 0.64666987E-01 0.11765125E+04</pdfrwt>
<pdfrwt beam="2">  1       -2 0.12665542E+00 0.11765125E+04</pdfrwt>
<totfact> 0.34441765E+01</totfact>
</mgrwt>
</event>
<event>
12    1  0.1495204E-007  0.1616065E+04  0.7818608E-02  0.8810739E-01
          2   -1    0    0  501    0  0.00000000000E+00  0.00000000000E+00  0.10427918278E+04  0.10427918278E+04  0.00000000000E+00 0. -1.
         -2   -1    0    0    0  501 -0.00000000000E+00 -0.00000000000E+00 -0.62612390987E+03  0.62612390987E+03  0.00000000000E+00 0.  1.
         23    2    1    2    0    0  0.45072500309E+03 -0.20916424263E+03 -0.87446070499E+02  0.51255763044E+03  0.90364818779E+02 0.  0.
        254    2    1    2    0    0 -0.45072500309E+03  0.20916424263E+03  0.50411398847E+03  0.11563581073E+04  0.91440168968E+03 0.  0.
        -24    2    4    4    0    0  0.34024771099E+02 -0.15433828587E+03 -0.17023159704E+03  0.24626379384E+03  0.81786722586E+02 0.  0.
         24    2    4    4    0    0 -0.48474977419E+03  0.36350252850E+03  0.67434558551E+03  0.91009431343E+03  0.80082824943E+02 0.  0.
         11    1    3    3    0    0  0.41181660325E+02 -0.11415475467E+02 -0.34063204055E+02  0.54649282683E+02  0.00000000000E+00 0.  1.
        -11    1    3    3    0    0  0.40954334276E+03 -0.19774876716E+03 -0.53382866444E+02  0.45790834776E+03  0.00000000000E+00 0. -1.
          2    1    6    6  502    0 -0.38643281879E+03  0.26245439185E+03  0.55462010612E+03  0.72513177654E+03  0.00000000000E+00 0. -1.
          1    1    5    5  503    0  0.59405495015E+02 -0.96872865848E+02 -0.12447934977E+03  0.16854813406E+03  0.00000000000E+00 0. -1.
         -2    1    5    5    0  503 -0.25380723916E+02 -0.57465420021E+02 -0.45752247272E+02  0.77715659781E+02  0.00000000000E+00 0.  1.
         -1    1    6    6    0  502 -0.98316955398E+02  0.10104813665E+03  0.11972547939E+03  0.18496253689E+03  0.00000000000E+00 0.  1.
<mgrwt>
<rscale>  0 0.16160655E+04</rscale>
<asrwt>0</asrwt>
<pdfrwt beam="1">  1        2 0.16042951E+00 0.16160655E+04</pdfrwt>
<pdfrwt beam="2">  1       -2 0.96326755E-01 0.16160655E+04</pdfrwt>
<totfact> 0.20444005E+01</totfact>
</mgrwt>
</event>
<event>
12    1  0.1495204E-007  0.1343156E+04  0.7818608E-02  0.8996025E-01
          1   -1    0    0  501    0  0.00000000000E+00  0.00000000000E+00  0.14919811645E+04  0.14919811645E+04  0.00000000000E+00 0. -1.
         -1   -1    0    0    0  501 -0.00000000000E+00 -0.00000000000E+00 -0.30229419542E+03  0.30229419542E+03  0.00000000000E+00 0.  1.
         23    2    1    2    0    0 -0.21690455055E+01  0.35178757367E+03  0.42398704688E+03  0.55845193730E+03  0.91347406130E+02 0.  0.
        254    2    1    2    0    0  0.21690455055E+01 -0.35178757367E+03  0.76569992225E+03  0.12358234227E+04  0.90399334033E+03 0.  0.
        -24    2    4    4    0    0  0.40797399334E+03 -0.75420877011E+02  0.15866998740E+03  0.45097014070E+03  0.77889761683E+02 0.  0.
         24    2    4    4    0    0 -0.40580494783E+03 -0.27636669665E+03  0.60702993485E+03  0.78485328197E+03  0.80331349524E+02 0.  0.
         11    1    3    3    0    0 -0.66166697020E+01  0.63565071814E+02  0.13954723209E+03  0.15348527179E+03  0.00000000000E+00 0.  1.
        -11    1    3    3    0    0  0.44476241965E+01  0.28822250185E+03  0.28443981479E+03  0.40496666550E+03  0.00000000000E+00 0. -1.
          2    1    6    6  502    0 -0.21356697612E+03 -0.15845527361E+03  0.38870361123E+03  0.47096647907E+03  0.00000000000E+00 0. -1.
          1    1    5    5  503    0  0.36459086973E+03 -0.78664588279E+02  0.11744135459E+03  0.39103336368E+03  0.00000000000E+00 0. -1.
         -2    1    5    5    0  503  0.43383123605E+02  0.32437112676E+01  0.41228632816E+02  0.59936777027E+02  0.00000000000E+00 0.  1.
         -1    1    6    6    0  502 -0.19223797171E+03 -0.11791142305E+03  0.21832632362E+03  0.31388680291E+03  0.00000000000E+00 0.  1.
<mgrwt>
<rscale>  0 0.13431564E+04</rscale>
<asrwt>0</asrwt>
<pdfrwt beam="1">  1        1 0.22953556E+00 0.13431564E+04</pdfrwt>
<pdfrwt beam="2">  1       -1 0.46506800E-01 0.13431564E+04</pdfrwt>
<totfact> 0.29872640E+01</totfact>
</mgrwt>
</event>
<event>
12    1  0.1495204E-007  0.1096142E+04  0.7818608E-02  0.9208960E-01
         -2   -1    0    0    0  501 -0.00000000000E+00  0.00000000000E+00  0.19903007066E+03  0.19903007066E+03  0.00000000000E+00 0.  1.
          2   -1    0    0  501    0  0.00000000000E+00 -0.00000000000E+00 -0.15092282455E+04  0.15092282455E+04  0.00000000000E+00 0. -1.
         23    2    1    2    0    0  0.13990472731E+03 -0.84848558137E+02 -0.27447015683E+03  0.33248749952E+03  0.91877417269E+02 0.  0.
        254    2    1    2    0    0 -0.13990472731E+03  0.84848558137E+02 -0.10357280180E+04  0.13757708166E+04  0.89064033260E+03 0.  0.
        -24    2    4    4    0    0 -0.26902480073E+03  0.23591405494E+03 -0.10939050945E+04  0.11537762028E+04  0.80878832741E+02 0.  0.
         24    2    4    4    0    0  0.12912007342E+03 -0.15106549680E+03  0.58177076522E+02  0.22199461384E+03  0.80026612167E+02 0.  0.
         13    1    3    3    0    0  0.13627548528E+03 -0.53802942060E+02 -0.17506467827E+03  0.22828360879E+03  0.00000000000E+00 0. -1.
        -13    1    3    3    0    0  0.36292420236E+01 -0.31045616076E+02 -0.99405478560E+02  0.10420389073E+03  0.00000000000E+00 0.  1.
          2    1    6    6  502    0  0.30250724951E+02 -0.36012304005E+02 -0.20269032241E+02  0.51213534030E+02  0.00000000000E+00 0. -1.
          3    1    5    5  503    0 -0.41090583052E+01  0.11398134089E+02 -0.10451671512E+03  0.10521666009E+03  0.00000000000E+00 0. -1.
         -4    1    5    5    0  503 -0.26491574242E+03  0.22451592085E+03 -0.98938837937E+03  0.10485595427E+04  0.00000000000E+00 0.  1.
         -1    1    6    6    0  502  0.98869348469E+02 -0.11505319280E+03  0.78446108763E+02  0.17078107981E+03  0.00000000000E+00 0.  1.
<mgrwt>
<rscale>  0 0.10961420E+04</rscale>
<asrwt>0</asrwt>
<pdfrwt beam="1">  1        2 0.23218895E+00 0.10961420E+04</pdfrwt>
<pdfrwt beam="2">  1       -2 0.30620012E-01 0.10961420E+04</pdfrwt>
<totfact> 0.12283721E+02</totfact>
</mgrwt>
</event>
<event>
12    1  0.1495204E-007  0.1135196E+04  0.7818608E-02  0.9171550E-01
         -2   -1    0    0    0  501 -0.00000000000E+00  0.00000000000E+00  0.19213707012E+03  0.19213707012E+03  0.00000000000E+00 0.  1.
          2   -1    0    0  501    0  0.00000000000E+00 -0.00000000000E+00 -0.16767595013E+04  0.16767595013E+04  0.00000000000E+00 0. -1.
         23    2    1    2    0    0  0.11861619321E+03 -0.11561037486E+03 -0.14500690020E+03  0.24979542947E+03  0.11804742865E+03 0.  0.
        254    2    1    2    0    0 -0.11861619321E+03  0.11561037486E+03 -0.13396155310E+04  0.16191011420E+04  0.89413823146E+03 0.  0.
        -24    2    4    4    0    0 -0.41086692179E+03  0.32923178723E+03 -0.69835937320E+03  0.87825663507E+03  0.80148024088E+02 0.  0.
         24    2    4    4    0    0  0.29225072858E+03 -0.21362141237E+03 -0.64125615779E+03  0.74084450689E+03  0.81219008293E+02 0.  0.
         13    1    3    3    0    0  0.27193187685E+02 -0.60765142239E+02 -0.12456879970E+03  0.14124184163E+03  0.00000000000E+00 0. -1.
        -13    1    3    3    0    0  0.91423005528E+02 -0.54845232618E+02 -0.20438100498E+02  0.10855358784E+03  0.00000000000E+00 0.  1.
          4    1    6    6  502    0  0.27582417058E+03 -0.20856806180E+03 -0.63403061261E+03  0.72220109886E+03  0.00000000000E+00 0. -1.
          1    1    5    5  503    0 -0.28174229277E+03  0.18512970697E+03 -0.40680813768E+03  0.52834135634E+03  0.00000000000E+00 0. -1.
         -2    1    5    5    0  503 -0.12912462902E+03  0.14410208026E+03 -0.29155123553E+03  0.34991527874E+03  0.00000000000E+00 0.  1.
         -1    1    6    6    0  502  0.16426558000E+02 -0.50533505785E+01 -0.72255451879E+01  0.18643408032E+02  0.00000000000E+00 0.  1.
<mgrwt>
<rscale>  0 0.11351963E+04</rscale>
<asrwt>0</asrwt>
<pdfrwt beam="1">  1        2 0.25796301E+00 0.11351963E+04</pdfrwt>
<pdfrwt beam="2">  1       -2 0.29559548E-01 0.11351963E+04</pdfrwt>
<totfact> 0.10550370E+02</totfact>
</mgrwt>
</event>
<event>
12    1  0.1495204E-007  0.1382330E+04  0.7818608E-02  0.8966709E-01
          1   -1    0    0  501    0  0.00000000000E+00  0.00000000000E+00  0.23620490625E+04  0.23620490625E+04  0.00000000000E+00 0. -1.
         -1   -1    0    0    0  501 -0.00000000000E+00 -0.00000000000E+00 -0.20224356140E+03  0.20224356140E+03  0.00000000000E+00 0.  1.
         23    2    1    2    0    0 -0.11680360675E+03  0.37022372171E+03  0.57780393069E+03  0.70299897721E+03  0.98191104322E+02 0.  0.
        254    2    1    2    0    0  0.11680360675E+03 -0.37022372171E+03  0.15820015704E+04  0.18612936467E+04  0.90054227206E+03 0.  0.
        -24    2    4    4    0    0 -0.28480926063E+03 -0.45462995287E+03  0.10743327717E+04  0.12034965739E+04  0.80052420880E+02 0.  0.
         24    2    4    4    0    0  0.40161286738E+03  0.84406231158E+02  0.50766879870E+03  0.65779707276E+03  0.80944874227E+02 0.  0.
         13    1    3    3    0    0 -0.97006893563E+02  0.16307283937E+03  0.23581621167E+03  0.30267536078E+03  0.00000000000E+00 0.  1.
        -13    1    3    3    0    0 -0.19796713191E+02  0.20715088235E+03  0.34198771902E+03  0.40032361643E+03  0.00000000000E+00 0. -1.
          4    1    6    6  502    0  0.69266021461E+02 -0.13869177282E+02  0.10457405032E+03  0.12619773297E+03  0.00000000000E+00 0. -1.
          1    1    5    5  503    0 -0.13352587058E+03 -0.15841904974E+03  0.47104802345E+03  0.51459886691E+03  0.00000000000E+00 0. -1.
         -2    1    5    5    0  503 -0.15128339005E+03 -0.29621090313E+03  0.60328474829E+03  0.68889770704E+03  0.00000000000E+00 0.  1.
         -3    1    6    6    0  502  0.33234684592E+03  0.98275408440E+02  0.40309474838E+03  0.53159933979E+03  0.00000000000E+00 0.  1.
<mgrwt>
<rscale>  0 0.13823302E+04</rscale>
<asrwt>0</asrwt>
<pdfrwt beam="1">  1        1 0.36339214E+00 0.13823302E+04</pdfrwt>
<pdfrwt beam="2">  1       -1 0.31114396E-01 0.13823302E+04</pdfrwt>
<totfact> 0.15807409E+01</totfact>
</mgrwt>
</event>
<event>
12    1  0.1495204E-007  0.1709455E+04  0.7818608E-02  0.8755990E-01
         -1   -1    0    0    0  501 -0.00000000000E+00  0.00000000000E+00  0.62249403052E+03  0.62249403052E+03  0.00000000000E+00 0.  1.
          1   -1    0    0  501    0  0.00000000000E+00 -0.00000000000E+00 -0.11735996167E+04  0.11735996167E+04  0.00000000000E+00 0. -1.
         23    2    1    2    0    0 -0.26146955369E+03  0.34322660478E+03 -0.65667802130E+03  0.79129826170E+03  0.93573957765E+02 0.  0.
        254    2    1    2    0    0  0.26146955369E+03 -0.34322660478E+03  0.10557243514E+03  0.10047953855E+04  0.90127542846E+03 0.  0.
        -24    2    4    4    0    0 -0.26427532032E+03 -0.36253803050E+03 -0.26966697258E+02  0.45632791925E+03  0.78947442259E+02 0.  0.
         24    2    4    4    0    0  0.52574487401E+03  0.19311425723E+02  0.13253913239E+03  0.54846746626E+03  0.80432183986E+02 0.  0.
         13    1    3    3    0    0 -0.10070999239E+03  0.76388878407E+02 -0.14613675721E+03  0.19321934458E+03  0.00000000000E+00 0.  1.
        -13    1    3    3    0    0 -0.16075956130E+03  0.26683772637E+03 -0.51054126409E+03  0.59807891712E+03  0.00000000000E+00 0. -1.
          2    1    6    6  502    0  0.34046629379E+03 -0.94678726646E+01  0.52592178815E+02  0.34463440788E+03  0.00000000000E+00 0. -1.
          3    1    5    5  503    0 -0.23177349963E+03 -0.26213806444E+03 -0.16822143428E+02  0.35031172470E+03  0.00000000000E+00 0. -1.
         -4    1    5    5    0  503 -0.32501820690E+02 -0.10039996606E+03 -0.10144553830E+02  0.10601619455E+03  0.00000000000E+00 0.  1.
         -1    1    6    6    0  502  0.18527858021E+03  0.28779298388E+02  0.79946953579E+02  0.20383305838E+03  0.00000000000E+00 0.  1.
<mgrwt>
<rscale>  0 0.17094546E+04</rscale>
<asrwt>0</asrwt>
<pdfrwt beam="1">  1        1 0.18055378E+00 0.17094546E+04</pdfrwt>
<pdfrwt beam="2">  1       -1 0.95768314E-01 0.17094546E+04</pdfrwt>
<totfact> 0.11173409E+01</totfact>
</mgrwt>
</event>
<event>
12    1  0.1495204E-007  0.1181634E+04  0.7818608E-02  0.9129086E-01
         -1   -1    0    0    0  501 -0.00000000000E+00  0.00000000000E+00  0.20948668111E+03  0.20948668111E+03  0.00000000000E+00 0.  1.
          1   -1    0    0  501    0  0.00000000000E+00 -0.00000000000E+00 -0.16662858953E+04  0.16662858953E+04  0.00000000000E+00 0. -1.
         23    2    1    2    0    0  0.37761105666E+02 -0.79702582568E+02 -0.17797438899E+02  0.12824951162E+03  0.91393575429E+02 0.  0.
        254    2    1    2    0    0 -0.37761105666E+02  0.79702582568E+02 -0.14390017753E+04  0.17475230648E+04  0.98758916051E+03 0.  0.
        -24    2    4    4    0    0  0.45325257105E+03  0.15023461235E+03 -0.79182914775E+03  0.92820579834E+03  0.81020200788E+02 0.  0.
         24    2    4    4    0    0 -0.49101367671E+03 -0.70532029786E+02 -0.64717262758E+03  0.81931726650E+03  0.79869739830E+02 0.  0.
         11    1    3    3    0    0 -0.43520890370E+01  0.49985416024E+01 -0.31926618972E+02  0.32607285936E+02  0.00000000000E+00 0. -1.
        -11    1    3    3    0    0  0.42113194703E+02 -0.84701124171E+02  0.14129180073E+02  0.95642225682E+02  0.00000000000E+00 0.  1.
          2    1    6    6  502    0 -0.43324206588E+03 -0.68503088497E+02 -0.52469642927E+03  0.68388427652E+03  0.00000000000E+00 0. -1.
          3    1    5    5  503    0  0.26102752291E+03  0.46173360529E+02 -0.40971596920E+03  0.48799028920E+03  0.00000000000E+00 0. -1.
         -4    1    5    5    0  503  0.19222504813E+03  0.10406125182E+03 -0.38211317856E+03  0.44021550914E+03  0.00000000000E+00 0.  1.
         -1    1    6    6    0  502 -0.57771610836E+02 -0.20289412886E+01 -0.12247619831E+03  0.13543298998E+03  0.00000000000E+00 0.  1.
<mgrwt>
<rscale>  0 0.11816340E+04</rscale>
<asrwt>0</asrwt>
<pdfrwt beam="1">  1        1 0.25635168E+00 0.11816340E+04</pdfrwt>
<pdfrwt beam="2">  1       -1 0.32228720E-01 0.11816340E+04</pdfrwt>
<totfact> 0.44789250E+01</totfact>
</mgrwt>
</event>
<event>
12    1  0.1495204E-007  0.2610050E+04  0.7818608E-02  0.8364796E-01
         -2   -1    0    0    0  501 -0.00000000000E+00  0.00000000000E+00  0.10015941552E+04  0.10015941552E+04  0.00000000000E+00 0.  1.
          2   -1    0    0  501    0  0.00000000000E+00 -0.00000000000E+00 -0.17003792675E+04  0.17003792675E+04  0.00000000000E+00 0. -1.
         23    2    1    2    0    0  0.23149064886E+03 -0.35725545096E+03 -0.14152479476E+04  0.14806736686E+04  0.90820603799E+02 0.  0.
        254    2    1    2    0    0 -0.23149064886E+03  0.35725545096E+03  0.71646283525E+03  0.12212997541E+04  0.89276800869E+03 0.  0.
        -24    2    4    4    0    0 -0.27340231022E+03  0.35490721475E+03  0.90437296373E+03  0.10125392042E+04  0.81469185334E+02 0.  0.
         24    2    4    4    0    0  0.41911661361E+02  0.23482362148E+01 -0.18791012848E+03  0.20876054993E+03  0.80676200012E+02 0.  0.
         11    1    3    3    0    0  0.71050740937E+02 -0.19018126503E+03 -0.70071368697E+03  0.72953189955E+03  0.00000000000E+00 0. -1.
        -11    1    3    3    0    0  0.16043990793E+03 -0.16707418593E+03 -0.71453426062E+03  0.75114176908E+03  0.00000000000E+00 0.  1.
          4    1    6    6  502    0  0.61058827296E+02  0.19344902645E+02 -0.14899309405E+03  0.16217690256E+03  0.00000000000E+00 0. -1.
          1    1    5    5  503    0 -0.23521015838E+03  0.33702661689E+03  0.78756579478E+03  0.88835276788E+03  0.00000000000E+00 0. -1.
         -2    1    5    5    0  503 -0.38192151838E+02  0.17880597861E+02  0.11680716895E+03  0.12418643630E+03  0.00000000000E+00 0.  1.
         -3    1    6    6    0  502 -0.19147165935E+02 -0.16996666430E+02 -0.38917034431E+02  0.46583647366E+02  0.00000000000E+00 0.  1.
<mgrwt>
<rscale>  0 0.26100498E+04</rscale>
<asrwt>0</asrwt>
<pdfrwt beam="1">  1        2 0.26159681E+00 0.26100498E+04</pdfrwt>
<pdfrwt beam="2">  1       -2 0.15409141E+00 0.26100498E+04</pdfrwt>
<totfact> 0.24164642E+00</totfact>
</mgrwt>
</event>
<event>
12    1  0.1495204E-007  0.1582400E+04  0.7818608E-02  0.8831434E-01
          1   -1    0    0  501    0  0.00000000000E+00  0.00000000000E+00  0.33759989153E+03  0.33759989153E+03  0.00000000000E+00 0. -1.
         -1   -1    0    0    0  501 -0.00000000000E+00 -0.00000000000E+00 -0.18542583921E+04  0.18542583921E+04  0.00000000000E+00 0.  1.
         23    2    1    2    0    0  0.27702259594E+03  0.35448063362E+03 -0.82406768027E+03  0.94384884196E+03  0.96773222127E+02 0.  0.
        254    2    1    2    0    0 -0.27702259594E+03 -0.35448063362E+03 -0.69259082025E+03  0.12480094416E+04  0.93565350628E+03 0.  0.
        -24    2    4    4    0    0  0.93601028936E+02 -0.55525921202E+03 -0.56097207177E+03  0.79933325377E+03  0.84676089458E+02 0.  0.
         24    2    4    4    0    0 -0.37062362488E+03  0.20077857839E+03 -0.13161874848E+03  0.44867618786E+03  0.79453871777E+02 0.  0.
         13    1    3    3    0    0  0.22035508688E+02  0.80943229495E+02 -0.11677440928E+03  0.14378328382E+03  0.00000000000E+00 0. -1.
        -13    1    3    3    0    0  0.25498708725E+03  0.27353740413E+03 -0.70729327099E+03  0.80006555814E+03  0.00000000000E+00 0.  1.
          4    1    6    6  502    0 -0.12957907751E+03  0.29314507682E+02 -0.33391636640E+02  0.13698568935E+03  0.00000000000E+00 0. -1.
          3    1    5    5  503    0  0.13300825818E+02 -0.72548570686E+02 -0.37448626686E+02  0.82720050271E+02  0.00000000000E+00 0. -1.
         -4    1    5    5    0  503  0.80300203118E+02 -0.48271064133E+03 -0.52352344508E+03  0.71661320350E+03  0.00000000000E+00 0.  1.
         -3    1    6    6    0  502 -0.24104454737E+03  0.17146407071E+03 -0.98227111839E+02  0.31169049851E+03  0.00000000000E+00 0.  1.
<mgrwt>
<rscale>  0 0.15824000E+04</rscale>
<asrwt>0</asrwt>
<pdfrwt beam="1">  1        1 0.51938445E-01 0.15824000E+04</pdfrwt>
<pdfrwt beam="2">  1       -1 0.28527052E+00 0.15824000E+04</pdfrwt>
<totfact> 0.29736942E+00</totfact>
</mgrwt>
</event>
<event>
12    1  0.1495204E-007  0.1731936E+04  0.7818608E-02  0.8743357E-01
         -2   -1    0    0    0  501 -0.00000000000E+00  0.00000000000E+00  0.29704190068E+03  0.29704190068E+03  0.00000000000E+00 0.  1.
          2   -1    0    0  501    0  0.00000000000E+00 -0.00000000000E+00 -0.25245602515E+04  0.25245602515E+04  0.00000000000E+00 0. -1.
         23    2    1    2    0    0 -0.13751062104E+03 -0.56823055116E+03 -0.45050850788E+03  0.74360806570E+03  0.90553351895E+02 0.  0.
        254    2    1    2    0    0  0.13751062104E+03  0.56823055116E+03 -0.17770098429E+04  0.20779940865E+04  0.90471007033E+03 0.  0.
        -24    2    4    4    0    0 -0.25663234832E+03  0.13996236737E+02 -0.10309182684E+04  0.10656630795E+04  0.82397002668E+02 0.  0.
         24    2    4    4    0    0  0.39414296935E+03  0.55423431442E+03 -0.74609157456E+03  0.10123310070E+04  0.75080453624E+02 0.  0.
         13    1    3    3    0    0 -0.35250462481E+02 -0.18812274944E+03 -0.20109620020E+03  0.27761924591E+03  0.00000000000E+00 0. -1.
        -13    1    3    3    0    0 -0.10226015856E+03 -0.38010780172E+03 -0.24941230768E+03  0.46598881980E+03  0.00000000000E+00 0.  1.
          4    1    6    6  502    0  0.54875453481E+02  0.10928154266E+03 -0.16804652827E+03  0.20783023511E+03  0.00000000000E+00 0. -1.
          3    1    5    5  503    0 -0.30682474636E+02 -0.12233147494E+02 -0.60373000132E+02  0.68818335438E+02  0.00000000000E+00 0. -1.
         -4    1    5    5    0  503 -0.22594987368E+03  0.26229384232E+02 -0.97054526825E+03  0.99684474405E+03  0.00000000000E+00 0.  1.
         -3    1    6    6    0  502  0.33926751587E+03  0.44495277177E+03 -0.57804504629E+03  0.80450077189E+03  0.00000000000E+00 0.  1.
<mgrwt>
<rscale>  0 0.17319355E+04</rscale>
<asrwt>0</asrwt>
<pdfrwt beam="1">  1        2 0.38839387E+00 0.17319355E+04</pdfrwt>
<pdfrwt beam="2">  1       -2 0.45698755E-01 0.17319355E+04</pdfrwt>
<totfact> 0.14541317E+01</totfact>
</mgrwt>
</event>
<event>
12    1  0.1495204E-007  0.2320369E+04  0.7818608E-02  0.8469933E-01
         -1   -1    0    0    0  501 -0.00000000000E+00  0.00000000000E+00  0.64697695699E+03  0.64697695699E+03  0.00000000000E+00 0.  1.
          1   -1    0    0  501    0  0.00000000000E+00 -0.00000000000E+00 -0.20804881355E+04  0.20804881355E+04  0.00000000000E+00 0. -1.
         23    2    1    2    0    0 -0.75403802288E+03 -0.44042647663E+03 -0.11344796940E+04  0.14343746279E+04  0.88530083791E+02 0.  0.
        254    2    1    2    0    0  0.75403802288E+03  0.44042647663E+03 -0.29903148447E+03  0.12930904646E+04  0.90560162299E+03 0.  0.
        -24    2    4    4    0    0 -0.15383569114E+03  0.28481056334E+03 -0.81579564879E+02  0.34328400613E+03  0.80038781867E+02 0.  0.
         24    2    4    4    0    0  0.90787371402E+03  0.15561591330E+03 -0.21745191959E+03  0.94980645843E+03  0.79974858981E+02 0.  0.
         11    1    3    3    0    0 -0.66122988227E+03 -0.35049147297E+03 -0.95950052215E+03  0.12168444773E+04  0.00000000000E+00 0. -1.
        -11    1    3    3    0    0 -0.92808140614E+02 -0.89935003661E+02 -0.17497917185E+03  0.21753015062E+03  0.00000000000E+00 0.  1.
          4    1    6    6  502    0  0.28685514757E+03  0.42162900330E+02 -0.31218463311E+02  0.29161306264E+03  0.00000000000E+00 0. -1.
          3    1    5    5  503    0 -0.39274825379E+02  0.29533677805E+02 -0.33260777813E+02  0.59338262310E+02  0.00000000000E+00 0. -1.
         -4    1    5    5    0  503 -0.11456086576E+03  0.25527688553E+03 -0.48318787067E+02  0.28394574382E+03  0.00000000000E+00 0.  1.
         -3    1    6    6    0  502  0.62101856645E+03  0.11345301297E+03 -0.18623345628E+03  0.65819339579E+03  0.00000000000E+00 0.  1.
<mgrwt>
<rscale>  0 0.23203688E+04</rscale>
<asrwt>0</asrwt>
<pdfrwt beam="1">  1        1 0.32007510E+00 0.23203688E+04</pdfrwt>
<pdfrwt beam="2">  1       -1 0.99534915E-01 0.23203688E+04</pdfrwt>
<totfact> 0.22834279E+00</totfact>
</mgrwt>
</event>
<event>
12    1  0.1495204E-007  0.1608454E+04  0.7818608E-02  0.8815371E-01
          2   -1    0    0  501    0  0.00000000000E+00  0.00000000000E+00  0.28543504028E+04  0.28543504028E+04  0.00000000000E+00 0. -1.
         -2   -1    0    0    0  501 -0.00000000000E+00 -0.00000000000E+00 -0.22659480880E+03  0.22659480880E+03  0.00000000000E+00 0.  1.
         23    2    1    2    0    0  0.20008800022E+03 -0.45125291042E+03  0.10459840849E+04  0.11601898106E+04  0.91067523027E+02 0.  0.
        254    2    1    2    0    0 -0.20008800022E+03  0.45125291042E+03  0.15817715091E+04  0.19207554010E+04  0.97140918593E+03 0.  0.
        -24    2    4    4    0    0  0.61623115279E+02  0.57866866710E+03  0.42444881409E+03  0.72470486478E+03  0.79909390216E+02 0.  0.
         24    2    4    4    0    0 -0.26171111550E+03 -0.12741575668E+03  0.11573226950E+04  0.11960505362E+04  0.80084841127E+02 0.  0.
         13    1    3    3    0    0 -0.25082501141E+01 -0.26904763124E+01 -0.52411595396E+00  0.37154648371E+01  0.00000000000E+00 0.  1.
        -13    1    3    3    0    0  0.20259625033E+03 -0.44856243411E+03  0.10465082009E+04  0.11564743458E+04  0.00000000000E+00 0. -1.
          2    1    6    6  502    0 -0.13492013775E+03 -0.21900043948E+02  0.49997670218E+03  0.51832398962E+03  0.00000000000E+00 0. -1.
          1    1    5    5  503    0  0.79365314711E+02  0.43795862081E+03  0.30908843629E+03  0.54188768962E+03  0.00000000000E+00 0. -1.
         -2    1    5    5    0  503 -0.17742199432E+02  0.14071004629E+03  0.11536037780E+03  0.18281717516E+03  0.00000000000E+00 0.  1.
         -1    1    6    6    0  502 -0.12679097775E+03 -0.10551571273E+03  0.65734599286E+03  0.67772654663E+03  0.00000000000E+00 0.  1.
<mgrwt>
<rscale>  0 0.16084539E+04</rscale>
<asrwt>0</asrwt>
<pdfrwt beam="1">  1        2 0.43913081E+00 0.16084539E+04</pdfrwt>
<pdfrwt beam="2">  1       -2 0.34860742E-01 0.16084539E+04</pdfrwt>
<totfact> 0.15925235E+01</totfact>
</mgrwt>
</event>
<event>
12    1  0.1495204E-007  0.1179414E+04  0.7818608E-02  0.9131069E-01
          2   -1    0    0  501    0  0.00000000000E+00  0.00000000000E+00  0.12100496415E+04  0.12100496415E+04  0.00000000000E+00 0.  1.
         -2   -1    0    0    0  501 -0.00000000000E+00 -0.00000000000E+00 -0.28738829073E+03  0.28738829073E+03  0.00000000000E+00 0. -1.
         23    2    1    2    0    0  0.15700224784E+02 -0.93566686781E+02  0.45063069195E+03  0.46921311616E+03  0.89953909964E+02 0.  0.
        254    2    1    2    0    0 -0.15700224784E+02  0.93566686781E+02  0.47203065878E+03  0.10282248160E+04  0.90853294246E+03 0.  0.
        -24    2    4    4    0    0  0.14934571932E+03  0.45516203426E+03  0.36793273369E+03  0.60909232192E+03  0.78373074432E+02 0.  0.
         24    2    4    4    0    0 -0.16504594410E+03 -0.36159534748E+03  0.10409792509E+03  0.41913249410E+03  0.82730348873E+02 0.  0.
         13    1    3    3    0    0  0.80912986075E+01 -0.11084380260E+03  0.40089117683E+03  0.41601148223E+03  0.00000000000E+00 0.  1.
        -13    1    3    3    0    0  0.76089261762E+01  0.17277115819E+02  0.49739515123E+02  0.53201633934E+02  0.00000000000E+00 0. -1.
          2    1    6    6  502    0 -0.43020794419E+02 -0.18698427421E+03  0.64783033933E+02  0.20251110843E+03  0.00000000000E+00 0. -1.
          3    1    5    5  503    0  0.16974565185E+02  0.29636611369E+02  0.53214964562E+01  0.34565632081E+02  0.00000000000E+00 0. -1.
         -4    1    5    5    0  503  0.13237115413E+03  0.42552542289E+03  0.36261123724E+03  0.57452668984E+03  0.00000000000E+00 0.  1.
         -1    1    6    6    0  502 -0.12202514968E+03 -0.17461107327E+03  0.39314891156E+02  0.21662138567E+03  0.00000000000E+00 0.  1.
<mgrwt>
<rscale>  0 0.11794136E+04</rscale>
<asrwt>0</asrwt>
<pdfrwt beam="1">  1        2 0.18616148E+00 0.11794136E+04</pdfrwt>
<pdfrwt beam="2">  1       -2 0.44213584E-01 0.11794136E+04</pdfrwt>
<totfact> 0.89494838E+01</totfact>
</mgrwt>
</event>
<event>
12    1  0.1495204E-007  0.2140996E+04  0.7818608E-02  0.8543396E-01
          1   -1    0    0  501    0  0.00000000000E+00  0.00000000000E+00  0.10365049303E+04  0.10365049303E+04  0.00000000000E+00 0. -1.
         -1   -1    0    0    0  501 -0.00000000000E+00 -0.00000000000E+00 -0.11056060864E+04  0.11056060864E+04  0.00000000000E+00 0.  1.
         23    2    1    2    0    0  0.67352146008E+03  0.52489274167E+03 -0.21587564699E+03  0.88660012737E+03  0.10155758682E+03 0.  0.
        254    2    1    2    0    0 -0.67352146008E+03 -0.52489274167E+03  0.14677449096E+03  0.12555108893E+04  0.90863705330E+03 0.  0.
        -24    2    4    4    0    0 -0.10837765414E+03 -0.62763509621E+03  0.20116622558E+03  0.67304177402E+03  0.82739647983E+02 0.  0.
         24    2    4    4    0    0 -0.56514380594E+03  0.10274235454E+03 -0.54391734612E+02  0.58246911533E+03  0.79801608456E+02 0.  0.
         11    1    3    3    0    0  0.58988369594E+03  0.42671893796E+03 -0.15678431879E+03  0.74473696657E+03  0.00000000000E+00 0.  1.
        -11    1    3    3    0    0  0.83637764140E+02  0.98173803707E+02 -0.59091328196E+02  0.14186316080E+03  0.00000000000E+00 0. -1.
          4    1    6    6  502    0 -0.19993652998E+03 -0.21626440446E+01 -0.18983307678E+02  0.20084735254E+03  0.00000000000E+00 0. -1.
          1    1    5    5  503    0 -0.10873674686E+02 -0.30373514853E+03  0.10076532173E+03  0.32019826251E+03  0.00000000000E+00 0. -1.
         -2    1    5    5    0  503 -0.97503979456E+02 -0.32389994768E+03  0.10040090384E+03  0.35284351150E+03  0.00000000000E+00 0.  1.
         -3    1    6    6    0  502 -0.36520727596E+03  0.10490499859E+03 -0.35408426934E+02  0.38162176279E+03  0.00000000000E+00 0.  1.
<mgrwt>
<rscale>  0 0.21409962E+04</rscale>
<asrwt>0</asrwt>
<pdfrwt beam="1">  1        1 0.15946230E+00 0.21409962E+04</pdfrwt>
<pdfrwt beam="2">  1       -1 0.17009324E+00 0.21409962E+04</pdfrwt>
<totfact> 0.31912965E+00</totfact>
</mgrwt>
</event>
<event>
12    1  0.1495204E-007  0.1817481E+04  0.7818608E-02  0.8697058E-01
         -1   -1    0    0    0  501 -0.00000000000E+00  0.00000000000E+00  0.51794061013E+03  0.51794061013E+03  0.00000000000E+00 0.  1.
          1   -1    0    0  501    0  0.00000000000E+00 -0.00000000000E+00 -0.15944094695E+04  0.15944094695E+04  0.00000000000E+00 0. -1.
         23    2    1    2    0    0 -0.58805053263E+03 -0.64998197983E+02 -0.13987373503E+02  0.59864825139E+03  0.90309952936E+02 0.  0.
        254    2    1    2    0    0  0.58805053263E+03  0.64998197983E+02 -0.10624814859E+04  0.15137018282E+04  0.90133130552E+03 0.  0.
        -24    2    4    4    0    0  0.51130020593E+03  0.94216859295E+02 -0.12144890398E+04  0.13235049988E+04  0.79856977528E+02 0.  0.
         24    2    4    4    0    0  0.76750326706E+02 -0.29218661313E+02  0.15200755392E+03  0.19019682946E+03  0.79524805382E+02 0.  0.
         11    1    3    3    0    0 -0.23877015330E+03  0.10981985000E+02 -0.29660429726E+02  0.24085583072E+03  0.00000000000E+00 0. -1.
        -11    1    3    3    0    0 -0.34928037933E+03 -0.75980182983E+02  0.15673056223E+02  0.35779242066E+03  0.00000000000E+00 0.  1.
          4    1    6    6  502    0  0.47468063662E+02  0.47488115503E+01  0.21738898228E+02  0.52424688603E+02  0.00000000000E+00 0. -1.
          1    1    5    5  503    0  0.14653653363E+03  0.56015679807E+01 -0.41843719879E+03  0.44338924500E+03  0.00000000000E+00 0. -1.
         -2    1    5    5    0  503  0.36476367230E+03  0.88615291315E+02 -0.79605184098E+03  0.88011575376E+03  0.00000000000E+00 0.  1.
         -3    1    6    6    0  502  0.29282263044E+02 -0.33967472863E+02  0.13026865569E+03  0.13777214086E+03  0.00000000000E+00 0.  1.
<mgrwt>
<rscale>  0 0.18174811E+04</rscale>
<asrwt>0</asrwt>
<pdfrwt beam="1">  1        1 0.24529377E+00 0.18174811E+04</pdfrwt>
<pdfrwt beam="2">  1       -1 0.79683170E-01 0.18174811E+04</pdfrwt>
<totfact> 0.83439385E+00</totfact>
</mgrwt>
</event>
<event>
12    1  0.1495204E-007  0.3512890E+04  0.7818608E-02  0.8110742E-01
          1   -1    0    0  501    0  0.00000000000E+00  0.00000000000E+00  0.29230898262E+04  0.29230898262E+04  0.00000000000E+00 0. -1.
         -1   -1    0    0    0  501 -0.00000000000E+00 -0.00000000000E+00 -0.10554237687E+04  0.10554237687E+04  0.00000000000E+00 0.  1.
         23    2    1    2    0    0 -0.14168409842E+04  0.42591966279E+03  0.16888729836E+04  0.22471574874E+04  0.92622268818E+02 0.  0.
        254    2    1    2    0    0  0.14168409842E+04 -0.42591966279E+03  0.17879307397E+03  0.17313561075E+04  0.88135184461E+03 0.  0.
        -24    2    4    4    0    0  0.10483880690E+04 -0.45695739170E+03  0.48515684940E+03  0.12446157876E+04  0.75918964543E+02 0.  0.
         24    2    4    4    0    0  0.36845291526E+03  0.31037728915E+02 -0.30636377543E+03  0.48674031994E+03  0.79602040025E+02 0.  0.
         11    1    3    3    0    0 -0.12505831394E+03  0.55927307324E+02  0.18858534669E+03  0.23309199595E+03  0.00000000000E+00 0. -1.
        -11    1    3    3    0    0 -0.12917826703E+04  0.36999235547E+03  0.15002876369E+04  0.20140654914E+04  0.00000000000E+00 0.  1.
          4    1    6    6  502    0  0.89553657986E+02  0.38628188330E+02 -0.59809512711E+02  0.11440792107E+03  0.00000000000E+00 0. -1.
          1    1    5    5  503    0  0.97883726350E+02 -0.60653366941E+02  0.32055393108E+02  0.11953076187E+03  0.00000000000E+00 0. -1.
         -2    1    5    5    0  503  0.95050434261E+03 -0.39630402476E+03  0.45310145630E+03  0.11250850257E+04  0.00000000000E+00 0.  1.
         -3    1    6    6    0  502  0.27889925727E+03 -0.75904594153E+01 -0.24655426272E+03  0.37233239887E+03  0.00000000000E+00 0.  1.
<mgrwt>
<rscale>  0 0.35128897E+04</rscale>
<asrwt>0</asrwt>
<pdfrwt beam="1">  1        1 0.44970612E+00 0.35128897E+04</pdfrwt>
<pdfrwt beam="2">  1       -1 0.16237289E+00 0.35128897E+04</pdfrwt>
<totfact> 0.15526959E-01</totfact>
</mgrwt>
</event>
<event>
12    1  0.1495204E-007  0.1125923E+04  0.7818608E-02  0.9180287E-01
         -1   -1    0    0    0  501 -0.00000000000E+00  0.00000000000E+00  0.46627284591E+03  0.46627284591E+03  0.00000000000E+00 0.  1.
          1   -1    0    0  501    0  0.00000000000E+00 -0.00000000000E+00 -0.67970011176E+03  0.67970011176E+03  0.00000000000E+00 0. -1.
         23    2    1    2    0    0  0.14766045327E+03 -0.82653810594E+02 -0.12662453701E+03  0.22880531334E+03  0.87651789321E+02 0.  0.
        254    2    1    2    0    0 -0.14766045327E+03  0.82653810594E+02 -0.86802728841E+02  0.91716764434E+03  0.89723269681E+03 0.  0.
        -24    2    4    4    0    0 -0.99526770032E+02 -0.33967786919E+03  0.18298789370E+03  0.40640167112E+03  0.79944457470E+02 0.  0.
         24    2    4    4    0    0 -0.48133683239E+02  0.42233167979E+03 -0.26979062254E+03  0.51076597321E+03  0.86104588555E+02 0.  0.
         11    1    3    3    0    0  0.35120852235E+01 -0.17662965391E+02  0.93207870318E+01  0.20277873654E+02  0.00000000000E+00 0. -1.
        -11    1    3    3    0    0  0.14414836805E+03 -0.64990845203E+02 -0.13594532404E+03  0.20852743968E+03  0.00000000000E+00 0.  1.
          2    1    6    6  502    0  0.23402071874E+00  0.32443209322E+03 -0.19782072503E+03  0.37998589070E+03  0.00000000000E+00 0. -1.
          3    1    5    5  503    0 -0.10367586431E+03 -0.23405794690E+03  0.14417469846E+03  0.29379950821E+03  0.00000000000E+00 0. -1.
         -4    1    5    5    0  503  0.41490942791E+01 -0.10561992229E+03  0.38813195232E+02  0.11260216291E+03  0.00000000000E+00 0.  1.
         -1    1    6    6    0  502 -0.48367703957E+02  0.97899586565E+02 -0.71969897503E+02  0.13078008251E+03  0.00000000000E+00 0.  1.
<mgrwt>
<rscale>  0 0.11259231E+04</rscale>
<asrwt>0</asrwt>
<pdfrwt beam="1">  1        1 0.10456925E+00 0.11259231E+04</pdfrwt>
<pdfrwt beam="2">  1       -1 0.71734285E-01 0.11259231E+04</pdfrwt>
<totfact> 0.55611079E+01</totfact>
</mgrwt>
</event>
<event>
12    1  0.1495204E-007  0.1381101E+04  0.7818608E-02  0.8967613E-01
          1   -1    0    0  501    0  0.00000000000E+00  0.00000000000E+00  0.55067300934E+03  0.55067300934E+03  0.00000000000E+00 0. -1.
         -1   -1    0    0    0  501 -0.00000000000E+00 -0.00000000000E+00 -0.86595832396E+03  0.86595832396E+03  0.00000000000E+00 0.  1.
         23    2    1    2    0    0  0.28076437801E+03  0.20173056472E+03 -0.26435623440E+03  0.44471980134E+03  0.91474730575E+02 0.  0.
        254    2    1    2    0    0 -0.28076437801E+03 -0.20173056472E+03 -0.50929080213E+02  0.97191153195E+03  0.90691476889E+03 0.  0.
        -24    2    4    4    0    0  0.13036201313E+03 -0.43533683463E+03  0.95564367298E+02  0.47065362686E+03  0.76615103776E+02 0.  0.
         24    2    4    4    0    0 -0.41112639114E+03  0.23360626991E+03 -0.14649344751E+03  0.50125790510E+03  0.78755053294E+02 0.  0.
         11    1    3    3    0    0  0.12679523900E+02  0.56451011007E+01 -0.43975757026E+02  0.46114040148E+02  0.00000000000E+00 0. -1.
        -11    1    3    3    0    0  0.26808485411E+03  0.19608546361E+03 -0.22038047738E+03  0.39860576119E+03  0.00000000000E+00 0.  1.
          4    1    6    6  502    0 -0.17078885507E+03  0.12368054434E+03 -0.32176530661E+02  0.21330972596E+03  0.00000000000E+00 0. -1.
          1    1    5    5  503    0  0.65599041598E+02 -0.22308567425E+03  0.97734974983E+01  0.23273584504E+03  0.00000000000E+00 0. -1.
         -2    1    5    5    0  503  0.64762971536E+02 -0.21225116038E+03  0.85790869800E+02  0.23791778182E+03  0.00000000000E+00 0.  1.
         -3    1    6    6    0  502 -0.24033753608E+03  0.10992572558E+03 -0.11431691685E+03  0.28794817914E+03  0.00000000000E+00 0.  1.
<mgrwt>
<rscale>  0 0.13811008E+04</rscale>
<asrwt>0</asrwt>
<pdfrwt beam="1">  1        1 0.84718925E-01 0.13811008E+04</pdfrwt>
<pdfrwt beam="2">  1       -1 0.13322436E+00 0.13811008E+04</pdfrwt>
<totfact> 0.18023488E+01</totfact>
</mgrwt>
</event>
<event>
12    1  0.1495204E-007  0.1323898E+04  0.7818608E-02  0.9010826E-01
         -2   -1    0    0    0  501 -0.00000000000E+00  0.00000000000E+00  0.58808259877E+03  0.58808259877E+03  0.00000000000E+00 0.  1.
          2   -1    0    0  501    0  0.00000000000E+00 -0.00000000000E+00 -0.74509354308E+03  0.74509354308E+03  0.00000000000E+00 0. -1.
         23    2    1    2    0    0 -0.78486137241E+02 -0.17241312729E+03 -0.34714033978E+03  0.40695071450E+03  0.96000564230E+02 0.  0.
        254    2    1    2    0    0  0.78486137241E+02  0.17241312729E+03  0.19012939547E+03  0.92622542735E+03  0.88648631972E+03 0.  0.
        -24    2    4    4    0    0  0.35655320441E+03  0.93599688746E+01  0.39324135875E+03  0.53674190573E+03  0.78963982566E+02 0.  0.
         24    2    4    4    0    0 -0.27806706717E+03  0.16305315842E+03 -0.20311196328E+03  0.38948352162E+03  0.80841311668E+02 0.  0.
         11    1    3    3    0    0 -0.87073747674E+02 -0.14159553989E+03 -0.21936371524E+03  0.27523003836E+03  0.00000000000E+00 0. -1.
        -11    1    3    3    0    0  0.85876104335E+01 -0.30817587404E+02 -0.12777662453E+03  0.13172067614E+03  0.00000000000E+00 0.  1.
          2    1    6    6  502    0 -0.72049284222E+01  0.26808905466E+02 -0.78427815333E+01  0.28846795802E+02  0.00000000000E+00 0. -1.
          3    1    5    5  503    0  0.20701101769E+02 -0.11544101009E+02  0.53719056395E+02  0.58715746632E+02  0.00000000000E+00 0. -1.
         -4    1    5    5    0  503  0.33585210264E+03  0.20904069883E+02  0.33952230236E+03  0.47802615910E+03  0.00000000000E+00 0.  1.
         -1    1    6    6    0  502 -0.27086213874E+03  0.13624425295E+03 -0.19526918175E+03  0.36063672582E+03  0.00000000000E+00 0.  1.
<mgrwt>
<rscale>  0 0.13238981E+04</rscale>
<asrwt>0</asrwt>
<pdfrwt beam="1">  1        2 0.11462978E+00 0.13238981E+04</pdfrwt>
<pdfrwt beam="2">  1       -2 0.90474246E-01 0.13238981E+04</pdfrwt>
<totfact> 0.38654337E+01</totfact>
</mgrwt>
</event>
<event>
12    1  0.1495204E-007  0.1788876E+04  0.7818608E-02  0.8712238E-01
          2   -1    0    0  501    0  0.00000000000E+00  0.00000000000E+00  0.11992488226E+04  0.11992488226E+04  0.00000000000E+00 0. -1.
         -2   -1    0    0    0  501 -0.00000000000E+00 -0.00000000000E+00 -0.66710036798E+03  0.66710036798E+03  0.00000000000E+00 0.  1.
         23    2    1    2    0    0 -0.66158245054E+03  0.73442559828E+01  0.13715037663E+03  0.68061473498E+03  0.81736862582E+02 0.  0.
        254    2    1    2    0    0  0.66158245054E+03 -0.73442559828E+01  0.39499807802E+03  0.11857344556E+04  0.90121997352E+03 0.  0.
        -24    2    4    4    0    0 -0.12519932554E+03 -0.14420194531E+03  0.31815831341E+03  0.37956584366E+03  0.79852646351E+02 0.  0.
         24    2    4    4    0    0  0.78678177608E+03  0.13685768933E+03  0.76839764603E+02  0.80616861197E+03  0.79043603204E+02 0.  0.
         13    1    3    3    0    0 -0.57937136482E+02 -0.21196321175E+02  0.41471464089E+01  0.61831987179E+02  0.00000000000E+00 0. -1.
        -13    1    3    3    0    0 -0.60364531406E+03  0.28540577158E+02  0.13300323022E+03  0.61878274780E+03  0.00000000000E+00 0.  1.
          2    1    6    6  502    0  0.19016251798E+02  0.49289974665E+00 -0.10130694379E+02  0.21552070694E+02  0.00000000000E+00 0. -1.
          3    1    5    5  503    0  0.62529312269E+01 -0.95515511382E+01  0.54256649138E+02  0.55444704470E+02  0.00000000000E+00 0. -1.
         -4    1    5    5    0  503 -0.13145225677E+03 -0.13465039417E+03  0.26390166428E+03  0.32412113919E+03  0.00000000000E+00 0.  1.
         -1    1    6    6    0  502  0.76776552428E+03  0.13636478958E+03  0.86970458983E+02  0.78461654128E+03  0.00000000000E+00 0.  1.
<mgrwt>
<rscale>  0 0.17888760E+04</rscale>
<asrwt>0</asrwt>
<pdfrwt beam="1">  1        2 0.18449982E+00 0.17888760E+04</pdfrwt>
<pdfrwt beam="2">  1       -2 0.10263083E+00 0.17888760E+04</pdfrwt>
<totfact> 0.13912627E+01</totfact>
</mgrwt>
</event>
<event>
12    1  0.1495204E-007  0.1797440E+04  0.7818608E-02  0.8707662E-01
          2   -1    0    0  501    0  0.00000000000E+00  0.00000000000E+00  0.18301469017E+04  0.18301469017E+04  0.00000000000E+00 0. -1.
         -2   -1    0    0    0  501 -0.00000000000E+00 -0.00000000000E+00 -0.44132958247E+03  0.44132958247E+03  0.00000000000E+00 0.  1.
         23    2    1    2    0    0  0.20926119419E+03  0.61918382546E+03  0.25141787569E+03  0.70608242153E+03  0.90347001422E+02 0.  0.
        254    2    1    2    0    0 -0.20926119419E+03 -0.61918382546E+03  0.11373994435E+04  0.15653940626E+04  0.85416755970E+03 0.  0.
        -24    2    4    4    0    0 -0.31512596581E+03  0.99225538368E+02  0.43506364806E+03  0.55195998161E+03  0.78926305158E+02 0.  0.
         24    2    4    4    0    0  0.10586477162E+03 -0.71840936383E+03  0.70233579547E+03  0.10134340810E+04  0.80334942879E+02 0.  0.
         13    1    3    3    0    0  0.20643661057E+03  0.56245428381E+03  0.20670946566E+03  0.63379783745E+03  0.00000000000E+00 0.  1.
        -13    1    3    3    0    0  0.28245836271E+01  0.56729541655E+02  0.44708410026E+02  0.72284584083E+02  0.00000000000E+00 0. -1.
          2    1    6    6  502    0  0.12771652882E+02 -0.18584150218E+03  0.13730801645E+03  0.23141665979E+03  0.00000000000E+00 0. -1.
          3    1    5    5  503    0 -0.16860909796E+03  0.41547985863E+02  0.28914354194E+03  0.33728215323E+03  0.00000000000E+00 0. -1.
         -4    1    5    5    0  503 -0.14651686785E+03  0.57677552505E+02  0.14592010612E+03  0.21467782838E+03  0.00000000000E+00 0.  1.
         -3    1    6    6    0  502  0.93093118736E+02 -0.53256786166E+03  0.56502777903E+03  0.78201742122E+03  0.00000000000E+00 0.  1.
<mgrwt>
<rscale>  0 0.17974404E+04</rscale>
<asrwt>0</asrwt>
<pdfrwt beam="1">  1        2 0.28156106E+00 0.17974404E+04</pdfrwt>
<pdfrwt beam="2">  1       -2 0.67896860E-01 0.17974404E+04</pdfrwt>
<totfact> 0.15573922E+01</totfact>
</mgrwt>
</event>
<event>
12    1  0.1495204E-007  0.1544882E+04  0.7818608E-02  0.8855144E-01
         -2   -1    0    0    0  501 -0.00000000000E+00  0.00000000000E+00  0.74901161287E+03  0.74901161287E+03  0.00000000000E+00 0.  1.
          2   -1    0    0  501    0  0.00000000000E+00 -0.00000000000E+00 -0.79660280274E+03  0.79660280274E+03  0.00000000000E+00 0. -1.
         23    2    1    2    0    0  0.32388644574E+03 -0.12961359969E+03 -0.33370051945E+03  0.49124820736E+03  0.90921117432E+02 0.  0.
        254    2    1    2    0    0 -0.32388644574E+03  0.12961359969E+03  0.28610932958E+03  0.10543662082E+04  0.95295720663E+03 0.  0.
        -24    2    4    4    0    0  0.18773279049E+03  0.20171856768E+03  0.42543718976E+03  0.51312140936E+03  0.79767143242E+02 0.  0.
         24    2    4    4    0    0 -0.51161923622E+03 -0.72104967989E+02 -0.13932786018E+03  0.54124479889E+03  0.81119112527E+02 0.  0.
         13    1    3    3    0    0  0.33046132638E+02  0.37404466234E+01 -0.70339087763E+01  0.33992847717E+02  0.00000000000E+00 0.  1.
        -13    1    3    3    0    0  0.29084031310E+03 -0.13335404632E+03 -0.32666661067E+03  0.45725535964E+03  0.00000000000E+00 0. -1.
          2    1    6    6  502    0 -0.50284291725E+03 -0.81659601691E+02 -0.13979381718E+03  0.52826281461E+03  0.00000000000E+00 0. -1.
          1    1    5    5  503    0  0.17024582263E+03  0.20125297583E+03  0.36520938179E+03  0.45040458806E+03  0.00000000000E+00 0. -1.
         -2    1    5    5    0  503  0.17486967854E+02  0.46559185783E+00  0.60227807972E+02  0.62716821298E+02  0.00000000000E+00 0.  1.
         -1    1    6    6    0  502 -0.87763189732E+01  0.95546337022E+01  0.46595699433E+00  0.12981984279E+02  0.00000000000E+00 0.  1.
<mgrwt>
<rscale>  0 0.15448815E+04</rscale>
<asrwt>0</asrwt>
<pdfrwt beam="1">  1        2 0.12255428E+00 0.15448815E+04</pdfrwt>
<pdfrwt beam="2">  1       -2 0.11523256E+00 0.15448815E+04</pdfrwt>
<totfact> 0.19573031E+01</totfact>
</mgrwt>
</event>
<event>
12    1  0.1495204E-007  0.1521168E+04  0.7818608E-02  0.8870497E-01
         -2   -1    0    0    0  501 -0.00000000000E+00  0.00000000000E+00  0.19829829771E+03  0.19829829771E+03  0.00000000000E+00 0.  1.
          2   -1    0    0  501    0  0.00000000000E+00 -0.00000000000E+00 -0.29172625710E+04  0.29172625710E+04  0.00000000000E+00 0. -1.
         23    2    1    2    0    0  0.19983321057E+03 -0.20872205491E+03 -0.78333228063E+02  0.31278879453E+03  0.90567803949E+02 0.  0.
        254    2    1    2    0    0 -0.19983321057E+03  0.20872205491E+03 -0.26406310453E+04  0.28027720742E+04  0.89392436738E+03 0.  0.
        -24    2    4    4    0    0  0.20101511519E+03  0.41894290129E+03 -0.15150635953E+04  0.15870155057E+04  0.85324593621E+02 0.  0.
         24    2    4    4    0    0 -0.40084832577E+03 -0.21022084639E+03 -0.11255674499E+04  0.12157565685E+04  0.79308039309E+02 0.  0.
         13    1    3    3    0    0  0.13924423510E+03 -0.17507007308E+03 -0.24499802676E+02  0.22503050421E+03  0.00000000000E+00 0.  1.
        -13    1    3    3    0    0  0.60588975477E+02 -0.33651981827E+02 -0.53833425388E+02  0.87758290316E+02  0.00000000000E+00 0. -1.
          4    1    6    6  502    0 -0.17508636148E+03 -0.12177234919E+03 -0.60501498355E+03  0.64150360040E+03  0.00000000000E+00 0. -1.
          3    1    5    5  503    0  0.15602504623E+03  0.29026505577E+03 -0.94257877282E+03  0.99852509264E+03  0.00000000000E+00 0. -1.
         -4    1    5    5    0  503  0.44990068962E+02  0.12867784552E+03 -0.57248482251E+03  0.58849041304E+03  0.00000000000E+00 0.  1.
         -3    1    6    6    0  502 -0.22576196428E+03 -0.88448497196E+02 -0.52055246638E+03  0.57425296815E+03  0.00000000000E+00 0.  1.
<mgrwt>
<rscale>  0 0.15211682E+04</rscale>
<asrwt>0</asrwt>
<pdfrwt beam="1">  1        2 0.44880956E+00 0.15211682E+04</pdfrwt>
<pdfrwt beam="2">  1       -2 0.30507435E-01 0.15211682E+04</pdfrwt>
<totfact> 0.18908954E+01</totfact>
</mgrwt>
</event>
<event>
12    1  0.1495204E-007  0.2288861E+04  0.7818608E-02  0.8482326E-01
          2   -1    0    0  501    0  0.00000000000E+00  0.00000000000E+00  0.93118332172E+03  0.93118332172E+03  0.00000000000E+00 0. -1.
         -2   -1    0    0    0  501 -0.00000000000E+00 -0.00000000000E+00 -0.14065133029E+04  0.14065133029E+04  0.00000000000E+00 0.  1.
         23    2    1    2    0    0  0.21839229069E+02 -0.10061045785E+03  0.77558141338E+03  0.78717124392E+03  0.86675384703E+02 0.  0.
        254    2    1    2    0    0 -0.21839229069E+02  0.10061045785E+03 -0.12509113945E+04  0.15505253807E+04  0.91035719529E+03 0.  0.
        -24    2    4    4    0    0 -0.44857859054E+03 -0.26841932135E+02 -0.52906065492E+03  0.69867991909E+03  0.79405362134E+02 0.  0.
         24    2    4    4    0    0  0.42673936147E+03  0.12745238998E+03 -0.72185073962E+03  0.85184546161E+03  0.78877156565E+02 0.  0.
         13    1    3    3    0    0  0.48599184283E+02 -0.25621209291E+02  0.30988003696E+03  0.31471251069E+03  0.00000000000E+00 0. -1.
        -13    1    3    3    0    0 -0.26759955214E+02 -0.74989248559E+02  0.46570137643E+03  0.47245873323E+03  0.00000000000E+00 0.  1.
          2    1    6    6  502    0  0.97268500801E+01 -0.12325953041E+01 -0.48181685295E+02  0.49169153964E+02  0.00000000000E+00 0. -1.
          1    1    5    5  503    0 -0.38545760755E+03 -0.35924554725E+02 -0.41177653300E+03  0.56517966522E+03  0.00000000000E+00 0. -1.
         -2    1    5    5    0  503 -0.63120982993E+02  0.90826225904E+01 -0.11728412193E+03  0.13350025387E+03  0.00000000000E+00 0.  1.
         -1    1    6    6    0  502  0.41701251139E+03  0.12868498529E+03 -0.67366905433E+03  0.80267630764E+03  0.00000000000E+00 0.  1.
<mgrwt>
<rscale>  0 0.22888615E+04</rscale>
<asrwt>0</asrwt>
<pdfrwt beam="1">  1        2 0.14325897E+00 0.22888615E+04</pdfrwt>
<pdfrwt beam="2">  1       -2 0.21638666E+00 0.22888615E+04</pdfrwt>
<totfact> 0.26413147E+00</totfact>
</mgrwt>
</event>
<event>
12    1  0.1495204E-007  0.1667127E+04  0.7818608E-02  0.8780338E-01
          1   -1    0    0  501    0  0.00000000000E+00  0.00000000000E+00  0.10002979628E+04  0.10002979628E+04  0.00000000000E+00 0. -1.
         -1   -1    0    0    0  501 -0.00000000000E+00 -0.00000000000E+00 -0.69462093823E+03  0.69462093823E+03  0.00000000000E+00 0.  1.
         23    2    1    2    0    0  0.48179486316E+03 -0.23628292831E+03 -0.18115247136E+03  0.57412681416E+03  0.94071613546E+02 0.  0.
        254    2    1    2    0    0 -0.48179486316E+03  0.23628292831E+03  0.48682949595E+03  0.11207920869E+04  0.85511170704E+03 0.  0.
        -24    2    4    4    0    0 -0.64598193116E+03 -0.66314879361E+02  0.29016236688E+03  0.71549738690E+03  0.77794555765E+02 0.  0.
         24    2    4    4    0    0  0.16418706800E+03  0.30259780767E+03  0.19666712907E+03  0.40529469998E+03  0.84041702003E+02 0.  0.
         13    1    3    3    0    0  0.34853663613E+03 -0.12310072111E+03 -0.11369334620E+03  0.38672697247E+03  0.00000000000E+00 0.  1.
        -13    1    3    3    0    0  0.13325822703E+03 -0.11318220720E+03 -0.67459125159E+02  0.18739984169E+03  0.00000000000E+00 0. -1.
          4    1    6    6  502    0  0.71999154921E+02  0.91994193111E+02  0.10736285635E+03  0.15866188200E+03  0.00000000000E+00 0. -1.
          3    1    5    5  503    0 -0.24127971050E+02 -0.17312084545E+02  0.73141792164E+01  0.30583728940E+02  0.00000000000E+00 0. -1.
         -4    1    5    5    0  503 -0.62185396011E+03 -0.49002794817E+02  0.28284818767E+03  0.68491365796E+03  0.00000000000E+00 0.  1.
         -3    1    6    6    0  502  0.92187913075E+02  0.21060361456E+03  0.89304272719E+02  0.24663281798E+03  0.00000000000E+00 0.  1.
<mgrwt>
<rscale>  0 0.16671268E+04</rscale>
<asrwt>0</asrwt>
<pdfrwt beam="1">  1        1 0.15389199E+00 0.16671268E+04</pdfrwt>
<pdfrwt beam="2">  1       -1 0.10686476E+00 0.16671268E+04</pdfrwt>
<totfact> 0.11792576E+01</totfact>
</mgrwt>
</event>
<event>
12    1  0.1495204E-007  0.2507936E+04  0.7818608E-02  0.8400164E-01
          1   -1    0    0  501    0  0.00000000000E+00  0.00000000000E+00  0.11677346533E+04  0.11677346533E+04  0.00000000000E+00 0. -1.
         -1   -1    0    0    0  501 -0.00000000000E+00 -0.00000000000E+00 -0.13465689749E+04  0.13465689749E+04  0.00000000000E+00 0.  1.
         23    2    1    2    0    0  0.94691535328E+03  0.34397876970E+03 -0.49437629510E+03  0.11259324373E+04  0.91355634170E+02 0.  0.
        254    2    1    2    0    0 -0.94691535328E+03 -0.34397876970E+03  0.31554197349E+03  0.13883711909E+04  0.90168605752E+03 0.  0.
        -24    2    4    4    0    0 -0.49580183318E+03 -0.50273259013E+03  0.50101180730E+03  0.86916593493E+03  0.76662092494E+02 0.  0.
         24    2    4    4    0    0 -0.45111352010E+03  0.15875382043E+03 -0.18546983381E+03  0.51920525595E+03  0.80429192646E+02 0.  0.
         11    1    3    3    0    0  0.37491461661E+02  0.14316026360E+02 -0.12304604042E+01  0.40150620680E+02  0.00000000000E+00 0. -1.
        -11    1    3    3    0    0  0.90942389162E+03  0.32966274334E+03 -0.49314583469E+03  0.10857818166E+04  0.00000000000E+00 0.  1.
          4    1    6    6  502    0 -0.36292577243E+03  0.15099288021E+03 -0.12691285748E+03  0.41306275499E+03  0.00000000000E+00 0. -1.
          1    1    5    5  503    0 -0.45666395332E+03 -0.48805911319E+03  0.46906576103E+03  0.81655762345E+03  0.00000000000E+00 0. -1.
         -2    1    5    5    0  503 -0.39137879854E+02 -0.14673476937E+02  0.31946046264E+02  0.52608311480E+02  0.00000000000E+00 0.  1.
         -3    1    6    6    0  502 -0.88187747673E+02  0.77609402227E+01 -0.58556976323E+02  0.10614250095E+03  0.00000000000E+00 0.  1.
<mgrwt>
<rscale>  0 0.25079356E+04</rscale>
<asrwt>0</asrwt>
<pdfrwt beam="1">  1        1 0.17965148E+00 0.25079356E+04</pdfrwt>
<pdfrwt beam="2">  1       -1 0.20716446E+00 0.25079356E+04</pdfrwt>
<totfact> 0.13466149E+00</totfact>
</mgrwt>
</event>
<event>
12    1  0.1495204E-007  0.1573785E+04  0.7818608E-02  0.8836817E-01
         -1   -1    0    0    0  501 -0.00000000000E+00  0.00000000000E+00  0.83252986160E+03  0.83252986160E+03  0.00000000000E+00 0.  1.
          1   -1    0    0  501    0  0.00000000000E+00 -0.00000000000E+00 -0.74375682807E+03  0.74375682807E+03  0.00000000000E+00 0. -1.
         23    2    1    2    0    0 -0.28446331736E+03 -0.37189265228E+03  0.26659232799E+03  0.54669778751E+03  0.92647060316E+02 0.  0.
        254    2    1    2    0    0  0.28446331736E+03  0.37189265228E+03 -0.17781929447E+03  0.10295889022E+04  0.89956104975E+03 0.  0.
        -24    2    4    4    0    0  0.24941715397E+03 -0.17925772789E+03 -0.32325717460E+03  0.45310216788E+03  0.80399775492E+02 0.  0.
         24    2    4    4    0    0  0.35046163387E+02  0.55115038017E+03  0.14543788013E+03  0.57648673428E+03  0.78675299115E+02 0.  0.
         13    1    3    3    0    0 -0.33083306751E+02 -0.87447949809E+02  0.25171472143E+02  0.96825885595E+02  0.00000000000E+00 0. -1.
        -13    1    3    3    0    0 -0.25138001061E+03 -0.28444470247E+03  0.24142085585E+03  0.44987190192E+03  0.00000000000E+00 0.  1.
          4    1    6    6  502    0  0.96631136141E+01  0.16929260190E+03  0.82764085141E+02  0.18868824715E+03  0.00000000000E+00 0. -1.
          1    1    5    5  503    0  0.11362432108E+03 -0.46332449611E+02 -0.16610585395E+03  0.20651473783E+03  0.00000000000E+00 0. -1.
         -2    1    5    5    0  503  0.13579283290E+03 -0.13292527828E+03 -0.15715132065E+03  0.24658743005E+03  0.00000000000E+00 0.  1.
         -3    1    6    6    0  502  0.25383049773E+02  0.38185777827E+03  0.62673794991E+02  0.38779848713E+03  0.00000000000E+00 0.  1.
<mgrwt>
<rscale>  0 0.15737850E+04</rscale>
<asrwt>0</asrwt>
<pdfrwt beam="1">  1        1 0.11442413E+00 0.15737850E+04</pdfrwt>
<pdfrwt beam="2">  1       -1 0.12808152E+00 0.15737850E+04</pdfrwt>
<totfact> 0.12566480E+01</totfact>
</mgrwt>
</event>
<event>
12    1  0.1495204E-007  0.1925426E+04  0.7818608E-02  0.8642303E-01
          2   -1    0    0  501    0  0.00000000000E+00  0.00000000000E+00  0.16265016763E+04  0.16265016763E+04  0.00000000000E+00 0. -1.
         -2   -1    0    0    0  501 -0.00000000000E+00 -0.00000000000E+00 -0.56982182824E+03  0.56982182824E+03  0.00000000000E+00 0.  1.
         23    2    1    2    0    0 -0.37457803400E+03  0.40709539524E+03 -0.16862387539E+03  0.58648324068E+03  0.97433135367E+02 0.  0.
        254    2    1    2    0    0  0.37457803400E+03 -0.40709539524E+03  0.12253037234E+04  0.16098402638E+04  0.88554000249E+03 0.  0.
        -24    2    4    4    0    0  0.21404028022E+03  0.21240407791E+03  0.73752910851E+03  0.80087977905E+03  0.80811513605E+02 0.  0.
         24    2    4    4    0    0  0.16053775378E+03 -0.61949947315E+03  0.48777461493E+03  0.80896048478E+03  0.83312804164E+02 0.  0.
         11    1    3    3    0    0 -0.13490281594E+02  0.49792612876E+02 -0.30997597119E+02  0.60184242303E+02  0.00000000000E+00 0. -1.
        -11    1    3    3    0    0 -0.36108775241E+03  0.35730278236E+03 -0.13762627827E+03  0.52629899838E+03  0.00000000000E+00 0.  1.
          4    1    6    6  502    0  0.15988569336E+02 -0.19956757355E+02  0.37356611074E+02  0.45270552289E+02  0.00000000000E+00 0. -1.
          1    1    5    5  503    0  0.48592598157E+02  0.27533419558E+02  0.21968955753E+03  0.22667781426E+03  0.00000000000E+00 0. -1.
         -2    1    5    5    0  503  0.16544768207E+03  0.18487065836E+03  0.51783955097E+03  0.57420196479E+03  0.00000000000E+00 0.  1.
         -3    1    6    6    0  502  0.14454918444E+03 -0.59954271580E+03  0.45041800385E+03  0.76368993249E+03  0.00000000000E+00 0.  1.
<mgrwt>
<rscale>  0 0.19254258E+04</rscale>
<asrwt>0</asrwt>
<pdfrwt beam="1">  1        2 0.25023103E+00 0.19254258E+04</pdfrwt>
<pdfrwt beam="2">  1       -2 0.87664897E-01 0.19254258E+04</pdfrwt>
<totfact> 0.11309959E+01</totfact>
</mgrwt>
</event>
<event>
12    1  0.1495204E-007  0.1528124E+04  0.7818608E-02  0.8865963E-01
          1   -1    0    0  501    0  0.00000000000E+00  0.00000000000E+00  0.81673053027E+03  0.81673053027E+03  0.00000000000E+00 0. -1.
         -1   -1    0    0    0  501 -0.00000000000E+00 -0.00000000000E+00 -0.71479013951E+03  0.71479013951E+03  0.00000000000E+00 0.  1.
         23    2    1    2    0    0  0.19249968471E+03 -0.46048298372E+03  0.96915985325E+00  0.50817521010E+03  0.95605428636E+02 0.  0.
        254    2    1    2    0    0 -0.19249968471E+03  0.46048298372E+03  0.10097123091E+03  0.10233454597E+04  0.88765986362E+03 0.  0.
        -24    2    4    4    0    0 -0.13596852309E+03  0.56734573114E+03 -0.25168768356E+03  0.64038917938E+03  0.79893636168E+02 0.  0.
         24    2    4    4    0    0 -0.56531161619E+02 -0.10686274743E+03  0.35265891446E+03  0.38295628030E+03  0.87588718730E+02 0.  0.
         11    1    3    3    0    0  0.43880468479E+01 -0.75804859654E+02  0.23177484926E+02  0.79390348972E+02  0.00000000000E+00 0. -1.
        -11    1    3    3    0    0  0.18811163786E+03 -0.38467812406E+03 -0.22208325073E+02  0.42878486113E+03  0.00000000000E+00 0.  1.
          2    1    6    6  502    0  0.21170863276E+02 -0.93266146345E+01  0.77051246490E+02  0.80449274565E+02  0.00000000000E+00 0. -1.
          3    1    5    5  503    0 -0.10154104285E+03  0.35808809133E+03 -0.19815121635E+03  0.42166523342E+03  0.00000000000E+00 0. -1.
         -2    1    5    5    0  503 -0.34427480239E+02  0.20925763981E+03 -0.53536467202E+02  0.21872394596E+03  0.00000000000E+00 0.  1.
         -1    1    6    6    0  502 -0.77702024895E+02 -0.97536132791E+02  0.27560766797E+03  0.30250700573E+03  0.00000000000E+00 0.  1.
<mgrwt>
<rscale>  0 0.15281242E+04</rscale>
<asrwt>0</asrwt>
<pdfrwt beam="1">  1        1 0.12565085E+00 0.15281242E+04</pdfrwt>
<pdfrwt beam="2">  1       -1 0.10996771E+00 0.15281242E+04</pdfrwt>
<totfact> 0.15765848E+01</totfact>
</mgrwt>
</event>
<event>
12    1  0.1495204E-007  0.1784603E+04  0.7818608E-02  0.8714531E-01
         -1   -1    0    0    0  501 -0.00000000000E+00  0.00000000000E+00  0.76021920765E+03  0.76021920765E+03  0.00000000000E+00 0.  1.
          1   -1    0    0  501    0  0.00000000000E+00 -0.00000000000E+00 -0.10473317975E+04  0.10473317975E+04  0.00000000000E+00 0. -1.
         23    2    1    2    0    0 -0.15131149888E+03 -0.64532735053E+03 -0.50441304668E+02  0.67113880569E+03  0.92414350940E+02 0.  0.
        254    2    1    2    0    0  0.15131149888E+03  0.64532735053E+03 -0.23667128518E+03  0.11364121995E+04  0.89223137740E+03 0.  0.
        -24    2    4    4    0    0 -0.18774607387E+03  0.23092470510E+03  0.25879842283E+03  0.40248901158E+03  0.80286817728E+02 0.  0.
         24    2    4    4    0    0  0.33905757275E+03  0.41440264543E+03 -0.49546970801E+03  0.73392318788E+03  0.80395422628E+02 0.  0.
         11    1    3    3    0    0 -0.12414822577E+03 -0.41758869610E+03 -0.68803024824E+02  0.44105210270E+03  0.00000000000E+00 0. -1.
        -11    1    3    3    0    0 -0.27163273102E+02 -0.22773865443E+03  0.18361720155E+02  0.23008670299E+03  0.00000000000E+00 0.  1.
          4    1    6    6  502    0  0.23547439499E+03  0.34099375347E+03 -0.37385526078E+03  0.55811529867E+03  0.00000000000E+00 0. -1.
          3    1    5    5  503    0 -0.15588094014E+03  0.13350798825E+03  0.18346240918E+03  0.27528477257E+03  0.00000000000E+00 0. -1.
         -4    1    5    5    0  503 -0.31865133734E+02  0.97416716846E+02  0.75336013649E+02  0.12720423901E+03  0.00000000000E+00 0.  1.
         -3    1    6    6    0  502  0.10358317775E+03  0.73408891960E+02 -0.12161444724E+03  0.17580788921E+03  0.00000000000E+00 0.  1.
<mgrwt>
<rscale>  0 0.17846028E+04</rscale>
<asrwt>0</asrwt>
<pdfrwt beam="1">  1        1 0.16112797E+00 0.17846028E+04</pdfrwt>
<pdfrwt beam="2">  1       -1 0.11695680E+00 0.17846028E+04</pdfrwt>
<totfact> 0.86599473E+00</totfact>
</mgrwt>
</event>
<event>
12    1  0.1495204E-007  0.1143603E+04  0.7818608E-02  0.9163705E-01
          2   -1    0    0  501    0  0.00000000000E+00  0.00000000000E+00  0.13138549767E+04  0.13138549767E+04  0.00000000000E+00 0.  1.
         -2   -1    0    0    0  501 -0.00000000000E+00 -0.00000000000E+00 -0.24885336953E+03  0.24885336953E+03  0.00000000000E+00 0. -1.
         23    2    1    2    0    0  0.69184250056E+02 -0.16002262115E+03  0.59066098090E+02  0.20526501722E+03  0.90836246158E+02 0.  0.
        254    2    1    2    0    0 -0.69184250056E+02  0.16002262115E+03  0.10059355091E+04  0.13574433290E+04  0.89462419111E+03 0.  0.
        -24    2    4    4    0    0  0.57918560093E+02 -0.32440817041E+03  0.16949230505E+03  0.37921772212E+03  0.80518436815E+02 0.  0.
         24    2    4    4    0    0 -0.12710281015E+03  0.48443079155E+03  0.83644320404E+03  0.97822560690E+03  0.80372808017E+02 0.  0.
         13    1    3    3    0    0  0.39457064136E+02 -0.13781548451E+03  0.99354429902E+01  0.14369648816E+03  0.00000000000E+00 0. -1.
        -13    1    3    3    0    0  0.29727185920E+02 -0.22207136635E+02  0.49130655100E+02  0.61568529061E+02  0.00000000000E+00 0.  1.
          4    1    6    6  502    0 -0.56569362139E+02  0.34793671038E+03  0.61130690263E+03  0.70566009974E+03  0.00000000000E+00 0. -1.
          1    1    5    5  503    0  0.28441338848E+02 -0.27378850537E+03  0.16392816091E+03  0.32037711742E+03  0.00000000000E+00 0. -1.
         -2    1    5    5    0  503  0.29477221245E+02 -0.50619665036E+02  0.55641441351E+01  0.58840604693E+02  0.00000000000E+00 0.  1.
         -3    1    6    6    0  502 -0.70533448010E+02  0.13649408118E+03  0.22513630141E+03  0.27256550717E+03  0.00000000000E+00 0.  1.
<mgrwt>
<rscale>  0 0.11436035E+04</rscale>
<asrwt>0</asrwt>
<pdfrwt beam="1">  1        2 0.20213153E+00 0.11436035E+04</pdfrwt>
<pdfrwt beam="2">  1       -2 0.38285135E-01 0.11436035E+04</pdfrwt>
<totfact> 0.10344480E+02</totfact>
</mgrwt>
</event>
<event>
12    1  0.1495204E-007  0.1806483E+04  0.7818608E-02  0.8702859E-01
         -1   -1    0    0    0  501 -0.00000000000E+00  0.00000000000E+00  0.81911584886E+03  0.81911584886E+03  0.00000000000E+00 0.  1.
          1   -1    0    0  501    0  0.00000000000E+00 -0.00000000000E+00 -0.99600728063E+03  0.99600728063E+03  0.00000000000E+00 0. -1.
         23    2    1    2    0    0 -0.59333726362E+03 -0.32240085542E+03 -0.97069559762E+02  0.68847665368E+03  0.92661660082E+02 0.  0.
        254    2    1    2    0    0  0.59333726362E+03  0.32240085542E+03 -0.79821872003E+02  0.11266464758E+04  0.89831471669E+03 0.  0.
        -24    2    4    4    0    0  0.66546807007E+03  0.54033598731E+03  0.26961261757E+02  0.86126544447E+03  0.78996991973E+02 0.  0.
         24    2    4    4    0    0 -0.72130806447E+02 -0.21793513189E+03 -0.10678313376E+03  0.26538103133E+03  0.79535395790E+02 0.  0.
         13    1    3    3    0    0 -0.25441559269E+03 -0.13744084342E+03  0.46210914376E+01  0.28920344696E+03  0.00000000000E+00 0.  1.
        -13    1    3    3    0    0 -0.33892167093E+03 -0.18496001200E+03 -0.10169065120E+03  0.39927320672E+03  0.00000000000E+00 0. -1.
          2    1    6    6  502    0 -0.82491672297E+02 -0.17528348069E+03 -0.63831522267E+02  0.20396969833E+03  0.00000000000E+00 0. -1.
          3    1    5    5  503    0  0.63476821567E+03  0.50622881040E+03  0.89248364854E+01  0.81195932707E+03  0.00000000000E+00 0. -1.
         -2    1    5    5    0  503  0.30699854395E+02  0.34107176908E+02  0.18036425272E+02  0.49306117401E+02  0.00000000000E+00 0.  1.
         -1    1    6    6    0  502  0.10360865850E+02 -0.42651651202E+02 -0.42951611493E+02  0.61411333004E+02  0.00000000000E+00 0.  1.
<mgrwt>
<rscale>  0 0.18064832E+04</rscale>
<asrwt>0</asrwt>
<pdfrwt beam="1">  1        1 0.15323189E+00 0.18064832E+04</pdfrwt>
<pdfrwt beam="2">  1       -1 0.12601782E+00 0.18064832E+04</pdfrwt>
<totfact> 0.78836515E+00</totfact>
</mgrwt>
</event>
<event>
12    1  0.1495204E-007  0.2201660E+04  0.7818608E-02  0.8517738E-01
          2   -1    0    0  501    0  0.00000000000E+00  0.00000000000E+00  0.23485649071E+04  0.23485649071E+04  0.00000000000E+00 0. -1.
         -2   -1    0    0    0  501 -0.00000000000E+00 -0.00000000000E+00 -0.51598580668E+03  0.51598580668E+03  0.00000000000E+00 0.  1.
         23    2    1    2    0    0  0.40279268638E+03  0.31386960194E+03 -0.22226265241E+03  0.56437792027E+03  0.91464064028E+02 0.  0.
        254    2    1    2    0    0 -0.40279268638E+03 -0.31386960194E+03  0.20548417529E+04  0.23001727935E+04  0.89870138290E+03 0.  0.
        -24    2    4    4    0    0 -0.21195454331E+03 -0.58326304589E+03  0.16897274011E+04  0.18018130237E+04  0.78936514628E+02 0.  0.
         24    2    4    4    0    0 -0.19083814307E+03  0.26939344395E+03  0.36511435178E+03  0.49835976982E+03  0.77858498657E+02 0.  0.
         13    1    3    3    0    0  0.66525933555E+02  0.14356974762E+02 -0.36773082347E+02  0.77356849374E+02  0.00000000000E+00 0. -1.
        -13    1    3    3    0    0  0.33626675282E+03  0.29951262718E+03 -0.18548957006E+03  0.48702107090E+03  0.00000000000E+00 0.  1.
          4    1    6    6  502    0 -0.73290897115E+02  0.10168299991E+03  0.19651705868E+03  0.23308784271E+03  0.00000000000E+00 0. -1.
          3    1    5    5  503    0 -0.63351595041E+02 -0.19820082127E+03  0.46574533490E+03  0.51011342574E+03  0.00000000000E+00 0. -1.
         -4    1    5    5    0  503 -0.14860294827E+03 -0.38506222463E+03  0.12239820662E+04  0.12916995980E+04  0.00000000000E+00 0.  1.
         -3    1    6    6    0  502 -0.11754724595E+03  0.16771044404E+03  0.16859729310E+03  0.26527192711E+03  0.00000000000E+00 0.  1.
<mgrwt>
<rscale>  0 0.22016595E+04</rscale>
<asrwt>0</asrwt>
<pdfrwt beam="1">  1        2 0.36131767E+00 0.22016595E+04</pdfrwt>
<pdfrwt beam="2">  1       -2 0.79382433E-01 0.22016595E+04</pdfrwt>
<totfact> 0.54684352E+00</totfact>
</mgrwt>
</event>
<event>
12    1  0.1495204E-007  0.1226339E+04  0.7818608E-02  0.9090110E-01
         -1   -1    0    0    0  501 -0.00000000000E+00  0.00000000000E+00  0.12458478067E+03  0.12458478067E+03  0.00000000000E+00 0.  1.
          1   -1    0    0  501    0  0.00000000000E+00 -0.00000000000E+00 -0.30178370410E+04  0.30178370410E+04  0.00000000000E+00 0. -1.
         23    2    1    2    0    0 -0.77783505016E+02  0.13175562606E+03 -0.74467433313E+02  0.18708035392E+03  0.77742147814E+02 0.  0.
        254    2    1    2    0    0  0.77783505016E+02 -0.13175562606E+03 -0.28187848270E+04  0.29553414677E+04  0.87469164358E+03 0.  0.
        -24    2    4    4    0    0 -0.34512415999E+03 -0.20021840549E+03 -0.89680635697E+03  0.98456918554E+03  0.76920371181E+02 0.  0.
         24    2    4    4    0    0  0.42290766500E+03  0.68462779432E+02 -0.19219784700E+04  0.19707722822E+04  0.80025644263E+02 0.  0.
         13    1    3    3    0    0 -0.66077800831E+02  0.49573457189E+02 -0.12626033733E+02  0.83565663691E+02  0.00000000000E+00 0.  1.
        -13    1    3    3    0    0 -0.11705704186E+02  0.82182168869E+02 -0.61841399580E+02  0.10351469023E+03  0.00000000000E+00 0. -1.
          4    1    6    6  502    0  0.12518225350E+03  0.56307229456E+02 -0.65463085812E+03  0.66886669904E+03  0.00000000000E+00 0. -1.
          1    1    5    5  503    0 -0.15580878499E+03 -0.13299104736E+03 -0.42608314400E+03  0.47276827490E+03  0.00000000000E+00 0. -1.
         -2    1    5    5    0  503 -0.18931537500E+03 -0.67227358127E+02 -0.47072321297E+03  0.51180091063E+03  0.00000000000E+00 0.  1.
         -3    1    6    6    0  502  0.29772541150E+03  0.12155549976E+02 -0.12673476119E+04  0.13019055832E+04  0.00000000000E+00 0.  1.
<mgrwt>
<rscale>  0 0.12263386E+04</rscale>
<asrwt>0</asrwt>
<pdfrwt beam="1">  1        1 0.46428265E+00 0.12263386E+04</pdfrwt>
<pdfrwt beam="2">  1       -1 0.19166888E-01 0.12263386E+04</pdfrwt>
<totfact> 0.12744068E+01</totfact>
</mgrwt>
</event>
<event>
12    1  0.1495204E-007  0.1647202E+04  0.7818608E-02  0.8792064E-01
          1   -1    0    0  501    0  0.00000000000E+00  0.00000000000E+00  0.18351968865E+04  0.18351968865E+04  0.00000000000E+00 0. -1.
         -1   -1    0    0    0  501 -0.00000000000E+00 -0.00000000000E+00 -0.36961608468E+03  0.36961608468E+03  0.00000000000E+00 0.  1.
         23    2    1    2    0    0  0.94305832978E+02 -0.24676019144E+03  0.11905317973E+04  0.12229194900E+04  0.91552915944E+02 0.  0.
        254    2    1    2    0    0 -0.94305832978E+02  0.24676019144E+03  0.27504900450E+03  0.98189348117E+03  0.90480863793E+03 0.  0.
        -24    2    4    4    0    0 -0.10241524973E+03  0.51130752124E+03 -0.79064214327E+02  0.53349002336E+03  0.80225871009E+02 0.  0.
         24    2    4    4    0    0  0.81094167544E+01 -0.26454732980E+03  0.35411321883E+03  0.44840345781E+03  0.74956233108E+02 0.  0.
         11    1    3    3    0    0  0.72098150936E+02 -0.24376163764E+03  0.10338097518E+04  0.10646034389E+04  0.00000000000E+00 0. -1.
        -11    1    3    3    0    0  0.22207682042E+02 -0.29985538047E+01  0.15672204553E+03  0.15831605106E+03  0.00000000000E+00 0.  1.
          4    1    6    6  502    0 -0.63645658287E+01 -0.22264139839E+03  0.32942969430E+03  0.39766018592E+03  0.00000000000E+00 0. -1.
          3    1    5    5  503    0 -0.16020040013E+02  0.27339348636E+03 -0.54016080066E+02  0.27913863397E+03  0.00000000000E+00 0. -1.
         -4    1    5    5    0  503 -0.86395209719E+02  0.23791403488E+03 -0.25048134261E+02  0.25435138939E+03  0.00000000000E+00 0.  1.
         -3    1    6    6    0  502  0.14473982583E+02 -0.41905931414E+02  0.24683524524E+02  0.50743271893E+02  0.00000000000E+00 0.  1.
<mgrwt>
<rscale>  0 0.16472016E+04</rscale>
<asrwt>0</asrwt>
<pdfrwt beam="1">  1        1 0.28233798E+00 0.16472016E+04</pdfrwt>
<pdfrwt beam="2">  1       -1 0.56864014E-01 0.16472016E+04</pdfrwt>
<totfact> 0.11539121E+01</totfact>
</mgrwt>
</event>
<event>
12    1  0.1495204E-007  0.2726542E+04  0.7818608E-02  0.8326444E-01
          2   -1    0    0  501    0  0.00000000000E+00  0.00000000000E+00  0.12336596960E+04  0.12336596960E+04  0.00000000000E+00 0. -1.
         -2   -1    0    0    0  501 -0.00000000000E+00 -0.00000000000E+00 -0.15064998423E+04  0.15064998423E+04  0.00000000000E+00 0.  1.
         23    2    1    2    0    0 -0.77425609130E+03 -0.92424927880E+03 -0.25261434065E+03  0.12351930117E+04  0.90435318013E+02 0.  0.
        254    2    1    2    0    0  0.77425609130E+03  0.92424927880E+03 -0.20225805667E+02  0.15049665266E+04  0.90044763235E+03 0.  0.
        -24    2    4    4    0    0  0.70922333105E+03  0.10936161718E+04 -0.73934691914E+01  0.13064367690E+04  0.87910770199E+02 0.  0.
         24    2    4    4    0    0  0.65032760256E+02 -0.16936689297E+03 -0.12832336476E+02  0.19852975758E+03  0.79592659495E+02 0.  0.
         11    1    3    3    0    0 -0.17376888171E+03 -0.18658440220E+03 -0.18558340364E+02  0.25564384482E+03  0.00000000000E+00 0. -1.
        -11    1    3    3    0    0 -0.60048720959E+03 -0.73766487661E+03 -0.23405600028E+03  0.97954916688E+03  0.00000000000E+00 0.  1.
          2    1    6    6  502    0  0.57840559243E+01 -0.11534852481E+02 -0.26413784236E+02  0.29397212833E+02  0.00000000000E+00 0. -1.
          3    1    5    5  503    0  0.26777033169E+03  0.42375085276E+03 -0.45210975508E+02  0.50329888541E+03  0.00000000000E+00 0. -1.
         -4    1    5    5    0  503  0.44145299935E+03  0.66986531901E+03  0.37817506316E+02  0.80313788358E+03  0.00000000000E+00 0.  1.
         -1    1    6    6    0  502  0.59248704332E+02 -0.15783204049E+03  0.13581447760E+02  0.16913254475E+03  0.00000000000E+00 0.  1.
<mgrwt>
<rscale>  0 0.27265422E+04</rscale>
<asrwt>0</asrwt>
<pdfrwt beam="1">  1        2 0.18979380E+00 0.27265422E+04</pdfrwt>
<pdfrwt beam="2">  1       -2 0.23176921E+00 0.27265422E+04</pdfrwt>
<totfact> 0.13195769E+00</totfact>
</mgrwt>
</event>
<event>
12    1  0.1495204E-007  0.1295695E+04  0.7818608E-02  0.9032986E-01
          2   -1    0    0  501    0  0.00000000000E+00  0.00000000000E+00  0.35184124443E+04  0.35184124443E+04  0.00000000000E+00 0. -1.
         -2   -1    0    0    0  501 -0.00000000000E+00 -0.00000000000E+00 -0.11928854705E+03  0.11928854705E+03  0.00000000000E+00 0.  1.
         23    2    1    2    0    0 -0.10035018833E+03 -0.57239851268E+02  0.35745383812E+02  0.15118819885E+03  0.90739066215E+02 0.  0.
        254    2    1    2    0    0  0.10035018833E+03  0.57239851268E+02  0.33633785134E+04  0.34865127925E+04  0.91110365312E+03 0.  0.
        -24    2    4    4    0    0  0.62419758055E+02  0.47508521604E+03  0.19600236978E+04  0.20196131625E+04  0.86846079578E+02 0.  0.
         24    2    4    4    0    0  0.37930430277E+02 -0.41784536477E+03  0.14033548156E+04  0.14668996300E+04  0.79726529417E+02 0.  0.
         13    1    3    3    0    0 -0.13233846799E+01  0.16111076248E+02  0.21840319001E+02  0.27172001379E+02  0.00000000000E+00 0. -1.
        -13    1    3    3    0    0 -0.99026803652E+02 -0.73350927515E+02  0.13905064812E+02  0.12401619748E+03  0.00000000000E+00 0.  1.
          4    1    6    6  502    0  0.12956038235E+02 -0.41728947070E+02  0.24170454453E+03  0.24562217082E+03  0.00000000000E+00 0. -1.
          1    1    5    5  503    0  0.59252860475E+02  0.27231721738E+03  0.12804220873E+04  0.13104000496E+04  0.00000000000E+00 0. -1.
         -2    1    5    5    0  503  0.31668975804E+01  0.20276799866E+03  0.67960161055E+03  0.70921311296E+03  0.00000000000E+00 0.  1.
         -3    1    6    6    0  502  0.24974392042E+02 -0.37611641770E+03  0.11616502711E+04  0.12212774592E+04  0.00000000000E+00 0.  1.
<mgrwt>
<rscale>  0 0.12956949E+04</rscale>
<asrwt>0</asrwt>
<pdfrwt beam="1">  1        2 0.54129414E+00 0.12956949E+04</pdfrwt>
<pdfrwt beam="2">  1       -2 0.18352087E-01 0.12956949E+04</pdfrwt>
<totfact> 0.19639285E+01</totfact>
</mgrwt>
</event>
<event>
12    1  0.1495204E-007  0.1583956E+04  0.7818608E-02  0.8830466E-01
         -2   -1    0    0    0  501 -0.00000000000E+00  0.00000000000E+00  0.19366417169E+03  0.19366417169E+03  0.00000000000E+00 0. -1.
          2   -1    0    0  501    0  0.00000000000E+00 -0.00000000000E+00 -0.32387445328E+04  0.32387445328E+04  0.00000000000E+00 0.  1.
         23    2    1    2    0    0 -0.47312574795E+03  0.21034786891E+03 -0.12454130704E+04  0.13522374433E+04  0.96944250560E+02 0.  0.
        254    2    1    2    0    0  0.47312574795E+03 -0.21034786891E+03 -0.17996672907E+04  0.20801712612E+04  0.90565772751E+03 0.  0.
        -24    2    4    4    0    0  0.45131571466E+03 -0.31225548707E+03 -0.18519546922E+04  0.19332586873E+04  0.81016088329E+02 0.  0.
         24    2    4    4    0    0  0.21810033287E+02  0.10190761815E+03  0.52287401496E+02  0.14691257391E+03  0.89378363307E+02 0.  0.
         11    1    3    3    0    0 -0.30871408963E+03  0.18631696510E+03 -0.84514963514E+03  0.91885597696E+03  0.00000000000E+00 0.  1.
        -11    1    3    3    0    0 -0.16441165832E+03  0.24030903813E+02 -0.40026343529E+03  0.43338146633E+03  0.00000000000E+00 0. -1.
          2    1    6    6  502    0  0.44985768471E+02  0.39283376695E+02 -0.36059043751E+01  0.59832312306E+02  0.00000000000E+00 0. -1.
          3    1    5    5  503    0  0.38127104903E+03 -0.28090338553E+03 -0.16683265409E+04  0.17342398254E+04  0.00000000000E+00 0. -1.
         -4    1    5    5    0  503  0.70044665629E+02 -0.31352101534E+02 -0.18362815123E+03  0.19901886187E+03  0.00000000000E+00 0.  1.
         -1    1    6    6    0  502 -0.23175735184E+02  0.62624241458E+02  0.55893305871E+02  0.87080261602E+02  0.00000000000E+00 0.  1.
<mgrwt>
<rscale>  0 0.15839555E+04</rscale>
<asrwt>0</asrwt>
<pdfrwt beam="1">  1        2 0.49826836E+00 0.15839555E+04</pdfrwt>
<pdfrwt beam="2">  1       -2 0.29794490E-01 0.15839555E+04</pdfrwt>
<totfact> 0.12304619E+01</totfact>
</mgrwt>
</event>
<event>
12    1  0.1495204E-007  0.4006991E+04  0.7818608E-02  0.8003138E-01
          2   -1    0    0  501    0  0.00000000000E+00  0.00000000000E+00  0.26587834819E+04  0.26587834819E+04  0.00000000000E+00 0. -1.
         -2   -1    0    0    0  501 -0.00000000000E+00 -0.00000000000E+00 -0.15097105266E+04  0.15097105266E+04  0.00000000000E+00 0.  1.
         23    2    1    2    0    0 -0.40228540128E+03  0.28742737828E+03 -0.13722059637E+04  0.14613500892E+04  0.90259817237E+02 0.  0.
        254    2    1    2    0    0  0.40228540128E+03 -0.28742737828E+03  0.25212789190E+04  0.27071439193E+04  0.85283806821E+03 0.  0.
        -24    2    4    4    0    0  0.17341928862E+03  0.17058929248E+03  0.18953412621E+03  0.31851554670E+03  0.79712057553E+02 0.  0.
         24    2    4    4    0    0  0.22886611266E+03 -0.45801667076E+03  0.23317447927E+04  0.23886283726E+04  0.79704174950E+02 0.  0.
         11    1    3    3    0    0 -0.21313709544E+02  0.25726558011E+02 -0.17218908276E+03  0.17540014316E+03  0.00000000000E+00 0. -1.
        -11    1    3    3    0    0 -0.38097169173E+03  0.26170082027E+03 -0.12000168809E+04  0.12859499461E+04  0.00000000000E+00 0.  1.
          4    1    6    6  502    0  0.20219849960E+03 -0.37092601971E+03  0.17821461794E+04  0.18315336060E+04  0.00000000000E+00 0. -1.
          1    1    5    5  503    0  0.17200244346E+03  0.17182262236E+03  0.19568104869E+03  0.31208801150E+03  0.00000000000E+00 0. -1.
         -2    1    5    5    0  503  0.14168451605E+01 -0.12333298769E+01 -0.61469224771E+01  0.64275351989E+01  0.00000000000E+00 0.  1.
         -3    1    6    6    0  502  0.26667613063E+02 -0.87090651056E+02  0.54959861339E+03  0.55709476656E+03  0.00000000000E+00 0.  1.
<mgrwt>
<rscale>  0 0.40069906E+04</rscale>
<asrwt>0</asrwt>
<pdfrwt beam="1">  1        2 0.40904361E+00 0.40069906E+04</pdfrwt>
<pdfrwt beam="2">  1       -2 0.23226316E+00 0.40069906E+04</pdfrwt>
<totfact> 0.18330117E-01</totfact>
</mgrwt>
</event>
<event>
12    1  0.1495204E-007  0.1748057E+04  0.7818608E-02  0.8734421E-01
         -1   -1    0    0    0  501 -0.00000000000E+00  0.00000000000E+00  0.39114098302E+03  0.39114098302E+03  0.00000000000E+00 0.  1.
          1   -1    0    0  501    0  0.00000000000E+00 -0.00000000000E+00 -0.19530703360E+04  0.19530703360E+04  0.00000000000E+00 0. -1.
         23    2    1    2    0    0 -0.14860467972E+03 -0.38536293220E+03 -0.12182574261E+04  0.12895823526E+04  0.91013996330E+02 0.  0.
        254    2    1    2    0    0  0.14860467972E+03  0.38536293220E+03 -0.34367192688E+03  0.10546289664E+04  0.90749320833E+03 0.  0.
        -24    2    4    4    0    0  0.25381120342E+03 -0.19864985519E+03  0.54234728520E+02  0.33615828443E+03  0.78607216351E+02 0.  0.
         24    2    4    4    0    0 -0.10520652370E+03  0.58401278739E+03 -0.39790665540E+03  0.71847068200E+03  0.75703804579E+02 0.  0.
         13    1    3    3    0    0 -0.28683533997E+02 -0.16387143936E+03 -0.58119272244E+03  0.60453417966E+03  0.00000000000E+00 0. -1.
        -13    1    3    3    0    0 -0.11992114573E+03 -0.22149149283E+03 -0.63706470368E+03  0.68504817295E+03  0.00000000000E+00 0.  1.
          4    1    6    6  502    0 -0.96112266308E+02  0.52971778499E+03 -0.38517726875E+03  0.66196678756E+03  0.00000000000E+00 0. -1.
          3    1    5    5  503    0  0.18472666970E+03 -0.11985665628E+03  0.47088793558E+01  0.22025379474E+03  0.00000000000E+00 0. -1.
         -4    1    5    5    0  503  0.69084533719E+02 -0.78793198908E+02  0.49525849164E+02  0.11590448968E+03  0.00000000000E+00 0.  1.
         -3    1    6    6    0  502 -0.90942573911E+01  0.54295002392E+02 -0.12729386643E+02  0.56503894437E+02  0.00000000000E+00 0.  1.
<mgrwt>
<rscale>  0 0.17480570E+04</rscale>
<asrwt>0</asrwt>
<pdfrwt beam="1">  1        1 0.30047236E+00 0.17480570E+04</pdfrwt>
<pdfrwt beam="2">  1       -1 0.60175536E-01 0.17480570E+04</pdfrwt>
<totfact> 0.85119911E+00</totfact>
</mgrwt>
</event>
<event>
12    1  0.1495204E-007  0.1161854E+04  0.7818608E-02  0.9146917E-01
         -2   -1    0    0    0  501 -0.00000000000E+00  0.00000000000E+00  0.25106922326E+03  0.25106922326E+03  0.00000000000E+00 0. -1.
          2   -1    0    0  501    0  0.00000000000E+00 -0.00000000000E+00 -0.13441564814E+04  0.13441564814E+04  0.00000000000E+00 0.  1.
         23    2    1    2    0    0  0.94864038542E+02  0.15845618900E+03 -0.58840086316E+03  0.62388346213E+03  0.94379282207E+02 0.  0.
        254    2    1    2    0    0 -0.94864038542E+02 -0.15845618900E+03 -0.50468639500E+03  0.97134224254E+03  0.80912906585E+03 0.  0.
        -24    2    4    4    0    0 -0.26717198912E+03 -0.24720732245E+03 -0.62668404622E+03  0.72881733268E+03  0.77132863237E+02 0.  0.
         24    2    4    4    0    0  0.17230795057E+03  0.88751133447E+02  0.12199765122E+03  0.24252490986E+03  0.79800447875E+02 0.  0.
         11    1    3    3    0    0  0.90216770488E+02  0.14495645668E+03 -0.39965208504E+03  0.43459547752E+03  0.00000000000E+00 0.  1.
        -11    1    3    3    0    0  0.46472680540E+01  0.13499732325E+02 -0.18874877813E+03  0.18928798461E+03  0.00000000000E+00 0. -1.
          2    1    6    6  502    0  0.17805329617E+03  0.92081566716E+02  0.12385253716E+03  0.23562988386E+03  0.00000000000E+00 0. -1.
          1    1    5    5  503    0 -0.22374635257E+03 -0.23709596181E+03 -0.52807814201E+03  0.62059926641E+03  0.00000000000E+00 0. -1.
         -2    1    5    5    0  503 -0.43425636549E+02 -0.10111360636E+02 -0.98605904204E+02  0.10821806627E+03  0.00000000000E+00 0.  1.
         -1    1    6    6    0  502 -0.57453455963E+01 -0.33304332691E+01 -0.18548859364E+01  0.68950260056E+01  0.00000000000E+00 0.  1.
<mgrwt>
<rscale>  0 0.11618542E+04</rscale>
<asrwt>0</asrwt>
<pdfrwt beam="1">  1        2 0.20679330E+00 0.11618542E+04</pdfrwt>
<pdfrwt beam="2">  1       -2 0.38626034E-01 0.11618542E+04</pdfrwt>
<totfact> 0.97534076E+01</totfact>
</mgrwt>
</event>
<event>
12    1  0.1495204E-007  0.2601344E+04  0.7818608E-02  0.8367745E-01
         -2   -1    0    0    0  501 -0.00000000000E+00  0.00000000000E+00  0.55601030820E+03  0.55601030820E+03  0.00000000000E+00 0.  1.
          2   -1    0    0  501    0  0.00000000000E+00 -0.00000000000E+00 -0.30426541144E+04  0.30426541144E+04  0.00000000000E+00 0. -1.
         23    2    1    2    0    0  0.31701761086E+02  0.44145465245E+02  0.48486029105E+03  0.49559767472E+03  0.87027177366E+02 0.  0.
        254    2    1    2    0    0 -0.31701761086E+02 -0.44145465245E+02 -0.29715040972E+04  0.31030667478E+04  0.89231878724E+03 0.  0.
        -24    2    4    4    0    0  0.25372312421E+03 -0.35853652371E+03 -0.17923510818E+04  0.18472285015E+04  0.82503780621E+02 0.  0.
         24    2    4    4    0    0 -0.28542488529E+03  0.31439105847E+03 -0.11791530155E+04  0.12558382464E+04  0.80117191523E+02 0.  0.
         13    1    3    3    0    0  0.15344503481E+02  0.43595864992E+02  0.47332138548E+03  0.47557248363E+03  0.00000000000E+00 0.  1.
        -13    1    3    3    0    0  0.16357257605E+02  0.54960025326E+00  0.11538905569E+02  0.20025191099E+02  0.00000000000E+00 0. -1.
          4    1    6    6  502    0 -0.27226522841E+02  0.26906818791E+01 -0.76748406652E+02  0.81479084670E+02  0.00000000000E+00 0. -1.
          1    1    5    5  503    0  0.54259314745E+02 -0.37583835926E+02 -0.19818633578E+03  0.20888858669E+03  0.00000000000E+00 0. -1.
         -2    1    5    5    0  503  0.19946380946E+03 -0.32095268779E+03 -0.15941647460E+04  0.16383399148E+04  0.00000000000E+00 0.  1.
         -3    1    6    6    0  502 -0.25819836245E+03  0.31170037659E+03 -0.11024046088E+04  0.11743591617E+04  0.00000000000E+00 0.  1.
<mgrwt>
<rscale>  0 0.26013435E+04</rscale>
<asrwt>0</asrwt>
<pdfrwt beam="1">  1        2 0.46810064E+00 0.26013435E+04</pdfrwt>
<pdfrwt beam="2">  1       -2 0.85540045E-01 0.26013435E+04</pdfrwt>
<totfact> 0.17191249E+00</totfact>
</mgrwt>
</event>
<event>
12    1  0.1495204E-007  0.1578064E+04  0.7818608E-02  0.8834139E-01
         -1   -1    0    0    0  501 -0.00000000000E+00  0.00000000000E+00  0.60921403476E+03  0.60921403476E+03  0.00000000000E+00 0.  1.
          1   -1    0    0  501    0  0.00000000000E+00 -0.00000000000E+00 -0.10219258254E+04  0.10219258254E+04  0.00000000000E+00 0. -1.
         23    2    1    2    0    0  0.38808596061E+03 -0.19915308747E+03  0.16464028718E+03  0.47557305154E+03  0.93758402863E+02 0.  0.
        254    2    1    2    0    0 -0.38808596061E+03  0.19915308747E+03 -0.57735207784E+03  0.11555668086E+04  0.90095869070E+03 0.  0.
        -24    2    4    4    0    0 -0.47814254431E+03  0.19964244911E+03 -0.76671311311E+03  0.92882524024E+03  0.79937031083E+02 0.  0.
         24    2    4    4    0    0  0.90056583692E+02 -0.48936164308E+00  0.18936103527E+03  0.22674156839E+03  0.86276934446E+02 0.  0.
         11    1    3    3    0    0  0.34936066396E+03 -0.19829626518E+03  0.17049639415E+03  0.43639810119E+03  0.00000000000E+00 0.  1.
        -11    1    3    3    0    0  0.38725296656E+02 -0.85682228563E+00 -0.58561069638E+01  0.39174950342E+02  0.00000000000E+00 0. -1.
          2    1    6    6  502    0  0.56928120396E+02 -0.26363084979E+02  0.16852971482E+03  0.17982793976E+03  0.00000000000E+00 0. -1.
          3    1    5    5  503    0 -0.41496492384E+03  0.16567835433E+03 -0.70247779328E+03  0.83253844065E+03  0.00000000000E+00 0. -1.
         -4    1    5    5    0  503 -0.63177620468E+02  0.33964094785E+02 -0.64235319829E+02  0.96286799594E+02  0.00000000000E+00 0.  1.
         -1    1    6    6    0  502  0.33128463296E+02  0.25873723336E+02  0.20831320449E+02  0.46913628631E+02  0.00000000000E+00 0.  1.
<mgrwt>
<rscale>  0 0.15780641E+04</rscale>
<asrwt>0</asrwt>
<pdfrwt beam="1">  1        1 0.15721936E+00 0.15780641E+04</pdfrwt>
<pdfrwt beam="2">  1       -1 0.93725237E-01 0.15780641E+04</pdfrwt>
<totfact> 0.15437382E+01</totfact>
</mgrwt>
</event>
<event>
12    1  0.1495204E-007  0.1939820E+04  0.7818608E-02  0.8635285E-01
         -2   -1    0    0    0  501 -0.00000000000E+00  0.00000000000E+00  0.96156888268E+03  0.96156888268E+03  0.00000000000E+00 0.  1.
          2   -1    0    0  501    0  0.00000000000E+00 -0.00000000000E+00 -0.97832336899E+03  0.97832336899E+03  0.00000000000E+00 0. -1.
         23    2    1    2    0    0 -0.22258860092E+03 -0.71561285106E+03 -0.12085176156E+03  0.76552892778E+03  0.98903756910E+02 0.  0.
        254    2    1    2    0    0  0.22258860092E+03  0.71561285106E+03  0.10409727524E+03  0.11743633239E+04  0.89813447540E+03 0.  0.
        -24    2    4    4    0    0 -0.20683303136E+03  0.69788897152E+03  0.74495295722E+02  0.73601150233E+03  0.79589340027E+02 0.  0.
         24    2    4    4    0    0  0.42942163228E+03  0.17723879544E+02  0.29601979520E+02  0.43835182156E+03  0.80987456373E+02 0.  0.
         13    1    3    3    0    0 -0.94562777402E+02 -0.23147988781E+03 -0.82412840108E+02  0.26328109227E+03  0.00000000000E+00 0.  1.
        -13    1    3    3    0    0 -0.12802582352E+03 -0.48413296326E+03 -0.38438921448E+02  0.50224783552E+03  0.00000000000E+00 0. -1.
          2    1    6    6  502    0  0.30022208399E+03  0.49563369993E+02  0.20890151729E+02  0.30500200951E+03  0.00000000000E+00 0. -1.
          1    1    5    5  503    0 -0.11509029845E+03  0.29914974115E+03  0.22983838330E+01  0.32053334771E+03  0.00000000000E+00 0. -1.
         -4    1    5    5    0  503 -0.91742732912E+02  0.39873923037E+03  0.72196911889E+02  0.41547815462E+03  0.00000000000E+00 0.  1.
         -1    1    6    6    0  502  0.12919954829E+03 -0.31839490449E+02  0.87118277913E+01  0.13334981205E+03  0.00000000000E+00 0.  1.
<mgrwt>
<rscale>  0 0.19398199E+04</rscale>
<asrwt>0</asrwt>
<pdfrwt beam="1">  1        2 0.15051129E+00 0.19398199E+04</pdfrwt>
<pdfrwt beam="2">  1       -2 0.14793367E+00 0.19398199E+04</pdfrwt>
<totfact> 0.75482052E+00</totfact>
</mgrwt>
</event>
<event>
12    1  0.1495204E-007  0.2071144E+04  0.7818608E-02  0.8574062E-01
          1   -1    0    0  501    0  0.00000000000E+00  0.00000000000E+00  0.15909649256E+04  0.15909649256E+04  0.00000000000E+00 0. -1.
         -1   -1    0    0    0  501 -0.00000000000E+00 -0.00000000000E+00 -0.67406241999E+03  0.67406241999E+03  0.00000000000E+00 0.  1.
         23    2    1    2    0    0  0.28036661676E+03 -0.76089206289E+03  0.13940996872E+03  0.82789349478E+03  0.91707841282E+02 0.  0.
        254    2    1    2    0    0 -0.28036661676E+03  0.76089206289E+03  0.77749253687E+03  0.14371338508E+04  0.89626831308E+03 0.  0.
        -24    2    4    4    0    0  0.41595381732E+02  0.50546680593E+03 -0.44431347938E+02  0.51473777106E+03  0.75854865321E+02 0.  0.
         24    2    4    4    0    0 -0.32196199850E+03  0.25542525696E+03  0.82192388481E+03  0.92239607973E+03  0.79712389982E+02 0.  0.
         11    1    3    3    0    0  0.58157809222E+01 -0.17521835122E+02 -0.10718595880E+02  0.21347747221E+02  0.00000000000E+00 0. -1.
        -11    1    3    3    0    0  0.27455083584E+03 -0.74337022777E+03  0.15012856460E+03  0.80654574756E+03  0.00000000000E+00 0.  1.
          2    1    6    6  502    0 -0.70846370778E+02  0.93546225637E+02  0.27945975763E+03  0.30309711433E+03  0.00000000000E+00 0. -1.
          3    1    5    5  503    0  0.75716602064E+01  0.40670393229E+03 -0.51593765993E+02  0.41003333434E+03  0.00000000000E+00 0. -1.
         -4    1    5    5    0  503  0.34023721525E+02  0.98762873646E+02  0.71624180553E+01  0.10470443672E+03  0.00000000000E+00 0.  1.
         -1    1    6    6    0  502 -0.25111562772E+03  0.16187903132E+03  0.54246412718E+03  0.61929896540E+03  0.00000000000E+00 0.  1.
<mgrwt>
<rscale>  0 0.20711443E+04</rscale>
<asrwt>0</asrwt>
<pdfrwt beam="1">  1        1 0.24476383E+00 0.20711443E+04</pdfrwt>
<pdfrwt beam="2">  1       -1 0.10370191E+00 0.20711443E+04</pdfrwt>
<totfact> 0.45734067E+00</totfact>
</mgrwt>
</event>
<event>
12    1  0.1495204E-007  0.2520458E+04  0.7818608E-02  0.8395733E-01
         -1   -1    0    0    0  501 -0.00000000000E+00  0.00000000000E+00  0.10130249972E+04  0.10130249972E+04  0.00000000000E+00 0.  1.
          1   -1    0    0  501    0  0.00000000000E+00 -0.00000000000E+00 -0.15677575916E+04  0.15677575916E+04  0.00000000000E+00 0. -1.
         23    2    1    2    0    0  0.28074584192E+03 -0.85528682135E+03 -0.88480350537E+03  0.12655384893E+04  0.91524041406E+02 0.  0.
        254    2    1    2    0    0 -0.28074584192E+03  0.85528682135E+03  0.33007091096E+03  0.13152440996E+04  0.90032575251E+03 0.  0.
        -24    2    4    4    0    0 -0.18937771090E+01  0.26673679157E+03  0.55568458423E+03  0.62139511786E+03  0.78704720152E+02 0.  0.
         24    2    4    4    0    0 -0.27885206481E+03  0.58855002977E+03 -0.22561367328E+03  0.69384898170E+03  0.79845276846E+02 0.  0.
         13    1    3    3    0    0  0.20073613014E+03 -0.57440893373E+03 -0.65410862583E+03  0.89336370615E+03  0.00000000000E+00 0. -1.
        -13    1    3    3    0    0  0.80009711781E+02 -0.28087788762E+03 -0.23069487954E+03  0.37217478311E+03  0.00000000000E+00 0.  1.
          4    1    6    6  502    0 -0.90491524850E+02  0.22144736024E+03 -0.44886652696E+02  0.24339774243E+03  0.00000000000E+00 0. -1.
          3    1    5    5  503    0  0.37417846917E+01  0.13981205690E+03  0.37732008948E+03  0.40240758210E+03  0.00000000000E+00 0. -1.
         -4    1    5    5    0  503 -0.56355618007E+01  0.12692473467E+03  0.17836449475E+03  0.21898753576E+03  0.00000000000E+00 0.  1.
         -3    1    6    6    0  502 -0.18836053996E+03  0.36710266953E+03 -0.18072702058E+03  0.45045123927E+03  0.00000000000E+00 0.  1.
<mgrwt>
<rscale>  0 0.25204584E+04</rscale>
<asrwt>0</asrwt>
<pdfrwt beam="1">  1        1 0.24119347E+00 0.25204584E+04</pdfrwt>
<pdfrwt beam="2">  1       -1 0.15585000E+00 0.25204584E+04</pdfrwt>
<totfact> 0.16372452E+00</totfact>
</mgrwt>
</event>
<event>
12    1  0.1495204E-007  0.1773278E+04  0.7818608E-02  0.8720640E-01
          1   -1    0    0  501    0  0.00000000000E+00  0.00000000000E+00  0.68492415212E+03  0.68492415212E+03  0.00000000000E+00 0. -1.
         -1   -1    0    0    0  501 -0.00000000000E+00 -0.00000000000E+00 -0.11477601059E+04  0.11477601059E+04  0.00000000000E+00 0.  1.
         23    2    1    2    0    0 -0.39325001182E+03 -0.13433794636E+03  0.35054491571E+03  0.54978941586E+03  0.81819363404E+02 0.  0.
        254    2    1    2    0    0  0.39325001182E+03  0.13433794636E+03 -0.81338086946E+03  0.12828948421E+04  0.90085430650E+03 0.  0.
        -24    2    4    4    0    0  0.55815049590E+03 -0.53488655117E+02 -0.84642605306E+03  0.10185819150E+04  0.81725405883E+02 0.  0.
         24    2    4    4    0    0 -0.16490048408E+03  0.18782660148E+03  0.33045183608E+02  0.26431292712E+03  0.79362065322E+02 0.  0.
         11    1    3    3    0    0 -0.24200202530E+02 -0.19131077480E+02  0.49809033327E+01  0.31248317171E+02  0.00000000000E+00 0.  1.
        -11    1    3    3    0    0 -0.36904980929E+03 -0.11520686888E+03  0.34556401238E+03  0.51854109869E+03  0.00000000000E+00 0. -1.
          2    1    6    6  502    0 -0.17237094447E+03  0.17186253968E+03  0.24250667593E+02  0.24461514655E+03  0.00000000000E+00 0. -1.
          1    1    5    5  503    0  0.15397441777E+03 -0.51505821879E+02 -0.25086620929E+03  0.29882239873E+03  0.00000000000E+00 0. -1.
         -2    1    5    5    0  503  0.40417607813E+03 -0.19828332383E+01 -0.59555984377E+03  0.71975951628E+03  0.00000000000E+00 0.  1.
         -1    1    6    6    0  502  0.74704603916E+01  0.15964061798E+02  0.87945160149E+01  0.19697780573E+02  0.00000000000E+00 0.  1.
<mgrwt>
<rscale>  0 0.17732779E+04</rscale>
<asrwt>0</asrwt>
<pdfrwt beam="1">  1        1 0.10537295E+00 0.17732779E+04</pdfrwt>
<pdfrwt beam="2">  1       -1 0.17657847E+00 0.17732779E+04</pdfrwt>
<totfact> 0.58662803E+00</totfact>
</mgrwt>
</event>
<event>
12    1  0.1495204E-007  0.1416131E+04  0.7818608E-02  0.8942224E-01
          1   -1    0    0  501    0  0.00000000000E+00  0.00000000000E+00  0.22923631741E+03  0.22923631741E+03  0.00000000000E+00 0. -1.
         -1   -1    0    0    0  501 -0.00000000000E+00 -0.00000000000E+00 -0.21870733305E+04  0.21870733305E+04  0.00000000000E+00 0.  1.
         23    2    1    2    0    0 -0.32420522760E+02 -0.31624156479E+03 -0.14242830575E+03  0.35999675186E+03  0.90840637789E+02 0.  0.
        254    2    1    2    0    0  0.32420522760E+02  0.31624156479E+03 -0.18154087073E+04  0.20563128960E+04  0.91195073014E+03 0.  0.
        -24    2    4    4    0    0  0.35667646746E+03  0.27859349586E+02 -0.28746654943E+03  0.46586648677E+03  0.80002004037E+02 0.  0.
         24    2    4    4    0    0 -0.32425594470E+03  0.28838221520E+03 -0.15279421579E+04  0.15904464093E+04  0.81279291235E+02 0.  0.
         13    1    3    3    0    0 -0.26389812144E+02 -0.27219390288E+03 -0.15427718952E+03  0.31398629613E+03  0.00000000000E+00 0. -1.
        -13    1    3    3    0    0 -0.60307106160E+01 -0.44047661908E+02  0.11848883767E+02  0.46010455732E+02  0.00000000000E+00 0.  1.
          4    1    6    6  502    0 -0.11448632297E+02  0.26630211346E+02 -0.56257565037E+02  0.63286277831E+02  0.00000000000E+00 0. -1.
          1    1    5    5  503    0  0.23849089089E+02  0.61364257670E+01 -0.52160940567E+02  0.57681873170E+02  0.00000000000E+00 0. -1.
         -2    1    5    5    0  503  0.33282737837E+03  0.21722923819E+02 -0.23530560886E+03  0.40818461359E+03  0.00000000000E+00 0.  1.
         -3    1    6    6    0  502 -0.31280731240E+03  0.26175200386E+03 -0.14716845929E+04  0.15271601315E+04  0.00000000000E+00 0.  1.
<mgrwt>
<rscale>  0 0.14161308E+04</rscale>
<asrwt>0</asrwt>
<pdfrwt beam="1">  1        1 0.35267125E-01 0.14161308E+04</pdfrwt>
<pdfrwt beam="2">  1       -1 0.33647283E+00 0.14161308E+04</pdfrwt>
<totfact> 0.23274452E+00</totfact>
</mgrwt>
</event>
<event>
12    1  0.1495204E-007  0.1286444E+04  0.7818608E-02  0.9040385E-01
          1   -1    0    0  501    0  0.00000000000E+00  0.00000000000E+00  0.34597113678E+03  0.34597113678E+03  0.00000000000E+00 0. -1.
         -1   -1    0    0    0  501 -0.00000000000E+00 -0.00000000000E+00 -0.11958637733E+04  0.11958637733E+04  0.00000000000E+00 0.  1.
         23    2    1    2    0    0  0.24710699847E+02  0.15395661923E+03 -0.58027554932E+03  0.60832399239E+03  0.95000564707E+02 0.  0.
        254    2    1    2    0    0 -0.24710699847E+02 -0.15395661923E+03 -0.26961708720E+03  0.93351091768E+03  0.88002045455E+03 0.  0.
        -24    2    4    4    0    0  0.26553436615E+03 -0.20050497824E+03  0.18398181656E+03  0.38723060979E+03  0.73399526082E+02 0.  0.
         24    2    4    4    0    0 -0.29024506600E+03  0.46548359008E+02 -0.45359890376E+03  0.54628030789E+03  0.79128131727E+02 0.  0.
         11    1    3    3    0    0  0.15185901820E+02  0.39781356854E+02 -0.33398698556E+03  0.33669047283E+03  0.00000000000E+00 0.  1.
        -11    1    3    3    0    0  0.95247980265E+01  0.11417526237E+03 -0.24628856376E+03  0.27163351957E+03  0.00000000000E+00 0. -1.
          4    1    6    6  502    0 -0.17137180855E+03  0.66455753027E+02 -0.26768688773E+03  0.32471669766E+03  0.00000000000E+00 0. -1.
          3    1    5    5  503    0  0.91156476459E+02 -0.78674598887E+02  0.28485663880E+02  0.12373612551E+03  0.00000000000E+00 0. -1.
         -4    1    5    5    0  503  0.17437788970E+03 -0.12183037935E+03  0.15549615268E+03  0.26349448428E+03  0.00000000000E+00 0.  1.
         -3    1    6    6    0  502 -0.11887325745E+03 -0.19907394019E+02 -0.18591201603E+03  0.22156361023E+03  0.00000000000E+00 0.  1.
<mgrwt>
<rscale>  0 0.12864437E+04</rscale>
<asrwt>0</asrwt>
<pdfrwt beam="1">  1        1 0.53226327E-01 0.12864437E+04</pdfrwt>
<pdfrwt beam="2">  1       -1 0.18397905E+00 0.12864437E+04</pdfrwt>
<totfact> 0.13939112E+01</totfact>
</mgrwt>
</event>
<event>
12    1  0.1495204E-007  0.2251508E+04  0.7818608E-02  0.8497290E-01
         -1   -1    0    0    0  501 -0.00000000000E+00  0.00000000000E+00  0.36837796027E+03  0.36837796027E+03  0.00000000000E+00 0.  1.
          1   -1    0    0  501    0  0.00000000000E+00 -0.00000000000E+00 -0.34402764857E+04  0.34402764857E+04  0.00000000000E+00 0. -1.
         23    2    1    2    0    0  0.92786660417E+03 -0.17304897474E+03 -0.12468585761E+04  0.15665336044E+04  0.92134912708E+02 0.  0.
        254    2    1    2    0    0 -0.92786660417E+03  0.17304897474E+03 -0.18250399494E+04  0.22421208416E+04  0.89747014923E+03 0.  0.
        -24    2    4    4    0    0 -0.93709214105E+03  0.42528605966E+03 -0.15330030317E+04  0.18480574181E+04  0.78790939397E+02 0.  0.
         24    2    4    4    0    0  0.92255368754E+01 -0.25223708492E+03 -0.29203691770E+03  0.39406342350E+03  0.79320633530E+02 0.  0.
         11    1    3    3    0    0  0.41856192498E+03 -0.10553514760E+03 -0.50833189636E+03  0.66688310016E+03  0.00000000000E+00 0.  1.
        -11    1    3    3    0    0  0.50930467919E+03 -0.67513827144E+02 -0.73852667973E+03  0.89965050424E+03  0.00000000000E+00 0. -1.
          2    1    6    6  502    0  0.45380451636E+01 -0.17173130094E+03 -0.24940759277E+03  0.30284712465E+03  0.00000000000E+00 0. -1.
          1    1    5    5  503    0 -0.70208977942E+03  0.34888824988E+03 -0.11993557619E+04  0.14328668161E+04  0.00000000000E+00 0. -1.
         -2    1    5    5    0  503 -0.23500236163E+03  0.76397809786E+02 -0.33364726980E+03  0.41519060196E+03  0.00000000000E+00 0.  1.
         -1    1    6    6    0  502  0.46874917118E+01 -0.80505783977E+02 -0.42629324927E+02  0.91216298850E+02  0.00000000000E+00 0.  1.
<mgrwt>
<rscale>  0 0.22515080E+04</rscale>
<asrwt>0</asrwt>
<pdfrwt beam="1">  1        1 0.52927331E+00 0.22515080E+04</pdfrwt>
<pdfrwt beam="2">  1       -1 0.56673532E-01 0.22515080E+04</pdfrwt>
<totfact> 0.79794747E-01</totfact>
</mgrwt>
</event>
<event>
12    1  0.1495204E-007  0.2106946E+04  0.7818608E-02  0.8558190E-01
         -1   -1    0    0    0  501 -0.00000000000E+00  0.00000000000E+00  0.11666136598E+04  0.11666136598E+04  0.00000000000E+00 0.  1.
          1   -1    0    0  501    0  0.00000000000E+00 -0.00000000000E+00 -0.95130468071E+03  0.95130468071E+03  0.00000000000E+00 0. -1.
         23    2    1    2    0    0 -0.34935953777E+03 -0.65489478014E+03  0.52374503447E+03  0.91201817870E+03  0.80802459468E+02 0.  0.
        254    2    1    2    0    0  0.34935953777E+03  0.65489478014E+03 -0.30843605534E+03  0.12059001619E+04  0.89895669553E+03 0.  0.
        -24    2    4    4    0    0  0.62440599816E+03  0.30420621282E+03 -0.95397730984E+02  0.70543781752E+03  0.78214556502E+02 0.  0.
         24    2    4    4    0    0 -0.27504646039E+03  0.35068856732E+03 -0.21303832435E+03  0.50046234433E+03  0.80275798538E+02 0.  0.
         11    1    3    3    0    0 -0.27301614659E+03 -0.56259962490E+03  0.46020174984E+03  0.77642887942E+03  0.00000000000E+00 0.  1.
        -11    1    3    3    0    0 -0.76343391179E+02 -0.92295155242E+02  0.63543284624E+02  0.13558929928E+03  0.00000000000E+00 0. -1.
          2    1    6    6  502    0 -0.15910651845E+03  0.14655758327E+03 -0.80072261482E+02  0.23066334015E+03  0.00000000000E+00 0. -1.
          3    1    5    5  503    0  0.32248692729E+03  0.17403371383E+03 -0.86554912266E+02  0.37653327165E+03  0.00000000000E+00 0. -1.
         -4    1    5    5    0  503  0.30191907088E+03  0.13017249899E+03 -0.88428187181E+01  0.32890454587E+03  0.00000000000E+00 0.  1.
         -1    1    6    6    0  502 -0.11593994194E+03  0.20413098405E+03 -0.13296606287E+03  0.26979900419E+03  0.00000000000E+00 0.  1.
<mgrwt>
<rscale>  0 0.21069457E+04</rscale>
<asrwt>0</asrwt>
<pdfrwt beam="1">  1        1 0.14635457E+00 0.21069457E+04</pdfrwt>
<pdfrwt beam="2">  1       -1 0.17947902E+00 0.21069457E+04</pdfrwt>
<totfact> 0.31901993E+00</totfact>
</mgrwt>
</event>
<event>
12    1  0.1495204E-007  0.1089807E+04  0.7818608E-02  0.9215184E-01
          1   -1    0    0  501    0  0.00000000000E+00  0.00000000000E+00  0.22005815622E+04  0.22005815622E+04  0.00000000000E+00 0. -1.
         -1   -1    0    0    0  501 -0.00000000000E+00 -0.00000000000E+00 -0.13492779057E+03  0.13492779057E+03  0.00000000000E+00 0.  1.
         23    2    1    2    0    0 -0.11371031742E+03 -0.22228076646E+02  0.13368822552E+03  0.19958474682E+03  0.92398083537E+02 0.  0.
        254    2    1    2    0    0  0.11371031742E+03  0.22228076646E+02  0.19319655461E+04  0.21359246059E+04  0.90347049055E+03 0.  0.
        -24    2    4    4    0    0 -0.29172770674E+03 -0.24567710256E+03  0.59851663108E+03  0.71441686569E+03  0.81896316770E+02 0.  0.
         24    2    4    4    0    0  0.40543802415E+03  0.26790517920E+03  0.13334489150E+04  0.14215077403E+04  0.80281194440E+02 0.  0.
         13    1    3    3    0    0 -0.13542443701E+02 -0.20665921038E+02 -0.80773530753E+01  0.25994647650E+02  0.00000000000E+00 0.  1.
        -13    1    3    3    0    0 -0.10016787372E+03 -0.15621556089E+01  0.14176557859E+03  0.17359009917E+03  0.00000000000E+00 0. -1.
          4    1    6    6  502    0  0.39443438365E+03  0.24452007865E+03  0.12901974125E+04  0.13711228665E+04  0.00000000000E+00 0. -1.
          3    1    5    5  503    0 -0.22674845476E+03 -0.19894224319E+03  0.40493665285E+03  0.50494214588E+03  0.00000000000E+00 0. -1.
         -4    1    5    5    0  503 -0.64979251975E+02 -0.46734859364E+02  0.19357997823E+03  0.20947471981E+03  0.00000000000E+00 0.  1.
         -3    1    6    6    0  502  0.11003640506E+02  0.23385100549E+02  0.43251502550E+02  0.50384873770E+02  0.00000000000E+00 0.  1.
<mgrwt>
<rscale>  0 0.10898066E+04</rscale>
<asrwt>0</asrwt>
<pdfrwt beam="1">  1        1 0.33855098E+00 0.10898066E+04</pdfrwt>
<pdfrwt beam="2">  1       -1 0.20758123E-01 0.10898066E+04</pdfrwt>
<totfact> 0.41921571E+01</totfact>
</mgrwt>
</event>
<event>
12    1  0.1495204E-007  0.1569378E+04  0.7818608E-02  0.8839585E-01
         -2   -1    0    0    0  501 -0.00000000000E+00  0.00000000000E+00  0.22235299488E+03  0.22235299488E+03  0.00000000000E+00 0. -1.
          2   -1    0    0  501    0  0.00000000000E+00 -0.00000000000E+00 -0.27691846671E+04  0.27691846671E+04  0.00000000000E+00 0.  1.
         23    2    1    2    0    0  0.11486269011E+03 -0.95092862053E+01  0.11612503057E+03  0.17818590104E+03  0.70578527202E+02 0.  0.
        254    2    1    2    0    0 -0.11486269011E+03  0.95092862053E+01 -0.26629567028E+04  0.28133517609E+04  0.90018101828E+03 0.  0.
        -24    2    4    4    0    0 -0.28097499196E+03  0.28081160684E+03 -0.59650180894E+03  0.72104350275E+03  0.79291992917E+02 0.  0.
         24    2    4    4    0    0  0.16611230185E+03 -0.27130232064E+03 -0.20664548938E+04  0.20923082582E+04  0.79496999479E+02 0.  0.
         11    1    3    3    0    0 -0.55448338424E+01 -0.84525980412E+01 -0.10592658594E+01  0.10164331761E+02  0.00000000000E+00 0.  1.
        -11    1    3    3    0    0  0.12040752395E+03 -0.10566881641E+01  0.11718429643E+03  0.16802156928E+03  0.00000000000E+00 0. -1.
          2    1    6    6  502    0  0.74381180696E+02 -0.16733365672E+03 -0.97128661980E+03  0.98839810326E+03  0.00000000000E+00 0. -1.
          3    1    5    5  503    0 -0.28237808103E+03  0.25893973900E+03 -0.56630798318E+03  0.68373379388E+03  0.00000000000E+00 0. -1.
         -4    1    5    5    0  503  0.14030890700E+01  0.21871867836E+02 -0.30193825768E+02  0.37309708872E+02  0.00000000000E+00 0.  1.
         -1    1    6    6    0  502  0.91731121155E+02 -0.10396866391E+03 -0.10951682740E+04  0.11039101549E+04  0.00000000000E+00 0.  1.
<mgrwt>
<rscale>  0 0.15693776E+04</rscale>
<asrwt>0</asrwt>
<pdfrwt beam="1">  1        2 0.42602840E+00 0.15693776E+04</pdfrwt>
<pdfrwt beam="2">  1       -2 0.34208154E-01 0.15693776E+04</pdfrwt>
<totfact> 0.18646652E+01</totfact>
</mgrwt>
</event>
<event>
12    1  0.1495204E-007  0.1701124E+04  0.7818608E-02  0.8760723E-01
         -1   -1    0    0    0  501 -0.00000000000E+00  0.00000000000E+00  0.53478154706E+03  0.53478154706E+03  0.00000000000E+00 0.  1.
          1   -1    0    0  501    0  0.00000000000E+00 -0.00000000000E+00 -0.13528066692E+04  0.13528066692E+04  0.00000000000E+00 0. -1.
         23    2    1    2    0    0  0.16147990279E+03  0.53339246190E+03 -0.33612747174E+03  0.65730901127E+03  0.92142181556E+02 0.  0.
        254    2    1    2    0    0 -0.16147990279E+03 -0.53339246190E+03 -0.48189765040E+03  0.12302792050E+04  0.98528082260E+03 0.  0.
        -24    2    4    4    0    0  0.37050633563E+03 -0.25250852467E+03 -0.42142107146E+03  0.62044881986E+03  0.79533130376E+02 0.  0.
         24    2    4    4    0    0 -0.53198623842E+03 -0.28088393723E+03 -0.60476578945E+02  0.60983038514E+03  0.79564677999E+02 0.  0.
         13    1    3    3    0    0  0.72802141700E+02  0.25710507857E+03 -0.21459646600E+03  0.34271681675E+03  0.00000000000E+00 0. -1.
        -13    1    3    3    0    0  0.88677761088E+02  0.27628738332E+03 -0.12153100575E+03  0.31459219452E+03  0.00000000000E+00 0.  1.
          4    1    6    6  502    0 -0.26182715842E+03 -0.18037350369E+03 -0.45594721664E+02  0.32119610889E+03  0.00000000000E+00 0. -1.
          3    1    5    5  503    0  0.11025192479E+03 -0.48291788171E+02 -0.15147208969E+03  0.19347190411E+03  0.00000000000E+00 0. -1.
         -4    1    5    5    0  503  0.26025441084E+03 -0.20421673650E+03 -0.26994898176E+03  0.42697691575E+03  0.00000000000E+00 0.  1.
         -3    1    6    6    0  502 -0.27015907999E+03 -0.10051043354E+03 -0.14881857281E+02  0.28863427625E+03  0.00000000000E+00 0.  1.
<mgrwt>
<rscale>  0 0.17011244E+04</rscale>
<asrwt>0</asrwt>
<pdfrwt beam="1">  1        1 0.20812410E+00 0.17011244E+04</pdfrwt>
<pdfrwt beam="2">  1       -1 0.82274085E-01 0.17011244E+04</pdfrwt>
<totfact> 0.11595427E+01</totfact>
</mgrwt>
</event>
<event>
12    1  0.1495204E-007  0.2019217E+04  0.7818608E-02  0.8597688E-01
          2   -1    0    0  501    0  0.00000000000E+00  0.00000000000E+00  0.16272619973E+04  0.16272619973E+04  0.00000000000E+00 0. -1.
         -2   -1    0    0    0  501 -0.00000000000E+00 -0.00000000000E+00 -0.62639554930E+03  0.62639554930E+03  0.00000000000E+00 0.  1.
         23    2    1    2    0    0 -0.63209589612E+03  0.46848967994E+03  0.59700422026E+03  0.99181807951E+03  0.90891483298E+02 0.  0.
        254    2    1    2    0    0  0.63209589612E+03 -0.46848967994E+03  0.40386222777E+03  0.12618394671E+04  0.90005907566E+03 0.  0.
        -24    2    4    4    0    0 -0.17054018313E+03 -0.23610122768E+03 -0.52050410036E+02  0.30671263400E+03  0.80843372611E+02 0.  0.
         24    2    4    4    0    0  0.80263607925E+03 -0.23238845226E+03  0.45591263781E+03  0.95512683313E+03  0.78624840812E+02 0.  0.
         13    1    3    3    0    0 -0.41896066481E+03  0.33183164237E+03  0.45260341650E+03  0.70035000547E+03  0.00000000000E+00 0. -1.
        -13    1    3    3    0    0 -0.21313523131E+03  0.13665803757E+03  0.14440080376E+03  0.29146807404E+03  0.00000000000E+00 0.  1.
          2    1    6    6  502    0  0.58842690515E+03 -0.20321552348E+03  0.35372430994E+03  0.71600534853E+03  0.00000000000E+00 0. -1.
          1    1    5    5  503    0 -0.16960940116E+03 -0.18434973029E+03 -0.43221242812E+02  0.25420512947E+03  0.00000000000E+00 0. -1.
         -2    1    5    5    0  503 -0.93078196437E+00 -0.51751497394E+02 -0.88291672235E+01  0.52507504525E+02  0.00000000000E+00 0.  1.
         -1    1    6    6    0  502  0.21420917410E+03 -0.29172928781E+02  0.10218832787E+03  0.23912148459E+03  0.00000000000E+00 0.  1.
<mgrwt>
<rscale>  0 0.20192173E+04</rscale>
<asrwt>0</asrwt>
<pdfrwt beam="1">  1        2 0.25034800E+00 0.20192173E+04</pdfrwt>
<pdfrwt beam="2">  1       -2 0.96368547E-01 0.20192173E+04</pdfrwt>
<totfact> 0.90023127E+00</totfact>
</mgrwt>
</event>
<event>
12    1  0.1495204E-007  0.4381480E+04  0.7818608E-02  0.7931721E-01
          1   -1    0    0  501    0  0.00000000000E+00  0.00000000000E+00  0.19968024874E+04  0.19968024874E+04  0.00000000000E+00 0. -1.
         -1   -1    0    0    0  501 -0.00000000000E+00 -0.00000000000E+00 -0.24035131624E+04  0.24035131624E+04  0.00000000000E+00 0.  1.
         23    2    1    2    0    0 -0.74057389839E+03  0.15856649809E+03  0.17708181781E+04  0.19276598701E+04  0.80514105967E+02 0.  0.
        254    2    1    2    0    0  0.74057389839E+03 -0.15856649809E+03 -0.21775288532E+04  0.24726557798E+04  0.89375705076E+03 0.  0.
        -24    2    4    4    0    0 -0.78846814797E+02 -0.74571297654E+01 -0.11114129548E+04  0.11170820064E+04  0.79756027920E+02 0.  0.
         24    2    4    4    0    0  0.81942071319E+03 -0.15110936832E+03 -0.10661158984E+04  0.13555737734E+04  0.81809534667E+02 0.  0.
         13    1    3    3    0    0 -0.98260962905E+02  0.63937384625E+01  0.17678506821E+03  0.20235873360E+03  0.00000000000E+00 0. -1.
        -13    1    3    3    0    0 -0.64231293549E+03  0.15217275962E+03  0.15940331099E+04  0.17253011364E+04  0.00000000000E+00 0.  1.
          2    1    6    6  502    0  0.32765645273E+02 -0.18800717184E+02 -0.68698327675E+02  0.78399711110E+02  0.00000000000E+00 0. -1.
          1    1    5    5  503    0  0.86544317717E+01  0.48836976854E+01 -0.41054321808E+03  0.41066346758E+03  0.00000000000E+00 0. -1.
         -2    1    5    5    0  503 -0.87501246569E+02 -0.12340827451E+02 -0.70086973671E+03  0.70641853883E+03  0.00000000000E+00 0.  1.
         -1    1    6    6    0  502  0.78665506792E+03 -0.13230865114E+03 -0.99741757071E+03  0.12771740623E+04  0.00000000000E+00 0.  1.
<mgrwt>
<rscale>  0 0.43814797E+04</rscale>
<asrwt>0</asrwt>
<pdfrwt beam="1">  1        1 0.30720038E+00 0.43814797E+04</pdfrwt>
<pdfrwt beam="2">  1       -1 0.36977125E+00 0.43814797E+04</pdfrwt>
<totfact> 0.26048420E-02</totfact>
</mgrwt>
</event>
<event>
12    1  0.1495204E-007  0.1129380E+04  0.7818608E-02  0.9177020E-01
          2   -1    0    0  501    0  0.00000000000E+00  0.00000000000E+00  0.73691597930E+03  0.73691597930E+03  0.00000000000E+00 0. -1.
         -2   -1    0    0    0  501 -0.00000000000E+00 -0.00000000000E+00 -0.43271518593E+03  0.43271518593E+03  0.00000000000E+00 0.  1.
         23    2    1    2    0    0 -0.90634359471E+02  0.11568228761E+03 -0.67858532982E+02  0.18551133023E+03  0.90623917163E+02 0.  0.
        254    2    1    2    0    0  0.90634359471E+02 -0.11568228761E+03  0.37205932635E+03  0.98411983500E+03  0.89914777903E+03 0.  0.
        -24    2    4    4    0    0 -0.51572057941E+02  0.37670753956E+03  0.19992419594E+03  0.43698770380E+03  0.80126909510E+02 0.  0.
         24    2    4    4    0    0  0.14220641741E+03 -0.49238982717E+03  0.17213513041E+03  0.54713213121E+03  0.83980109707E+02 0.  0.
         13    1    3    3    0    0 -0.19281063803E+02 -0.72661857235E+01  0.10570090430E+02  0.23157799724E+02  0.00000000000E+00 0. -1.
        -13    1    3    3    0    0 -0.71353295667E+02  0.12294847334E+03 -0.78428623412E+02  0.16235353051E+03  0.00000000000E+00 0.  1.
          2    1    6    6  502    0 -0.85385808496E+01 -0.17187717144E+02 -0.14273509291E+01  0.19244799667E+02  0.00000000000E+00 0. -1.
          1    1    5    5  503    0  0.14495467094E+02  0.11474495110E+03  0.36685426567E+02  0.12133566208E+03  0.00000000000E+00 0. -1.
         -2    1    5    5    0  503 -0.66067525035E+02  0.26196258846E+03  0.16323876937E+03  0.31565204172E+03  0.00000000000E+00 0.  1.
         -1    1    6    6    0  502  0.15074499826E+03 -0.47520211002E+03  0.17356248134E+03  0.52788733154E+03  0.00000000000E+00 0.  1.
<mgrwt>
<rscale>  0 0.11293799E+04</rscale>
<asrwt>0</asrwt>
<pdfrwt beam="1">  1        2 0.11337169E+00 0.11293799E+04</pdfrwt>
<pdfrwt beam="2">  1       -2 0.66571567E-01 0.11293799E+04</pdfrwt>
<totfact> 0.78881326E+01</totfact>
</mgrwt>
</event>
<event>
12    1  0.1495204E-007  0.1559998E+04  0.7818608E-02  0.8845506E-01
          2   -1    0    0  501    0  0.00000000000E+00  0.00000000000E+00  0.19147526767E+04  0.19147526767E+04  0.00000000000E+00 0. -1.
         -2   -1    0    0    0  501 -0.00000000000E+00 -0.00000000000E+00 -0.31774275954E+03  0.31774275954E+03  0.00000000000E+00 0.  1.
         23    2    1    2    0    0  0.51442078134E+03 -0.35351359816E+02  0.57686499134E+03  0.77884420106E+03  0.89143773617E+02 0.  0.
        254    2    1    2    0    0 -0.51442078134E+03  0.35351359816E+02  0.10201449258E+04  0.14536512352E+04  0.89806891992E+03 0.  0.
        -24    2    4    4    0    0 -0.20398682108E+03 -0.26716137972E+03  0.38364782440E+01  0.34597195281E+03  0.81829380868E+02 0.  0.
         24    2    4    4    0    0 -0.31043396025E+03  0.30251273954E+03  0.10163084475E+04  0.11076792823E+04  0.78659587618E+02 0.  0.
         11    1    3    3    0    0  0.29252223207E+03 -0.47423230814E+02  0.38054877810E+03  0.48232311949E+03  0.00000000000E+00 0. -1.
        -11    1    3    3    0    0  0.22189854927E+03  0.12071870998E+02  0.19631621324E+03  0.29652108157E+03  0.00000000000E+00 0.  1.
          4    1    6    6  502    0 -0.20117744811E+03  0.23152623916E+03  0.77408488708E+03  0.83263688211E+03  0.00000000000E+00 0. -1.
          3    1    5    5  503    0 -0.44229937072E+02 -0.24848674637E+02  0.21715843504E+02  0.55184434614E+02  0.00000000000E+00 0. -1.
         -4    1    5    5    0  503 -0.15975688401E+03 -0.24231270508E+03 -0.17879365260E+02  0.29078751819E+03  0.00000000000E+00 0.  1.
         -3    1    6    6    0  502 -0.10925651215E+03  0.70986500380E+02  0.24222356047E+03  0.27504240024E+03  0.00000000000E+00 0.  1.
<mgrwt>
<rscale>  0 0.15599985E+04</rscale>
<asrwt>0</asrwt>
<pdfrwt beam="1">  1        2 0.29457733E+00 0.15599985E+04</pdfrwt>
<pdfrwt beam="2">  1       -2 0.48883503E-01 0.15599985E+04</pdfrwt>
<totfact> 0.28403747E+01</totfact>
</mgrwt>
</event>
<event>
12    1  0.1495204E-007  0.1278020E+04  0.7818608E-02  0.9047180E-01
         -2   -1    0    0    0  501 -0.00000000000E+00  0.00000000000E+00  0.28628176838E+03  0.28628176838E+03  0.00000000000E+00 0.  1.
          2   -1    0    0  501    0  0.00000000000E+00 -0.00000000000E+00 -0.14263346483E+04  0.14263346483E+04  0.00000000000E+00 0. -1.
         23    2    1    2    0    0 -0.26363316690E+03  0.25711018517E+03 -0.46341979409E+03  0.59893983533E+03  0.91449039238E+02 0.  0.
        254    2    1    2    0    0  0.26363316690E+03 -0.25711018517E+03 -0.67663308588E+03  0.11136765814E+04  0.80426059275E+03 0.  0.
        -24    2    4    4    0    0  0.15362622327E+03 -0.39218538712E+01  0.15550526518E+03  0.23329548167E+03  0.81415581168E+02 0.  0.
         24    2    4    4    0    0  0.11000694363E+03 -0.25318833129E+03 -0.83213835105E+03  0.88038109973E+03  0.80067388605E+02 0.  0.
         11    1    3    3    0    0 -0.31965684414E+02  0.81844212074E+02 -0.12735511575E+03  0.15472428878E+03  0.00000000000E+00 0.  1.
        -11    1    3    3    0    0 -0.23166748249E+03  0.17526597309E+03 -0.33606467834E+03  0.44421554655E+03  0.00000000000E+00 0. -1.
          4    1    6    6  502    0  0.67616485385E+02 -0.19350578421E+03 -0.69911260951E+03  0.72854301067E+03  0.00000000000E+00 0. -1.
          3    1    5    5  503    0  0.14772791826E+03  0.49899880623E+01  0.16315375622E+03  0.22015355092E+03  0.00000000000E+00 0. -1.
         -4    1    5    5    0  503  0.58983050123E+01 -0.89118419336E+01 -0.76484910435E+01  0.13141930753E+02  0.00000000000E+00 0.  1.
         -3    1    6    6    0  502  0.42390458244E+02 -0.59682547082E+02 -0.13302574154E+03  0.15183808906E+03  0.00000000000E+00 0.  1.
<mgrwt>
<rscale>  0 0.12780197E+04</rscale>
<asrwt>0</asrwt>
<pdfrwt beam="1">  1        2 0.21943610E+00 0.12780197E+04</pdfrwt>
<pdfrwt beam="2">  1       -2 0.44043349E-01 0.12780197E+04</pdfrwt>
<totfact> 0.67049451E+01</totfact>
</mgrwt>
</event>
<event>
12    1  0.1495204E-007  0.1602418E+04  0.7818608E-02  0.8819064E-01
         -2   -1    0    0    0  501 -0.00000000000E+00  0.00000000000E+00  0.29188461501E+03  0.29188461501E+03  0.00000000000E+00 0.  1.
          2   -1    0    0  501    0  0.00000000000E+00 -0.00000000000E+00 -0.21992795347E+04  0.21992795347E+04  0.00000000000E+00 0. -1.
         23    2    1    2    0    0  0.30352117831E+03  0.44101867625E+03 -0.79290296997E+03  0.96087028835E+03  0.89185272134E+02 0.  0.
        254    2    1    2    0    0 -0.30352117831E+03 -0.44101867625E+03 -0.11144919497E+04  0.15302938614E+04  0.90171193718E+03 0.  0.
        -24    2    4    4    0    0 -0.11759411870E+03 -0.48946496899E+03 -0.13329009772E+03  0.52688283781E+03  0.80218090266E+02 0.  0.
         24    2    4    4    0    0 -0.18592705961E+03  0.48446292743E+02 -0.98120185201E+03  0.10034110236E+04  0.84620878228E+02 0.  0.
         11    1    3    3    0    0  0.92220355901E+01  0.10649428790E+01 -0.36488159439E+02  0.37650575335E+02  0.00000000000E+00 0.  1.
        -11    1    3    3    0    0  0.29429914271E+03  0.43995373337E+03 -0.75641481053E+03  0.92321971301E+03  0.00000000000E+00 0. -1.
          2    1    6    6  502    0 -0.19024985191E+03  0.52162971972E+02 -0.87094205060E+03  0.89300394024E+03  0.00000000000E+00 0. -1.
          1    1    5    5  503    0 -0.10947354982E+03 -0.41061591410E+03 -0.82938611287E+02  0.43297655857E+03  0.00000000000E+00 0. -1.
         -2    1    5    5    0  503 -0.81205688772E+01 -0.78849054890E+02 -0.50351486429E+02  0.93906279245E+02  0.00000000000E+00 0.  1.
         -1    1    6    6    0  502  0.43227922977E+01 -0.37166792289E+01 -0.11025980141E+03  0.11040708331E+03  0.00000000000E+00 0.  1.
<mgrwt>
<rscale>  0 0.16024180E+04</rscale>
<asrwt>0</asrwt>
<pdfrwt beam="1">  1        2 0.33835070E+00 0.16024180E+04</pdfrwt>
<pdfrwt beam="2">  1       -2 0.44905326E-01 0.16024180E+04</pdfrwt>
<totfact> 0.23323140E+01</totfact>
</mgrwt>
</event>
<event>
12    1  0.1495204E-007  0.1841218E+04  0.7818608E-02  0.8684682E-01
         -2   -1    0    0    0  501 -0.00000000000E+00  0.00000000000E+00  0.27882056173E+03  0.27882056173E+03  0.00000000000E+00 0. -1.
          2   -1    0    0  501    0  0.00000000000E+00 -0.00000000000E+00 -0.30396654113E+04  0.30396654113E+04  0.00000000000E+00 0.  1.
         23    2    1    2    0    0 -0.25803956061E+03 -0.24479203728E+03  0.26589031955E+02  0.36801896931E+03  0.90683122975E+02 0.  0.
        254    2    1    2    0    0  0.25803956061E+03  0.24479203728E+03 -0.27874338815E+04  0.29504670037E+04  0.89942222556E+03 0.  0.
        -24    2    4    4    0    0  0.30199294216E+03  0.29216029476E+03 -0.28093204147E+04  0.28416698308E+04  0.79049731902E+02 0.  0.
         24    2    4    4    0    0 -0.43953381550E+02 -0.47368257472E+02  0.21886533114E+02  0.10879717294E+03  0.84747583701E+02 0.  0.
         11    1    3    3    0    0 -0.26227529762E+03 -0.24387114294E+03  0.33671299500E+02  0.35971547438E+03  0.00000000000E+00 0. -1.
        -11    1    3    3    0    0  0.42357370083E+01 -0.92089434205E+00 -0.70822675445E+01  0.83034949247E+01  0.00000000000E+00 0.  1.
          2    1    6    6  502    0  0.13196044278E+00  0.22940375838E+02 -0.12360017225E+00  0.22941088338E+02  0.00000000000E+00 0. -1.
          3    1    5    5  503    0  0.97637261991E+00  0.73119519860E+01 -0.15646882072E+03  0.15664261809E+03  0.00000000000E+00 0. -1.
         -4    1    5    5    0  503  0.30101656954E+03  0.28484834277E+03 -0.26528515939E+04  0.26850272127E+04  0.00000000000E+00 0.  1.
         -1    1    6    6    0  502 -0.44085341993E+02 -0.70308633310E+02  0.22010133286E+02  0.85856084605E+02  0.00000000000E+00 0.  1.
<mgrwt>
<rscale>  0 0.18412183E+04</rscale>
<asrwt>0</asrwt>
<pdfrwt beam="1">  1        2 0.46764079E+00 0.18412183E+04</pdfrwt>
<pdfrwt beam="2">  1       -2 0.42895475E-01 0.18412183E+04</pdfrwt>
<totfact> 0.79998397E+00</totfact>
</mgrwt>
</event>
<event>
12    1  0.1495204E-007  0.1625765E+04  0.7818608E-02  0.8804874E-01
         -1   -1    0    0    0  501 -0.00000000000E+00  0.00000000000E+00  0.17194365779E+04  0.17194365779E+04  0.00000000000E+00 0.  1.
          1   -1    0    0  501    0  0.00000000000E+00 -0.00000000000E+00 -0.38429910415E+03  0.38429910415E+03  0.00000000000E+00 0. -1.
         23    2    1    2    0    0 -0.53396818968E+01 -0.36389815734E+03  0.10303052180E+04  0.10962183099E+04  0.87837120359E+02 0.  0.
        254    2    1    2    0    0  0.53396818968E+01  0.36389815734E+03  0.30483225574E+03  0.10075173721E+04  0.88866088571E+03 0.  0.
        -24    2    4    4    0    0 -0.28719927411E+03 -0.14352328249E+03 -0.23232444743E+02  0.33164590240E+03  0.79792872033E+02 0.  0.
         24    2    4    4    0    0  0.29253895601E+03  0.50742143982E+03  0.32806470048E+03  0.67587146968E+03  0.78231946479E+02 0.  0.
         11    1    3    3    0    0 -0.35643384126E+02 -0.21409024946E+03  0.51887572451E+03  0.56243853285E+03  0.00000000000E+00 0.  1.
        -11    1    3    3    0    0  0.30303702229E+02 -0.14980790788E+03  0.51142949348E+03  0.53377977710E+03  0.00000000000E+00 0. -1.
          2    1    6    6  502    0  0.23567411323E+03  0.35373990993E+03  0.21144654610E+03  0.47474609359E+03  0.00000000000E+00 0. -1.
          3    1    5    5  503    0 -0.28088625220E+03 -0.15258848475E+03 -0.20787687367E+02  0.32033179721E+03  0.00000000000E+00 0. -1.
         -4    1    5    5    0  503 -0.63130219101E+01  0.90652022685E+01 -0.24447573767E+01  0.11314105198E+02  0.00000000000E+00 0.  1.
         -1    1    6    6    0  502  0.56864842776E+02  0.15368152990E+03  0.11661815438E+03  0.20112537609E+03  0.00000000000E+00 0.  1.
<mgrwt>
<rscale>  0 0.16257650E+04</rscale>
<asrwt>0</asrwt>
<pdfrwt beam="1">  1        1 0.59122940E-01 0.16257650E+04</pdfrwt>
<pdfrwt beam="2">  1       -1 0.26452870E+00 0.16257650E+04</pdfrwt>
<totfact> 0.33999946E+00</totfact>
</mgrwt>
</event>
<event>
12    1  0.1495204E-007  0.2181193E+04  0.7818608E-02  0.8526297E-01
          2   -1    0    0  501    0  0.00000000000E+00  0.00000000000E+00  0.28529262035E+04  0.28529262035E+04  0.00000000000E+00 0.  1.
         -2   -1    0    0    0  501 -0.00000000000E+00 -0.00000000000E+00 -0.41690571726E+03  0.41690571726E+03  0.00000000000E+00 0. -1.
         23    2    1    2    0    0  0.31154335427E+03  0.37234963870E+03 -0.10986727414E+03  0.50701413558E+03  0.96379462139E+02 0.  0.
        254    2    1    2    0    0 -0.31154335427E+03 -0.37234963870E+03  0.25458877604E+04  0.27628177852E+04  0.95703401748E+03 0.  0.
        -24    2    4    4    0    0 -0.53389436902E+03 -0.50809555474E+03  0.22058266077E+04  0.23270846634E+04  0.80297679029E+02 0.  0.
         24    2    4    4    0    0  0.22235101475E+03  0.13574591603E+03  0.34006115267E+03  0.43573312180E+03  0.79717240262E+02 0.  0.
         13    1    3    3    0    0  0.19576196584E+03  0.18364965891E+03 -0.23764698154E+02  0.26947115869E+03  0.00000000000E+00 0. -1.
        -13    1    3    3    0    0  0.11578138843E+03  0.18869997979E+03 -0.86102575985E+02  0.23754297689E+03  0.00000000000E+00 0.  1.
          4    1    6    6  502    0  0.77515568052E+02  0.24824323460E+02  0.58493884837E+02  0.10023195543E+03  0.00000000000E+00 0. -1.
          3    1    5    5  503    0 -0.98481895549E+02 -0.11461700297E+03  0.54778667645E+03  0.56824817115E+03  0.00000000000E+00 0. -1.
         -4    1    5    5    0  503 -0.43541247347E+03 -0.39347855177E+03  0.16580399313E+04  0.17588364923E+04  0.00000000000E+00 0.  1.
         -1    1    6    6    0  502  0.14483544670E+03  0.11092159257E+03  0.28156726784E+03  0.33550116637E+03  0.00000000000E+00 0.  1.
<mgrwt>
<rscale>  0 0.21811935E+04</rscale>
<asrwt>0</asrwt>
<pdfrwt beam="1">  1        2 0.43891171E+00 0.21811935E+04</pdfrwt>
<pdfrwt beam="2">  1       -2 0.64139343E-01 0.21811935E+04</pdfrwt>
<totfact> 0.44198946E+00</totfact>
</mgrwt>
</event>
<event>
12    1  0.1495204E-007  0.1812958E+04  0.7818608E-02  0.8699439E-01
          2   -1    0    0  501    0  0.00000000000E+00  0.00000000000E+00  0.12318865235E+04  0.12318865235E+04  0.00000000000E+00 0.  1.
         -2   -1    0    0    0  501 -0.00000000000E+00 -0.00000000000E+00 -0.66702908172E+03  0.66702908172E+03  0.00000000000E+00 0. -1.
         23    2    1    2    0    0 -0.27116026729E+03  0.48792908014E+03  0.59183309134E+03  0.81869082067E+03  0.91572779987E+02 0.  0.
        254    2    1    2    0    0  0.27116026729E+03 -0.48792908014E+03 -0.26975649521E+02  0.10802247846E+04  0.92442156065E+03 0.  0.
        -24    2    4    4    0    0  0.26874380176E+03 -0.45970416015E+03  0.38373406509E+03  0.66096286158E+03  0.77903310751E+02 0.  0.
         24    2    4    4    0    0  0.24164655310E+01 -0.28224919988E+02 -0.41070971461E+03  0.41926192302E+03  0.79344848634E+02 0.  0.
         13    1    3    3    0    0 -0.75688595898E+02  0.10618823722E+03  0.89400406759E+02  0.15810483231E+03  0.00000000000E+00 0.  1.
        -13    1    3    3    0    0 -0.19547167140E+03  0.38174084292E+03  0.50243268458E+03  0.66058598836E+03  0.00000000000E+00 0. -1.
          2    1    6    6  502    0 -0.89318742184E+01  0.80242429726E+01 -0.32830248013E+03  0.32852197082E+03  0.00000000000E+00 0. -1.
          1    1    5    5  503    0  0.18404845785E+03 -0.31818020598E+03  0.21908555338E+03  0.42791466207E+03  0.00000000000E+00 0. -1.
         -2    1    5    5    0  503  0.84695343908E+02 -0.14152395417E+03  0.16464851171E+03  0.23304819950E+03  0.00000000000E+00 0.  1.
         -1    1    6    6    0  502  0.11348339749E+02 -0.36249162961E+02 -0.82407234484E+02  0.90739952202E+02  0.00000000000E+00 0.  1.
<mgrwt>
<rscale>  0 0.18129580E+04</rscale>
<asrwt>0</asrwt>
<pdfrwt beam="1">  1        2 0.18952100E+00 0.18129580E+04</pdfrwt>
<pdfrwt beam="2">  1       -2 0.10261986E+00 0.18129580E+04</pdfrwt>
<totfact> 0.13281063E+01</totfact>
</mgrwt>
</event>
<event>
12    1  0.1495204E-007  0.1474122E+04  0.7818608E-02  0.8901846E-01
         -2   -1    0    0    0  501 -0.00000000000E+00  0.00000000000E+00  0.20441176977E+03  0.20441176977E+03  0.00000000000E+00 0.  1.
          2   -1    0    0  501    0  0.00000000000E+00 -0.00000000000E+00 -0.26576685764E+04  0.26576685764E+04  0.00000000000E+00 0. -1.
         23    2    1    2    0    0 -0.44847854866E+03 -0.17769111355E+03 -0.10538963239E+04  0.11627991615E+04  0.93259251316E+02 0.  0.
        254    2    1    2    0    0  0.44847854866E+03  0.17769111355E+03 -0.13993604827E+04  0.16992811847E+04  0.83464941357E+03 0.  0.
        -24    2    4    4    0    0  0.34089643460E+03 -0.51568373722E+02 -0.13893830975E+04  0.14336760570E+04  0.78561875763E+02 0.  0.
         24    2    4    4    0    0  0.10758211406E+03  0.22925948727E+03 -0.99773851938E+01  0.26560512772E+03  0.79452576330E+02 0.  0.
         11    1    3    3    0    0 -0.88943256354E+02 -0.37963646100E+02 -0.13354193839E+03  0.16488053428E+03  0.00000000000E+00 0.  1.
        -11    1    3    3    0    0 -0.35953529231E+03 -0.13972746745E+03 -0.92035438551E+03  0.99791862719E+03  0.00000000000E+00 0. -1.
          2    1    6    6  502    0  0.36867428504E+02  0.93504457142E+02 -0.42488873375E+02  0.10912192791E+03  0.00000000000E+00 0. -1.
          3    1    5    5  503    0  0.79900010763E+02 -0.19175303108E+02 -0.48174541403E+03  0.48870271936E+03  0.00000000000E+00 0. -1.
         -4    1    5    5    0  503  0.26099642384E+03 -0.32393070613E+02 -0.90763768348E+03  0.94497333759E+03  0.00000000000E+00 0.  1.
         -1    1    6    6    0  502  0.70714685557E+02  0.13575503013E+03  0.32511488182E+02  0.15648319981E+03  0.00000000000E+00 0.  1.
<mgrwt>
<rscale>  0 0.14741218E+04</rscale>
<asrwt>0</asrwt>
<pdfrwt beam="1">  1        2 0.40887208E+00 0.14741218E+04</pdfrwt>
<pdfrwt beam="2">  1       -2 0.31447965E-01 0.14741218E+04</pdfrwt>
<totfact> 0.25679482E+01</totfact>
</mgrwt>
</event>
<event>
12    1  0.1495204E-007  0.2497911E+04  0.7818608E-02  0.8403730E-01
         -1   -1    0    0    0  501 -0.00000000000E+00  0.00000000000E+00  0.59050953365E+03  0.59050953365E+03  0.00000000000E+00 0.  1.
          1   -1    0    0  501    0  0.00000000000E+00 -0.00000000000E+00 -0.26415991868E+04  0.26415991868E+04  0.00000000000E+00 0. -1.
         23    2    1    2    0    0  0.10734448911E+04  0.48370408718E+02 -0.11373235201E+04  0.15672969190E+04  0.91056094403E+02 0.  0.
        254    2    1    2    0    0 -0.10734448911E+04 -0.48370408718E+02 -0.91376613302E+03  0.16648118014E+04  0.88431112037E+03 0.  0.
        -24    2    4    4    0    0 -0.83956333509E+03  0.33151536936E+03 -0.77117028040E+03  0.11898842647E+04  0.79698985975E+02 0.  0.
         24    2    4    4    0    0 -0.23388155599E+03 -0.37988577808E+03 -0.14259585262E+03  0.47492753666E+03  0.78795947086E+02 0.  0.
         11    1    3    3    0    0  0.14797288291E+03  0.34947796047E+02 -0.14039409868E+03  0.20694884747E+03  0.00000000000E+00 0.  1.
        -11    1    3    3    0    0  0.92547200817E+03  0.13422612671E+02 -0.99692942142E+03  0.13603480715E+04  0.00000000000E+00 0. -1.
          4    1    6    6  502    0 -0.62250579347E+02 -0.53301418565E+02 -0.85642864839E+01  0.82398560990E+02  0.00000000000E+00 0. -1.
          3    1    5    5  503    0 -0.35923370982E+02  0.85114848080E+01 -0.53839653610E+02  0.65281255022E+02  0.00000000000E+00 0. -1.
         -4    1    5    5    0  503 -0.80363996411E+03  0.32300388455E+03 -0.71733062679E+03  0.11246030097E+04  0.00000000000E+00 0.  1.
         -3    1    6    6    0  502 -0.17163097664E+03 -0.32658435951E+03 -0.13403156613E+03  0.39252897567E+03  0.00000000000E+00 0.  1.
<mgrwt>
<rscale>  0 0.24979107E+04</rscale>
<asrwt>0</asrwt>
<pdfrwt beam="1">  1        1 0.40639987E+00 0.24979107E+04</pdfrwt>
<pdfrwt beam="2">  1       -1 0.90847622E-01 0.24979107E+04</pdfrwt>
<totfact> 0.11339060E+00</totfact>
</mgrwt>
</event>
<event>
12    1  0.1495204E-007  0.1893804E+04  0.7818608E-02  0.8657947E-01
         -2   -1    0    0    0  501 -0.00000000000E+00  0.00000000000E+00  0.65562464996E+03  0.65562464996E+03  0.00000000000E+00 0.  1.
          2   -1    0    0  501    0  0.00000000000E+00 -0.00000000000E+00 -0.13675860843E+04  0.13675860843E+04  0.00000000000E+00 0. -1.
         23    2    1    2    0    0 -0.71058561918E+03 -0.13362747328E+03 -0.29481693854E+03  0.78592943198E+03  0.89329843833E+02 0.  0.
        254    2    1    2    0    0  0.71058561918E+03  0.13362747328E+03 -0.41714449577E+03  0.12372813022E+04  0.91327283258E+03 0.  0.
        -24    2    4    4    0    0  0.24099600991E+03 -0.10118937586E+03  0.25982967826E+03  0.37684028990E+03  0.78605189430E+02 0.  0.
         24    2    4    4    0    0  0.46958960927E+03  0.23481684913E+03 -0.67697417403E+03  0.86044101234E+03  0.80070903928E+02 0.  0.
         11    1    3    3    0    0 -0.24290794912E+02 -0.20490402623E+00 -0.29311371944E+02  0.38068901066E+02  0.00000000000E+00 0. -1.
        -11    1    3    3    0    0 -0.68629482427E+03 -0.13342256925E+03 -0.26550556659E+03  0.74786053091E+03  0.00000000000E+00 0.  1.
          4    1    6    6  502    0  0.25954127683E+03  0.12136079216E+03 -0.30516932003E+03  0.41859100581E+03  0.00000000000E+00 0. -1.
          1    1    5    5  503    0  0.63601553233E+02 -0.66254583624E+02  0.95949094246E+02  0.13281963752E+03  0.00000000000E+00 0. -1.
         -2    1    5    5    0  503  0.17739445668E+03 -0.34934792231E+02  0.16388058401E+03  0.24402065238E+03  0.00000000000E+00 0.  1.
         -3    1    6    6    0  502  0.21004833243E+03  0.11345605697E+03 -0.37180485400E+03  0.44185000654E+03  0.00000000000E+00 0.  1.
<mgrwt>
<rscale>  0 0.18938037E+04</rscale>
<asrwt>0</asrwt>
<pdfrwt beam="1">  1        2 0.21039786E+00 0.18938037E+04</pdfrwt>
<pdfrwt beam="2">  1       -2 0.10086533E+00 0.18938037E+04</pdfrwt>
<totfact> 0.11455467E+01</totfact>
</mgrwt>
</event>
<event>
12    1  0.1495204E-007  0.1179783E+04  0.7818608E-02  0.9130738E-01
         -1   -1    0    0    0  501 -0.00000000000E+00  0.00000000000E+00  0.24169183986E+04  0.24169183986E+04  0.00000000000E+00 0.  1.
          1   -1    0    0  501    0  0.00000000000E+00 -0.00000000000E+00 -0.14397349365E+03  0.14397349365E+03  0.00000000000E+00 0. -1.
         23    2    1    2    0    0  0.51756627892E+02 -0.13920423843E+03  0.70578223456E+02  0.18886768067E+03  0.92914727836E+02 0.  0.
        254    2    1    2    0    0 -0.51756627892E+02  0.13920423843E+03  0.22023666815E+04  0.23720242116E+04  0.86834514566E+03 0.  0.
        -24    2    4    4    0    0  0.13421436556E+03  0.85825838866E+02  0.21477777243E+04  0.21553958293E+04  0.86037535103E+02 0.  0.
         24    2    4    4    0    0 -0.18597099345E+03  0.53378399564E+02  0.54588957196E+02  0.21662838227E+03  0.80705872227E+02 0.  0.
         13    1    3    3    0    0  0.32420308634E+02  0.12671658565E+01  0.21027860729E+02  0.38663329501E+02  0.00000000000E+00 0.  1.
        -13    1    3    3    0    0  0.19336319258E+02 -0.14047140429E+03  0.49550362727E+02  0.15020435117E+03  0.00000000000E+00 0. -1.
          2    1    6    6  502    0 -0.42832915758E+02 -0.19977252102E+02  0.23611404307E+02  0.52832259910E+02  0.00000000000E+00 0. -1.
          1    1    5    5  503    0  0.84479870425E+02  0.11845795370E+02  0.76352509842E+03  0.76827582761E+03  0.00000000000E+00 0. -1.
         -2    1    5    5    0  503  0.49734495130E+02  0.73980043496E+02  0.13842526259E+04  0.13871200017E+04  0.00000000000E+00 0.  1.
         -1    1    6    6    0  502 -0.14313807769E+03  0.73355651666E+02  0.30977552889E+02  0.16379612236E+03  0.00000000000E+00 0.  1.
<mgrwt>
<rscale>  0 0.11797833E+04</rscale>
<asrwt>0</asrwt>
<pdfrwt beam="1">  1        1 0.22149770E-01 0.11797833E+04</pdfrwt>
<pdfrwt beam="2">  1       -1 0.37183357E+00 0.11797833E+04</pdfrwt>
<totfact> 0.25583942E+00</totfact>
</mgrwt>
</event>
<event>
12    1  0.1495204E-007  0.1415778E+04  0.7818608E-02  0.8942476E-01
         -1   -1    0    0    0  501 -0.00000000000E+00  0.00000000000E+00  0.49358083467E+03  0.49358083467E+03  0.00000000000E+00 0.  1.
          1   -1    0    0  501    0  0.00000000000E+00 -0.00000000000E+00 -0.10152473452E+04  0.10152473452E+04  0.00000000000E+00 0. -1.
         23    2    1    2    0    0  0.25697359174E+03  0.34381959203E+03 -0.16411240880E+03  0.46676274846E+03  0.81775558174E+02 0.  0.
        254    2    1    2    0    0 -0.25697359174E+03 -0.34381959203E+03 -0.35755410169E+03  0.10420654314E+04  0.87966362258E+03 0.  0.
        -24    2    4    4    0    0  0.29187985871E+03  0.19917380786E+02 -0.37489687826E+02  0.30574710752E+03  0.80531131161E+02 0.  0.
         24    2    4    4    0    0 -0.54885345045E+03 -0.36373697282E+03 -0.32006441387E+03  0.73631832384E+03  0.78605022377E+02 0.  0.
         13    1    3    3    0    0  0.64923195222E+02  0.99048114057E+02 -0.84895733779E+02  0.14571491272E+03  0.00000000000E+00 0. -1.
        -13    1    3    3    0    0  0.19205039652E+03  0.24477147797E+03 -0.79216675024E+02  0.32104783574E+03  0.00000000000E+00 0.  1.
          2    1    6    6  502    0 -0.30486770082E+03 -0.20473994499E+03 -0.13496718076E+03  0.39125298716E+03  0.00000000000E+00 0. -1.
          3    1    5    5  503    0  0.21427681251E+03 -0.68770638471E+01 -0.56015559937E+02  0.22158427142E+03  0.00000000000E+00 0. -1.
         -4    1    5    5    0  503  0.77603046199E+02  0.26794444633E+02  0.18525872111E+02  0.84162836098E+02  0.00000000000E+00 0.  1.
         -1    1    6    6    0  502 -0.24398574963E+03 -0.15899702783E+03 -0.18509723310E+03  0.34506533669E+03  0.00000000000E+00 0.  1.
<mgrwt>
<rscale>  0 0.14157777E+04</rscale>
<asrwt>0</asrwt>
<pdfrwt beam="1">  1        1 0.15619190E+00 0.14157777E+04</pdfrwt>
<pdfrwt beam="2">  1       -1 0.75935513E-01 0.14157777E+04</pdfrwt>
<totfact> 0.24980322E+01</totfact>
</mgrwt>
</event>
<event>
12    1  0.1495204E-007  0.2057361E+04  0.7818608E-02  0.8580262E-01
         -2   -1    0    0    0  501 -0.00000000000E+00  0.00000000000E+00  0.57385949741E+03  0.57385949741E+03  0.00000000000E+00 0. -1.
          2   -1    0    0  501    0  0.00000000000E+00 -0.00000000000E+00 -0.18439764343E+04  0.18439764343E+04  0.00000000000E+00 0.  1.
         23    2    1    2    0    0 -0.45501404058E+02  0.21596582443E+03  0.42232166819E+03  0.48681904659E+03  0.99627193098E+02 0.  0.
        254    2    1    2    0    0  0.45501404058E+02 -0.21596582443E+03 -0.16924386051E+04  0.19310168852E+04  0.90319774337E+03 0.  0.
        -24    2    4    4    0    0  0.19760788025E+03 -0.43384014038E+03 -0.45924449828E+03  0.66654439688E+03  0.78165094989E+02 0.  0.
         24    2    4    4    0    0 -0.15210647619E+03  0.21787431595E+03 -0.12331941068E+04  0.12644724883E+04  0.86702773021E+02 0.  0.
         11    1    3    3    0    0 -0.30975863913E+02  0.62790244299E+02  0.23058422336E+03  0.24097967339E+03  0.00000000000E+00 0. -1.
        -11    1    3    3    0    0 -0.14525540146E+02  0.15317558013E+03  0.19173744483E+03  0.24583937320E+03  0.00000000000E+00 0.  1.
          4    1    6    6  502    0 -0.83946807923E+02  0.97339967441E+02 -0.78246963374E+03  0.79295703764E+03  0.00000000000E+00 0. -1.
          1    1    5    5  503    0  0.51416335940E+01  0.26135421007E+01 -0.31270028819E+01  0.65608799220E+01  0.00000000000E+00 0. -1.
         -2    1    5    5    0  503  0.19246624665E+03 -0.43645368248E+03 -0.45611749540E+03  0.65998351696E+03  0.00000000000E+00 0.  1.
         -3    1    6    6    0  502 -0.68159668264E+02  0.12053434851E+03 -0.45072447310E+03  0.47151545065E+03  0.00000000000E+00 0.  1.
<mgrwt>
<rscale>  0 0.20573608E+04</rscale>
<asrwt>0</asrwt>
<pdfrwt beam="1">  1        2 0.28368868E+00 0.20573608E+04</pdfrwt>
<pdfrwt beam="2">  1       -2 0.88286076E-01 0.20573608E+04</pdfrwt>
<totfact> 0.83325903E+00</totfact>
</mgrwt>
</event>
<event>
12    1  0.1495204E-007  0.1669036E+04  0.7818608E-02  0.8779224E-01
          2   -1    0    0  501    0  0.00000000000E+00  0.00000000000E+00  0.94153071720E+03  0.94153071720E+03  0.00000000000E+00 0. -1.
         -2   -1    0    0    0  501 -0.00000000000E+00 -0.00000000000E+00 -0.73966799580E+03  0.73966799580E+03  0.00000000000E+00 0.  1.
         23    2    1    2    0    0 -0.37046637054E+02  0.55309867222E+03 -0.10742329576E+03  0.57206318927E+03  0.91792883807E+02 0.  0.
        254    2    1    2    0    0  0.37046637054E+02 -0.55309867222E+03  0.30928601716E+03  0.11091355237E+04  0.90952359786E+03 0.  0.
        -24    2    4    4    0    0  0.19014685537E+03 -0.76441530325E+03  0.23370512954E+03  0.82548576565E+03  0.79511504033E+02 0.  0.
         24    2    4    4    0    0 -0.15310021831E+03  0.21131663103E+03  0.75580887613E+02  0.28364975807E+03  0.81549489802E+02 0.  0.
         11    1    3    3    0    0 -0.54075150735E+02  0.34258081675E+03 -0.34111362476E+02  0.34849580052E+03  0.00000000000E+00 0.  1.
        -11    1    3    3    0    0  0.17028513681E+02  0.21051785548E+03 -0.73311933280E+02  0.22356738875E+03  0.00000000000E+00 0. -1.
          4    1    6    6  502    0 -0.14534294696E+03  0.21566951173E+03  0.81984809301E+02  0.27268923609E+03  0.00000000000E+00 0. -1.
          3    1    5    5  503    0  0.14665236782E+03 -0.61069897618E+03  0.15263823916E+03  0.64634247002E+03  0.00000000000E+00 0. -1.
         -2    1    5    5    0  503  0.43494487545E+02 -0.15371632707E+03  0.81066890385E+02  0.17914329564E+03  0.00000000000E+00 0.  1.
         -3    1    6    6    0  502 -0.77572713538E+01 -0.43528807035E+01 -0.64039216879E+01  0.10960521988E+02  0.00000000000E+00 0.  1.
<mgrwt>
<rscale>  0 0.16690358E+04</rscale>
<asrwt>0</asrwt>
<pdfrwt beam="1">  1        2 0.14485088E+00 0.16690358E+04</pdfrwt>
<pdfrwt beam="2">  1       -2 0.11379508E+00 0.16690358E+04</pdfrwt>
<totfact> 0.15872440E+01</totfact>
</mgrwt>
</event>
<event>
12    1  0.1495204E-007  0.1964833E+04  0.7818608E-02  0.8623241E-01
         -1   -1    0    0    0  501 -0.00000000000E+00  0.00000000000E+00  0.56607248712E+03  0.56607248712E+03  0.00000000000E+00 0.  1.
          1   -1    0    0  501    0  0.00000000000E+00 -0.00000000000E+00 -0.17049798499E+04  0.17049798499E+04  0.00000000000E+00 0. -1.
         23    2    1    2    0    0  0.71497248191E+03 -0.28061895434E+03 -0.32564071241E+03  0.83907356948E+03  0.89832811376E+02 0.  0.
        254    2    1    2    0    0 -0.71497248191E+03  0.28061895434E+03 -0.81326665035E+03  0.14319787675E+04  0.89399546901E+03 0.  0.
        -24    2    4    4    0    0  0.13406303196E+03  0.10576932232E+03  0.59703684869E+02  0.19928812124E+03  0.83613271650E+02 0.  0.
         24    2    4    4    0    0 -0.84903551387E+03  0.17484963202E+03 -0.87297033522E+03  0.12326906463E+04  0.77558530225E+02 0.  0.
         11    1    3    3    0    0  0.68131414715E+03 -0.28625105093E+03 -0.30753117024E+03  0.80043991150E+03  0.00000000000E+00 0.  1.
        -11    1    3    3    0    0  0.33658334764E+02  0.56320965892E+01 -0.18109542175E+02  0.38633657979E+02  0.00000000000E+00 0. -1.
          4    1    6    6  502    0 -0.49517439269E+03  0.66843213819E+02 -0.52543598511E+03  0.72508528385E+03  0.00000000000E+00 0. -1.
          1    1    5    5  503    0 -0.46762190982E-01  0.10938378298E+02 -0.15230494926E+02  0.18751487465E+02  0.00000000000E+00 0. -1.
         -2    1    5    5    0  503  0.13410979415E+03  0.94830944023E+02  0.74934179795E+02  0.18053663377E+03  0.00000000000E+00 0.  1.
         -3    1    6    6    0  502 -0.35386112119E+03  0.10800641820E+03 -0.34753435011E+03  0.50760536243E+03  0.00000000000E+00 0.  1.
<mgrwt>
<rscale>  0 0.19648330E+04</rscale>
<asrwt>0</asrwt>
<pdfrwt beam="1">  1        1 0.26230459E+00 0.19648330E+04</pdfrwt>
<pdfrwt beam="2">  1       -1 0.87088077E-01 0.19648330E+04</pdfrwt>
<totfact> 0.57129723E+00</totfact>
</mgrwt>
</event>
<event>
12    1  0.1495204E-007  0.1724491E+04  0.7818608E-02  0.8747518E-01
          2   -1    0    0  501    0  0.00000000000E+00  0.00000000000E+00  0.88080263583E+03  0.88080263583E+03  0.00000000000E+00 0.  1.
         -2   -1    0    0    0  501 -0.00000000000E+00 -0.00000000000E+00 -0.84407933231E+03  0.84407933231E+03  0.00000000000E+00 0. -1.
         23    2    1    2    0    0 -0.83341245088E+02 -0.28587624501E+03  0.55342616248E+03  0.63523710832E+03  0.92599545775E+02 0.  0.
        254    2    1    2    0    0  0.83341245088E+02  0.28587624501E+03 -0.51670285896E+03  0.10896448598E+04  0.91196112060E+03 0.  0.
        -24    2    4    4    0    0 -0.32265937945E+03  0.18823745746E+03  0.45111662945E+02  0.38427704868E+03  0.78047245077E+02 0.  0.
         24    2    4    4    0    0  0.40600062454E+03  0.97638787547E+02 -0.56181452191E+03  0.70536781115E+03  0.86823683495E+02 0.  0.
         11    1    3    3    0    0  0.22824285177E+01 -0.99436803085E+02  0.12117218297E+03  0.15676602059E+03  0.00000000000E+00 0. -1.
        -11    1    3    3    0    0 -0.85623673606E+02 -0.18643944193E+03  0.43225397952E+03  0.47847108773E+03  0.00000000000E+00 0.  1.
          4    1    6    6  502    0  0.22056182730E+03  0.59137388877E+02 -0.23521894680E+03  0.32783029658E+03  0.00000000000E+00 0. -1.
          1    1    5    5  503    0 -0.12847724855E+03  0.42400775399E+02 -0.85792375604E+01  0.13556486443E+03  0.00000000000E+00 0. -1.
         -2    1    5    5    0  503 -0.19418213090E+03  0.14583668207E+03  0.53690900506E+02  0.24871218425E+03  0.00000000000E+00 0.  1.
         -3    1    6    6    0  502  0.18543879724E+03  0.38501398670E+02 -0.32659557511E+03  0.37753751456E+03  0.00000000000E+00 0.  1.
<mgrwt>
<rscale>  0 0.17244910E+04</rscale>
<asrwt>0</asrwt>
<pdfrwt beam="1">  1        2 0.13550810E+00 0.17244910E+04</pdfrwt>
<pdfrwt beam="2">  1       -2 0.12985836E+00 0.17244910E+04</pdfrwt>
<totfact> 0.12497278E+01</totfact>
</mgrwt>
</event>
<event>
12    1  0.1495204E-007  0.1384166E+04  0.7818608E-02  0.8965361E-01
         -2   -1    0    0    0  501 -0.00000000000E+00  0.00000000000E+00  0.56864332018E+03  0.56864332018E+03  0.00000000000E+00 0.  1.
          2   -1    0    0  501    0  0.00000000000E+00 -0.00000000000E+00 -0.84231833064E+03  0.84231833064E+03  0.00000000000E+00 0. -1.
         23    2    1    2    0    0  0.13316867208E+03  0.32226639239E+03  0.10597016554E+03  0.37493865060E+03  0.88089686360E+02 0.  0.
        254    2    1    2    0    0 -0.13316867208E+03 -0.32226639239E+03 -0.37964517601E+03  0.10360230002E+04  0.89867884945E+03 0.  0.
        -24    2    4    4    0    0 -0.25235449308E+03 -0.56020209966E+03 -0.74843770956E+02  0.62371517515E+03  0.76875529420E+02 0.  0.
         24    2    4    4    0    0  0.11918582100E+03  0.23793570727E+03 -0.30480140505E+03  0.41230782507E+03  0.79216067654E+02 0.  0.
         11    1    3    3    0    0  0.99113393630E+01  0.67259748391E+02 -0.10314474922E+02  0.68764066157E+02  0.00000000000E+00 0. -1.
        -11    1    3    3    0    0  0.12325733272E+03  0.25500664400E+03  0.11628464047E+03  0.30617458444E+03  0.00000000000E+00 0.  1.
          4    1    6    6  502    0  0.35491186988E+02  0.10885178717E+03 -0.79086757738E+02  0.13915118100E+03  0.00000000000E+00 0. -1.
          1    1    5    5  503    0 -0.22488753177E+03 -0.49495121887E+03 -0.90712380263E+02  0.55116226916E+03  0.00000000000E+00 0. -1.
         -2    1    5    5    0  503 -0.27466961309E+02 -0.65250880782E+02  0.15868609306E+02  0.72552905991E+02  0.00000000000E+00 0.  1.
         -3    1    6    6    0  502  0.83694634013E+02  0.12908392010E+03 -0.22571464731E+03  0.27315664408E+03  0.00000000000E+00 0.  1.
<mgrwt>
<rscale>  0 0.13841657E+04</rscale>
<asrwt>0</asrwt>
<pdfrwt beam="1">  1        2 0.12958743E+00 0.13841657E+04</pdfrwt>
<pdfrwt beam="2">  1       -2 0.87483588E-01 0.13841657E+04</pdfrwt>
<totfact> 0.35335380E+01</totfact>
</mgrwt>
</event>
<event>
12    1  0.1495204E-007  0.2474346E+04  0.7818608E-02  0.8412182E-01
          2   -1    0    0  501    0  0.00000000000E+00  0.00000000000E+00  0.12555087473E+04  0.12555087473E+04  0.00000000000E+00 0. -1.
         -2   -1    0    0    0  501 -0.00000000000E+00 -0.00000000000E+00 -0.12191051579E+04  0.12191051579E+04  0.00000000000E+00 0.  1.
         23    2    1    2    0    0  0.80839530979E+03 -0.51602575900E+03  0.49198838403E+03  0.10817273285E+04  0.91081734774E+02 0.  0.
        254    2    1    2    0    0 -0.80839530979E+03  0.51602575900E+03 -0.45558479460E+03  0.13928865766E+04  0.90154863956E+03 0.  0.
        -24    2    4    4    0    0  0.68458603800E+02  0.20184777931E+03  0.15654603051E+03  0.27531745379E+03  0.76576329553E+02 0.  0.
         24    2    4    4    0    0 -0.87685391359E+03  0.31417797969E+03 -0.61213082510E+03  0.11175691229E+04  0.81706845665E+02 0.  0.
         11    1    3    3    0    0  0.30919185934E+03 -0.24740506519E+03  0.21938069771E+03  0.45269941760E+03  0.00000000000E+00 0.  1.
        -11    1    3    3    0    0  0.49920345045E+03 -0.26862069381E+03  0.27260768632E+03  0.62902791092E+03  0.00000000000E+00 0. -1.
          2    1    6    6  502    0 -0.62513390200E+03  0.20940237121E+03 -0.39088640527E+03  0.76644238552E+03  0.00000000000E+00 0. -1.
          3    1    5    5  503    0  0.84990999952E+02  0.18018870195E+03  0.13712031071E+03  0.24185412544E+03  0.00000000000E+00 0. -1.
         -4    1    5    5    0  503 -0.16532396153E+02  0.21659077357E+02  0.19425719795E+02  0.33463328347E+02  0.00000000000E+00 0.  1.
         -1    1    6    6    0  502 -0.25172001159E+03  0.10477560848E+03 -0.22124441983E+03  0.35112673734E+03  0.00000000000E+00 0.  1.
<mgrwt>
<rscale>  0 0.24743461E+04</rscale>
<asrwt>0</asrwt>
<pdfrwt beam="1">  1        2 0.19315519E+00 0.24743461E+04</pdfrwt>
<pdfrwt beam="2">  1       -2 0.18755464E+00 0.24743461E+04</pdfrwt>
<totfact> 0.25261872E+00</totfact>
</mgrwt>
</event>
<event>
12    1  0.1495204E-007  0.1656853E+04  0.7818608E-02  0.8786363E-01
          2   -1    0    0  501    0  0.00000000000E+00  0.00000000000E+00  0.22857577039E+04  0.22857577039E+04  0.00000000000E+00 0. -1.
         -2   -1    0    0    0  501 -0.00000000000E+00 -0.00000000000E+00 -0.30024630592E+03  0.30024630592E+03  0.00000000000E+00 0.  1.
         23    2    1    2    0    0 -0.53249664516E+03  0.43371094391E+01  0.21624014388E+03  0.58497391556E+03  0.10891829246E+03 0.  0.
        254    2    1    2    0    0  0.53249664516E+03 -0.43371094391E+01  0.17692712541E+04  0.20010300942E+04  0.76826374370E+03 0.  0.
        -24    2    4    4    0    0  0.19574047518E+03  0.80682146883E+02  0.33218108257E+02  0.22879151563E+03  0.80113497349E+02 0.  0.
         24    2    4    4    0    0  0.33675616998E+03 -0.85019256322E+02  0.17360531458E+04  0.17722385786E+04  0.79473658529E+02 0.  0.
         11    1    3    3    0    0 -0.18889157647E+03 -0.97876807227E+00  0.13407925285E+03  0.23164246522E+03  0.00000000000E+00 0.  1.
        -11    1    3    3    0    0 -0.34360506870E+03  0.53158775114E+01  0.82160891032E+02  0.35333145034E+03  0.00000000000E+00 0. -1.
          4    1    6    6  502    0  0.25451385576E+03 -0.79147685099E+02  0.11543920677E+04  0.11847627209E+04  0.00000000000E+00 0. -1.
          3    1    5    5  503    0  0.77719631817E+02  0.69312444588E+02 -0.48864375425E+01  0.10425177896E+03  0.00000000000E+00 0. -1.
         -4    1    5    5    0  503  0.11802084337E+03  0.11369702295E+02  0.38104545800E+02  0.12453973667E+03  0.00000000000E+00 0.  1.
         -3    1    6    6    0  502  0.82242314217E+02 -0.58715712235E+01  0.58166107815E+03  0.58747585774E+03  0.00000000000E+00 0.  1.
<mgrwt>
<rscale>  0 0.16568528E+04</rscale>
<asrwt>0</asrwt>
<pdfrwt beam="1">  1        2 0.35165502E+00 0.16568528E+04</pdfrwt>
<pdfrwt beam="2">  1       -2 0.46191741E-01 0.16568528E+04</pdfrwt>
<totfact> 0.19613581E+01</totfact>
</mgrwt>
</event>
<event>
12    1  0.1495204E-007  0.1526160E+04  0.7818608E-02  0.8867240E-01
         -2   -1    0    0    0  501 -0.00000000000E+00  0.00000000000E+00  0.28498308472E+03  0.28498308472E+03  0.00000000000E+00 0.  1.
          2   -1    0    0  501    0  0.00000000000E+00 -0.00000000000E+00 -0.20432492237E+04  0.20432492237E+04  0.00000000000E+00 0. -1.
         23    2    1    2    0    0  0.28853197524E+03  0.60816775444E+02  0.27289028798E+02  0.30929943155E+03  0.89286428684E+02 0.  0.
        254    2    1    2    0    0 -0.28853197524E+03 -0.60816775444E+02 -0.17855551677E+04  0.20189328768E+04  0.89494878245E+03 0.  0.
        -24    2    4    4    0    0  0.60383895726E+02  0.36527955201E+03 -0.60632402516E+03  0.71488472050E+03  0.79724363493E+02 0.  0.
         24    2    4    4    0    0 -0.34891587097E+03 -0.42609632745E+03 -0.11792311426E+04  0.13040481563E+04  0.81579048418E+02 0.  0.
         13    1    3    3    0    0  0.20242441661E+03  0.49979719429E+02  0.59340688778E+02  0.21678315003E+03  0.00000000000E+00 0.  1.
        -13    1    3    3    0    0  0.86107558637E+02  0.10837056015E+02 -0.32051659980E+02  0.92516281513E+02  0.00000000000E+00 0. -1.
          4    1    6    6  502    0 -0.32450901011E+03 -0.38952005502E+03 -0.11269224498E+04  0.12357128221E+04  0.00000000000E+00 0. -1.
          3    1    5    5  503    0  0.38376288498E+02  0.25878582228E+03 -0.49117873991E+03  0.55650642034E+03  0.00000000000E+00 0. -1.
         -4    1    5    5    0  503  0.22007607228E+02  0.10649372973E+03 -0.11514528525E+03  0.15837830016E+03  0.00000000000E+00 0.  1.
         -3    1    6    6    0  502 -0.24406860859E+02 -0.36576272430E+02 -0.52308692794E+02  0.68335334225E+02  0.00000000000E+00 0.  1.
<mgrwt>
<rscale>  0 0.15261605E+04</rscale>
<asrwt>0</asrwt>
<pdfrwt beam="1">  1        2 0.31434603E+00 0.15261605E+04</pdfrwt>
<pdfrwt beam="2">  1       -2 0.43843552E-01 0.15261605E+04</pdfrwt>
<totfact> 0.30081303E+01</totfact>
</mgrwt>
</event>
<event>
12    1  0.1495204E-007  0.1048701E+04  0.7818608E-02  0.9256686E-01
          1   -1    0    0  501    0  0.00000000000E+00  0.00000000000E+00  0.66014658402E+03  0.66014658402E+03  0.00000000000E+00 0. -1.
         -1   -1    0    0    0  501 -0.00000000000E+00 -0.00000000000E+00 -0.41648845045E+03  0.41648845045E+03  0.00000000000E+00 0.  1.
         23    2    1    2    0    0  0.60661992084E+02  0.70484380260E+02  0.86341348616E+02  0.15106978473E+03  0.81971496471E+02 0.  0.
        254    2    1    2    0    0 -0.60661992084E+02 -0.70484380260E+02  0.15731678496E+03  0.92556524974E+03  0.90734477216E+03 0.  0.
        -24    2    4    4    0    0 -0.35471532985E+03  0.22453266746E+03 -0.87724010773E+02  0.43590736500E+03  0.77986183433E+02 0.  0.
         24    2    4    4    0    0  0.29405333776E+03 -0.29501704772E+03  0.24504079573E+03  0.48965788475E+03  0.78850672984E+02 0.  0.
         13    1    3    3    0    0  0.79177790355E+02  0.43629498130E+02  0.71366354370E+02  0.11517730735E+03  0.00000000000E+00 0. -1.
        -13    1    3    3    0    0 -0.18515798271E+02  0.26854882130E+02  0.14974994246E+02  0.35892477380E+02  0.00000000000E+00 0.  1.
          2    1    6    6  502    0  0.93535264722E+02 -0.12665399463E+03  0.12776368287E+03  0.20276498407E+03  0.00000000000E+00 0. -1.
          1    1    5    5  503    0 -0.29362992967E+03  0.15905121870E+03 -0.91594356874E+02  0.34627352191E+03  0.00000000000E+00 0. -1.
         -2    1    5    5    0  503 -0.61085400181E+02  0.65481448765E+02  0.38703461013E+01  0.89633843087E+02  0.00000000000E+00 0.  1.
         -1    1    6    6    0  502  0.20051807304E+03 -0.16836305309E+03  0.11727711286E+03  0.28689290068E+03  0.00000000000E+00 0.  1.
<mgrwt>
<rscale>  0 0.10487010E+04</rscale>
<asrwt>0</asrwt>
<pdfrwt beam="1">  1        1 0.10156101E+00 0.10487010E+04</pdfrwt>
<pdfrwt beam="2">  1       -1 0.64075147E-01 0.10487010E+04</pdfrwt>
<totfact> 0.73512246E+01</totfact>
</mgrwt>
</event>
<event>
12    1  0.1495204E-007  0.3143123E+04  0.7818608E-02  0.8204002E-01
         -2   -1    0    0    0  501 -0.00000000000E+00  0.00000000000E+00  0.10237049747E+04  0.10237049747E+04  0.00000000000E+00 0. -1.
          2   -1    0    0  501    0  0.00000000000E+00 -0.00000000000E+00 -0.24126149027E+04  0.24126149027E+04  0.00000000000E+00 0.  1.
         23    2    1    2    0    0  0.54006926438E+03 -0.67621684835E+03 -0.18987054953E+04  0.20887272940E+04  0.93568767866E+02 0.  0.
        254    2    1    2    0    0 -0.54006926438E+03  0.67621684835E+03  0.50979556731E+03  0.13475925834E+04  0.89842652130E+03 0.  0.
        -24    2    4    4    0    0 -0.14513474010E+03  0.53989519280E+03 -0.12987660771E+03  0.57941206758E+03  0.79369382203E+02 0.  0.
         24    2    4    4    0    0 -0.39493452428E+03  0.13632165555E+03  0.63967217502E+03  0.76818051586E+03  0.79774314224E+02 0.  0.
         11    1    3    3    0    0  0.47470316141E+03 -0.57210662281E+03 -0.16940878319E+04  0.18500223409E+04  0.00000000000E+00 0.  1.
        -11    1    3    3    0    0  0.65366102969E+02 -0.10411022554E+03 -0.20461766337E+03  0.23870495312E+03  0.00000000000E+00 0. -1.
          4    1    6    6  502    0 -0.30073293277E+03  0.13733584751E+03  0.48139010687E+03  0.58398447484E+03  0.00000000000E+00 0. -1.
          1    1    5    5  503    0 -0.50734183763E+02  0.33445003978E+03 -0.68629391353E+02  0.34516775613E+03  0.00000000000E+00 0. -1.
         -2    1    5    5    0  503 -0.94400556335E+02  0.20544515302E+03 -0.61247216357E+02  0.23424431145E+03  0.00000000000E+00 0.  1.
         -3    1    6    6    0  502 -0.94201591510E+02 -0.10141919607E+01  0.15828206816E+03  0.18419604102E+03  0.00000000000E+00 0.  1.
<mgrwt>
<rscale>  0 0.31431232E+04</rscale>
<asrwt>0</asrwt>
<pdfrwt beam="1">  1        2 0.37117152E+00 0.31431232E+04</pdfrwt>
<pdfrwt beam="2">  1       -2 0.15749307E+00 0.31431232E+04</pdfrwt>
<totfact> 0.86961492E-01</totfact>
</mgrwt>
</event>
<event>
12    1  0.1495204E-007  0.1573864E+04  0.7818608E-02  0.8836767E-01
          1   -1    0    0  501    0  0.00000000000E+00  0.00000000000E+00  0.32876095666E+03  0.32876095666E+03  0.00000000000E+00 0. -1.
         -1   -1    0    0    0  501 -0.00000000000E+00 -0.00000000000E+00 -0.18836236706E+04  0.18836236706E+04  0.00000000000E+00 0.  1.
         23    2    1    2    0    0 -0.44966689894E+03  0.12826049366E+02 -0.15491777532E+03  0.48757475644E+03  0.10660580876E+03 0.  0.
        254    2    1    2    0    0  0.44966689894E+03 -0.12826049366E+02 -0.13999449386E+04  0.17248098708E+04  0.90153115961E+03 0.  0.
        -24    2    4    4    0    0 -0.25839561996E+03 -0.33520722314E+02 -0.56026705314E+03  0.62333848613E+03  0.82217773112E+02 0.  0.
         24    2    4    4    0    0  0.70806251890E+03  0.20694672948E+02 -0.83967788547E+03  0.11014713847E+04  0.79996623423E+02 0.  0.
         11    1    3    3    0    0 -0.37870851702E+03  0.29437103527E+02 -0.90906112842E+02  0.39057727185E+03  0.00000000000E+00 0. -1.
        -11    1    3    3    0    0 -0.70958381921E+02 -0.16611054161E+02 -0.64011662475E+02  0.96997484596E+02  0.00000000000E+00 0.  1.
          4    1    6    6  502    0  0.12552951674E+03  0.16102822281E+02 -0.19611315394E+03  0.23340379090E+03  0.00000000000E+00 0. -1.
          1    1    5    5  503    0 -0.93884869997E+02  0.26606324248E+02 -0.18288543511E+03  0.20729049105E+03  0.00000000000E+00 0. -1.
         -2    1    5    5    0  503 -0.16451074996E+03 -0.60127046562E+02 -0.37738161803E+03  0.41604799508E+03  0.00000000000E+00 0.  1.
         -3    1    6    6    0  502  0.58253300216E+03  0.45918506666E+01 -0.64356473153E+03  0.86806759378E+03  0.00000000000E+00 0.  1.
<mgrwt>
<rscale>  0 0.15738639E+04</rscale>
<asrwt>0</asrwt>
<pdfrwt beam="1">  1        1 0.50578608E-01 0.15738639E+04</pdfrwt>
<pdfrwt beam="2">  1       -1 0.28978826E+00 0.15738639E+04</pdfrwt>
<totfact> 0.28810947E+00</totfact>
</mgrwt>
</event>
<event>
12    1  0.1495204E-007  0.2643355E+04  0.7818608E-02  0.8353622E-01
         -1   -1    0    0    0  501 -0.00000000000E+00  0.00000000000E+00  0.11916555780E+04  0.11916555780E+04  0.00000000000E+00 0.  1.
          1   -1    0    0  501    0  0.00000000000E+00 -0.00000000000E+00 -0.14658861221E+04  0.14658861221E+04  0.00000000000E+00 0. -1.
         23    2    1    2    0    0 -0.54601725255E+03 -0.52813132156E+03 -0.10049492497E+04  0.12631468227E+04  0.92516854385E+02 0.  0.
        254    2    1    2    0    0  0.54601725255E+03  0.52813132156E+03  0.73071870565E+03  0.13943948774E+04  0.91286894707E+03 0.  0.
        -24    2    4    4    0    0  0.15189226153E+03  0.59971690505E+03  0.76213670688E+03  0.98496942344E+03  0.81122005800E+02 0.  0.
         24    2    4    4    0    0  0.39412499103E+03 -0.71585583491E+02 -0.31418001237E+02  0.40942545399E+03  0.78632736535E+02 0.  0.
         11    1    3    3    0    0 -0.44817625518E+03 -0.44810834686E+03 -0.88783888046E+03  0.10908349664E+04  0.00000000000E+00 0.  1.
        -11    1    3    3    0    0 -0.97840997379E+02 -0.80022974701E+02 -0.11711036928E+03  0.17231185636E+03  0.00000000000E+00 0. -1.
          4    1    6    6  502    0  0.62496555225E+02  0.12026503859E+02 -0.21835486788E+02  0.67284802841E+02  0.00000000000E+00 0. -1.
          1    1    5    5  503    0 -0.57895619815E+01  0.19588516347E+02  0.43320271869E+02  0.47894414658E+02  0.00000000000E+00 0. -1.
         -2    1    5    5    0  503  0.15768182351E+03  0.58012838870E+03  0.71881643501E+03  0.93707500879E+03  0.00000000000E+00 0.  1.
         -3    1    6    6    0  502  0.33162843580E+03 -0.83612087350E+02 -0.95825144493E+01  0.34214065115E+03  0.00000000000E+00 0.  1.
<mgrwt>
<rscale>  0 0.26433550E+04</rscale>
<asrwt>0</asrwt>
<pdfrwt beam="1">  1        1 0.22552094E+00 0.26433550E+04</pdfrwt>
<pdfrwt beam="2">  1       -1 0.18333163E+00 0.26433550E+04</pdfrwt>
<totfact> 0.11942217E+00</totfact>
</mgrwt>
</event>
<event>
12    1  0.1495204E-007  0.1702027E+04  0.7818608E-02  0.8760209E-01
         -2   -1    0    0    0  501 -0.00000000000E+00  0.00000000000E+00  0.90669568513E+03  0.90669568513E+03  0.00000000000E+00 0.  1.
          2   -1    0    0  501    0  0.00000000000E+00 -0.00000000000E+00 -0.79875131365E+03  0.79875131365E+03  0.00000000000E+00 0. -1.
         23    2    1    2    0    0  0.48750590319E+03  0.32563804293E+03  0.16824524693E+03  0.61675000882E+03  0.91498467873E+02 0.  0.
        254    2    1    2    0    0 -0.48750590319E+03 -0.32563804293E+03 -0.60300875446E+02  0.10886969900E+04  0.91538123190E+03 0.  0.
        -24    2    4    4    0    0 -0.41002781729E+03  0.27734795624E+02  0.34313760101E+03  0.54066012266E+03  0.75352008400E+02 0.  0.
         24    2    4    4    0    0 -0.77478085893E+02 -0.35337283855E+03 -0.40343847645E+03  0.54803686730E+03  0.81893753215E+02 0.  0.
         13    1    3    3    0    0  0.47281818092E+03  0.32249783990E+03  0.14730962165E+03  0.59098393682E+03  0.00000000000E+00 0.  1.
        -13    1    3    3    0    0  0.14687722267E+02  0.31402030263E+01  0.20935625282E+02  0.25766072001E+02  0.00000000000E+00 0. -1.
          4    1    6    6  502    0 -0.15697172333E+02 -0.23872573856E+03 -0.23767220677E+03  0.33723057000E+03  0.00000000000E+00 0. -1.
          1    1    5    5  503    0 -0.41226396695E+02  0.88183239225E+01  0.10033152753E+02  0.43336390890E+02  0.00000000000E+00 0. -1.
         -2    1    5    5    0  503 -0.36880142060E+03  0.18916471701E+02  0.33310444825E+03  0.49732373177E+03  0.00000000000E+00 0.  1.
         -3    1    6    6    0  502 -0.61780913561E+02 -0.11464709999E+03 -0.16576626968E+03  0.21080629729E+03  0.00000000000E+00 0.  1.
<mgrwt>
<rscale>  0 0.17020275E+04</rscale>
<asrwt>0</asrwt>
<pdfrwt beam="1">  1        2 0.12288482E+00 0.17020275E+04</pdfrwt>
<pdfrwt beam="2">  1       -2 0.13949164E+00 0.17020275E+04</pdfrwt>
<totfact> 0.11903474E+01</totfact>
</mgrwt>
</event>
<event>
12    1  0.1495204E-007  0.1475300E+04  0.7818608E-02  0.8901047E-01
          1   -1    0    0  501    0  0.00000000000E+00  0.00000000000E+00  0.12871877241E+04  0.12871877241E+04  0.00000000000E+00 0. -1.
         -1   -1    0    0    0  501 -0.00000000000E+00 -0.00000000000E+00 -0.42272566162E+03  0.42272566162E+03  0.00000000000E+00 0.  1.
         23    2    1    2    0    0  0.16762423446E+03 -0.40076180641E+03  0.42447080319E+03  0.61414068986E+03  0.91024253486E+02 0.  0.
        254    2    1    2    0    0 -0.16762423446E+03  0.40076180641E+03  0.43999125931E+03  0.10957726959E+04  0.90466434842E+03 0.  0.
        -24    2    4    4    0    0 -0.45660108152E+03  0.13819872309E+03  0.49608299886E+03  0.69302219647E+03  0.81228002125E+02 0.  0.
         24    2    4    4    0    0  0.28897684705E+03  0.26256308332E+03 -0.56091739547E+02  0.40275049941E+03  0.81330748654E+02 0.  0.
         11    1    3    3    0    0  0.51500719902E+02 -0.10439193132E+03  0.17284646227E+03  0.20838881687E+03  0.00000000000E+00 0.  1.
        -11    1    3    3    0    0  0.11612351456E+03 -0.29636987509E+03  0.25162434092E+03  0.40575187300E+03  0.00000000000E+00 0. -1.
          4    1    6    6  502    0  0.20635605491E+03  0.22713083405E+03 -0.60352037522E+02  0.31275166763E+03  0.00000000000E+00 0. -1.
          1    1    5    5  503    0 -0.31416065664E+03  0.63634943938E+02  0.36338847229E+03  0.48455908418E+03  0.00000000000E+00 0. -1.
         -2    1    5    5    0  503 -0.14244042488E+03  0.74563779156E+02  0.13269452657E+03  0.20846311229E+03  0.00000000000E+00 0.  1.
         -3    1    6    6    0  502  0.82620792147E+02  0.35432249269E+02  0.42602979753E+01  0.89998831782E+02  0.00000000000E+00 0.  1.
<mgrwt>
<rscale>  0 0.14752997E+04</rscale>
<asrwt>0</asrwt>
<pdfrwt beam="1">  1        1 0.19802888E+00 0.14752997E+04</pdfrwt>
<pdfrwt beam="2">  1       -1 0.65034718E-01 0.14752997E+04</pdfrwt>
<totfact> 0.21465786E+01</totfact>
</mgrwt>
</event>
<event>
12    1  0.1495204E-007  0.1713757E+04  0.7818608E-02  0.8753557E-01
          1   -1    0    0  501    0  0.00000000000E+00  0.00000000000E+00  0.89851427549E+03  0.89851427549E+03  0.00000000000E+00 0. -1.
         -1   -1    0    0    0  501 -0.00000000000E+00 -0.00000000000E+00 -0.81717214909E+03  0.81717214909E+03  0.00000000000E+00 0.  1.
         23    2    1    2    0    0 -0.50733297390E+03 -0.18885365952E+03  0.31888382727E+03  0.63480628472E+03  0.90772642871E+02 0.  0.
        254    2    1    2    0    0  0.50733297390E+03  0.18885365952E+03 -0.23754170088E+03  0.10808801399E+04  0.90488859312E+03 0.  0.
        -24    2    4    4    0    0  0.43742536609E+03  0.42792822521E+03 -0.43258796407E+03  0.75367233303E+03  0.80163096809E+02 0.  0.
         24    2    4    4    0    0  0.69907607819E+02 -0.23907456569E+03  0.19504626319E+03  0.32720780683E+03  0.83535516239E+02 0.  0.
         13    1    3    3    0    0 -0.44773702480E+03 -0.13686524751E+03  0.25490702342E+03  0.53308360502E+03  0.00000000000E+00 0. -1.
        -13    1    3    3    0    0 -0.59595949107E+02 -0.51988412014E+02  0.63976803858E+02  0.10172267970E+03  0.00000000000E+00 0.  1.
          2    1    6    6  502    0 -0.13862259670E+02 -0.66013446300E+02  0.30034674091E+02  0.73837788316E+02  0.00000000000E+00 0. -1.
          1    1    5    5  503    0  0.36066736200E+03  0.33404474169E+03 -0.30966013443E+03  0.58099589871E+03  0.00000000000E+00 0. -1.
         -2    1    5    5    0  503  0.76758004086E+02  0.93883483521E+02 -0.12292782965E+03  0.17267643432E+03  0.00000000000E+00 0.  1.
         -1    1    6    6    0  502  0.83769867488E+02 -0.17306111939E+03  0.16501158910E+03  0.25337001851E+03  0.00000000000E+00 0.  1.
<mgrwt>
<rscale>  0 0.17137571E+04</rscale>
<asrwt>0</asrwt>
<pdfrwt beam="1">  1        1 0.13823297E+00 0.17137571E+04</pdfrwt>
<pdfrwt beam="2">  1       -1 0.12571879E+00 0.17137571E+04</pdfrwt>
<totfact> 0.95706878E+00</totfact>
</mgrwt>
</event>
<event>
12    1  0.1495204E-007  0.1425913E+04  0.7818608E-02  0.8935272E-01
          1   -1    0    0  501    0  0.00000000000E+00  0.00000000000E+00  0.26911443692E+03  0.26911443692E+03  0.00000000000E+00 0.  1.
         -1   -1    0    0    0  501 -0.00000000000E+00 -0.00000000000E+00 -0.18888121909E+04  0.18888121909E+04  0.00000000000E+00 0. -1.
         23    2    1    2    0    0  0.33182036105E+03 -0.95663796114E+02 -0.87094236202E+03  0.94135991485E+03  0.91441661322E+02 0.  0.
        254    2    1    2    0    0 -0.33182036105E+03  0.95663796114E+02 -0.74875539192E+03  0.12165667129E+04  0.89450747130E+03 0.  0.
        -24    2    4    4    0    0 -0.31132039083E+02 -0.12722301740E+02 -0.86365569463E+03  0.86816355306E+03  0.81705172310E+02 0.  0.
         24    2    4    4    0    0 -0.30068832197E+03  0.10838609785E+03  0.11490030270E+03  0.34840315989E+03  0.77599414170E+02 0.  0.
         11    1    3    3    0    0  0.96350825359E+00 -0.44486151384E+01  0.68142038329E+00  0.46024839536E+01  0.00000000000E+00 0.  1.
        -11    1    3    3    0    0  0.33085685280E+03 -0.91215180975E+02 -0.87162378240E+03  0.93675743090E+03  0.00000000000E+00 0. -1.
          2    1    6    6  502    0 -0.17353447414E+01 -0.78179946788E+01  0.45336479645E+01  0.92025228082E+01  0.00000000000E+00 0. -1.
          3    1    5    5  503    0 -0.13260848901E+02 -0.19496902401E+02 -0.62813451700E+02  0.67093286037E+02  0.00000000000E+00 0. -1.
         -4    1    5    5    0  503 -0.17871190182E+02  0.67746006613E+01 -0.80084224293E+03  0.80107026702E+03  0.00000000000E+00 0.  1.
         -1    1    6    6    0  502 -0.29895297723E+03  0.11620409253E+03  0.11036665474E+03  0.33920063708E+03  0.00000000000E+00 0.  1.
<mgrwt>
<rscale>  0 0.14259125E+04</rscale>
<asrwt>0</asrwt>
<pdfrwt beam="1">  1        1 0.41402221E-01 0.14259125E+04</pdfrwt>
<pdfrwt beam="2">  1       -1 0.29058649E+00 0.14259125E+04</pdfrwt>
<totfact> 0.37465708E+00</totfact>
</mgrwt>
</event>
<event>
12    1  0.1526079E-007  0.3404253E+04  0.7818608E-02  0.8136863E-01
          1   -1    0    0  501    0  0.00000000000E+00  0.00000000000E+00  0.19112312169E+04  0.19112312169E+04  0.00000000000E+00 0. -1.
         -1   -1    0    0    0  501 -0.00000000000E+00 -0.00000000000E+00 -0.15158998801E+04  0.15158998801E+04  0.00000000000E+00 0.  1.
         23    2    1    2    0    0  0.86863459419E+03 -0.65206133410E+03 -0.96931100377E+03  0.14585213068E+04  0.89501613481E+02 0.  0.
        254    2    1    2    0    0 -0.86863459419E+03  0.65206133410E+03  0.13646423406E+04  0.19686097902E+04  0.91294345219E+03 0.  0.
        -24    2    4    4    0    0 -0.56867936479E+03  0.86065552518E+03  0.89062034743E+03  0.13651311083E+04  0.79083414979E+02 0.  0.
         24    2    4    4    0    0 -0.29995522940E+03 -0.20859419109E+03  0.47402199315E+03  0.60347868198E+03  0.77491892579E+02 0.  0.
         13    1    3    3    0    0  0.91103381285E+02 -0.62751162222E+02 -0.13716770051E+03  0.17621723101E+03  0.00000000000E+00 0. -1.
        -13    1    3    3    0    0  0.77753121290E+03 -0.58931017188E+03 -0.83214330326E+03  0.12823040758E+04  0.00000000000E+00 0.  1.
          4    1    6    6  502    0 -0.59154174566E+02 -0.10223762591E+02  0.97455665878E+02  0.11446112223E+03  0.00000000000E+00 0. -1.
          3    1    5    5  503    0 -0.93927327615E+01  0.30160437206E+01  0.14654592778E+02  0.17665702306E+02  0.00000000000E+00 0. -1.
         -4    1    5    5    0  503 -0.55928663203E+03  0.85763948146E+03  0.87596575465E+03  0.13474654060E+04  0.00000000000E+00 0.  1.
         -3    1    6    6    0  502 -0.24080105483E+03 -0.19837042849E+03  0.37656632727E+03  0.48901755975E+03  0.00000000000E+00 0.  1.
<mgrwt>
<rscale>  0 0.34042533E+04</rscale>
<asrwt>0</asrwt>
<pdfrwt beam="1">  1        1 0.29403557E+00 0.34042533E+04</pdfrwt>
<pdfrwt beam="2">  1       -1 0.23321536E+00 0.34042533E+04</pdfrwt>
<totfact> 0.25305388E-01</totfact>
</mgrwt>
</event>
<event>
12    1  0.1495204E-007  0.4601482E+04  0.7818608E-02  0.7893107E-01
         -1   -1    0    0    0  501 -0.00000000000E+00  0.00000000000E+00  0.15443644650E+04  0.15443644650E+04  0.00000000000E+00 0.  1.
          1   -1    0    0  501    0  0.00000000000E+00 -0.00000000000E+00 -0.34275652815E+04  0.34275652815E+04  0.00000000000E+00 0. -1.
         23    2    1    2    0    0 -0.41069210405E+02  0.19889765384E+04  0.13584784998E+03  0.19960843277E+04  0.90463554534E+02 0.  0.
        254    2    1    2    0    0  0.41069210405E+02 -0.19889765384E+04 -0.20190486664E+04  0.29758454188E+04  0.90630242670E+03 0.  0.
        -24    2    4    4    0    0 -0.27703216492E+03 -0.51151145791E+03 -0.22527065628E+03  0.62893905280E+03  0.80166524126E+02 0.  0.
         24    2    4    4    0    0  0.31810137532E+03 -0.14774650805E+04 -0.17937780101E+04  0.23469063659E+04  0.78983491133E+02 0.  0.
         11    1    3    3    0    0  0.76553926482E+01  0.13041704683E+04  0.11460158986E+03  0.13092183698E+04  0.00000000000E+00 0.  1.
        -11    1    3    3    0    0 -0.48724603053E+02  0.68480607017E+03  0.21246260120E+02  0.68686595800E+03  0.00000000000E+00 0. -1.
          2    1    6    6  502    0  0.22741549068E+03 -0.92849652990E+03 -0.11753353704E+04  0.15150039090E+04  0.00000000000E+00 0. -1.
          1    1    5    5  503    0 -0.10858319347E+03 -0.21366880435E+03 -0.13488765338E+03  0.27502608401E+03  0.00000000000E+00 0. -1.
         -2    1    5    5    0  503 -0.16844897145E+03 -0.29784265357E+03 -0.90383002899E+02  0.35391296879E+03  0.00000000000E+00 0.  1.
         -1    1    6    6    0  502  0.90685884636E+02 -0.54896855061E+03 -0.61844263974E+03  0.83190245695E+03  0.00000000000E+00 0.  1.
<mgrwt>
<rscale>  0 0.46014824E+04</rscale>
<asrwt>0</asrwt>
<pdfrwt beam="1">  1        1 0.52731773E+00 0.46014824E+04</pdfrwt>
<pdfrwt beam="2">  1       -1 0.23759453E+00 0.46014824E+04</pdfrwt>
<totfact> 0.17827483E-02</totfact>
</mgrwt>
</event>
<event>
12    1  0.1495204E-007  0.1577364E+04  0.7818608E-02  0.8834576E-01
          2   -1    0    0  501    0  0.00000000000E+00  0.00000000000E+00  0.15407373062E+04  0.15407373062E+04  0.00000000000E+00 0. -1.
         -2   -1    0    0    0  501 -0.00000000000E+00 -0.00000000000E+00 -0.40371533995E+03  0.40371533995E+03  0.00000000000E+00 0.  1.
         23    2    1    2    0    0 -0.46292943469E+03 -0.99616951347E+02  0.68789253346E+03  0.84020413877E+03  0.92301997401E+02 0.  0.
        254    2    1    2    0    0  0.46292943469E+03  0.99616951347E+02  0.44912943277E+03  0.11042485074E+04  0.89074144403E+03 0.  0.
        -24    2    4    4    0    0 -0.25631326228E+03 -0.49930115990E+01  0.18770645152E+03  0.32773870964E+03  0.80358765967E+02 0.  0.
         24    2    4    4    0    0  0.71924269697E+03  0.10460996295E+03  0.26142298125E+03  0.77650979771E+03  0.79825994088E+02 0.  0.
         11    1    3    3    0    0 -0.49430146931E+02  0.17808039071E+02  0.78715182458E+02  0.94639028052E+02  0.00000000000E+00 0.  1.
        -11    1    3    3    0    0 -0.41349928776E+03 -0.11742499042E+03  0.60917735100E+03  0.74556511072E+03  0.00000000000E+00 0. -1.
          4    1    6    6  502    0  0.64402365907E+03  0.11039974483E+03  0.21477082108E+03  0.68780889984E+03  0.00000000000E+00 0. -1.
          3    1    5    5  503    0 -0.23397701419E+03  0.20248821066E+02  0.16106580200E+03  0.28477614102E+03  0.00000000000E+00 0. -1.
         -4    1    5    5    0  503 -0.22336248094E+02 -0.25241832665E+02  0.26640649515E+02  0.42962568612E+02  0.00000000000E+00 0.  1.
         -3    1    6    6    0  502  0.75219037894E+02 -0.57897818888E+01  0.46652160168E+02  0.88700897877E+02  0.00000000000E+00 0.  1.
<mgrwt>
<rscale>  0 0.15773640E+04</rscale>
<asrwt>0</asrwt>
<pdfrwt beam="1">  1        2 0.23703651E+00 0.15773640E+04</pdfrwt>
<pdfrwt beam="2">  1       -2 0.62110053E-01 0.15773640E+04</pdfrwt>
<totfact> 0.27828946E+01</totfact>
</mgrwt>
</event>
<event>
12    1  0.1495204E-007  0.1280153E+04  0.7818608E-02  0.9045454E-01
         -3   -1    0    0    0  501 -0.00000000000E+00  0.00000000000E+00  0.15233563209E+04  0.15233563209E+04  0.00000000000E+00 0.  1.
          3   -1    0    0  501    0  0.00000000000E+00 -0.00000000000E+00 -0.26894412760E+03  0.26894412760E+03  0.00000000000E+00 0. -1.
         23    2    1    2    0    0 -0.24155376913E+03 -0.15888369909E+03  0.25365337167E+03  0.39490540051E+03  0.89543225174E+02 0.  0.
        254    2    1    2    0    0  0.24155376913E+03  0.15888369909E+03  0.10007588216E+04  0.13973950480E+04  0.93145179577E+03 0.  0.
        -24    2    4    4    0    0  0.14101010175E+03  0.54433600900E+03  0.55021722344E+03  0.79084485436E+03  0.80691085038E+02 0.  0.
         24    2    4    4    0    0  0.10054366738E+03 -0.38545230992E+03  0.45054159819E+03  0.60655019363E+03  0.78948675834E+02 0.  0.
         11    1    3    3    0    0  0.45166142238E+00 -0.21966621582E+02  0.65675011997E+01  0.22931823603E+02  0.00000000000E+00 0. -1.
        -11    1    3    3    0    0 -0.24200543055E+03 -0.13691707750E+03  0.24708587047E+03  0.37197357690E+03  0.00000000000E+00 0.  1.
          2    1    6    6  502    0  0.49720305382E+02 -0.90901783438E+02  0.15314209994E+03  0.18489928549E+03  0.00000000000E+00 0. -1.
          3    1    5    5  503    0  0.42403740796E+02  0.91636998908E+02  0.13586014459E+03  0.16927313931E+03  0.00000000000E+00 0. -1.
         -4    1    5    5    0  503  0.98606360956E+02  0.45269901010E+03  0.41435707884E+03  0.62157171505E+03  0.00000000000E+00 0.  1.
         -1    1    6    6    0  502  0.50823361997E+02 -0.29455052648E+03  0.29739949825E+03  0.42165090814E+03  0.00000000000E+00 0.  1.
<mgrwt>
<rscale>  0 0.12801527E+04</rscale>
<asrwt>0</asrwt>
<pdfrwt beam="1">  1        3 0.41376020E-01 0.12801527E+04</pdfrwt>
<pdfrwt beam="2">  1       -3 0.23436251E+00 0.12801527E+04</pdfrwt>
<totfact> 0.13536098E+00</totfact>
</mgrwt>
</event>
<event>
12    1  0.1495204E-007  0.1933289E+04  0.7818608E-02  0.8638461E-01
         -1   -1    0    0    0  501 -0.00000000000E+00  0.00000000000E+00  0.12833483178E+04  0.12833483178E+04  0.00000000000E+00 0.  1.
          1   -1    0    0  501    0  0.00000000000E+00 -0.00000000000E+00 -0.72809674332E+03  0.72809674332E+03  0.00000000000E+00 0. -1.
         23    2    1    2    0    0 -0.56200174408E+03 -0.50216644936E+03  0.15695210717E+03  0.77527681460E+03  0.91668272030E+02 0.  0.
        254    2    1    2    0    0  0.56200174408E+03  0.50216644936E+03  0.39829946730E+03  0.12361682465E+04  0.89523871946E+03 0.  0.
        -24    2    4    4    0    0  0.59061470494E+03 -0.57406524643E+02  0.26559144245E+03  0.65489467455E+03  0.78911226593E+02 0.  0.
         24    2    4    4    0    0 -0.28612960864E+02  0.55957297401E+03  0.13270802485E+03  0.58127357197E+03  0.79542006761E+02 0.  0.
         11    1    3    3    0    0 -0.54657790980E+03 -0.48082028260E+03  0.13369436278E+03  0.74014170148E+03  0.00000000000E+00 0. -1.
        -11    1    3    3    0    0 -0.15423834283E+02 -0.21346166768E+02  0.23257744393E+02  0.35135113119E+02  0.00000000000E+00 0.  1.
          2    1    6    6  502    0 -0.19653629408E+02  0.32880982117E+03  0.37663213472E+02  0.33154288003E+03  0.00000000000E+00 0. -1.
          3    1    5    5  503    0  0.11353103066E+03  0.15161109580E+02  0.69702402968E+02  0.13408049502E+03  0.00000000000E+00 0. -1.
         -4    1    5    5    0  503  0.47708367428E+03 -0.72567634223E+02  0.19588903948E+03  0.52081417952E+03  0.00000000000E+00 0.  1.
         -1    1    6    6    0  502 -0.89593314562E+01  0.23076315284E+03  0.95044811381E+02  0.24973069194E+03  0.00000000000E+00 0.  1.
<mgrwt>
<rscale>  0 0.19332891E+04</rscale>
<asrwt>0</asrwt>
<pdfrwt beam="1">  1        1 0.11201488E+00 0.19332891E+04</pdfrwt>
<pdfrwt beam="2">  1       -1 0.19743820E+00 0.19332891E+04</pdfrwt>
<totfact> 0.37508790E+00</totfact>
</mgrwt>
</event>
<event>
12    1  0.1495204E-007  0.1939957E+04  0.7818608E-02  0.8635219E-01
         -1   -1    0    0    0  501 -0.00000000000E+00  0.00000000000E+00  0.19173283026E+04  0.19173283026E+04  0.00000000000E+00 0.  1.
          1   -1    0    0  501    0  0.00000000000E+00 -0.00000000000E+00 -0.49071343171E+03  0.49071343171E+03  0.00000000000E+00 0. -1.
         23    2    1    2    0    0 -0.11484576862E+03 -0.66774586770E+03  0.13575428366E+03  0.69673839213E+03  0.89112665430E+02 0.  0.
        254    2    1    2    0    0  0.11484576862E+03  0.66774586770E+03  0.12908605872E+04  0.17113033422E+04  0.89619416360E+03 0.  0.
        -24    2    4    4    0    0 -0.79334010424E+02  0.11643455818E+03 -0.10702840705E+03  0.19399353761E+03  0.79545717489E+02 0.  0.
         24    2    4    4    0    0  0.19417977904E+03  0.55131130952E+03  0.13978889943E+04  0.15173098046E+04  0.80532329506E+02 0.  0.
         11    1    3    3    0    0 -0.87142375938E+02 -0.26228428674E+03  0.69259900063E+02  0.28492766540E+03  0.00000000000E+00 0.  1.
        -11    1    3    3    0    0 -0.27703392683E+02 -0.40546158096E+03  0.66494383592E+02  0.41181072673E+03  0.00000000000E+00 0. -1.
          2    1    6    6  502    0  0.16733357316E+03  0.49595734074E+03  0.11795649190E+04  0.12904834779E+04  0.00000000000E+00 0. -1.
          1    1    5    5  503    0 -0.88196332491E+02  0.66510225666E+02 -0.65261869954E+02  0.12830165569E+03  0.00000000000E+00 0. -1.
         -2    1    5    5    0  503  0.88623220674E+01  0.49924332510E+02 -0.41766537097E+02  0.65691881919E+02  0.00000000000E+00 0.  1.
         -1    1    6    6    0  502  0.26846205882E+02  0.55353968779E+02  0.21832407527E+03  0.22682632668E+03  0.00000000000E+00 0.  1.
<mgrwt>
<rscale>  0 0.19399575E+04</rscale>
<asrwt>0</asrwt>
<pdfrwt beam="1">  1        1 0.75494375E-01 0.19399575E+04</pdfrwt>
<pdfrwt beam="2">  1       -1 0.29497358E+00 0.19399575E+04</pdfrwt>
<totfact> 0.15108414E+00</totfact>
</mgrwt>
</event>
<event>
12    1  0.1495204E-007  0.3543350E+04  0.7818608E-02  0.8103593E-01
         -2   -1    0    0    0  501 -0.00000000000E+00  0.00000000000E+00  0.20959881726E+04  0.20959881726E+04  0.00000000000E+00 0. -1.
          2   -1    0    0  501    0  0.00000000000E+00 -0.00000000000E+00 -0.14975425673E+04  0.14975425673E+04  0.00000000000E+00 0.  1.
         23    2    1    2    0    0 -0.10781939378E+04 -0.22198156956E+03  0.15336455245E+04  0.18900604203E+04  0.92096756802E+02 0.  0.
        254    2    1    2    0    0  0.10781939378E+04  0.22198156956E+03 -0.93519991918E+03  0.17034703196E+04  0.90301398438E+03 0.  0.
        -24    2    4    4    0    0  0.94324227653E+03  0.34540873338E+03 -0.32088927327E+03  0.10575982969E+04  0.80814890604E+02 0.  0.
         24    2    4    4    0    0  0.13495166132E+03 -0.12342716382E+03 -0.61431064591E+03  0.64587202268E+03  0.79541714497E+02 0.  0.
         11    1    3    3    0    0 -0.97041592347E+03 -0.17367886136E+03  0.13478056186E+04  0.16698656823E+04  0.00000000000E+00 0. -1.
        -11    1    3    3    0    0 -0.10777801438E+03 -0.48302708194E+02  0.18583990592E+03  0.22019473799E+03  0.00000000000E+00 0.  1.
          2    1    6    6  502    0  0.34429596199E+01 -0.37836638731E+01  0.11527776382E+01  0.52439469422E+01  0.00000000000E+00 0. -1.
          1    1    5    5  503    0  0.21991508891E+03  0.70805005319E+02 -0.10872365132E+03  0.25533669431E+03  0.00000000000E+00 0. -1.
         -2    1    5    5    0  503  0.72332718763E+03  0.27460372806E+03 -0.21216562195E+03  0.80226160257E+03  0.00000000000E+00 0.  1.
         -1    1    6    6    0  502  0.13150870170E+03 -0.11964349995E+03 -0.61546342355E+03  0.64062807574E+03  0.00000000000E+00 0.  1.
<mgrwt>
<rscale>  0 0.35433496E+04</rscale>
<asrwt>0</asrwt>
<pdfrwt beam="1">  1        2 0.23039116E+00 0.35433496E+04</pdfrwt>
<pdfrwt beam="2">  1       -2 0.32245972E+00 0.35433496E+04</pdfrwt>
<totfact> 0.24102084E-01</totfact>
</mgrwt>
</event>
<event>
12    1  0.1495204E-007  0.1852356E+04  0.7818608E-02  0.8678942E-01
          1   -1    0    0  501    0  0.00000000000E+00  0.00000000000E+00  0.12361804874E+04  0.12361804874E+04  0.00000000000E+00 0. -1.
         -1   -1    0    0    0  501 -0.00000000000E+00 -0.00000000000E+00 -0.69391598792E+03  0.69391598792E+03  0.00000000000E+00 0.  1.
         23    2    1    2    0    0 -0.68023770232E+03 -0.20930199504E+03  0.19632862822E+03  0.74396235350E+03  0.91675494982E+02 0.  0.
        254    2    1    2    0    0  0.68023770232E+03  0.20930199504E+03  0.34593587123E+03  0.11861341218E+04  0.88357901235E+03 0.  0.
        -24    2    4    4    0    0  0.44163999121E+02  0.27214787640E+03  0.44994131047E+03  0.53380973605E+03  0.80565041937E+02 0.  0.
         24    2    4    4    0    0  0.63607370320E+03 -0.62845881360E+02 -0.10400543924E+03  0.65232438574E+03  0.78553243919E+02 0.  0.
         13    1    3    3    0    0 -0.23342752205E+03 -0.96320740812E+02  0.31386405234E+02  0.25446257013E+03  0.00000000000E+00 0.  1.
        -13    1    3    3    0    0 -0.44681018027E+03 -0.11298125422E+03  0.16494222299E+03  0.48949978337E+03  0.00000000000E+00 0. -1.
          4    1    6    6  502    0  0.49353122542E+03 -0.48767632573E+02 -0.11355914192E+03  0.50877011623E+03  0.00000000000E+00 0. -1.
          3    1    5    5  503    0  0.47247324862E+02  0.16564110990E+03  0.21239482665E+03  0.27346087359E+03  0.00000000000E+00 0. -1.
         -4    1    5    5    0  503 -0.30833257411E+01  0.10650676650E+03  0.23754648382E+03  0.26034886246E+03  0.00000000000E+00 0.  1.
         -3    1    6    6    0  502  0.14254247778E+03 -0.14078248788E+02  0.95537026735E+01  0.14355426951E+03  0.00000000000E+00 0.  1.
<mgrwt>
<rscale>  0 0.18523557E+04</rscale>
<asrwt>0</asrwt>
<pdfrwt beam="1">  1        1 0.19018161E+00 0.18523557E+04</pdfrwt>
<pdfrwt beam="2">  1       -1 0.10675631E+00 0.18523557E+04</pdfrwt>
<totfact> 0.77371372E+00</totfact>
</mgrwt>
</event>
<event>
12    1  0.1495204E-007  0.1802095E+04  0.7818608E-02  0.8705186E-01
          1   -1    0    0  501    0  0.00000000000E+00  0.00000000000E+00  0.13240974757E+04  0.13240974757E+04  0.00000000000E+00 0. -1.
         -1   -1    0    0    0  501 -0.00000000000E+00 -0.00000000000E+00 -0.61316201779E+03  0.61316201779E+03  0.00000000000E+00 0.  1.
         23    2    1    2    0    0  0.12015096989E+03 -0.16158368714E+02  0.98185804474E+03  0.99348053807E+03  0.90890104302E+02 0.  0.
        254    2    1    2    0    0 -0.12015096989E+03  0.16158368714E+02 -0.27092258679E+03  0.94377895546E+03  0.89589191328E+03 0.  0.
        -24    2    4    4    0    0 -0.66215109703E+02  0.25503400326E+03  0.24344635404E+03  0.36761697304E+03  0.80307708210E+02 0.  0.
         24    2    4    4    0    0 -0.53935860185E+02 -0.23887563455E+03 -0.51436894083E+03  0.57616198242E+03  0.86119550052E+02 0.  0.
         11    1    3    3    0    0 -0.35818235903E+01 -0.25442992622E+02  0.11864741937E+03  0.12139763365E+03  0.00000000000E+00 0.  1.
        -11    1    3    3    0    0  0.12373279348E+03  0.92846239076E+01  0.86321062537E+03  0.87208290442E+03  0.00000000000E+00 0. -1.
          4    1    6    6  502    0 -0.19147498229E+02 -0.19004398277E+03 -0.44628455772E+03  0.48544129257E+03  0.00000000000E+00 0. -1.
          3    1    5    5  503    0 -0.47659570082E+02  0.78537876244E+02  0.12135897245E+03  0.15220917456E+03  0.00000000000E+00 0. -1.
         -4    1    5    5    0  503 -0.18555539621E+02  0.17649612702E+03  0.12208738159E+03  0.21540779848E+03  0.00000000000E+00 0.  1.
         -3    1    6    6    0  502 -0.34788361955E+02 -0.48831651781E+02 -0.68084383114E+02  0.90720689852E+02  0.00000000000E+00 0.  1.
<mgrwt>
<rscale>  0 0.18020946E+04</rscale>
<asrwt>0</asrwt>
<pdfrwt beam="1">  1        1 0.20370730E+00 0.18020946E+04</pdfrwt>
<pdfrwt beam="2">  1       -1 0.94332618E-01 0.18020946E+04</pdfrwt>
<totfact> 0.89234922E+00</totfact>
</mgrwt>
</event>
<event>
12    1  0.1495204E-007  0.1569670E+04  0.7818608E-02  0.8839400E-01
         -2   -1    0    0    0  501 -0.00000000000E+00  0.00000000000E+00  0.56303715839E+03  0.56303715839E+03  0.00000000000E+00 0.  1.
          2   -1    0    0  501    0  0.00000000000E+00 -0.00000000000E+00 -0.10940061969E+04  0.10940061969E+04  0.00000000000E+00 0. -1.
         23    2    1    2    0    0 -0.36228074735E+03  0.20388533955E+01 -0.58279373037E+03  0.69212491018E+03  0.90204558129E+02 0.  0.
        254    2    1    2    0    0  0.36228074735E+03 -0.20388533955E+01  0.51824691896E+02  0.96491844507E+03  0.89282154439E+03 0.  0.
        -24    2    4    4    0    0  0.85808213088E+02  0.97012497240E+02  0.44375631258E+03  0.46900938476E+03  0.79219088468E+02 0.  0.
         24    2    4    4    0    0  0.27647253426E+03 -0.99051350635E+02 -0.39193162069E+03  0.49590906032E+03  0.77892031328E+02 0.  0.
         11    1    3    3    0    0 -0.10615123477E+03  0.30523276481E+02 -0.23088282138E+03  0.25594263470E+03  0.00000000000E+00 0. -1.
        -11    1    3    3    0    0 -0.25612951258E+03 -0.28484423086E+02 -0.35191090900E+03  0.43618227548E+03  0.00000000000E+00 0.  1.
          4    1    6    6  502    0  0.51942882416E+02 -0.19939087998E+02 -0.13302549108E+03  0.14419227282E+03  0.00000000000E+00 0. -1.
          3    1    5    5  503    0  0.93962251507E+02  0.86475050682E+02  0.32001054993E+03  0.34454838726E+03  0.00000000000E+00 0. -1.
         -4    1    5    5    0  503 -0.81540384182E+01  0.10537446558E+02  0.12374576265E+03  0.12446099749E+03  0.00000000000E+00 0.  1.
         -3    1    6    6    0  502  0.22452965185E+03 -0.79112262638E+02 -0.25890612961E+03  0.35171678749E+03  0.00000000000E+00 0.  1.
<mgrwt>
<rscale>  0 0.15696702E+04</rscale>
<asrwt>0</asrwt>
<pdfrwt beam="1">  1        2 0.16830864E+00 0.15696702E+04</pdfrwt>
<pdfrwt beam="2">  1       -2 0.86621102E-01 0.15696702E+04</pdfrwt>
<totfact> 0.24376726E+01</totfact>
</mgrwt>
</event>
<event>
12    1  0.1495204E-007  0.1516112E+04  0.7818608E-02  0.8873809E-01
         -2   -1    0    0    0  501 -0.00000000000E+00  0.00000000000E+00  0.11113861382E+04  0.11113861382E+04  0.00000000000E+00 0. -1.
          2   -1    0    0  501    0  0.00000000000E+00 -0.00000000000E+00 -0.51705592827E+03  0.51705592827E+03  0.00000000000E+00 0.  1.
         23    2    1    2    0    0  0.13360032896E+03 -0.43447300695E+03  0.16990841672E+02  0.46376864817E+03  0.90425818530E+02 0.  0.
        254    2    1    2    0    0 -0.13360032896E+03  0.43447300695E+03  0.57733936823E+03  0.11646734183E+04  0.90361915843E+03 0.  0.
        -24    2    4    4    0    0  0.59823476456E+02 -0.13140826934E+03  0.53435517378E+03  0.55909787847E+03  0.78790890197E+02 0.  0.
         24    2    4    4    0    0 -0.19342380542E+03  0.56588127629E+03  0.42984194451E+02  0.60557553982E+03  0.85086462471E+02 0.  0.
         11    1    3    3    0    0  0.38813054488E+02 -0.14334045171E+03 -0.36584012228E+02  0.15294223827E+03  0.00000000000E+00 0. -1.
        -11    1    3    3    0    0  0.94787274473E+02 -0.29113255523E+03  0.53574853900E+02  0.31082640990E+03  0.00000000000E+00 0.  1.
          4    1    6    6  502    0 -0.14127851828E+03  0.29303252048E+03  0.62624637861E+01  0.32537193523E+03  0.00000000000E+00 0. -1.
          1    1    5    5  503    0  0.44935949858E+02 -0.20451352410E+02  0.11703445897E+03  0.12702189572E+03  0.00000000000E+00 0. -1.
         -2    1    5    5    0  503  0.14887526597E+02 -0.11095691693E+03  0.41732071481E+03  0.43207598275E+03  0.00000000000E+00 0.  1.
         -3    1    6    6    0  502 -0.52145287134E+02  0.27284875581E+03  0.36721730665E+02  0.28020360458E+03  0.00000000000E+00 0.  1.
<mgrwt>
<rscale>  0 0.15161119E+04</rscale>
<asrwt>0</asrwt>
<pdfrwt beam="1">  1        2 0.79547066E-01 0.15161119E+04</pdfrwt>
<pdfrwt beam="2">  1       -2 0.17098248E+00 0.15161119E+04</pdfrwt>
<totfact> 0.11972026E+01</totfact>
</mgrwt>
</event>
<event>
12    1  0.1495204E-007  0.3219328E+04  0.7818608E-02  0.8183731E-01
          1   -1    0    0  501    0  0.00000000000E+00  0.00000000000E+00  0.18383643684E+04  0.18383643684E+04  0.00000000000E+00 0. -1.
         -1   -1    0    0    0  501 -0.00000000000E+00 -0.00000000000E+00 -0.14094151305E+04  0.14094151305E+04  0.00000000000E+00 0.  1.
         23    2    1    2    0    0  0.97786030630E+03  0.36943475300E+03  0.12619754641E+04  0.16404694410E+04  0.76583938347E+02 0.  0.
        254    2    1    2    0    0 -0.97786030630E+03 -0.36943475300E+03 -0.83302622624E+03  0.16073100578E+04  0.89264781018E+03 0.  0.
        -24    2    4    4    0    0 -0.79325035450E+03 -0.38258645468E+03 -0.15201282637E+03  0.89741989654E+03  0.81461961076E+02 0.  0.
         24    2    4    4    0    0 -0.18460995181E+03  0.13151701686E+02 -0.68101339987E+03  0.70989016129E+03  0.76882954741E+02 0.  0.
         13    1    3    3    0    0  0.67875373410E+03  0.24224622438E+03  0.81717442922E+03  0.10895705175E+04  0.00000000000E+00 0.  1.
        -13    1    3    3    0    0  0.29910657220E+03  0.12718852862E+03  0.44480103490E+03  0.55089892357E+03  0.00000000000E+00 0. -1.
          2    1    6    6  502    0 -0.37018641512E+02 -0.25373524450E+02 -0.10876068313E+03  0.11765662649E+03  0.00000000000E+00 0. -1.
          1    1    5    5  503    0 -0.15041785295E+02 -0.18444802546E+02 -0.12801429451E+02  0.27024852300E+02  0.00000000000E+00 0. -1.
         -2    1    5    5    0  503 -0.77820856920E+03 -0.36414165214E+03 -0.13921139692E+03  0.87039504424E+03  0.00000000000E+00 0.  1.
         -1    1    6    6    0  502 -0.14759131030E+03  0.38525226136E+02 -0.57225271674E+03  0.59223353480E+03  0.00000000000E+00 0.  1.
<mgrwt>
<rscale>  0 0.32193282E+04</rscale>
<asrwt>0</asrwt>
<pdfrwt beam="1">  1        1 0.28282529E+00 0.32193282E+04</pdfrwt>
<pdfrwt beam="2">  1       -1 0.21683310E+00 0.32193282E+04</pdfrwt>
<totfact> 0.37040428E-01</totfact>
</mgrwt>
</event>
<event>
12    1  0.1495204E-007  0.2610379E+04  0.7818608E-02  0.8364684E-01
         -2   -1    0    0    0  501 -0.00000000000E+00  0.00000000000E+00  0.17654296013E+04  0.17654296013E+04  0.00000000000E+00 0. -1.
          2   -1    0    0  501    0  0.00000000000E+00 -0.00000000000E+00 -0.96493243178E+03  0.96493243178E+03  0.00000000000E+00 0.  1.
         23    2    1    2    0    0 -0.87404655433E+03 -0.73715404202E+03  0.28116454659E+03  0.11809495757E+04  0.90746555084E+02 0.  0.
        254    2    1    2    0    0  0.87404655433E+03  0.73715404202E+03  0.51933262291E+03  0.15494124574E+04  0.90753464344E+03 0.  0.
        -24    2    4    4    0    0  0.88771054627E+03  0.22084582703E+03  0.20836642391E+03  0.94147093191E+03  0.78409538657E+02 0.  0.
         24    2    4    4    0    0 -0.13663991941E+02  0.51630821499E+03  0.31096619900E+03  0.60794152546E+03  0.78307368184E+02 0.  0.
         13    1    3    3    0    0 -0.26062563425E+03 -0.27159249158E+03  0.76144734092E+02  0.38403935116E+03  0.00000000000E+00 0. -1.
        -13    1    3    3    0    0 -0.61342092008E+03 -0.46556155044E+03  0.20501981250E+03  0.79691022453E+03  0.00000000000E+00 0.  1.
          4    1    6    6  502    0 -0.33001499409E+02  0.36997112817E+03  0.19065836634E+03  0.41751448753E+03  0.00000000000E+00 0. -1.
          3    1    5    5  503    0  0.71534300370E+03  0.17113289044E+03  0.19832357054E+03  0.76179676933E+03  0.00000000000E+00 0. -1.
         -4    1    5    5    0  503  0.17236754257E+03  0.49712936590E+02  0.10042853369E+02  0.17967416258E+03  0.00000000000E+00 0.  1.
         -3    1    6    6    0  502  0.19337507468E+02  0.14633708683E+03  0.12030783266E+03  0.19042703793E+03  0.00000000000E+00 0.  1.
<mgrwt>
<rscale>  0 0.26103795E+04</rscale>
<asrwt>0</asrwt>
<pdfrwt beam="1">  1        2 0.14845114E+00 0.26103795E+04</pdfrwt>
<pdfrwt beam="2">  1       -2 0.27160455E+00 0.26103795E+04</pdfrwt>
<totfact> 0.11115870E+00</totfact>
</mgrwt>
</event>
<event>
12    1  0.1495204E-007  0.1445313E+04  0.7818608E-02  0.8921656E-01
          2   -1    0    0  501    0  0.00000000000E+00  0.00000000000E+00  0.36618529925E+03  0.36618529925E+03  0.00000000000E+00 0. -1.
         -2   -1    0    0    0  501 -0.00000000000E+00 -0.00000000000E+00 -0.14261427657E+04  0.14261427657E+04  0.00000000000E+00 0.  1.
         23    2    1    2    0    0  0.55140800092E+02 -0.19138265516E+03 -0.75966512633E+03  0.78973892527E+03  0.83238436994E+02 0.  0.
        254    2    1    2    0    0 -0.55140800092E+02  0.19138265516E+03 -0.30029234008E+03  0.10025891396E+04  0.93559695644E+03 0.  0.
        -24    2    4    4    0    0 -0.42010316388E+03  0.30837797183E+03 -0.33017296578E+02  0.52827470220E+03  0.80002358060E+02 0.  0.
         24    2    4    4    0    0  0.36496236379E+03 -0.11699531667E+03 -0.26727504350E+03  0.47431443745E+03  0.81564732477E+02 0.  0.
         11    1    3    3    0    0  0.83907929462E+01 -0.38034812698E+02 -0.57128345177E+02  0.69142607746E+02  0.00000000000E+00 0. -1.
        -11    1    3    3    0    0  0.46750007146E+02 -0.15334784246E+03 -0.70253678116E+03  0.72059631753E+03  0.00000000000E+00 0.  1.
          2    1    6    6  502    0  0.22016531250E+01  0.34327933688E+01 -0.16896138984E+02  0.17381336524E+02  0.00000000000E+00 0. -1.
          1    1    5    5  503    0 -0.24704678718E+03  0.14714425293E+03  0.10679127687E+02  0.28774570369E+03  0.00000000000E+00 0. -1.
         -2    1    5    5    0  503 -0.17305637671E+03  0.16123371890E+03 -0.43696424265E+02  0.24052899851E+03  0.00000000000E+00 0.  1.
         -1    1    6    6    0  502  0.36276071067E+03 -0.12042811004E+03 -0.25037890452E+03  0.45693310092E+03  0.00000000000E+00 0.  1.
<mgrwt>
<rscale>  0 0.14453131E+04</rscale>
<asrwt>0</asrwt>
<pdfrwt beam="1">  1        2 0.56336200E-01 0.14453131E+04</pdfrwt>
<pdfrwt beam="2">  1       -2 0.21940658E+00 0.14453131E+04</pdfrwt>
<totfact> 0.84909043E+00</totfact>
</mgrwt>
</event>
<event>
12    1  0.1495204E-007  0.2084190E+04  0.7818608E-02  0.8568240E-01
         -1   -1    0    0    0  501 -0.00000000000E+00  0.00000000000E+00  0.12243445355E+04  0.12243445355E+04  0.00000000000E+00 0.  1.
          1   -1    0    0  501    0  0.00000000000E+00 -0.00000000000E+00 -0.88697460030E+03  0.88697460030E+03  0.00000000000E+00 0. -1.
         23    2    1    2    0    0  0.82366855491E+03  0.36022103114E+01 -0.60015010528E+02  0.83109485396E+03  0.93134260700E+02 0.  0.
        254    2    1    2    0    0 -0.82366855491E+03 -0.36022103114E+01  0.39738494573E+03  0.12802242818E+04  0.89588869424E+03 0.  0.
        -24    2    4    4    0    0 -0.82131551305E+03 -0.15717505344E+03  0.58549189444E+03  0.10239288110E+04  0.79788985575E+02 0.  0.
         24    2    4    4    0    0 -0.23530418588E+01  0.15357284313E+03 -0.18810694871E+03  0.25629547080E+03  0.81932833763E+02 0.  0.
         13    1    3    3    0    0  0.17696134449E+03 -0.37227175622E+02 -0.18312613024E+02  0.18175954403E+03  0.00000000000E+00 0.  1.
        -13    1    3    3    0    0  0.64670721042E+03  0.40829385933E+02 -0.41702397503E+02  0.64933530993E+03  0.00000000000E+00 0. -1.
          4    1    6    6  502    0  0.45409975699E+01  0.61272881990E+02 -0.13796830910E+03  0.15103059638E+03  0.00000000000E+00 0. -1.
          3    1    5    5  503    0 -0.54203237025E+03 -0.65940053670E+02  0.39077382509E+03  0.67145466225E+03  0.00000000000E+00 0. -1.
         -4    1    5    5    0  503 -0.27928314280E+03 -0.91234999769E+02  0.19471806934E+03  0.35247414879E+03  0.00000000000E+00 0.  1.
         -3    1    6    6    0  502 -0.68940394287E+01  0.92299961137E+02 -0.50138639610E+02  0.10526487442E+03  0.00000000000E+00 0.  1.
<mgrwt>
<rscale>  0 0.20841905E+04</rscale>
<asrwt>0</asrwt>
<pdfrwt beam="1">  1        1 0.13645763E+00 0.20841905E+04</pdfrwt>
<pdfrwt beam="2">  1       -1 0.18836070E+00 0.20841905E+04</pdfrwt>
<totfact> 0.31168082E+00</totfact>
</mgrwt>
</event>
<event>
12    1  0.1495204E-007  0.1895346E+04  0.7818608E-02  0.8657177E-01
          1   -1    0    0  501    0  0.00000000000E+00  0.00000000000E+00  0.81499113815E+03  0.81499113815E+03  0.00000000000E+00 0. -1.
         -1   -1    0    0    0  501 -0.00000000000E+00 -0.00000000000E+00 -0.11019551447E+04  0.11019551447E+04  0.00000000000E+00 0.  1.
         23    2    1    2    0    0 -0.22963080816E+03  0.52496325275E+03  0.34858114077E+03  0.67663259898E+03  0.89477022259E+02 0.  0.
        254    2    1    2    0    0  0.22963080816E+03 -0.52496325275E+03 -0.63554514729E+03  0.12403136838E+04  0.89785504136E+03 0.  0.
        -24    2    4    4    0    0  0.55631421862E+03 -0.22316736024E+03 -0.28804279510E+03  0.66987502492E+03  0.80465624212E+02 0.  0.
         24    2    4    4    0    0 -0.32668341047E+03 -0.30179589251E+03 -0.34750235220E+03  0.57043865893E+03  0.82701677170E+02 0.  0.
         11    1    3    3    0    0 -0.22108309877E+03  0.52575720951E+03  0.33789870390E+03  0.66292828723E+03  0.00000000000E+00 0. -1.
        -11    1    3    3    0    0 -0.85477093831E+01 -0.79395676050E+00  0.10682436872E+02  0.13704311751E+02  0.00000000000E+00 0.  1.
          2    1    6    6  502    0 -0.22378185442E+02  0.18792268134E+01 -0.18080036329E+02  0.28830580825E+02  0.00000000000E+00 0. -1.
          3    1    5    5  503    0  0.27442803456E+02 -0.30412058175E+02 -0.29235935743E+02  0.50326341838E+02  0.00000000000E+00 0. -1.
         -4    1    5    5    0  503  0.52887141517E+03 -0.19275530206E+03 -0.25880685935E+03  0.61954868308E+03  0.00000000000E+00 0.  1.
         -1    1    6    6    0  502 -0.30430522503E+03 -0.30367511933E+03 -0.32942231587E+03  0.54160807811E+03  0.00000000000E+00 0.  1.
<mgrwt>
<rscale>  0 0.18953455E+04</rscale>
<asrwt>0</asrwt>
<pdfrwt beam="1">  1        1 0.12538325E+00 0.18953455E+04</pdfrwt>
<pdfrwt beam="2">  1       -1 0.16953156E+00 0.18953455E+04</pdfrwt>
<totfact> 0.49809604E+00</totfact>
</mgrwt>
</event>
<event>
12    1  0.1495204E-007  0.1870914E+04  0.7818608E-02  0.8669471E-01
          2   -1    0    0  501    0  0.00000000000E+00  0.00000000000E+00  0.76635916530E+03  0.76635916530E+03  0.00000000000E+00 0. -1.
         -2   -1    0    0    0  501 -0.00000000000E+00 -0.00000000000E+00 -0.11418666644E+04  0.11418666644E+04  0.00000000000E+00 0.  1.
         23    2    1    2    0    0 -0.47454909856E+03  0.40974505676E+03  0.18971895845E+03  0.66142450756E+03  0.91658264890E+02 0.  0.
        254    2    1    2    0    0  0.47454909856E+03 -0.40974505676E+03 -0.56522645758E+03  0.12468013222E+04  0.91757546292E+03 0.  0.
        -24    2    4    4    0    0  0.34883903355E+01  0.26956000233E+03 -0.13491538807E+03  0.31151527994E+03  0.78516520383E+02 0.  0.
         24    2    4    4    0    0  0.47106070822E+03 -0.67930505909E+03 -0.43031106951E+03  0.93528604224E+03  0.78986138799E+02 0.  0.
         11    1    3    3    0    0 -0.40283457018E+03  0.35783010919E+03  0.12890569726E+03  0.55401692823E+03  0.00000000000E+00 0. -1.
        -11    1    3    3    0    0 -0.71714528382E+02  0.51914947566E+02  0.60813261187E+02  0.10740757933E+03  0.00000000000E+00 0.  1.
          4    1    6    6  502    0  0.38245951475E+03 -0.59946075982E+03 -0.36416719889E+03  0.79890314290E+03  0.00000000000E+00 0. -1.
          1    1    5    5  503    0 -0.12498053990E+01  0.26592032204E+03 -0.11323778563E+03  0.28902936838E+03  0.00000000000E+00 0. -1.
         -2    1    5    5    0  503  0.47381957345E+01  0.36396802904E+01 -0.21677602437E+02  0.22485911564E+02  0.00000000000E+00 0.  1.
         -3    1    6    6    0  502  0.88601193475E+02 -0.79844299267E+02 -0.66143870624E+02  0.13638289934E+03  0.00000000000E+00 0.  1.
<mgrwt>
<rscale>  0 0.18709142E+04</rscale>
<asrwt>0</asrwt>
<pdfrwt beam="1">  1        2 0.11790141E+00 0.18709142E+04</pdfrwt>
<pdfrwt beam="2">  1       -2 0.17567179E+00 0.18709142E+04</pdfrwt>
<totfact> 0.66481046E+00</totfact>
</mgrwt>
</event>
<event>
12    1  0.1495204E-007  0.2928081E+04  0.7818608E-02  0.8264571E-01
          1   -1    0    0  501    0  0.00000000000E+00  0.00000000000E+00  0.24152720091E+04  0.24152720091E+04  0.00000000000E+00 0. -1.
         -1   -1    0    0    0  501 -0.00000000000E+00 -0.00000000000E+00 -0.88744214054E+03  0.88744214054E+03  0.00000000000E+00 0.  1.
         23    2    1    2    0    0 -0.73625312682E+02 -0.89974484791E+03 -0.40707210565E+03  0.99480114604E+03  0.94658031668E+02 0.  0.
        254    2    1    2    0    0  0.73625312682E+02  0.89974484791E+03  0.19349019742E+04  0.23079130036E+04  0.87615940579E+03 0.  0.
        -24    2    4    4    0    0 -0.19292203838E+02  0.10345248366E+04  0.14036501899E+04  0.17460863770E+04  0.89274597974E+02 0.  0.
         24    2    4    4    0    0  0.92917516520E+02 -0.13477998869E+03  0.53125178431E+03  0.56182662654E+03  0.81371922260E+02 0.  0.
         11    1    3    3    0    0  0.36217938700E+01 -0.52239767915E+03 -0.24224507213E+03  0.57584297125E+03  0.00000000000E+00 0.  1.
        -11    1    3    3    0    0 -0.77247106552E+02 -0.37734716876E+03 -0.16482703352E+03  0.41895817479E+03  0.00000000000E+00 0. -1.
          4    1    6    6  502    0  0.16177404558E+02 -0.26796866461E+01  0.15317517687E+03  0.15405039419E+03  0.00000000000E+00 0. -1.
          3    1    5    5  503    0  0.23593426454E+02  0.32791941021E+03  0.49490909686E+03  0.59415722121E+03  0.00000000000E+00 0. -1.
         -4    1    5    5    0  503 -0.42885630292E+02  0.70660542639E+03  0.90874109302E+03  0.11519291558E+04  0.00000000000E+00 0.  1.
         -3    1    6    6    0  502  0.76740111962E+02 -0.13210030204E+03  0.37807660743E+03  0.40777623235E+03  0.00000000000E+00 0.  1.
<mgrwt>
<rscale>  0 0.29280807E+04</rscale>
<asrwt>0</asrwt>
<pdfrwt beam="1">  1        1 0.37158031E+00 0.29280807E+04</pdfrwt>
<pdfrwt beam="2">  1       -1 0.13652956E+00 0.29280807E+04</pdfrwt>
<totfact> 0.59395717E-01</totfact>
</mgrwt>
</event>
<event>
12    1  0.1495204E-007  0.1271086E+04  0.7818608E-02  0.9052813E-01
         -2   -1    0    0    0  501 -0.00000000000E+00  0.00000000000E+00  0.37692990518E+03  0.37692990518E+03  0.00000000000E+00 0. -1.
          2   -1    0    0  501    0  0.00000000000E+00 -0.00000000000E+00 -0.10715922947E+04  0.10715922947E+04  0.00000000000E+00 0.  1.
         23    2    1    2    0    0 -0.24935281030E+03 -0.52716614467E+02  0.16015484062E+02  0.27345814470E+03  0.97811020485E+02 0.  0.
        254    2    1    2    0    0  0.24935281030E+03  0.52716614467E+02 -0.71067787356E+03  0.11750640552E+04  0.90042025095E+03 0.  0.
        -24    2    4    4    0    0 -0.28169828552E+03 -0.45544666816E+02 -0.23023005189E+02  0.29722071948E+03  0.79886523157E+02 0.  0.
         24    2    4    4    0    0  0.53105109582E+03  0.98261281283E+02 -0.68765486838E+03  0.87784333569E+03  0.77904802411E+02 0.  0.
         13    1    3    3    0    0 -0.84120571205E+02 -0.26135853757E+02  0.51980630414E+02  0.10228068874E+03  0.00000000000E+00 0. -1.
        -13    1    3    3    0    0 -0.16523223910E+03 -0.26580760711E+02 -0.35965146352E+02  0.17117745596E+03  0.00000000000E+00 0.  1.
          2    1    6    6  502    0  0.38074859829E+03  0.89059702814E+02 -0.44632004442E+03  0.59338242965E+03  0.00000000000E+00 0. -1.
          1    1    5    5  503    0 -0.26823370493E+03 -0.61728631003E+02 -0.20296177837E+02  0.27599217232E+03  0.00000000000E+00 0. -1.
         -2    1    5    5    0  503 -0.13464580584E+02  0.16183964187E+02 -0.27268273521E+01  0.21228547160E+02  0.00000000000E+00 0.  1.
         -1    1    6    6    0  502  0.15030249753E+03  0.92015784690E+01 -0.24133482396E+03  0.28446090604E+03  0.00000000000E+00 0.  1.
<mgrwt>
<rscale>  0 0.12710864E+04</rscale>
<asrwt>0</asrwt>
<pdfrwt beam="1">  1        2 0.16486035E+00 0.12710864E+04</pdfrwt>
<pdfrwt beam="2">  1       -2 0.57989216E-01 0.12710864E+04</pdfrwt>
<totfact> 0.62018576E+01</totfact>
</mgrwt>
</event>
<event>
12    1  0.1495204E-007  0.2315991E+04  0.7818608E-02  0.8471643E-01
         -2   -1    0    0    0  501 -0.00000000000E+00  0.00000000000E+00  0.16004883751E+04  0.16004883751E+04  0.00000000000E+00 0.  1.
          2   -1    0    0  501    0  0.00000000000E+00 -0.00000000000E+00 -0.83784007539E+03  0.83784007539E+03  0.00000000000E+00 0. -1.
         23    2    1    2    0    0  0.44830168241E+03 -0.10886185031E+02 -0.59381743230E+03  0.74994527164E+03  0.93305198549E+02 0.  0.
        254    2    1    2    0    0 -0.44830168241E+03  0.10886185031E+02  0.13564657321E+04  0.16883831789E+04  0.89974750295E+03 0.  0.
        -24    2    4    4    0    0 -0.85132316288E+02 -0.10650308011E+03 -0.95832451084E+02  0.18463618557E+03  0.79474807287E+02 0.  0.
         24    2    4    4    0    0 -0.36316936612E+03  0.11738926514E+03  0.14522981831E+04  0.15037469933E+04  0.80079829677E+02 0.  0.
         13    1    3    3    0    0  0.20269397859E+03  0.29571303412E+02 -0.31951124936E+03  0.37953491198E+03  0.00000000000E+00 0. -1.
        -13    1    3    3    0    0  0.24560770381E+03 -0.40457488444E+02 -0.27430618294E+03  0.37041035966E+03  0.00000000000E+00 0.  1.
          4    1    6    6  502    0 -0.10218661449E+02  0.15896549791E+02  0.36624448401E+02  0.41212517003E+02  0.00000000000E+00 0. -1.
          3    1    5    5  503    0 -0.33854331048E+02 -0.55605627186E+02 -0.60601121806E+00  0.65103523369E+02  0.00000000000E+00 0. -1.
         -4    1    5    5    0  503 -0.51277985240E+02 -0.50897452924E+02 -0.95226439866E+02  0.11953266221E+03  0.00000000000E+00 0.  1.
         -3    1    6    6    0  502 -0.35295070467E+03  0.10149271535E+03  0.14156737347E+04  0.14625344763E+04  0.00000000000E+00 0.  1.
<mgrwt>
<rscale>  0 0.23159908E+04</rscale>
<asrwt>0</asrwt>
<pdfrwt beam="1">  1        2 0.12889847E+00 0.23159908E+04</pdfrwt>
<pdfrwt beam="2">  1       -2 0.24622898E+00 0.23159908E+04</pdfrwt>
<totfact> 0.19864624E+00</totfact>
</mgrwt>
</event>
<event>
12    1  0.1495204E-007  0.1701126E+04  0.7818608E-02  0.8760723E-01
         -2   -1    0    0    0  501 -0.00000000000E+00  0.00000000000E+00  0.28346790559E+03  0.28346790559E+03  0.00000000000E+00 0.  1.
          2   -1    0    0  501    0  0.00000000000E+00 -0.00000000000E+00 -0.25521658439E+04  0.25521658439E+04  0.00000000000E+00 0. -1.
         23    2    1    2    0    0  0.89196383684E+02  0.26136577230E+02 -0.18215995699E+04  0.18264125529E+04  0.94438895218E+02 0.  0.
        254    2    1    2    0    0 -0.89196383684E+02 -0.26136577230E+02 -0.44709836837E+03  0.10092211965E+04  0.89999519829E+03 0.  0.
        -24    2    4    4    0    0  0.30096048746E+03 -0.29118179366E+03 -0.19482102075E+03  0.46867363593E+03  0.79597078528E+02 0.  0.
         24    2    4    4    0    0 -0.39015687115E+03  0.26504521643E+03 -0.25227734762E+03  0.54054756058E+03  0.77951614931E+02 0.  0.
         11    1    3    3    0    0  0.34678540610E+02 -0.58079123892E+01 -0.16967506442E+03  0.17328000610E+03  0.00000000000E+00 0.  1.
        -11    1    3    3    0    0  0.54517843074E+02  0.31944489619E+02 -0.16519245055E+04  0.16531325468E+04  0.00000000000E+00 0. -1.
          2    1    6    6  502    0 -0.38094044467E+03  0.23925109094E+03 -0.22993451005E+03  0.50519955049E+03  0.00000000000E+00 0. -1.
          1    1    5    5  503    0  0.14046046203E+03 -0.13494526557E+03 -0.13450251615E+03  0.23670718819E+03  0.00000000000E+00 0. -1.
         -2    1    5    5    0  503  0.16050002543E+03 -0.15623652810E+03 -0.60318504602E+02  0.23196644773E+03  0.00000000000E+00 0.  1.
         -1    1    6    6    0  502 -0.92164264810E+01  0.25794125495E+02 -0.22342837569E+02  0.35348010096E+02  0.00000000000E+00 0.  1.
<mgrwt>
<rscale>  0 0.17011256E+04</rscale>
<asrwt>0</asrwt>
<pdfrwt beam="1">  1        2 0.39264090E+00 0.17011256E+04</pdfrwt>
<pdfrwt beam="2">  1       -2 0.43610447E-01 0.17011256E+04</pdfrwt>
<totfact> 0.15428139E+01</totfact>
</mgrwt>
</event>
<event>
12    1  0.1495204E-007  0.2530288E+04  0.7818608E-02  0.8392274E-01
         -1   -1    0    0    0  501 -0.00000000000E+00  0.00000000000E+00  0.10020859875E+04  0.10020859875E+04  0.00000000000E+00 0.  1.
          1   -1    0    0  501    0  0.00000000000E+00 -0.00000000000E+00 -0.15972571713E+04  0.15972571713E+04  0.00000000000E+00 0. -1.
         23    2    1    2    0    0 -0.30666312345E+03  0.10499513842E+04 -0.37476318389E+03  0.11597024014E+04  0.89565815369E+02 0.  0.
        254    2    1    2    0    0  0.30666312345E+03 -0.10499513842E+04 -0.22040799991E+03  0.14396407573E+04  0.90969535732E+03 0.  0.
        -24    2    4    4    0    0  0.35448812293E+03 -0.80592727278E+03 -0.53320620243E+03  0.10325033199E+04  0.81078066779E+02 0.  0.
         24    2    4    4    0    0 -0.47824999480E+02 -0.24402411145E+03  0.31279820253E+03  0.40713743744E+03  0.77994742875E+02 0.  0.
         11    1    3    3    0    0 -0.28806931809E+03  0.10221450147E+04 -0.35024567980E+03  0.11182291354E+04  0.00000000000E+00 0.  1.
        -11    1    3    3    0    0 -0.18593805366E+02  0.27806369572E+02 -0.24517504096E+02  0.41473266014E+02  0.00000000000E+00 0. -1.
          2    1    6    6  502    0 -0.41119335560E+02 -0.22803871823E+03  0.24525618383E+03  0.33740636105E+03  0.00000000000E+00 0. -1.
          1    1    5    5  503    0  0.23473608472E+03 -0.44930254100E+03 -0.33084064499E+03  0.60533406909E+03  0.00000000000E+00 0. -1.
         -4    1    5    5    0  503  0.11975203821E+03 -0.35662473178E+03 -0.20236555744E+03  0.42716925078E+03  0.00000000000E+00 0.  1.
         -1    1    6    6    0  502 -0.67056639200E+01 -0.15985393219E+02  0.67542018693E+02  0.69731076388E+02  0.00000000000E+00 0.  1.
<mgrwt>
<rscale>  0 0.25302878E+04</rscale>
<asrwt>0</asrwt>
<pdfrwt beam="1">  1        1 0.24573187E+00 0.25302878E+04</pdfrwt>
<pdfrwt beam="2">  1       -1 0.15416707E+00 0.25302878E+04</pdfrwt>
<totfact> 0.16083508E+00</totfact>
</mgrwt>
</event>
<event>
12    1  0.1495204E-007  0.2411346E+04  0.7818608E-02  0.8435268E-01
          2   -1    0    0  501    0  0.00000000000E+00  0.00000000000E+00  0.27397242255E+04  0.27397242255E+04  0.00000000000E+00 0. -1.
         -2   -1    0    0    0  501 -0.00000000000E+00 -0.00000000000E+00 -0.53058156399E+03  0.53058156399E+03  0.00000000000E+00 0.  1.
         23    2    1    2    0    0 -0.54335652351E+03 -0.51414728473E+03 -0.18456569104E+02  0.75367531853E+03  0.90011659144E+02 0.  0.
        254    2    1    2    0    0  0.54335652351E+03  0.51414728473E+03  0.22275992306E+04  0.25166304709E+04  0.90091445378E+03 0.  0.
        -24    2    4    4    0    0  0.72030271199E+02 -0.17818098173E+03  0.97764064344E+02  0.22673116316E+03  0.70088414524E+02 0.  0.
         24    2    4    4    0    0  0.47132625231E+03  0.69232826646E+03  0.21298351663E+04  0.22898993078E+04  0.77292558959E+02 0.  0.
         11    1    3    3    0    0 -0.19651486096E+03 -0.13883759466E+03 -0.30241775174E+02  0.24250470765E+03  0.00000000000E+00 0. -1.
        -11    1    3    3    0    0 -0.34684166256E+03 -0.37530969007E+03  0.11785206069E+02  0.51117061088E+03  0.00000000000E+00 0.  1.
          2    1    6    6  502    0  0.38607343444E+03  0.55015970292E+03  0.17834265319E+04  0.19058695103E+04  0.00000000000E+00 0. -1.
          1    1    5    5  503    0  0.80869757323E+02 -0.17744560109E+03  0.97083828904E+02  0.21783509549E+03  0.00000000000E+00 0. -1.
         -2    1    5    5    0  503 -0.88394861244E+01 -0.73538064548E+00  0.68023543937E+00  0.88960676645E+01  0.00000000000E+00 0.  1.
         -1    1    6    6    0  502  0.85252817876E+02  0.14216856355E+03  0.34640863436E+03  0.38402979751E+03  0.00000000000E+00 0.  1.
<mgrwt>
<rscale>  0 0.24113458E+04</rscale>
<asrwt>0</asrwt>
<pdfrwt beam="1">  1        2 0.42149603E+00 0.24113458E+04</pdfrwt>
<pdfrwt beam="2">  1       -2 0.81627934E-01 0.24113458E+04</pdfrwt>
<totfact> 0.29836281E+00</totfact>
</mgrwt>
</event>
<event>
12    1  0.1495204E-007  0.4275048E+04  0.7818608E-02  0.7951248E-01
          2   -1    0    0  501    0  0.00000000000E+00  0.00000000000E+00  0.13812576585E+04  0.13812576585E+04  0.00000000000E+00 0.  1.
         -2   -1    0    0    0  501 -0.00000000000E+00 -0.00000000000E+00 -0.33078609791E+04  0.33078609791E+04  0.00000000000E+00 0. -1.
         23    2    1    2    0    0  0.30991388136E+03  0.19586248458E+04 -0.38784123414E+03  0.20228545401E+04  0.96238074499E+02 0.  0.
        254    2    1    2    0    0 -0.30991388136E+03 -0.19586248458E+04 -0.15387620864E+04  0.26662640975E+04  0.89939845366E+03 0.  0.
        -24    2    4    4    0    0  0.45079618937E+02 -0.58703104298E+03 -0.30241826445E+02  0.59515184584E+03  0.81569198101E+02 0.  0.
         24    2    4    4    0    0 -0.35499350030E+03 -0.13715938028E+04 -0.15085202600E+04  0.20711122516E+04  0.81133463693E+02 0.  0.
         11    1    3    3    0    0  0.21331953611E+03  0.13848442196E+04 -0.22958227326E+03  0.14198615275E+04  0.00000000000E+00 0.  1.
        -11    1    3    3    0    0  0.96594345249E+02  0.57378062621E+03 -0.15825896089E+03  0.60299301261E+03  0.00000000000E+00 0. -1.
          4    1    6    6  502    0 -0.39435200902E+00 -0.38390367202E+02 -0.55710183286E+02  0.67657965748E+02  0.00000000000E+00 0. -1.
          1    1    5    5  503    0 -0.77948566983E+01 -0.74607440377E+01 -0.66955260295E+01  0.12698525952E+02  0.00000000000E+00 0. -1.
         -2    1    5    5    0  503  0.52874475635E+02 -0.57957029894E+03 -0.23546300416E+02  0.58245331989E+03  0.00000000000E+00 0.  1.
         -3    1    6    6    0  502 -0.35459914829E+03 -0.13332034356E+04 -0.14528100767E+04  0.20034542859E+04  0.00000000000E+00 0.  1.
<mgrwt>
<rscale>  0 0.42750477E+04</rscale>
<asrwt>0</asrwt>
<pdfrwt beam="1">  1        2 0.21250118E+00 0.42750477E+04</pdfrwt>
<pdfrwt beam="2">  1       -2 0.50890168E+00 0.42750477E+04</pdfrwt>
<totfact> 0.16699474E-02</totfact>
</mgrwt>
</event>
<event>
12    1  0.1495204E-007  0.1402420E+04  0.7818608E-02  0.8952069E-01
         -1   -1    0    0    0  501 -0.00000000000E+00  0.00000000000E+00  0.47219072818E+03  0.47219072818E+03  0.00000000000E+00 0.  1.
          1   -1    0    0  501    0  0.00000000000E+00 -0.00000000000E+00 -0.10413070839E+04  0.10413070839E+04  0.00000000000E+00 0. -1.
         23    2    1    2    0    0  0.22770468242E+03  0.29673140634E+03 -0.34366863494E+03  0.51681904866E+03  0.95366915166E+02 0.  0.
        254    2    1    2    0    0 -0.22770468242E+03 -0.29673140634E+03 -0.22544772082E+03  0.99667876345E+03  0.89590341711E+03 0.  0.
        -24    2    4    4    0    0 -0.51127962861E+03 -0.32683664079E+03  0.19482646473E+02  0.61215786178E+03  0.78285540392E+02 0.  0.
         24    2    4    4    0    0  0.28357494619E+03  0.30105234444E+02 -0.24493036730E+03  0.38452090167E+03  0.80897241913E+02 0.  0.
         11    1    3    3    0    0  0.13127152043E+03  0.21818439771E+03 -0.27486084984E+03  0.37468003717E+03  0.00000000000E+00 0. -1.
        -11    1    3    3    0    0  0.96433161984E+02  0.78547008634E+02 -0.68807785099E+02  0.14213901148E+03  0.00000000000E+00 0.  1.
          4    1    6    6  502    0  0.24304826071E+02 -0.11177148908E+02 -0.19884530386E+01  0.26825494843E+02  0.00000000000E+00 0. -1.
          1    1    5    5  503    0 -0.23653458194E+02 -0.30057186432E+02 -0.12995362947E+02  0.40395544295E+02  0.00000000000E+00 0. -1.
         -2    1    5    5    0  503 -0.48762617042E+03 -0.29677945436E+03  0.32478009420E+02  0.57176231749E+03  0.00000000000E+00 0.  1.
         -3    1    6    6    0  502  0.25927012012E+03  0.41282383353E+02 -0.24294191426E+03  0.35769540683E+03  0.00000000000E+00 0.  1.
<mgrwt>
<rscale>  0 0.14024201E+04</rscale>
<asrwt>0</asrwt>
<pdfrwt beam="1">  1        1 0.16020109E+00 0.14024201E+04</pdfrwt>
<pdfrwt beam="2">  1       -1 0.72644727E-01 0.14024201E+04</pdfrwt>
<totfact> 0.26185943E+01</totfact>
</mgrwt>
</event>
<event>
12    1  0.1495204E-007  0.2408524E+04  0.7818608E-02  0.8436319E-01
          1   -1    0    0  501    0  0.00000000000E+00  0.00000000000E+00  0.27244214661E+04  0.27244214661E+04  0.00000000000E+00 0. -1.
         -1   -1    0    0    0  501 -0.00000000000E+00 -0.00000000000E+00 -0.53231378509E+03  0.53231378509E+03  0.00000000000E+00 0.  1.
         23    2    1    2    0    0  0.17825950603E+02 -0.72224715911E+03 -0.58977876277E+02  0.73039314381E+03  0.89649491191E+02 0.  0.
        254    2    1    2    0    0 -0.17825950603E+02  0.72224715911E+03  0.22510855572E+04  0.25263421073E+04  0.89053890086E+03 0.  0.
        -24    2    4    4    0    0  0.69606571708E+02 -0.18798851562E+03  0.28785332483E+03  0.35918430975E+03  0.77259788514E+02 0.  0.
         24    2    4    4    0    0 -0.87432522311E+02  0.91023567474E+03  0.19632322324E+04  0.21671577976E+04  0.78222067067E+02 0.  0.
         13    1    3    3    0    0  0.24400394297E+02 -0.54512983969E+02  0.26889992973E+01  0.59785243834E+02  0.00000000000E+00 0. -1.
        -13    1    3    3    0    0 -0.65744436946E+01 -0.66773417515E+03 -0.61666875575E+02  0.67060789998E+03  0.00000000000E+00 0.  1.
          4    1    6    6  502    0 -0.52875770225E+01  0.20139263700E+01  0.91180855344E+01  0.10730976377E+02  0.00000000000E+00 0. -1.
          1    1    5    5  503    0  0.20457173685E+02 -0.60006872816E+01  0.10322209330E+02  0.23686540661E+02  0.00000000000E+00 0. -1.
         -2    1    5    5    0  503  0.49149398023E+02 -0.18198782834E+03  0.27753111550E+03  0.33549776909E+03  0.00000000000E+00 0.  1.
         -3    1    6    6    0  502 -0.82144945288E+02  0.90822174837E+03  0.19541141469E+04  0.21564268212E+04  0.00000000000E+00 0.  1.
<mgrwt>
<rscale>  0 0.24085241E+04</rscale>
<asrwt>0</asrwt>
<pdfrwt beam="1">  1        1 0.41914176E+00 0.24085241E+04</pdfrwt>
<pdfrwt beam="2">  1       -1 0.81894430E-01 0.24085241E+04</pdfrwt>
<totfact> 0.12528858E+00</totfact>
</mgrwt>
</event>
<event>
12    1  0.1495204E-007  0.2199748E+04  0.7818608E-02  0.8518533E-01
         -2   -1    0    0    0  501 -0.00000000000E+00  0.00000000000E+00  0.98885550175E+03  0.98885550175E+03  0.00000000000E+00 0. -1.
          2   -1    0    0  501    0  0.00000000000E+00 -0.00000000000E+00 -0.12233565248E+04  0.12233565248E+04  0.00000000000E+00 0.  1.
         23    2    1    2    0    0  0.64447884473E+03  0.19460504524E+03 -0.71456535212E+03  0.99000124118E+03  0.12757237218E+03 0.  0.
        254    2    1    2    0    0 -0.64447884473E+03 -0.19460504524E+03  0.48006432910E+03  0.12222107853E+04  0.90006296379E+03 0.  0.
        -24    2    4    4    0    0 -0.57091888074E+03  0.24311638986E+03  0.44824792226E+03  0.77004292945E+03  0.83582091279E+02 0.  0.
         24    2    4    4    0    0 -0.73559963996E+02 -0.43772143510E+03  0.31816406842E+02  0.45216785589E+03  0.80202014392E+02 0.  0.
         13    1    3    3    0    0  0.31952076177E+03  0.54443683429E+02 -0.41331147855E+03  0.52524661843E+03  0.00000000000E+00 0.  1.
        -13    1    3    3    0    0  0.32495808296E+03  0.14016136181E+03 -0.30125387357E+03  0.46475462275E+03  0.00000000000E+00 0. -1.
          4    1    6    6  502    0  0.77728888840E+01 -0.13945262901E+03  0.30716568603E+02  0.14300685692E+03  0.00000000000E+00 0. -1.
          1    1    5    5  503    0 -0.34291010382E+02  0.63552709848E+01  0.58273428981E+01  0.35358461329E+02  0.00000000000E+00 0. -1.
         -2    1    5    5    0  503 -0.53662787035E+03  0.23676111887E+03  0.44242057936E+03  0.73468446812E+03  0.00000000000E+00 0.  1.
         -3    1    6    6    0  502 -0.81332852880E+02 -0.29826880609E+03  0.10998382384E+01  0.30916099898E+03  0.00000000000E+00 0.  1.
<mgrwt>
<rscale>  0 0.21997480E+04</rscale>
<asrwt>0</asrwt>
<pdfrwt beam="1">  1        2 0.18820870E+00 0.21997480E+04</pdfrwt>
<pdfrwt beam="2">  1       -2 0.15213162E+00 0.21997480E+04</pdfrwt>
<totfact> 0.48389097E+00</totfact>
</mgrwt>
</event>
<event>
12    1  0.1495204E-007  0.1517198E+04  0.7818608E-02  0.8873096E-01
          1   -1    0    0  501    0  0.00000000000E+00  0.00000000000E+00  0.20564194897E+04  0.20564194897E+04  0.00000000000E+00 0. -1.
         -1   -1    0    0    0  501 -0.00000000000E+00 -0.00000000000E+00 -0.27984198584E+03  0.27984198584E+03  0.00000000000E+00 0.  1.
         23    2    1    2    0    0 -0.19399237014E+02 -0.29781697348E+03  0.11421608453E+02  0.31387852293E+03  0.96529756681E+02 0.  0.
        254    2    1    2    0    0  0.19399237014E+02  0.29781697348E+03  0.17651558954E+04  0.20223829526E+04  0.94084334076E+03 0.  0.
        -24    2    4    4    0    0 -0.39116687654E+03 -0.97392933154E+02  0.76074373493E+03  0.86480233376E+03  0.81579026182E+02 0.  0.
         24    2    4    4    0    0  0.41056611355E+03  0.39520990663E+03  0.10044121605E+04  0.11575806189E+04  0.79960597415E+02 0.  0.
         11    1    3    3    0    0 -0.32027456716E+02 -0.23874639669E+03 -0.26838878145E+02  0.24237558725E+03  0.00000000000E+00 0.  1.
        -11    1    3    3    0    0  0.12628219702E+02 -0.59070576794E+02  0.38260486598E+02  0.71502935677E+02  0.00000000000E+00 0. -1.
          2    1    6    6  502    0  0.11568314779E+03  0.14224834920E+03  0.26397444548E+03  0.32140269351E+03  0.00000000000E+00 0. -1.
          1    1    5    5  503    0 -0.24505259772E+03 -0.10077037123E+03  0.50191855136E+03  0.56756292653E+03  0.00000000000E+00 0. -1.
         -2    1    5    5    0  503 -0.14611427882E+03  0.33774380801E+01  0.25882518357E+03  0.29723940723E+03  0.00000000000E+00 0.  1.
         -1    1    6    6    0  502  0.29488296576E+03  0.25296155744E+03  0.74043771503E+03  0.83617792537E+03  0.00000000000E+00 0.  1.
<mgrwt>
<rscale>  0 0.15171981E+04</rscale>
<asrwt>0</asrwt>
<pdfrwt beam="1">  1        1 0.31637222E+00 0.15171981E+04</pdfrwt>
<pdfrwt beam="2">  1       -1 0.43052614E-01 0.15171981E+04</pdfrwt>
<totfact> 0.14026926E+01</totfact>
</mgrwt>
</event>
<event>
12    1  0.1495204E-007  0.1685907E+04  0.7818608E-02  0.8769443E-01
         -2   -1    0    0    0  501 -0.00000000000E+00  0.00000000000E+00  0.43837804021E+03  0.43837804021E+03  0.00000000000E+00 0.  1.
          2   -1    0    0  501    0  0.00000000000E+00 -0.00000000000E+00 -0.16209074541E+04  0.16209074541E+04  0.00000000000E+00 0. -1.
         23    2    1    2    0    0  0.59025063556E+03  0.71880053109E+01 -0.31971617179E+03  0.67752114252E+03  0.91482172310E+02 0.  0.
        254    2    1    2    0    0 -0.59025063556E+03 -0.71880053109E+01 -0.86281324214E+03  0.13817643518E+04  0.90353669156E+03 0.  0.
        -24    2    4    4    0    0 -0.37521734102E+03 -0.42025968789E+03 -0.64939500834E+03  0.86335306413E+03  0.79109912260E+02 0.  0.
         24    2    4    4    0    0 -0.21503329454E+03  0.41307168258E+03 -0.21341823379E+03  0.51841128770E+03  0.79595150534E+02 0.  0.
         13    1    3    3    0    0  0.26960285557E+03 -0.45521015146E+00 -0.19784988207E+03  0.33441064992E+03  0.00000000000E+00 0.  1.
        -13    1    3    3    0    0  0.32064778000E+03  0.76432154624E+01 -0.12186628972E+03  0.34311049260E+03  0.00000000000E+00 0. -1.
          2    1    6    6  502    0 -0.33775744486E+01  0.60108481952E+02 -0.36763408571E+02  0.70540667855E+02  0.00000000000E+00 0. -1.
          1    1    5    5  503    0 -0.98889480600E+02 -0.16563057381E+03 -0.20819741581E+03  0.28382878695E+03  0.00000000000E+00 0. -1.
         -2    1    5    5    0  503 -0.27632786042E+03 -0.25462911408E+03 -0.44119759253E+03  0.57952427718E+03  0.00000000000E+00 0.  1.
         -1    1    6    6    0  502 -0.21165572010E+03  0.35296320063E+03 -0.17665482522E+03  0.44787061985E+03  0.00000000000E+00 0.  1.
<mgrwt>
<rscale>  0 0.16859066E+04</rscale>
<asrwt>0</asrwt>
<pdfrwt beam="1">  1        2 0.24937038E+00 0.16859066E+04</pdfrwt>
<pdfrwt beam="2">  1       -2 0.67442775E-01 0.16859066E+04</pdfrwt>
<totfact> 0.20843810E+01</totfact>
</mgrwt>
</event>
<event>
12    1  0.1495204E-007  0.2431134E+04  0.7818608E-02  0.8427939E-01
         -2   -1    0    0    0  501 -0.00000000000E+00  0.00000000000E+00  0.45663094163E+03  0.45663094163E+03  0.00000000000E+00 0. -1.
          2   -1    0    0  501    0  0.00000000000E+00 -0.00000000000E+00 -0.32358809519E+04  0.32358809519E+04  0.00000000000E+00 0.  1.
         23    2    1    2    0    0  0.92008490775E+02 -0.29106888518E+03 -0.27208666642E+04  0.27394378435E+04  0.90651176181E+02 0.  0.
        254    2    1    2    0    0 -0.92008490775E+02  0.29106888518E+03 -0.58383346085E+02  0.95307405005E+03  0.90097440113E+03 0.  0.
        -24    2    4    4    0    0 -0.47903891184E+03  0.18449722061E+03  0.73059709544E+02  0.52440560164E+03  0.78396494802E+02 0.  0.
         24    2    4    4    0    0  0.38703042107E+03  0.10657166457E+03 -0.13144305563E+03  0.42866844841E+03  0.73002022370E+02 0.  0.
         11    1    3    3    0    0  0.78570831755E+02 -0.20721615201E+03 -0.15874495032E+04  0.16028436712E+04  0.00000000000E+00 0.  1.
        -11    1    3    3    0    0  0.13437659021E+02 -0.83852733169E+02 -0.11334171610E+04  0.11365941722E+04  0.00000000000E+00 0. -1.
          2    1    6    6  502    0  0.19201161273E+03  0.88099346574E+02 -0.54219382915E+02  0.21810478164E+03  0.00000000000E+00 0. -1.
          1    1    5    5  503    0 -0.17309503506E+03  0.97427384782E+02  0.53516274134E+02  0.20571333954E+03  0.00000000000E+00 0. -1.
         -2    1    5    5    0  503 -0.30594387679E+03  0.87069835828E+02  0.19543435410E+02  0.31869226210E+03  0.00000000000E+00 0.  1.
         -1    1    6    6    0  502  0.19501880834E+03  0.18472317993E+02 -0.77223672714E+02  0.21056366677E+03  0.00000000000E+00 0.  1.
<mgrwt>
<rscale>  0 0.24311342E+04</rscale>
<asrwt>0</asrwt>
<pdfrwt beam="1">  1        2 0.49782783E+00 0.24311342E+04</pdfrwt>
<pdfrwt beam="2">  1       -2 0.70250916E-01 0.24311342E+04</pdfrwt>
<totfact> 0.20339865E+00</totfact>
</mgrwt>
</event>
<event>
12    1  0.1495204E-007  0.2008610E+04  0.7818608E-02  0.8602606E-01
         -2   -1    0    0    0  501 -0.00000000000E+00  0.00000000000E+00  0.35968610113E+03  0.35968610113E+03  0.00000000000E+00 0. -1.
          2   -1    0    0  501    0  0.00000000000E+00 -0.00000000000E+00 -0.28041922184E+04  0.28041922184E+04  0.00000000000E+00 0.  1.
         23    2    1    2    0    0 -0.39997915949E+03  0.62545013788E+03 -0.13655120659E+04  0.15570330598E+04  0.92506995371E+02 0.  0.
        254    2    1    2    0    0  0.39997915949E+03 -0.62545013788E+03 -0.10789940514E+04  0.16068452598E+04  0.93088792175E+03 0.  0.
        -24    2    4    4    0    0  0.90670001635E+02  0.15385734740E+03 -0.61543374445E+03  0.64560294703E+03  0.78430471482E+02 0.  0.
         24    2    4    4    0    0  0.30930915786E+03 -0.77930748528E+03 -0.46356030693E+03  0.96124231272E+03  0.78142906597E+02 0.  0.
         11    1    3    3    0    0 -0.42120710476E+02  0.43683111913E+02 -0.71144162054E+02  0.93508610896E+02  0.00000000000E+00 0. -1.
        -11    1    3    3    0    0 -0.35785844902E+03  0.58176702596E+03 -0.12943679038E+04  0.14635244489E+04  0.00000000000E+00 0.  1.
          2    1    6    6  502    0  0.13676160076E+03 -0.43190675129E+03 -0.27468085599E+03  0.52980821992E+03  0.00000000000E+00 0. -1.
          1    1    5    5  503    0  0.10283275722E+03  0.11644801989E+03 -0.47466317326E+03  0.49943953122E+03  0.00000000000E+00 0. -1.
         -2    1    5    5    0  503 -0.12162755582E+02  0.37409327516E+02 -0.14077057119E+03  0.14616341581E+03  0.00000000000E+00 0.  1.
         -1    1    6    6    0  502  0.17254755710E+03 -0.34740073399E+03 -0.18887945094E+03  0.43143409280E+03  0.00000000000E+00 0.  1.
<mgrwt>
<rscale>  0 0.20086104E+04</rscale>
<asrwt>0</asrwt>
<pdfrwt beam="1">  1        2 0.43141417E+00 0.20086104E+04</pdfrwt>
<pdfrwt beam="2">  1       -2 0.55336326E-01 0.20086104E+04</pdfrwt>
<totfact> 0.65616515E+00</totfact>
</mgrwt>
</event>
<event>
12    1  0.1495204E-007  0.1639367E+04  0.7818608E-02  0.8796722E-01
          2   -1    0    0  501    0  0.00000000000E+00  0.00000000000E+00  0.16341022188E+04  0.16341022188E+04  0.00000000000E+00 0. -1.
         -2   -1    0    0    0  501 -0.00000000000E+00 -0.00000000000E+00 -0.41116208726E+03  0.41116208726E+03  0.00000000000E+00 0.  1.
         23    2    1    2    0    0 -0.11516316459E+03  0.29990282775E+03 -0.16126538004E+03  0.37077439735E+03  0.90900331980E+02 0.  0.
        254    2    1    2    0    0  0.11516316459E+03 -0.29990282775E+03  0.13842055116E+04  0.16744899087E+04  0.88582577041E+03 0.  0.
        -24    2    4    4    0    0  0.20473611409E+03  0.12119813442E+03  0.35590859022E+02  0.25635128917E+03  0.88563028465E+02 0.  0.
         24    2    4    4    0    0 -0.89572949496E+02 -0.42110096218E+03  0.13486146526E+04  0.14181386196E+04  0.83703820213E+02 0.  0.
         11    1    3    3    0    0 -0.96130712619E+02  0.25880941971E+03 -0.97984245759E+02  0.29295791857E+03  0.00000000000E+00 0.  1.
        -11    1    3    3    0    0 -0.19032451976E+02  0.41093408049E+02 -0.63281134278E+02  0.77816478774E+02  0.00000000000E+00 0. -1.
          2    1    6    6  502    0 -0.42361947038E+02 -0.58836082102E+02  0.19389528769E+03  0.20700628421E+03  0.00000000000E+00 0. -1.
          3    1    5    5  503    0  0.20825716322E+02 -0.48219981122E+01 -0.16971673219E+02  0.27294684793E+02  0.00000000000E+00 0. -1.
         -4    1    5    5    0  503  0.18391039777E+03  0.12602013253E+03  0.52562532241E+02  0.22905660437E+03  0.00000000000E+00 0.  1.
         -1    1    6    6    0  502 -0.47211002458E+02 -0.36226488008E+03  0.11547193649E+04  0.12111323354E+04  0.00000000000E+00 0.  1.
<mgrwt>
<rscale>  0 0.16393668E+04</rscale>
<asrwt>0</asrwt>
<pdfrwt beam="1">  1        2 0.25140034E+00 0.16393668E+04</pdfrwt>
<pdfrwt beam="2">  1       -2 0.63255707E-01 0.16393668E+04</pdfrwt>
<totfact> 0.23612511E+01</totfact>
</mgrwt>
</event>
<event>
12    1  0.1495204E-007  0.1596153E+04  0.7818608E-02  0.8822915E-01
          1   -1    0    0  501    0  0.00000000000E+00  0.00000000000E+00  0.93068773036E+03  0.93068773036E+03  0.00000000000E+00 0. -1.
         -1   -1    0    0    0  501 -0.00000000000E+00 -0.00000000000E+00 -0.68436112021E+03  0.68436112021E+03  0.00000000000E+00 0.  1.
         23    2    1    2    0    0 -0.41581760730E+03  0.35721246937E+03  0.66420371471E+02  0.55944482395E+03  0.89787607611E+02 0.  0.
        254    2    1    2    0    0  0.41581760730E+03 -0.35721246937E+03  0.17990623868E+03  0.10556040266E+04  0.88398448826E+03 0.  0.
        -24    2    4    4    0    0  0.63737499264E+03 -0.10554282717E+03 -0.31289683774E+02  0.65171379718E+03  0.79785083275E+02 0.  0.
         24    2    4    4    0    0 -0.22155738534E+03 -0.25166964220E+03  0.21119592245E+03  0.40389022944E+03  0.78091715131E+02 0.  0.
         13    1    3    3    0    0 -0.37867712675E+03  0.28596930731E+03  0.47448488711E+02  0.47689219969E+03  0.00000000000E+00 0.  1.
        -13    1    3    3    0    0 -0.37140480554E+02  0.71243162065E+02  0.18971882760E+02  0.82552624260E+02  0.00000000000E+00 0. -1.
          4    1    6    6  502    0 -0.21110798252E+03 -0.25344951514E+03  0.21366200292E+03  0.39300723721E+03  0.00000000000E+00 0. -1.
          1    1    5    5  503    0  0.48601405695E+03 -0.47961433236E+02 -0.36017308553E+02  0.48970114269E+03  0.00000000000E+00 0. -1.
         -2    1    5    5    0  503  0.15136093569E+03 -0.57581393935E+02  0.47276247792E+01  0.16201265450E+03  0.00000000000E+00 0.  1.
         -1    1    6    6    0  502 -0.10449402826E+02  0.17798729333E+01 -0.24660804707E+01  0.10882992234E+02  0.00000000000E+00 0.  1.
<mgrwt>
<rscale>  0 0.15961535E+04</rscale>
<asrwt>0</asrwt>
<pdfrwt beam="1">  1        1 0.14318273E+00 0.15961535E+04</pdfrwt>
<pdfrwt beam="2">  1       -1 0.10528633E+00 0.15961535E+04</pdfrwt>
<totfact> 0.13952478E+01</totfact>
</mgrwt>
</event>
<event>
12    1  0.1495204E-007  0.2710063E+04  0.7818608E-02  0.8331747E-01
          2   -1    0    0  501    0  0.00000000000E+00  0.00000000000E+00  0.17565254805E+04  0.17565254805E+04  0.00000000000E+00 0. -1.
         -2   -1    0    0    0  501 -0.00000000000E+00 -0.00000000000E+00 -0.10453082664E+04  0.10453082664E+04  0.00000000000E+00 0.  1.
         23    2    1    2    0    0 -0.64990781261E+03  0.22553476558E+03  0.13606434937E+04  0.15276158939E+04  0.94939491373E+02 0.  0.
        254    2    1    2    0    0  0.64990781261E+03 -0.22553476558E+03 -0.64942627957E+03  0.12742178531E+04  0.85359858787E+03 0.  0.
        -24    2    4    4    0    0 -0.14481335215E+03 -0.24649524462E+03 -0.17913623821E+03  0.34706416121E+03  0.81442787109E+02 0.  0.
         24    2    4    4    0    0  0.79472116475E+03  0.20960479042E+02 -0.47029004135E+03  0.92715369190E+03  0.80125988408E+02 0.  0.
         13    1    3    3    0    0 -0.64778048388E+03  0.22781260662E+03  0.13610634279E+04  0.15244709882E+04  0.00000000000E+00 0. -1.
        -13    1    3    3    0    0 -0.21273287251E+01 -0.22778410402E+01 -0.41993420758E+00  0.31449057295E+01  0.00000000000E+00 0.  1.
          4    1    6    6  502    0  0.67011859013E+03  0.13554391743E+02 -0.36123680962E+03  0.76140309889E+03  0.00000000000E+00 0. -1.
          1    1    5    5  503    0 -0.41063199070E+02 -0.34342920792E+02 -0.66635302746E+02  0.85474476298E+02  0.00000000000E+00 0. -1.
         -2    1    5    5    0  503 -0.10375015308E+03 -0.21215232383E+03 -0.11250093547E+03  0.26158968491E+03  0.00000000000E+00 0.  1.
         -3    1    6    6    0  502  0.12460257463E+03  0.74060872985E+01 -0.10905323174E+03  0.16575059301E+03  0.00000000000E+00 0.  1.
<mgrwt>
<rscale>  0 0.27100632E+04</rscale>
<asrwt>0</asrwt>
<pdfrwt beam="1">  1        2 0.27023469E+00 0.27100632E+04</pdfrwt>
<pdfrwt beam="2">  1       -2 0.16081666E+00 0.27100632E+04</pdfrwt>
<totfact> 0.19867133E+00</totfact>
</mgrwt>
</event>
<event>
12    1  0.1495204E-007  0.1385164E+04  0.7818608E-02  0.8964628E-01
         -2   -1    0    0    0  501 -0.00000000000E+00  0.00000000000E+00  0.10345133352E+04  0.10345133352E+04  0.00000000000E+00 0.  1.
          2   -1    0    0  501    0  0.00000000000E+00 -0.00000000000E+00 -0.46366739014E+03  0.46366739014E+03  0.00000000000E+00 0. -1.
         23    2    1    2    0    0  0.36833269763E+03 -0.14044052615E+03  0.30890785742E+03  0.50934306567E+03  0.92810433919E+02 0.  0.
        254    2    1    2    0    0 -0.36833269763E+03  0.14044052615E+03  0.26193808765E+03  0.98883765968E+03  0.86821416593E+03 0.  0.
        -24    2    4    4    0    0 -0.28235903246E+03 -0.18094999235E+03 -0.21131027900E+03  0.40479200197E+03  0.82067093917E+02 0.  0.
         24    2    4    4    0    0 -0.85973665174E+02  0.32139051850E+03  0.47324836665E+03  0.58404565772E+03  0.80386424705E+02 0.  0.
         11    1    3    3    0    0  0.59855544701E+02 -0.40563293993E+01  0.14681952331E+02  0.61763255775E+02  0.00000000000E+00 0. -1.
        -11    1    3    3    0    0  0.30847715293E+03 -0.13638419675E+03  0.29422590509E+03  0.44757980990E+03  0.00000000000E+00 0.  1.
          4    1    6    6  502    0 -0.17210123989E+02  0.79889696953E+01  0.13019504588E+02  0.23011290799E+02  0.00000000000E+00 0. -1.
          3    1    5    5  503    0 -0.58012698073E+02 -0.73383185861E+02 -0.81985791129E+02  0.12438743929E+03  0.00000000000E+00 0. -1.
         -4    1    5    5    0  503 -0.22434633438E+03 -0.10756680649E+03 -0.12932448787E+03  0.28040456268E+03  0.00000000000E+00 0.  1.
         -3    1    6    6    0  502 -0.68763541185E+02  0.31340154880E+03  0.46022886206E+03  0.56103436692E+03  0.00000000000E+00 0.  1.
<mgrwt>
<rscale>  0 0.13851644E+04</rscale>
<asrwt>0</asrwt>
<pdfrwt beam="1">  1        2 0.71333445E-01 0.13851644E+04</pdfrwt>
<pdfrwt beam="2">  1       -2 0.15915590E+00 0.13851644E+04</pdfrwt>
<totfact> 0.16714359E+01</totfact>
</mgrwt>
</event>
<event>
12    1  0.1495204E-007  0.1430785E+04  0.7818608E-02  0.8931831E-01
         -2   -1    0    0    0  501 -0.00000000000E+00  0.00000000000E+00  0.25022103862E+03  0.25022103862E+03  0.00000000000E+00 0.  1.
          2   -1    0    0  501    0  0.00000000000E+00 -0.00000000000E+00 -0.20453385403E+04  0.20453385403E+04  0.00000000000E+00 0. -1.
         23    2    1    2    0    0  0.19816142621E+01 -0.41280059213E+03 -0.29935239290E+03  0.51783518598E+03  0.90184084203E+02 0.  0.
        254    2    1    2    0    0 -0.19816142621E+01  0.41280059213E+03 -0.14957651088E+04  0.17777243930E+04  0.86751513013E+03 0.  0.
        -24    2    4    4    0    0 -0.20472668713E+03 -0.81124017188E+02 -0.10552843769E+04  0.10811113233E+04  0.81746282423E+02 0.  0.
         24    2    4    4    0    0  0.20274507287E+03  0.49392460932E+03 -0.44048073190E+03  0.69661306966E+03  0.78609219423E+02 0.  0.
         11    1    3    3    0    0 -0.31251947378E+02 -0.56620791462E+02 -0.41072197713E+02  0.76612816589E+02  0.00000000000E+00 0. -1.
        -11    1    3    3    0    0  0.33233561640E+02 -0.35617980067E+03 -0.25828019519E+03  0.44122236939E+03  0.00000000000E+00 0.  1.
          2    1    6    6  502    0  0.15119304592E+03  0.43664479964E+03 -0.36639511727E+03  0.58971467690E+03  0.00000000000E+00 0. -1.
          3    1    5    5  503    0 -0.18099979776E+03 -0.79487510631E+02 -0.10170462998E+04  0.10360802898E+04  0.00000000000E+00 0. -1.
         -4    1    5    5    0  503 -0.23726889372E+02 -0.16365065570E+01 -0.38238077141E+02  0.45031033482E+02  0.00000000000E+00 0.  1.
         -1    1    6    6    0  502  0.51552026950E+02  0.57279809673E+02 -0.74085614637E+02  0.10689839276E+03  0.00000000000E+00 0.  1.
<mgrwt>
<rscale>  0 0.14307854E+04</rscale>
<asrwt>0</asrwt>
<pdfrwt beam="1">  1        2 0.31466746E+00 0.14307854E+04</pdfrwt>
<pdfrwt beam="2">  1       -2 0.38495545E-01 0.14307854E+04</pdfrwt>
<totfact> 0.39049233E+01</totfact>
</mgrwt>
</event>
<event>
12    1  0.1495204E-007  0.1869665E+04  0.7818608E-02  0.8670105E-01
          2   -1    0    0  501    0  0.00000000000E+00  0.00000000000E+00  0.93731735551E+03  0.93731735551E+03  0.00000000000E+00 0. -1.
         -2   -1    0    0    0  501 -0.00000000000E+00 -0.00000000000E+00 -0.93235416631E+03  0.93235416631E+03  0.00000000000E+00 0.  1.
         23    2    1    2    0    0  0.32719217461E+03 -0.57827611698E+03 -0.24825222287E+03  0.71601259967E+03  0.97912665884E+02 0.  0.
        254    2    1    2    0    0 -0.32719217461E+03  0.57827611698E+03  0.25321541207E+03  0.11536589222E+04  0.90848933795E+03 0.  0.
        -24    2    4    4    0    0 -0.63075645379E+03  0.40797191163E+03  0.25133243988E+03  0.79639557422E+03  0.82359763408E+02 0.  0.
         24    2    4    4    0    0  0.30356427918E+03  0.17030420534E+03  0.18829721896E+01  0.35726334793E+03  0.80490746287E+02 0.  0.
         11    1    3    3    0    0  0.31388722441E+03 -0.57612580871E+03 -0.23443505478E+03  0.69671079511E+03  0.00000000000E+00 0. -1.
        -11    1    3    3    0    0  0.13304950194E+02 -0.21503082624E+01 -0.13817168088E+02  0.19301804560E+02  0.00000000000E+00 0.  1.
          2    1    6    6  502    0  0.67642622485E+02  0.81543603376E+01 -0.17474943100E+02  0.70337696902E+02  0.00000000000E+00 0. -1.
          3    1    5    5  503    0 -0.15877772511E+03  0.13655014280E+03  0.94848008629E+02  0.22989661205E+03  0.00000000000E+00 0. -1.
         -4    1    5    5    0  503 -0.47197872868E+03  0.27142176883E+03  0.15648443125E+03  0.56649896218E+03  0.00000000000E+00 0.  1.
         -1    1    6    6    0  502  0.23592165670E+03  0.16214984501E+03  0.19357915289E+02  0.28692565103E+03  0.00000000000E+00 0.  1.
<mgrwt>
<rscale>  0 0.18696649E+04</rscale>
<asrwt>0</asrwt>
<pdfrwt beam="1">  1        2 0.14420267E+00 0.18696649E+04</pdfrwt>
<pdfrwt beam="2">  1       -2 0.14343910E+00 0.18696649E+04</pdfrwt>
<totfact> 0.87592000E+00</totfact>
</mgrwt>
</event>
<event>
12    1  0.1495204E-007  0.1422704E+04  0.7818608E-02  0.8937546E-01
         -1   -1    0    0    0  501 -0.00000000000E+00  0.00000000000E+00  0.40916718474E+03  0.40916718474E+03  0.00000000000E+00 0.  1.
          1   -1    0    0  501    0  0.00000000000E+00 -0.00000000000E+00 -0.12367118898E+04  0.12367118898E+04  0.00000000000E+00 0. -1.
         23    2    1    2    0    0  0.20251741972E+03  0.64397869761E+02 -0.66683246186E+03  0.70579261864E+03  0.91199218295E+02 0.  0.
        254    2    1    2    0    0 -0.20251741972E+03 -0.64397869761E+02 -0.16071224316E+03  0.94008645586E+03  0.90153964332E+03 0.  0.
        -24    2    4    4    0    0 -0.49199904067E+03  0.10588030688E+03  0.85167231459E+02  0.51662731366E+03  0.79853794483E+02 0.  0.
         24    2    4    4    0    0  0.28948162095E+03 -0.17027817664E+03 -0.24587947462E+03  0.42345914221E+03  0.77888784641E+02 0.  0.
         13    1    3    3    0    0  0.21135155417E+03  0.58374591618E+02 -0.61633868769E+03  0.65417921882E+03  0.00000000000E+00 0. -1.
        -13    1    3    3    0    0 -0.88341344439E+01  0.60232781434E+01 -0.50493774176E+02  0.51613399825E+02  0.00000000000E+00 0.  1.
          2    1    6    6  502    0  0.23120891621E+03 -0.10211204958E+03 -0.15904955430E+03  0.29863220577E+03  0.00000000000E+00 0. -1.
          1    1    5    5  503    0 -0.24525803891E+03  0.71210442328E+02  0.69771348772E+01  0.25548211906E+03  0.00000000000E+00 0. -1.
         -2    1    5    5    0  503 -0.24674100176E+03  0.34669864551E+02  0.78190096582E+02  0.26114519460E+03  0.00000000000E+00 0.  1.
         -1    1    6    6    0  502  0.58272704742E+02 -0.68166127062E+02 -0.86829920321E+02  0.12482693643E+03  0.00000000000E+00 0.  1.
<mgrwt>
<rscale>  0 0.14227044E+04</rscale>
<asrwt>0</asrwt>
<pdfrwt beam="1">  1        1 0.19026337E+00 0.14227044E+04</pdfrwt>
<pdfrwt beam="2">  1       -1 0.62948798E-01 0.14227044E+04</pdfrwt>
<totfact> 0.25030540E+01</totfact>
</mgrwt>
</event>
<event>
12    1  0.1495204E-007  0.1529523E+04  0.7818608E-02  0.8865054E-01
         -1   -1    0    0    0  501 -0.00000000000E+00  0.00000000000E+00  0.39060375717E+03  0.39060375717E+03  0.00000000000E+00 0.  1.
          1   -1    0    0  501    0  0.00000000000E+00 -0.00000000000E+00 -0.14973232833E+04  0.14973232833E+04  0.00000000000E+00 0. -1.
         23    2    1    2    0    0  0.50504849235E+02  0.38521251148E+03 -0.74613863914E+03  0.84606267627E+03  0.90331415091E+02 0.  0.
        254    2    1    2    0    0 -0.50504849235E+02 -0.38521251148E+03 -0.36058088700E+03  0.10418643642E+04  0.89695226102E+03 0.  0.
        -24    2    4    4    0    0 -0.20550684161E+02 -0.67233411112E+03 -0.23175510643E+03  0.71587567521E+03  0.79448507853E+02 0.  0.
         24    2    4    4    0    0 -0.29954165074E+02  0.28712159964E+03 -0.12882578057E+03  0.32598868901E+03  0.79602001451E+02 0.  0.
         11    1    3    3    0    0 -0.30267420226E+00  0.19601660529E+03 -0.45183844509E+03  0.49252470154E+03  0.00000000000E+00 0. -1.
        -11    1    3    3    0    0  0.50807523437E+02  0.18919590619E+03 -0.29430019405E+03  0.35353797473E+03  0.00000000000E+00 0.  1.
          4    1    6    6  502    0 -0.19677712207E+02  0.19658341295E+02  0.23477617119E+01  0.27913701389E+02  0.00000000000E+00 0. -1.
          1    1    5    5  503    0  0.11957707853E+02 -0.19195868585E+02 -0.14135591706E+02  0.26669891276E+02  0.00000000000E+00 0. -1.
         -2    1    5    5    0  503 -0.32508392013E+02 -0.65313824254E+03 -0.21761951472E+03  0.68920578393E+03  0.00000000000E+00 0.  1.
         -3    1    6    6    0  502 -0.10276452867E+02  0.26746325834E+03 -0.13117354228E+03  0.29807498762E+03  0.00000000000E+00 0.  1.
<mgrwt>
<rscale>  0 0.15295229E+04</rscale>
<asrwt>0</asrwt>
<pdfrwt beam="1">  1        1 0.23035743E+00 0.15295229E+04</pdfrwt>
<pdfrwt beam="2">  1       -1 0.60092884E-01 0.15295229E+04</pdfrwt>
<totfact> 0.17801131E+01</totfact>
</mgrwt>
</event>
<event>
12    1  0.1495204E-007  0.1768175E+04  0.7818608E-02  0.8723409E-01
         -2   -1    0    0    0  501 -0.00000000000E+00  0.00000000000E+00  0.51290076667E+03  0.51290076667E+03  0.00000000000E+00 0.  1.
          2   -1    0    0  501    0  0.00000000000E+00 -0.00000000000E+00 -0.15239016435E+04  0.15239016435E+04  0.00000000000E+00 0. -1.
         23    2    1    2    0    0 -0.46317232499E+03 -0.10632161961E+02  0.18029877528E+03  0.50468356294E+03  0.86926433398E+02 0.  0.
        254    2    1    2    0    0  0.46317232499E+03  0.10632161961E+02 -0.11912996521E+04  0.15321188472E+04  0.84471986801E+03 0.  0.
        -24    2    4    4    0    0  0.14753533002E+03 -0.74604396489E+02  0.94764687185E+02  0.20287381669E+03  0.69605674917E+02 0.  0.
         24    2    4    4    0    0  0.31563699498E+03  0.85236558449E+02 -0.12860643393E+04  0.13292450305E+04  0.77710249884E+02 0.  0.
         11    1    3    3    0    0 -0.28129357293E+03  0.87875075794E+01  0.66234193484E+02  0.28911980709E+03  0.00000000000E+00 0.  1.
        -11    1    3    3    0    0 -0.18187875206E+03 -0.19419669540E+02  0.11406458180E+03  0.21556375585E+03  0.00000000000E+00 0. -1.
          2    1    6    6  502    0  0.35711485454E+02  0.24639699101E+02 -0.27482630538E+03  0.27822998238E+03  0.00000000000E+00 0. -1.
          3    1    5    5  503    0 -0.72562418749E+01 -0.40398285865E+01  0.93895488287E+01  0.12535425336E+02  0.00000000000E+00 0. -1.
         -4    1    5    5    0  503  0.15479157189E+03 -0.70564567902E+02  0.85375138356E+02  0.19033839135E+03  0.00000000000E+00 0.  1.
         -1    1    6    6    0  502  0.27992550952E+03  0.60596859348E+02 -0.10112380339E+04  0.10510150481E+04  0.00000000000E+00 0.  1.
<mgrwt>
<rscale>  0 0.17681746E+04</rscale>
<asrwt>0</asrwt>
<pdfrwt beam="1">  1        2 0.23444641E+00 0.17681746E+04</pdfrwt>
<pdfrwt beam="2">  1       -2 0.78907811E-01 0.17681746E+04</pdfrwt>
<totfact> 0.16603917E+01</totfact>
</mgrwt>
</event>
<event>
12    1  0.1495204E-007  0.2375306E+04  0.7818608E-02  0.8448807E-01
          2   -1    0    0  501    0  0.00000000000E+00  0.00000000000E+00  0.17621282090E+04  0.17621282090E+04  0.00000000000E+00 0.  1.
         -2   -1    0    0    0  501 -0.00000000000E+00 -0.00000000000E+00 -0.80046338315E+03  0.80046338315E+03  0.00000000000E+00 0. -1.
         23    2    1    2    0    0  0.21270869106E+03  0.16629919221E+02 -0.66218684491E+03  0.70182580501E+03  0.92447290615E+02 0.  0.
        254    2    1    2    0    0 -0.21270869106E+03 -0.16629919221E+02  0.16238516707E+04  0.18607657871E+04  0.88319506593E+03 0.  0.
        -24    2    4    4    0    0 -0.30577328084E+03 -0.39812752014E+03  0.94025106845E+03  0.10688367974E+04  0.79606571460E+02 0.  0.
         24    2    4    4    0    0  0.93064589779E+02  0.38149760092E+03  0.68360060229E+03  0.79192898970E+03  0.75101956722E+02 0.  0.
         13    1    3    3    0    0  0.18621292613E+03  0.33916099627E+02 -0.46384485584E+03  0.50097665211E+03  0.00000000000E+00 0.  1.
        -13    1    3    3    0    0  0.26495764932E+02 -0.17286180406E+02 -0.19834198907E+03  0.20084915290E+03  0.00000000000E+00 0. -1.
          4    1    6    6  502    0  0.95254397209E+02  0.38283961621E+03  0.68370137968E+03  0.78935869445E+03  0.00000000000E+00 0. -1.
          1    1    5    5  503    0 -0.26933018906E+03 -0.32085106186E+03  0.82621070881E+03  0.92634134637E+03  0.00000000000E+00 0. -1.
         -2    1    5    5    0  503 -0.36443091781E+02 -0.77276458281E+02  0.11404035964E+03  0.14249545105E+03  0.00000000000E+00 0.  1.
         -3    1    6    6    0  502 -0.21898074299E+01 -0.13420152915E+01 -0.10077738627E+00  0.25702952562E+01  0.00000000000E+00 0.  1.
<mgrwt>
<rscale>  0 0.23753055E+04</rscale>
<asrwt>0</asrwt>
<pdfrwt beam="1">  1        2 0.27109665E+00 0.23753055E+04</pdfrwt>
<pdfrwt beam="2">  1       -2 0.12314821E+00 0.23753055E+04</pdfrwt>
<totfact> 0.40625990E+00</totfact>
</mgrwt>
</event>
<event>
12    1  0.1495204E-007  0.1085922E+04  0.7818608E-02  0.9219023E-01
          1   -1    0    0  501    0  0.00000000000E+00  0.00000000000E+00  0.64181160258E+03  0.64181160258E+03  0.00000000000E+00 0. -1.
         -1   -1    0    0    0  501 -0.00000000000E+00 -0.00000000000E+00 -0.45933547265E+03  0.45933547265E+03  0.00000000000E+00 0.  1.
         23    2    1    2    0    0 -0.45569675588E+02 -0.73410828793E+02 -0.99691703243E+02  0.16383410389E+03  0.97146450195E+02 0.  0.
        254    2    1    2    0    0  0.45569675588E+02  0.73410828793E+02  0.28216783317E+03  0.93731297133E+03  0.88964665741E+03 0.  0.
        -24    2    4    4    0    0 -0.40835687690E+03  0.52356087311E+02  0.54604231795E+02  0.42306693200E+03  0.80669126906E+02 0.  0.
         24    2    4    4    0    0  0.45392655249E+03  0.21054741481E+02  0.22756360138E+03  0.51424603933E+03  0.78556852689E+02 0.  0.
         13    1    3    3    0    0 -0.14766319332E+02  0.21466539187E+02 -0.54803737097E+01  0.26625006804E+02  0.00000000000E+00 0. -1.
        -13    1    3    3    0    0 -0.30803356256E+02 -0.94877367980E+02 -0.94211329533E+02  0.13720909709E+03  0.00000000000E+00 0.  1.
          4    1    6    6  502    0  0.34917956360E+03  0.33576434580E+02  0.14209987447E+03  0.37847869018E+03  0.00000000000E+00 0. -1.
          1    1    5    5  503    0 -0.35927443549E+03  0.64982711661E+02  0.28914123879E+02  0.36624704691E+03  0.00000000000E+00 0. -1.
         -2    1    5    5    0  503 -0.49082441406E+02 -0.12626624350E+02  0.25690107916E+02  0.56819885089E+02  0.00000000000E+00 0.  1.
         -3    1    6    6    0  502  0.10474698889E+03 -0.12521693099E+02  0.85463726907E+02  0.13576734915E+03  0.00000000000E+00 0.  1.
<mgrwt>
<rscale>  0 0.10859223E+04</rscale>
<asrwt>0</asrwt>
<pdfrwt beam="1">  1        1 0.98740246E-01 0.10859223E+04</pdfrwt>
<pdfrwt beam="2">  1       -1 0.70666996E-01 0.10859223E+04</pdfrwt>
<totfact> 0.62653604E+01</totfact>
</mgrwt>
</event>
<event>
12    1  0.1495204E-007  0.1686152E+04  0.7818608E-02  0.8769302E-01
          1   -1    0    0  501    0  0.00000000000E+00  0.00000000000E+00  0.28591610907E+03  0.28591610907E+03  0.00000000000E+00 0. -1.
         -1   -1    0    0    0  501 -0.00000000000E+00 -0.00000000000E+00 -0.24859627301E+04  0.24859627301E+04  0.00000000000E+00 0.  1.
         23    2    1    2    0    0  0.20657084221E+03 -0.22046097187E+03 -0.16318146321E+04  0.16620525408E+04  0.91241995338E+02 0.  0.
        254    2    1    2    0    0 -0.20657084221E+03  0.22046097187E+03 -0.56823198892E+03  0.11098262984E+04  0.90418596895E+03 0.  0.
        -24    2    4    4    0    0  0.73668481471E+02  0.20942610883E+03 -0.73594664930E+03  0.77275811897E+03  0.79065160381E+02 0.  0.
         24    2    4    4    0    0 -0.28023932368E+03  0.11034863044E+02  0.16771466039E+03  0.33706817945E+03  0.82649280380E+02 0.  0.
         11    1    3    3    0    0  0.70830525733E+02 -0.14090169546E+03 -0.76765372545E+03  0.78368520042E+03  0.00000000000E+00 0. -1.
        -11    1    3    3    0    0  0.13574031648E+03 -0.79559276415E+02 -0.86416090669E+03  0.87836734038E+03  0.00000000000E+00 0.  1.
          4    1    6    6  502    0 -0.32885035357E+02  0.25336989381E+02  0.79804524561E+01  0.42273824085E+02  0.00000000000E+00 0. -1.
          1    1    5    5  503    0 -0.89592829501E+01  0.64176179070E+02 -0.27268708592E+03  0.28028039092E+03  0.00000000000E+00 0. -1.
         -2    1    5    5    0  503  0.82627764421E+02  0.14524992976E+03 -0.46325956339E+03  0.49247772804E+03  0.00000000000E+00 0.  1.
         -3    1    6    6    0  502 -0.24735428833E+03 -0.14302126338E+02  0.15973420793E+03  0.29479435536E+03  0.00000000000E+00 0.  1.
<mgrwt>
<rscale>  0 0.16861516E+04</rscale>
<asrwt>0</asrwt>
<pdfrwt beam="1">  1        1 0.43987095E-01 0.16861516E+04</pdfrwt>
<pdfrwt beam="2">  1       -1 0.38245579E+00 0.16861516E+04</pdfrwt>
<totfact> 0.84097614E-01</totfact>
</mgrwt>
</event>
<event>
12    1  0.1495204E-007  0.2379727E+04  0.7818608E-02  0.8447132E-01
          1   -1    0    0  501    0  0.00000000000E+00  0.00000000000E+00  0.15472738370E+04  0.15472738370E+04  0.00000000000E+00 0. -1.
         -1   -1    0    0    0  501 -0.00000000000E+00 -0.00000000000E+00 -0.91501299790E+03  0.91501299790E+03  0.00000000000E+00 0.  1.
         23    2    1    2    0    0  0.49997751776E+03 -0.22910377154E+03  0.11521324195E+04  0.12797150030E+04  0.88291112362E+02 0.  0.
        254    2    1    2    0    0 -0.49997751776E+03  0.22910377154E+03 -0.51987158043E+03  0.11825718318E+04  0.90870436386E+03 0.  0.
        -24    2    4    4    0    0 -0.25350630132E+03 -0.31193515931E+03 -0.34490182811E+02  0.41127852977E+03  0.79946656675E+02 0.  0.
         24    2    4    4    0    0 -0.24647121644E+03  0.54103893086E+03 -0.48538139762E+03  0.77129330206E+03  0.76335256712E+02 0.  0.
         11    1    3    3    0    0  0.18934731669E+03 -0.56857508786E+02  0.33986999245E+03  0.39318798864E+03  0.00000000000E+00 0.  1.
        -11    1    3    3    0    0  0.31063020107E+03 -0.17224626276E+03  0.81226242705E+03  0.88652701439E+03  0.00000000000E+00 0. -1.
          4    1    6    6  502    0 -0.58486838479E+02  0.10398021209E+03 -0.13666324698E+03  0.18140958590E+03  0.00000000000E+00 0. -1.
          3    1    5    5  503    0 -0.92771532251E+02 -0.61636260380E+02 -0.22127682506E+02  0.11355712273E+03  0.00000000000E+00 0. -1.
         -4    1    5    5    0  503 -0.16073476907E+03 -0.25029889893E+03 -0.12362500305E+02  0.29772140704E+03  0.00000000000E+00 0.  1.
         -3    1    6    6    0  502 -0.18798437796E+03  0.43705871877E+03 -0.34871815063E+03  0.58988371616E+03  0.00000000000E+00 0.  1.
<mgrwt>
<rscale>  0 0.23797274E+04</rscale>
<asrwt>0</asrwt>
<pdfrwt beam="1">  1        1 0.23804213E+00 0.23797274E+04</pdfrwt>
<pdfrwt beam="2">  1       -1 0.14077123E+00 0.23797274E+04</pdfrwt>
<totfact> 0.22502086E+00</totfact>
</mgrwt>
</event>
<event>
12    1  0.1495204E-007  0.1645092E+04  0.7818608E-02  0.8793316E-01
         -1   -1    0    0    0  501 -0.00000000000E+00  0.00000000000E+00  0.87980650051E+03  0.87980650051E+03  0.00000000000E+00 0.  1.
          1   -1    0    0  501    0  0.00000000000E+00 -0.00000000000E+00 -0.76901182535E+03  0.76901182535E+03  0.00000000000E+00 0. -1.
         23    2    1    2    0    0  0.62318896565E+01 -0.16747451411E+03  0.58578918761E+03  0.61594421894E+03  0.90287093178E+02 0.  0.
        254    2    1    2    0    0 -0.62318896565E+01  0.16747451411E+03 -0.47499451245E+03  0.10328741069E+04  0.90173310052E+03 0.  0.
        -24    2    4    4    0    0 -0.41272217512E+03  0.15887800636E+03 -0.42061509957E+03  0.61466415353E+03  0.72891322592E+02 0.  0.
         24    2    4    4    0    0  0.40649028546E+03  0.85965077560E+01 -0.54379412874E+02  0.41820995339E+03  0.81450552198E+02 0.  0.
         13    1    3    3    0    0 -0.32894372677E+02 -0.99286142056E+02  0.41421381813E+03  0.42721524422E+03  0.00000000000E+00 0.  1.
        -13    1    3    3    0    0  0.39126262333E+02 -0.68188372056E+02  0.17157536948E+03  0.18872897472E+03  0.00000000000E+00 0. -1.
          4    1    6    6  502    0  0.20699505542E+03 -0.30037102444E+02 -0.49544647554E+02  0.21495081435E+03  0.00000000000E+00 0. -1.
          1    1    5    5  503    0 -0.36560445933E+03  0.12372135136E+03 -0.33661674069E+03  0.51213711404E+03  0.00000000000E+00 0. -1.
         -2    1    5    5    0  503 -0.47117715784E+02  0.35156655001E+02 -0.83998358879E+02  0.10252703949E+03  0.00000000000E+00 0.  1.
         -3    1    6    6    0  502  0.19949523005E+03  0.38633610200E+02 -0.48347653202E+01  0.20325913904E+03  0.00000000000E+00 0.  1.
<mgrwt>
<rscale>  0 0.16450916E+04</rscale>
<asrwt>0</asrwt>
<pdfrwt beam="1">  1        1 0.11830951E+00 0.16450916E+04</pdfrwt>
<pdfrwt beam="2">  1       -1 0.13535485E+00 0.16450916E+04</pdfrwt>
<totfact> 0.10301544E+01</totfact>
</mgrwt>
</event>
<event>
12    1  0.1495204E-007  0.1714487E+04  0.7818608E-02  0.8753145E-01
          2   -1    0    0  501    0  0.00000000000E+00  0.00000000000E+00  0.59034146347E+03  0.59034146347E+03  0.00000000000E+00 0. -1.
         -2   -1    0    0    0  501 -0.00000000000E+00 -0.00000000000E+00 -0.12448157981E+04  0.12448157981E+04  0.00000000000E+00 0.  1.
         23    2    1    2    0    0  0.34329564879E+03  0.41905800868E+03 -0.55347084481E+03  0.78001489709E+03  0.92907192998E+02 0.  0.
        254    2    1    2    0    0 -0.34329564879E+03 -0.41905800868E+03 -0.10100348980E+03  0.10551423645E+04  0.89981230665E+03 0.  0.
        -24    2    4    4    0    0 -0.63614162828E+03 -0.29825200576E+03  0.17005153442E+02  0.70730214357E+03  0.79729021642E+02 0.  0.
         24    2    4    4    0    0  0.29284597949E+03 -0.12080600292E+03 -0.11800864324E+03  0.34784022088E+03  0.81938521686E+02 0.  0.
         13    1    3    3    0    0  0.29276690856E+02  0.45941650684E+01 -0.30706079503E+02  0.42674281465E+02  0.00000000000E+00 0. -1.
        -13    1    3    3    0    0  0.31401895793E+03  0.41446384361E+03 -0.52276476531E+03  0.73734061562E+03  0.00000000000E+00 0.  1.
          4    1    6    6  502    0  0.85726356944E+01 -0.10912144515E+02 -0.26013513236E+02  0.29483348716E+02  0.00000000000E+00 0. -1.
          1    1    5    5  503    0 -0.37676354200E+03 -0.17407704018E+03  0.49179362876E+02  0.41793802439E+03  0.00000000000E+00 0. -1.
         -2    1    5    5    0  503 -0.25937808628E+03 -0.12417496558E+03 -0.32174209434E+02  0.28936411918E+03  0.00000000000E+00 0.  1.
         -3    1    6    6    0  502  0.28427334380E+03 -0.10989385840E+03 -0.91995130002E+02  0.31835687216E+03  0.00000000000E+00 0.  1.
<mgrwt>
<rscale>  0 0.17144870E+04</rscale>
<asrwt>0</asrwt>
<pdfrwt beam="1">  1        2 0.90821764E-01 0.17144870E+04</pdfrwt>
<pdfrwt beam="2">  1       -2 0.19151012E+00 0.17144870E+04</pdfrwt>
<totfact> 0.72732422E+00</totfact>
</mgrwt>
</event>
<event>
12    1  0.1495204E-007  0.2220626E+04  0.7818608E-02  0.8509892E-01
         -1   -1    0    0    0  501 -0.00000000000E+00  0.00000000000E+00  0.31933832826E+03  0.31933832826E+03  0.00000000000E+00 0.  1.
          1   -1    0    0  501    0  0.00000000000E+00 -0.00000000000E+00 -0.38604677366E+04  0.38604677366E+04  0.00000000000E+00 0. -1.
         23    2    1    2    0    0 -0.83298220725E+03  0.40186117144E+03 -0.14259411392E+04  0.17018952535E+04  0.88247168604E+02 0.  0.
        254    2    1    2    0    0  0.83298220725E+03 -0.40186117144E+03 -0.21151882692E+04  0.24779108114E+04  0.90037148799E+03 0.  0.
        -24    2    4    4    0    0 -0.24930483436E+02  0.10902754390E+03 -0.45364679016E+01  0.14157762244E+03  0.86689730079E+02 0.  0.
         24    2    4    4    0    0  0.85791269069E+03 -0.51088871534E+03 -0.21106518013E+04  0.23363331890E+04  0.81118920201E+02 0.  0.
         13    1    3    3    0    0 -0.67262371159E+03  0.35753537232E+03 -0.11400800326E+04  0.13711442960E+04  0.00000000000E+00 0.  1.
        -13    1    3    3    0    0 -0.16035849567E+03  0.44325799118E+02 -0.28586110660E+03  0.33075095747E+03  0.00000000000E+00 0. -1.
          4    1    6    6  502    0  0.21108007188E+03 -0.16716880888E+03 -0.55656269394E+03  0.61827359615E+03  0.00000000000E+00 0. -1.
          3    1    5    5  503    0 -0.33519684211E+02  0.12160943541E+03 -0.59018089461E+01  0.12628244280E+03  0.00000000000E+00 0. -1.
         -4    1    5    5    0  503  0.85892007756E+01 -0.12581891512E+02  0.13653410445E+01  0.15295179638E+02  0.00000000000E+00 0.  1.
         -3    1    6    6    0  502  0.64683261881E+03 -0.34371990646E+03 -0.15540891074E+04  0.17180595928E+04  0.00000000000E+00 0.  1.
<mgrwt>
<rscale>  0 0.22206263E+04</rscale>
<asrwt>0</asrwt>
<pdfrwt beam="1">  1        1 0.59391813E+00 0.22206263E+04</pdfrwt>
<pdfrwt beam="2">  1       -1 0.49128972E-01 0.22206263E+04</pdfrwt>
<totfact> 0.48073405E-01</totfact>
</mgrwt>
</event>
<event>
12    1  0.1495204E-007  0.1483561E+04  0.7818608E-02  0.8895459E-01
          2   -1    0    0  501    0  0.00000000000E+00  0.00000000000E+00  0.14892762275E+04  0.14892762275E+04  0.00000000000E+00 0. -1.
         -2   -1    0    0    0  501 -0.00000000000E+00 -0.00000000000E+00 -0.36946687556E+03  0.36946687556E+03  0.00000000000E+00 0.  1.
         23    2    1    2    0    0  0.12934475141E+03  0.25305235094E+03 -0.99256860377E+02  0.31441457426E+03  0.90769175058E+02 0.  0.
        254    2    1    2    0    0 -0.12934475141E+03 -0.25305235094E+03  0.12190662123E+04  0.15443285288E+04  0.90446814083E+03 0.  0.
        -24    2    4    4    0    0  0.24612980193E+03  0.45082228943E+02  0.95643830599E+03  0.99179269688E+03  0.79159545590E+02 0.  0.
         24    2    4    4    0    0 -0.37547455334E+03 -0.29813457989E+03  0.26262790632E+03  0.55253583190E+03  0.80355836256E+02 0.  0.
         13    1    3    3    0    0  0.51976516039E+02  0.46664099302E+02  0.60983677365E+01  0.70116235440E+02  0.00000000000E+00 0. -1.
        -13    1    3    3    0    0  0.77368235371E+02  0.20638825164E+03 -0.10535522811E+03  0.24429833882E+03  0.00000000000E+00 0.  1.
          2    1    6    6  502    0 -0.28437452903E+03 -0.18509197454E+03  0.20437935622E+03  0.39610457338E+03  0.00000000000E+00 0. -1.
          3    1    5    5  503    0  0.18402367185E+02 -0.17902768158E+02  0.11337644238E+03  0.11624703829E+03  0.00000000000E+00 0. -1.
         -4    1    5    5    0  503  0.22772743475E+03  0.62984997100E+02  0.84306186361E+03  0.87554565858E+03  0.00000000000E+00 0.  1.
         -1    1    6    6    0  502 -0.91100024310E+02 -0.11304260535E+03  0.58248550093E+02  0.15643125852E+03  0.00000000000E+00 0.  1.
<mgrwt>
<rscale>  0 0.14835609E+04</rscale>
<asrwt>0</asrwt>
<pdfrwt beam="1">  1        2 0.22911942E+00 0.14835609E+04</pdfrwt>
<pdfrwt beam="2">  1       -2 0.56841058E-01 0.14835609E+04</pdfrwt>
<totfact> 0.36135959E+01</totfact>
</mgrwt>
</event>
<event>
12    1  0.2058508E-007  0.1907678E+04  0.7818608E-02  0.8651044E-01
          2   -1    0    0  501    0  0.00000000000E+00  0.00000000000E+00  0.15617007544E+04  0.15617007544E+04  0.00000000000E+00 0. -1.
         -2   -1    0    0    0  501 -0.00000000000E+00 -0.00000000000E+00 -0.58257588816E+03  0.58257588816E+03  0.00000000000E+00 0.  1.
         23    2    1    2    0    0 -0.47370434707E+02  0.23967235984E+03  0.11587620570E+04  0.11878002766E+04  0.91941253752E+02 0.  0.
        254    2    1    2    0    0  0.47370434707E+02 -0.23967235984E+03 -0.17963719073E+03  0.95647636601E+03  0.90713324285E+03 0.  0.
        -24    2    4    4    0    0 -0.47315229726E+02 -0.52940080758E+03  0.85989467296E+02  0.54429192751E+03  0.79721815351E+02 0.  0.
         24    2    4    4    0    0  0.94685664432E+02  0.28972844773E+03 -0.26562665803E+03  0.41218443850E+03  0.80190656625E+02 0.  0.
         13    1    3    3    0    0  0.17232468440E+02  0.67005729364E+01  0.10913217807E+03  0.11068734316E+03  0.00000000000E+00 0.  1.
        -13    1    3    3    0    0 -0.64602903147E+02  0.23297178691E+03  0.10496298789E+04  0.10771129334E+04  0.00000000000E+00 0. -1.
          4    1    6    6  502    0  0.40633436472E+02  0.21076441932E+03 -0.21549539414E+03  0.30415617947E+03  0.00000000000E+00 0. -1.
          1    1    5    5  503    0 -0.48927117658E+01 -0.41396967411E+03  0.75903983294E+02  0.42089932810E+03  0.00000000000E+00 0. -1.
         -2    1    5    5    0  503 -0.42422517960E+02 -0.11543113347E+03  0.10085484002E+02  0.12339259942E+03  0.00000000000E+00 0.  1.
         -3    1    6    6    0  502  0.54052227961E+02  0.78964028413E+02 -0.50131263886E+02  0.10802825903E+03  0.00000000000E+00 0.  1.
<mgrwt>
<rscale>  0 0.19076784E+04</rscale>
<asrwt>0</asrwt>
<pdfrwt beam="1">  1        2 0.24026165E+00 0.19076784E+04</pdfrwt>
<pdfrwt beam="2">  1       -2 0.89627060E-01 0.19076784E+04</pdfrwt>
<totfact> 0.11702319E+01</totfact>
</mgrwt>
</event>
<event>
12    1  0.1495204E-007  0.2713686E+04  0.7818608E-02  0.8330578E-01
         -1   -1    0    0    0  501 -0.00000000000E+00  0.00000000000E+00  0.59755914413E+03  0.59755914413E+03  0.00000000000E+00 0.  1.
          1   -1    0    0  501    0  0.00000000000E+00 -0.00000000000E+00 -0.30809043326E+04  0.30809043326E+04  0.00000000000E+00 0. -1.
         23    2    1    2    0    0  0.87209018423E+02  0.77488543732E+03  0.14210003053E+03  0.79733708572E+03  0.86609212634E+02 0.  0.
        254    2    1    2    0    0 -0.87209018423E+02 -0.77488543732E+03 -0.26254452190E+04  0.28811263910E+04  0.89435665654E+03 0.  0.
        -24    2    4    4    0    0 -0.15126105832E+03 -0.90635898597E+03 -0.25203121182E+04  0.26837752545E+04  0.79435028993E+02 0.  0.
         24    2    4    4    0    0  0.64052039900E+02  0.13147354865E+03 -0.10513310074E+03  0.19735113654E+03  0.80663153986E+02 0.  0.
         11    1    3    3    0    0 -0.81309455418E+01  0.26835993596E+03  0.33078593366E+02  0.27051314357E+03  0.00000000000E+00 0. -1.
        -11    1    3    3    0    0  0.95339963965E+02  0.50652550136E+03  0.10902143716E+03  0.52682394215E+03  0.00000000000E+00 0.  1.
          2    1    6    6  502    0  0.39985504674E+02  0.10888187150E+02 -0.42479843842E+02  0.59345853573E+02  0.00000000000E+00 0. -1.
          1    1    5    5  503    0 -0.46986693258E+01 -0.98957123960E+02 -0.34057365063E+03  0.35469000744E+03  0.00000000000E+00 0. -1.
         -2    1    5    5    0  503 -0.14656238900E+03 -0.80740186201E+03 -0.21797384676E+04  0.23290852470E+04  0.00000000000E+00 0.  1.
         -1    1    6    6    0  502  0.24066535225E+02  0.12058536150E+03 -0.62653256899E+02  0.13800528296E+03  0.00000000000E+00 0.  1.
<mgrwt>
<rscale>  0 0.27136857E+04</rscale>
<asrwt>0</asrwt>
<pdfrwt beam="1">  1        1 0.47398527E+00 0.27136857E+04</pdfrwt>
<pdfrwt beam="2">  1       -1 0.91932178E-01 0.27136857E+04</pdfrwt>
<totfact> 0.52370793E-01</totfact>
</mgrwt>
</event>
<event>
12    1  0.1495204E-007  0.1321248E+04  0.7818608E-02  0.9012883E-01
          2   -1    0    0  501    0  0.00000000000E+00  0.00000000000E+00  0.34610345721E+04  0.34610345721E+04  0.00000000000E+00 0. -1.
         -2   -1    0    0    0  501 -0.00000000000E+00 -0.00000000000E+00 -0.12609634113E+03  0.12609634113E+03  0.00000000000E+00 0.  1.
         23    2    1    2    0    0  0.27962724843E+03 -0.20642939620E+03  0.10755001590E+04  0.11337382713E+04  0.88641875863E+02 0.  0.
        254    2    1    2    0    0 -0.27962724843E+03  0.20642939620E+03  0.22594380720E+04  0.24533926420E+04  0.89065737557E+03 0.  0.
        -24    2    4    4    0    0 -0.26457509507E+03  0.52778430567E+03  0.11445774407E+04  0.12902986945E+04  0.79100878766E+02 0.  0.
         24    2    4    4    0    0 -0.15052153367E+02 -0.32135490947E+03  0.11148606313E+04  0.11630939475E+04  0.79860867792E+02 0.  0.
         11    1    3    3    0    0  0.22908939063E+03 -0.16227971154E+03  0.73722106631E+03  0.78886726024E+03  0.00000000000E+00 0. -1.
        -11    1    3    3    0    0  0.50537857807E+02 -0.44149684661E+02  0.33827909265E+03  0.34487101103E+03  0.00000000000E+00 0.  1.
          4    1    6    6  502    0 -0.15009080697E+02 -0.26413486705E+03  0.10048273175E+04  0.10390719121E+04  0.00000000000E+00 0. -1.
          3    1    5    5  503    0 -0.96832742147E+02  0.27643904197E+03  0.59173442589E+03  0.66026112611E+03  0.00000000000E+00 0. -1.
         -4    1    5    5    0  503 -0.16774235292E+03  0.25134526369E+03  0.55284301482E+03  0.63003756838E+03  0.00000000000E+00 0.  1.
         -3    1    6    6    0  502 -0.43072670520E-01 -0.57220042424E+02  0.11003331386E+03  0.12402203542E+03  0.00000000000E+00 0.  1.
<mgrwt>
<rscale>  0 0.13212476E+04</rscale>
<asrwt>0</asrwt>
<pdfrwt beam="1">  1        2 0.53246678E+00 0.13212476E+04</pdfrwt>
<pdfrwt beam="2">  1       -2 0.19399440E-01 0.13212476E+04</pdfrwt>
<totfact> 0.19472438E+01</totfact>
</mgrwt>
</event>
<event>
12    1  0.1495204E-007  0.1406392E+04  0.7818608E-02  0.8949205E-01
         -2   -1    0    0    0  501 -0.00000000000E+00  0.00000000000E+00  0.92255952598E+03  0.92255952598E+03  0.00000000000E+00 0.  1.
          2   -1    0    0  501    0  0.00000000000E+00 -0.00000000000E+00 -0.53599213495E+03  0.53599213495E+03  0.00000000000E+00 0. -1.
         23    2    1    2    0    0 -0.11819143597E+03  0.37156562416E+03 -0.12055175658E+01  0.40006230485E+03  0.89544211982E+02 0.  0.
        254    2    1    2    0    0  0.11819143597E+03 -0.37156562416E+03  0.38777290860E+03  0.10584893561E+04  0.90443444190E+03 0.  0.
        -24    2    4    4    0    0 -0.98929472265E+02 -0.39963048645E+03  0.60707342166E+03  0.73777767664E+03  0.79285526334E+02 0.  0.
         24    2    4    4    0    0  0.21712090823E+03  0.28064862294E+02 -0.21930051306E+03  0.32071167943E+03  0.82668863597E+02 0.  0.
         13    1    3    3    0    0 -0.24189871047E+02  0.16266262992E+03 -0.36030605558E+02  0.16835226631E+03  0.00000000000E+00 0. -1.
        -13    1    3    3    0    0 -0.94001564923E+02  0.20890299423E+03  0.34825087992E+02  0.23171003854E+03  0.00000000000E+00 0.  1.
          2    1    6    6  502    0  0.20405855370E+03  0.44803688172E+02 -0.17880780388E+03  0.27498998989E+03  0.00000000000E+00 0. -1.
          3    1    5    5  503    0 -0.92422294265E+02 -0.23836226942E+03  0.33458986294E+03  0.42108054852E+03  0.00000000000E+00 0. -1.
         -4    1    5    5    0  503 -0.65071780001E+01 -0.16126821703E+03  0.27248355871E+03  0.31669712812E+03  0.00000000000E+00 0.  1.
         -1    1    6    6    0  502  0.13062354531E+02 -0.16738825878E+02 -0.40492709177E+02  0.45721689538E+02  0.00000000000E+00 0.  1.
<mgrwt>
<rscale>  0 0.14063921E+04</rscale>
<asrwt>0</asrwt>
<pdfrwt beam="1">  1        2 0.82460328E-01 0.14063921E+04</pdfrwt>
<pdfrwt beam="2">  1       -2 0.14193224E+00 0.14063921E+04</pdfrwt>
<totfact> 0.19122676E+01</totfact>
</mgrwt>
</event>
<event>
12    1  0.1495204E-007  0.1074306E+04  0.7818608E-02  0.9230604E-01
         -2   -1    0    0    0  501 -0.00000000000E+00  0.00000000000E+00  0.11101691792E+03  0.11101691792E+03  0.00000000000E+00 0.  1.
          2   -1    0    0  501    0  0.00000000000E+00 -0.00000000000E+00 -0.25990018969E+04  0.25990018969E+04  0.00000000000E+00 0. -1.
         23    2    1    2    0    0 -0.52438812877E+02  0.12758588147E+03 -0.35362087121E+03  0.39069037705E+03  0.92537905313E+02 0.  0.
        254    2    1    2    0    0  0.52438812877E+02 -0.12758588147E+03 -0.21343641078E+04  0.23193284378E+04  0.89707651372E+03 0.  0.
        -24    2    4    4    0    0 -0.21020903762E+02 -0.82469605865E+02  0.50997941538E+02  0.13085464267E+03  0.85317250197E+02 0.  0.
         24    2    4    4    0    0  0.73459716639E+02 -0.45116275601E+02 -0.21853620493E+04  0.21884737951E+04  0.78603161412E+02 0.  0.
         13    1    3    3    0    0 -0.27820041728E+02  0.78525891357E+00 -0.24311150399E+02  0.36954071319E+02  0.00000000000E+00 0.  1.
        -13    1    3    3    0    0 -0.24618771149E+02  0.12680062255E+03 -0.32930972081E+03  0.35373630573E+03  0.00000000000E+00 0. -1.
          2    1    6    6  502    0  0.64251533055E+02 -0.66455097970E+02 -0.16210333223E+04  0.16236667058E+04  0.00000000000E+00 0. -1.
          1    1    5    5  503    0 -0.37201828037E+02 -0.10234743025E+02  0.40758742096E+02  0.56124869990E+02  0.00000000000E+00 0. -1.
         -2    1    5    5    0  503  0.16180924275E+02 -0.72234862840E+02  0.10239199441E+02  0.74729772682E+02  0.00000000000E+00 0.  1.
         -3    1    6    6    0  502  0.92081835847E+01  0.21338822369E+02 -0.56432872697E+03  0.56480708925E+03  0.00000000000E+00 0.  1.
<mgrwt>
<rscale>  0 0.10743057E+04</rscale>
<asrwt>0</asrwt>
<pdfrwt beam="1">  1        2 0.39984645E+00 0.10743057E+04</pdfrwt>
<pdfrwt beam="2">  1       -2 0.17079526E-01 0.10743057E+04</pdfrwt>
<totfact> 0.86218042E+01</totfact>
</mgrwt>
</event>
<event>
12    1  0.1495204E-007  0.1306990E+04  0.7818608E-02  0.9024041E-01
          1   -1    0    0  501    0  0.00000000000E+00  0.00000000000E+00  0.17736085337E+04  0.17736085337E+04  0.00000000000E+00 0. -1.
         -1   -1    0    0    0  501 -0.00000000000E+00 -0.00000000000E+00 -0.24078341474E+03  0.24078341474E+03  0.00000000000E+00 0.  1.
         23    2    1    2    0    0  0.20528985964E+03  0.22583383870E+03  0.61063178730E+03  0.68874352979E+03  0.91387203653E+02 0.  0.
        254    2    1    2    0    0 -0.20528985964E+03 -0.22583383870E+03  0.92219333167E+03  0.13256484187E+04  0.90208555012E+03 0.  0.
        -24    2    4    4    0    0  0.26040621835E+03 -0.16699694379E+03  0.75757304568E+03  0.82196518276E+03  0.77527184522E+02 0.  0.
         24    2    4    4    0    0 -0.46569607799E+03 -0.58836894912E+02  0.16462028598E+03  0.50368323589E+03  0.79134987836E+02 0.  0.
         13    1    3    3    0    0  0.36233863105E+01  0.89564297462E+01  0.83993225022E+02  0.84547078079E+02  0.00000000000E+00 0. -1.
        -13    1    3    3    0    0  0.20166647333E+03  0.21687740896E+03  0.52663856228E+03  0.60419645171E+03  0.00000000000E+00 0.  1.
          2    1    6    6  502    0 -0.52818668752E+02 -0.16919191506E+02  0.46020474003E+02  0.72069097659E+02  0.00000000000E+00 0. -1.
          3    1    5    5  503    0  0.28491799774E+02  0.57726092864E+01  0.85690317823E+02  0.90487215898E+02  0.00000000000E+00 0. -1.
         -4    1    5    5    0  503  0.23191441857E+03 -0.17276955308E+03  0.67188272786E+03  0.73147796687E+03  0.00000000000E+00 0.  1.
         -1    1    6    6    0  502 -0.41287740924E+03 -0.41917703406E+02  0.11859981198E+03  0.43161413823E+03  0.00000000000E+00 0.  1.
<mgrwt>
<rscale>  0 0.13069897E+04</rscale>
<asrwt>0</asrwt>
<pdfrwt beam="1">  1        1 0.27286284E+00 0.13069897E+04</pdfrwt>
<pdfrwt beam="2">  1       -1 0.37043603E-01 0.13069897E+04</pdfrwt>
<totfact> 0.29220455E+01</totfact>
</mgrwt>
</event>
<event>
12    1  0.1495204E-007  0.3552248E+04  0.7818608E-02  0.8101518E-01
          2   -1    0    0  501    0  0.00000000000E+00  0.00000000000E+00  0.24777490682E+04  0.24777490682E+04  0.00000000000E+00 0. -1.
         -2   -1    0    0    0  501 -0.00000000000E+00 -0.00000000000E+00 -0.12731782144E+04  0.12731782144E+04  0.00000000000E+00 0.  1.
         23    2    1    2    0    0  0.15621650811E+04  0.42629891987E+03  0.18079023795E+03  0.16319916499E+04  0.92850016529E+02 0.  0.
        254    2    1    2    0    0 -0.15621650811E+04 -0.42629891987E+03  0.10237806158E+04  0.21189356327E+04  0.90535681157E+03 0.  0.
        -24    2    4    4    0    0 -0.27968815622E+03  0.25586165744E+03  0.32347792525E+03  0.50443863363E+03  0.78292493232E+02 0.  0.
         24    2    4    4    0    0 -0.12824769249E+04 -0.68216057730E+03  0.70030269060E+03  0.16144969990E+04  0.78016570880E+02 0.  0.
         11    1    3    3    0    0  0.14472274309E+04  0.37412451257E+03  0.18136138431E+03  0.15057650346E+04  0.00000000000E+00 0.  1.
        -11    1    3    3    0    0  0.11493765021E+03  0.52174407296E+02 -0.57114635833E+00  0.12622661534E+03  0.00000000000E+00 0. -1.
          4    1    6    6  502    0 -0.29525631277E+03 -0.14548846236E+03  0.12471093333E+03  0.35198863590E+03  0.00000000000E+00 0. -1.
          3    1    5    5  503    0 -0.12474652339E+03  0.14161538129E+03  0.20380988310E+03  0.27776803229E+03  0.00000000000E+00 0. -1.
         -4    1    5    5    0  503 -0.15494163283E+03  0.11424627615E+03  0.11966804215E+03  0.22667060134E+03  0.00000000000E+00 0.  1.
         -3    1    6    6    0  502 -0.98722061212E+03 -0.53667211494E+03  0.57559175727E+03  0.12625083631E+04  0.00000000000E+00 0.  1.
<mgrwt>
<rscale>  0 0.35522478E+04</rscale>
<asrwt>0</asrwt>
<pdfrwt beam="1">  1        2 0.38119216E+00 0.35522478E+04</pdfrwt>
<pdfrwt beam="2">  1       -2 0.19587357E+00 0.35522478E+04</pdfrwt>
<totfact> 0.41547372E-01</totfact>
</mgrwt>
</event>
<event>
12    1  0.1495204E-007  0.1443476E+04  0.7818608E-02  0.8922936E-01
          1   -1    0    0  501    0  0.00000000000E+00  0.00000000000E+00  0.10096688731E+04  0.10096688731E+04  0.00000000000E+00 0. -1.
         -1   -1    0    0    0  501 -0.00000000000E+00 -0.00000000000E+00 -0.51591751544E+03  0.51591751544E+03  0.00000000000E+00 0.  1.
         23    2    1    2    0    0 -0.18060110604E+02  0.32841701377E+02  0.60854828385E+03  0.61638619803E+03  0.90532791841E+02 0.  0.
        254    2    1    2    0    0  0.18060110604E+02 -0.32841701377E+02 -0.11479692617E+03  0.90920019053E+03  0.90114477597E+03 0.  0.
        -24    2    4    4    0    0  0.22098746341E+03 -0.36183194594E+03  0.12261901812E+03  0.44864174445E+03  0.80536793885E+02 0.  0.
         24    2    4    4    0    0 -0.20292735281E+03  0.32899024456E+03 -0.23741594429E+03  0.46055844608E+03  0.79584295694E+02 0.  0.
         11    1    3    3    0    0  0.20603021219E+02  0.50859946499E+02  0.37145217755E+03  0.37548360663E+03  0.00000000000E+00 0. -1.
        -11    1    3    3    0    0 -0.38663131824E+02 -0.18018245123E+02  0.23709610630E+03  0.24090259140E+03  0.00000000000E+00 0.  1.
          4    1    6    6  502    0 -0.19401494573E+02  0.13493742384E+02 -0.37708828427E+02  0.44502301249E+02  0.00000000000E+00 0. -1.
          3    1    5    5  503    0  0.35247094760E+02 -0.10806445485E+03  0.57928626348E+02  0.12757746604E+03  0.00000000000E+00 0. -1.
         -4    1    5    5    0  503  0.18574036865E+03 -0.25376749109E+03  0.64690391768E+02  0.32106427840E+03  0.00000000000E+00 0.  1.
         -3    1    6    6    0  502 -0.18352585824E+03  0.31549650218E+03 -0.19970711586E+03  0.41605614483E+03  0.00000000000E+00 0.  1.
<mgrwt>
<rscale>  0 0.14434762E+04</rscale>
<asrwt>0</asrwt>
<pdfrwt beam="1">  1        1 0.15533367E+00 0.14434762E+04</pdfrwt>
<pdfrwt beam="2">  1       -1 0.79371926E-01 0.14434762E+04</pdfrwt>
<totfact> 0.22927033E+01</totfact>
</mgrwt>
</event>
<event>
12    1  0.1495204E-007  0.1826271E+04  0.7818608E-02  0.8692452E-01
          2   -1    0    0  501    0  0.00000000000E+00  0.00000000000E+00  0.28830624145E+04  0.28830624145E+04  0.00000000000E+00 0. -1.
         -2   -1    0    0    0  501 -0.00000000000E+00 -0.00000000000E+00 -0.28921199820E+03  0.28921199820E+03  0.00000000000E+00 0.  1.
         23    2    1    2    0    0  0.38247250035E+03 -0.42929884085E+03  0.33944170740E+03  0.67457609823E+03  0.96174483621E+02 0.  0.
        254    2    1    2    0    0 -0.38247250035E+03  0.42929884085E+03  0.22544087089E+04  0.24976983145E+04  0.90860086675E+03 0.  0.
        -24    2    4    4    0    0 -0.33878769623E+03  0.70435671705E+03  0.16156160331E+04  0.17964425494E+04  0.78071625715E+02 0.  0.
         24    2    4    4    0    0 -0.43684804118E+02 -0.27505787620E+03  0.63879267580E+03  0.70125576511E+03  0.78347738204E+02 0.  0.
         11    1    3    3    0    0  0.20802518855E+03 -0.22550576535E+03  0.12560806205E+03  0.33151879966E+03  0.00000000000E+00 0. -1.
        -11    1    3    3    0    0  0.17444731180E+03 -0.20379307550E+03  0.21383364535E+03  0.34305729857E+03  0.00000000000E+00 0.  1.
          4    1    6    6  502    0 -0.25342359813E+02 -0.14128300231E+03  0.23378815066E+03  0.27433559982E+03  0.00000000000E+00 0. -1.
          3    1    5    5  503    0 -0.31761016490E+03  0.66440948141E+03  0.15573785196E+04  0.17227141461E+04  0.00000000000E+00 0. -1.
         -4    1    5    5    0  503 -0.21177531329E+02  0.39947235643E+02  0.58237513502E+02  0.73728403262E+02  0.00000000000E+00 0.  1.
         -3    1    6    6    0  502 -0.18342444306E+02 -0.13377487389E+03  0.40500452514E+03  0.42692016529E+03  0.00000000000E+00 0.  1.
<mgrwt>
<rscale>  0 0.18262708E+04</rscale>
<asrwt>0</asrwt>
<pdfrwt beam="1">  1        2 0.44354804E+00 0.18262708E+04</pdfrwt>
<pdfrwt beam="2">  1       -2 0.44494155E-01 0.18262708E+04</pdfrwt>
<totfact> 0.93137023E+00</totfact>
</mgrwt>
</event>
<event>
12    1  0.1495204E-007  0.1092542E+04  0.7818608E-02  0.9212492E-01
         -2   -1    0    0    0  501 -0.00000000000E+00  0.00000000000E+00  0.16156290528E+03  0.16156290528E+03  0.00000000000E+00 0.  1.
          2   -1    0    0  501    0  0.00000000000E+00 -0.00000000000E+00 -0.18470328337E+04  0.18470328337E+04  0.00000000000E+00 0. -1.
         23    2    1    2    0    0 -0.13161621126E+03 -0.11852936884E+03 -0.25950918895E+03  0.32621351890E+03  0.87739400588E+02 0.  0.
        254    2    1    2    0    0  0.13161621126E+03  0.11852936884E+03 -0.14259607395E+04  0.16823822201E+04  0.87502792278E+03 0.  0.
        -24    2    4    4    0    0 -0.16862061510E+02  0.29649003854E+03 -0.84702582179E+02  0.31876645401E+03  0.79037033748E+02 0.  0.
         24    2    4    4    0    0  0.14847827277E+03 -0.17796066970E+03 -0.13412581573E+04  0.13636157661E+04  0.82211407705E+02 0.  0.
         13    1    3    3    0    0 -0.87866626924E+02 -0.12361708447E+03 -0.21889315963E+03  0.26630047509E+03  0.00000000000E+00 0. -1.
        -13    1    3    3    0    0 -0.43749584336E+02  0.50877156347E+01 -0.40616029319E+02  0.59913043801E+02  0.00000000000E+00 0.  1.
          4    1    6    6  502    0 -0.22823230705E+01 -0.32354113123E+02 -0.27886936895E+03  0.28074921651E+03  0.00000000000E+00 0. -1.
          3    1    5    5  503    0  0.28762432274E+02  0.89094433247E+02 -0.39721619865E+02  0.10170006210E+03  0.00000000000E+00 0. -1.
         -4    1    5    5    0  503 -0.45624493785E+02  0.20739560530E+03 -0.44980962314E+02  0.21706639192E+03  0.00000000000E+00 0.  1.
         -3    1    6    6    0  502  0.15076059584E+03 -0.14560655658E+03 -0.10623887884E+04  0.10828665496E+04  0.00000000000E+00 0.  1.
<mgrwt>
<rscale>  0 0.10925420E+04</rscale>
<asrwt>0</asrwt>
<pdfrwt beam="1">  1        2 0.28415891E+00 0.10925420E+04</pdfrwt>
<pdfrwt beam="2">  1       -2 0.24855831E-01 0.10925420E+04</pdfrwt>
<totfact> 0.11711712E+02</totfact>
</mgrwt>
</event>
<event>
12    1  0.1495204E-007  0.4372834E+04  0.7818608E-02  0.7933286E-01
         -2   -1    0    0    0  501 -0.00000000000E+00  0.00000000000E+00  0.19560294853E+04  0.19560294853E+04  0.00000000000E+00 0.  1.
          2   -1    0    0  501    0  0.00000000000E+00 -0.00000000000E+00 -0.24439399282E+04  0.24439399282E+04  0.00000000000E+00 0. -1.
         23    2    1    2    0    0 -0.20295096637E+04 -0.22549229169E+03  0.22860902220E+03  0.20568198013E+04  0.92137729469E+02 0.  0.
        254    2    1    2    0    0  0.20295096637E+04  0.22549229169E+03 -0.71651946514E+03  0.23431496122E+04  0.89843959860E+03 0.  0.
        -24    2    4    4    0    0  0.33150401532E+03 -0.15072801515E+03  0.14504549775E+03  0.40038803358E+03  0.81599842489E+02 0.  0.
         24    2    4    4    0    0  0.16980056484E+04  0.37622030683E+03 -0.86156496289E+03  0.19427615786E+04  0.85225962511E+02 0.  0.
         11    1    3    3    0    0 -0.13146112130E+04 -0.16788415508E+03  0.18678304167E+03  0.13383854585E+04  0.00000000000E+00 0.  1.
        -11    1    3    3    0    0 -0.71489845074E+03 -0.57608136601E+02  0.41825980524E+02  0.71843434280E+03  0.00000000000E+00 0. -1.
          2    1    6    6  502    0  0.11997183064E+04  0.25564655354E+03 -0.56529775176E+03  0.13506445584E+04  0.00000000000E+00 0. -1.
          1    1    5    5  503    0  0.52789407224E+02 -0.60335691642E+02  0.29608368799E+02  0.85462112681E+02  0.00000000000E+00 0. -1.
         -2    1    5    5    0  503  0.27871460809E+03 -0.90392323506E+02  0.11543712895E+03  0.31492592090E+03  0.00000000000E+00 0.  1.
         -1    1    6    6    0  502  0.49828734201E+03  0.12057375329E+03 -0.29626721113E+03  0.59211702018E+03  0.00000000000E+00 0.  1.
<mgrwt>
<rscale>  0 0.43728337E+04</rscale>
<asrwt>0</asrwt>
<pdfrwt beam="1">  1        2 0.37599076E+00 0.43728337E+04</pdfrwt>
<pdfrwt beam="2">  1       -2 0.30092761E+00 0.43728337E+04</pdfrwt>
<totfact> 0.90078637E-02</totfact>
</mgrwt>
</event>
<event>
12    1  0.1495204E-007  0.2406304E+04  0.7818608E-02  0.8437147E-01
          2   -1    0    0  501    0  0.00000000000E+00  0.00000000000E+00  0.18337402465E+04  0.18337402465E+04  0.00000000000E+00 0. -1.
         -2   -1    0    0    0  501 -0.00000000000E+00 -0.00000000000E+00 -0.78941099635E+03  0.78941099635E+03  0.00000000000E+00 0.  1.
         23    2    1    2    0    0  0.83910615225E+03  0.15412547854E+03 -0.19228786299E+03  0.87931908543E+03  0.91507561822E+02 0.  0.
        254    2    1    2    0    0 -0.83910615225E+03 -0.15412547854E+03  0.12366171131E+04  0.17438321574E+04  0.88536710512E+03 0.  0.
        -24    2    4    4    0    0  0.43356651841E+02  0.23462990893E+03  0.17003115872E+03  0.30371711313E+03  0.80015601261E+02 0.  0.
         24    2    4    4    0    0 -0.88246280409E+03 -0.38875538747E+03  0.10665859544E+04  0.14401150443E+04  0.80339222754E+02 0.  0.
         11    1    3    3    0    0  0.11288512174E+02  0.43278122410E+01 -0.15542883729E+02  0.19691157927E+02  0.00000000000E+00 0. -1.
        -11    1    3    3    0    0  0.82781764008E+03  0.14979766629E+03 -0.17674497926E+03  0.85962792751E+03  0.00000000000E+00 0.  1.
          4    1    6    6  502    0 -0.76905212954E+03 -0.34157247543E+03  0.96786366234E+03  0.12825260242E+04  0.00000000000E+00 0. -1.
          3    1    5    5  503    0  0.42668723345E+02  0.24020676574E+03  0.17111591634E+03  0.29799424002E+03  0.00000000000E+00 0. -1.
         -4    1    5    5    0  503  0.68792849678E+00 -0.55768568089E+01 -0.10847576217E+01  0.57228731054E+01  0.00000000000E+00 0.  1.
         -3    1    6    6    0  502 -0.11341067456E+03 -0.47182912035E+02  0.98722292076E+02  0.15758902006E+03  0.00000000000E+00 0.  1.
<mgrwt>
<rscale>  0 0.24063040E+04</rscale>
<asrwt>0</asrwt>
<pdfrwt beam="1">  1        2 0.28211388E+00 0.24063040E+04</pdfrwt>
<pdfrwt beam="2">  1       -2 0.12144785E+00 0.24063040E+04</pdfrwt>
<totfact> 0.38283950E+00</totfact>
</mgrwt>
</event>
<event>
12    1  0.1495204E-007  0.2554222E+04  0.7818608E-02  0.8383919E-01
         -1   -1    0    0    0  501 -0.00000000000E+00  0.00000000000E+00  0.82423807234E+03  0.82423807234E+03  0.00000000000E+00 0.  1.
          1   -1    0    0  501    0  0.00000000000E+00 -0.00000000000E+00 -0.19788124410E+04  0.19788124410E+04  0.00000000000E+00 0. -1.
         23    2    1    2    0    0  0.55034658001E+03  0.86271019258E+03 -0.20621388098E+02  0.10275945460E+04  0.91515435179E+02 0.  0.
        254    2    1    2    0    0 -0.55034658001E+03 -0.86271019258E+03 -0.11339529806E+04  0.17754559674E+04  0.90512114951E+03 0.  0.
        -24    2    4    4    0    0 -0.49913455603E+03 -0.97374251914E+01 -0.36899293310E+03  0.62576193708E+03  0.78689864341E+02 0.  0.
         24    2    4    4    0    0 -0.51212023981E+02 -0.85297276739E+03 -0.76496004750E+03  0.11496940303E+04  0.80294929309E+02 0.  0.
         11    1    3    3    0    0  0.29931913392E+03  0.39893829669E+03 -0.35797341715E+02  0.50002515754E+03  0.00000000000E+00 0.  1.
        -11    1    3    3    0    0  0.25102744609E+03  0.46377189589E+03  0.15175953616E+02  0.52756938849E+03  0.00000000000E+00 0. -1.
          2    1    6    6  502    0 -0.18779984819E+02 -0.69778237640E+03 -0.59434075631E+03  0.91678452608E+03  0.00000000000E+00 0. -1.
          3    1    5    5  503    0 -0.38421130078E+03 -0.14470892728E+02 -0.32200890554E+03  0.50151516989E+03  0.00000000000E+00 0. -1.
         -4    1    5    5    0  503 -0.11492325524E+03  0.47334675361E+01 -0.46984027564E+02  0.12424676719E+03  0.00000000000E+00 0.  1.
         -1    1    6    6    0  502 -0.32432039162E+02 -0.15519039099E+03 -0.17061929119E+03  0.23290950419E+03  0.00000000000E+00 0.  1.
<mgrwt>
<rscale>  0 0.25542220E+04</rscale>
<asrwt>0</asrwt>
<pdfrwt beam="1">  1        1 0.30443268E+00 0.25542220E+04</pdfrwt>
<pdfrwt beam="2">  1       -1 0.12680586E+00 0.25542220E+04</pdfrwt>
<totfact> 0.14703955E+00</totfact>
</mgrwt>
</event>
<event>
12    1  0.1495204E-007  0.2818489E+04  0.7818608E-02  0.8297551E-01
         -2   -1    0    0    0  501 -0.00000000000E+00  0.00000000000E+00  0.87215656772E+03  0.87215656772E+03  0.00000000000E+00 0. -1.
          2   -1    0    0  501    0  0.00000000000E+00 -0.00000000000E+00 -0.22770797139E+04  0.22770797139E+04  0.00000000000E+00 0.  1.
         23    2    1    2    0    0 -0.72872761095E+03 -0.66996354253E+02  0.51636792216E+03  0.90040129661E+03  0.92489034301E+02 0.  0.
        254    2    1    2    0    0  0.72872761095E+03  0.66996354253E+02 -0.19212910683E+04  0.22488349850E+04  0.91124474103E+03 0.  0.
        -24    2    4    4    0    0  0.77961774843E+03 -0.23352382184E+03 -0.16113660025E+04  0.18069405475E+04  0.78718097433E+02 0.  0.
         24    2    4    4    0    0 -0.50890137486E+02  0.30052017609E+03 -0.30992506577E+03  0.44189443753E+03  0.79466755258E+02 0.  0.
         13    1    3    3    0    0 -0.58106897913E+03 -0.16467319188E+02  0.39730058385E+03  0.70410232568E+03  0.00000000000E+00 0. -1.
        -13    1    3    3    0    0 -0.14765863182E+03 -0.50529035065E+02  0.11906733831E+03  0.19629897093E+03  0.00000000000E+00 0.  1.
          4    1    6    6  502    0 -0.35170364514E+02  0.29660052705E+03 -0.29132393032E+03  0.41722710789E+03  0.00000000000E+00 0. -1.
          3    1    5    5  503    0  0.58346577030E+03 -0.20700671449E+03 -0.11906341615E+04  0.13419738416E+04  0.00000000000E+00 0. -1.
         -4    1    5    5    0  503  0.19615197813E+03 -0.26517107344E+02 -0.42073184106E+03  0.46496670589E+03  0.00000000000E+00 0.  1.
         -3    1    6    6    0  502 -0.15719772972E+02  0.39196490393E+01 -0.18601135457E+02  0.24667329632E+02  0.00000000000E+00 0.  1.
<mgrwt>
<rscale>  0 0.28184890E+04</rscale>
<asrwt>0</asrwt>
<pdfrwt beam="1">  1        2 0.35031996E+00 0.28184890E+04</pdfrwt>
<pdfrwt beam="2">  1       -2 0.13417793E+00 0.28184890E+04</pdfrwt>
<totfact> 0.16262424E+00</totfact>
</mgrwt>
</event>
<event>
12    1  0.1495204E-007  0.1172500E+04  0.7818608E-02  0.9137274E-01
         -2   -1    0    0    0  501 -0.00000000000E+00  0.00000000000E+00  0.10598113525E+04  0.10598113525E+04  0.00000000000E+00 0.  1.
          2   -1    0    0  501    0  0.00000000000E+00 -0.00000000000E+00 -0.32429253262E+03  0.32429253262E+03  0.00000000000E+00 0. -1.
         23    2    1    2    0    0 -0.13783230844E+03 -0.13036457791E+03  0.96569577038E+01  0.21089193096E+03  0.91594111648E+02 0.  0.
        254    2    1    2    0    0  0.13783230844E+03  0.13036457791E+03  0.72586186218E+03  0.11732119542E+04  0.90197459943E+03 0.  0.
        -24    2    4    4    0    0 -0.36940973689E+03  0.15248740678E+03  0.33217831765E+03  0.52583722207E+03  0.80289391984E+02 0.  0.
         24    2    4    4    0    0  0.50724204533E+03 -0.22122828868E+02  0.39368354453E+03  0.64737473210E+03  0.79519798932E+02 0.  0.
         13    1    3    3    0    0 -0.64423944395E+02 -0.31147395593E+02  0.42431846212E+02  0.83192947036E+02  0.00000000000E+00 0.  1.
        -13    1    3    3    0    0 -0.73408364043E+02 -0.99217182315E+02 -0.32774888508E+02  0.12769898392E+03  0.00000000000E+00 0. -1.
          4    1    6    6  502    0  0.67911998997E+02 -0.18908514457E+02  0.85018782263E+02  0.11044349172E+03  0.00000000000E+00 0. -1.
          1    1    5    5  503    0 -0.29557757542E+02 -0.95774624642E+01  0.27387355283E+02  0.41418064266E+02  0.00000000000E+00 0. -1.
         -2    1    5    5    0  503 -0.33985197935E+03  0.16206486924E+03  0.30479096237E+03  0.48441915780E+03  0.00000000000E+00 0.  1.
         -3    1    6    6    0  502  0.43933004633E+03 -0.32143144111E+01  0.30866476227E+03  0.53693124037E+03  0.00000000000E+00 0.  1.
<mgrwt>
<rscale>  0 0.11724997E+04</rscale>
<asrwt>0</asrwt>
<pdfrwt beam="1">  1        2 0.49891159E-01 0.11724997E+04</pdfrwt>
<pdfrwt beam="2">  1       -2 0.16304790E+00 0.11724997E+04</pdfrwt>
<totfact> 0.23771300E+01</totfact>
</mgrwt>
</event>
<event>
12    1  0.1495204E-007  0.2004187E+04  0.7818608E-02  0.8604666E-01
         -1   -1    0    0    0  501 -0.00000000000E+00  0.00000000000E+00  0.89042585658E+03  0.89042585658E+03  0.00000000000E+00 0.  1.
          1   -1    0    0  501    0  0.00000000000E+00 -0.00000000000E+00 -0.11277650793E+04  0.11277650793E+04  0.00000000000E+00 0. -1.
         23    2    1    2    0    0  0.11685411995E+03  0.29854495068E+03  0.64184697472E+03  0.72330055261E+03  0.91717923652E+02 0.  0.
        254    2    1    2    0    0 -0.11685411995E+03 -0.29854495068E+03 -0.87918619749E+03  0.12948903833E+04  0.89497975508E+03 0.  0.
        -24    2    4    4    0    0 -0.27930325731E+03  0.20941050910E+03 -0.15055442355E+03  0.38837441806E+03  0.79403924906E+02 0.  0.
         24    2    4    4    0    0  0.16244913737E+03 -0.50795545978E+03 -0.72863177395E+03  0.90651596525E+03  0.80364556227E+02 0.  0.
         13    1    3    3    0    0  0.32412717122E+02  0.70635845663E+02  0.82033431876E+02  0.11300217197E+03  0.00000000000E+00 0. -1.
        -13    1    3    3    0    0  0.84441402825E+02  0.22790910501E+03  0.55981354285E+03  0.61029838064E+03  0.00000000000E+00 0.  1.
          2    1    6    6  502    0  0.12510892580E+03 -0.26134244856E+03 -0.40227618624E+03  0.49576027347E+03  0.00000000000E+00 0. -1.
          3    1    5    5  503    0 -0.52944096206E+02  0.53270989363E+01 -0.20995240658E+02  0.57203631322E+02  0.00000000000E+00 0. -1.
         -4    1    5    5    0  503 -0.22635916111E+03  0.20408341016E+03 -0.12955918289E+03  0.33117078674E+03  0.00000000000E+00 0.  1.
         -1    1    6    6    0  502  0.37340211561E+02 -0.24661301122E+03 -0.32635558771E+03  0.41075569178E+03  0.00000000000E+00 0.  1.
<mgrwt>
<rscale>  0 0.20041868E+04</rscale>
<asrwt>0</asrwt>
<pdfrwt beam="1">  1        1 0.17350232E+00 0.20041868E+04</pdfrwt>
<pdfrwt beam="2">  1       -1 0.13698859E+00 0.20041868E+04</pdfrwt>
<totfact> 0.49716600E+00</totfact>
</mgrwt>
</event>
<event>
12    1  0.1495204E-007  0.1289353E+04  0.7818608E-02  0.9038051E-01
         -3   -1    0    0    0  501 -0.00000000000E+00  0.00000000000E+00  0.53258562054E+03  0.53258562054E+03  0.00000000000E+00 0.  1.
          3   -1    0    0  501    0  0.00000000000E+00 -0.00000000000E+00 -0.78035844255E+03  0.78035844255E+03  0.00000000000E+00 0. -1.
         23    2    1    2    0    0 -0.19243532316E+03 -0.16160366577E+03  0.13726225210E+03  0.30030774282E+03  0.90535717561E+02 0.  0.
        254    2    1    2    0    0  0.19243532316E+03  0.16160366577E+03 -0.38503507411E+03  0.10126363203E+04  0.90223789017E+03 0.  0.
        -24    2    4    4    0    0  0.42437983678E+03  0.37249195867E+03 -0.94962099538E+02  0.57823272342E+03  0.80540529804E+02 0.  0.
         24    2    4    4    0    0 -0.23194451362E+03 -0.21088829290E+03 -0.29007297457E+03  0.43440359685E+03  0.79322285035E+02 0.  0.
         13    1    3    3    0    0 -0.88293626998E+02 -0.54335951562E+02  0.10460638782E+03  0.14727748155E+03  0.00000000000E+00 0.  1.
        -13    1    3    3    0    0 -0.10414169616E+03 -0.10726771421E+03  0.32655864289E+02  0.15303026127E+03  0.00000000000E+00 0. -1.
          4    1    6    6  502    0 -0.19767883663E+03 -0.21012934523E+03 -0.26696829176E+03  0.39306911986E+03  0.00000000000E+00 0. -1.
          1    1    5    5  503    0  0.42610960603E+03  0.36072563239E+03 -0.90782947552E+02  0.56562701649E+03  0.00000000000E+00 0. -1.
         -2    1    5    5    0  503 -0.17297692531E+01  0.11766326279E+02 -0.41791519862E+01  0.12605706925E+02  0.00000000000E+00 0.  1.
         -3    1    6    6    0  502 -0.34265676985E+02 -0.75894766894E+00 -0.23104682813E+02  0.41334476998E+02  0.00000000000E+00 0.  1.
<mgrwt>
<rscale>  0 0.12893528E+04</rscale>
<asrwt>0</asrwt>
<pdfrwt beam="1">  1        3 0.12005514E+00 0.12893528E+04</pdfrwt>
<pdfrwt beam="2">  1       -3 0.81936250E-01 0.12893528E+04</pdfrwt>
<totfact> 0.20054475E+00</totfact>
</mgrwt>
</event>
<event>
12    1  0.1495204E-007  0.1727153E+04  0.7818608E-02  0.8746028E-01
         -2   -1    0    0    0  501 -0.00000000000E+00  0.00000000000E+00  0.30847209864E+03  0.30847209864E+03  0.00000000000E+00 0.  1.
          2   -1    0    0  501    0  0.00000000000E+00 -0.00000000000E+00 -0.24176063636E+04  0.24176063636E+04  0.00000000000E+00 0. -1.
         23    2    1    2    0    0 -0.16629080775E+02  0.21871755909E+03  0.15689236971E+03  0.28435630134E+03  0.90163149118E+02 0.  0.
        254    2    1    2    0    0  0.16629080775E+02 -0.21871755909E+03 -0.22660266346E+04  0.24417221609E+04  0.88261911660E+03 0.  0.
        -24    2    4    4    0    0 -0.60597275446E+02  0.22756887242E+03 -0.18308405403E+03  0.30861780551E+03  0.79155274955E+02 0.  0.
         24    2    4    4    0    0  0.77226356221E+02 -0.44628643151E+03 -0.20829425806E+04  0.21331043553E+04  0.79680033083E+02 0.  0.
         11    1    3    3    0    0  0.17835419066E+02  0.16992784844E+02 -0.27754474153E+01  0.24790321062E+02  0.00000000000E+00 0. -1.
        -11    1    3    3    0    0 -0.34464499841E+02  0.20172477424E+03  0.15966781712E+03  0.25956598028E+03  0.00000000000E+00 0.  1.
          4    1    6    6  502    0  0.34920932419E+02 -0.18758172626E+03 -0.10645626649E+04  0.10815267186E+04  0.00000000000E+00 0. -1.
          3    1    5    5  503    0 -0.49096054149E+02  0.10719960115E+03 -0.47954004216E+02  0.12728614827E+03  0.00000000000E+00 0. -1.
         -4    1    5    5    0  503 -0.11501221297E+02  0.12036927127E+03 -0.13513004981E+03  0.18133165725E+03  0.00000000000E+00 0.  1.
         -3    1    6    6    0  502  0.42305423803E+02 -0.25870470525E+03 -0.10183799157E+04  0.10515776368E+04  0.00000000000E+00 0.  1.
<mgrwt>
<rscale>  0 0.17271527E+04</rscale>
<asrwt>0</asrwt>
<pdfrwt beam="1">  1        2 0.37193944E+00 0.17271527E+04</pdfrwt>
<pdfrwt beam="2">  1       -2 0.47457246E-01 0.17271527E+04</pdfrwt>
<totfact> 0.15536687E+01</totfact>
</mgrwt>
</event>
<event>
12    1  0.1495204E-007  0.2001650E+04  0.7818608E-02  0.8605850E-01
          2   -1    0    0  501    0  0.00000000000E+00  0.00000000000E+00  0.84701422958E+03  0.84701422958E+03  0.00000000000E+00 0.  1.
         -2   -1    0    0    0  501 -0.00000000000E+00 -0.00000000000E+00 -0.11825663950E+04  0.11825663950E+04  0.00000000000E+00 0. -1.
         23    2    1    2    0    0 -0.45925062159E+03  0.62121859419E+03 -0.35102342857E+03  0.85349688077E+03  0.91737685202E+02 0.  0.
        254    2    1    2    0    0  0.45925062159E+03 -0.62121859419E+03  0.15471263137E+02  0.11760837438E+04  0.88662840993E+03 0.  0.
        -24    2    4    4    0    0  0.41048597516E+03 -0.82073182442E+03 -0.97946805860E+02  0.92650763811E+03  0.81996117433E+02 0.  0.
         24    2    4    4    0    0  0.48764646427E+02  0.19951323023E+03  0.11341806900E+03  0.24957610571E+03  0.85094385182E+02 0.  0.
         11    1    3    3    0    0 -0.39366785110E+03  0.47018089027E+03 -0.27154262961E+03  0.67065628027E+03  0.00000000000E+00 0. -1.
        -11    1    3    3    0    0 -0.65582770488E+02  0.15103770391E+03 -0.79480798967E+02  0.18284060050E+03  0.00000000000E+00 0.  1.
          2    1    6    6  502    0 -0.53325532779E+01  0.14639709494E+03  0.75725491580E+02  0.16490874933E+03  0.00000000000E+00 0. -1.
          1    1    5    5  503    0  0.25502056769E+03 -0.42069127201E+03 -0.43264853067E+02  0.49385066953E+03  0.00000000000E+00 0. -1.
         -2    1    5    5    0  503  0.15546540747E+03 -0.40004055241E+03 -0.54681952792E+02  0.43265696857E+03  0.00000000000E+00 0.  1.
         -1    1    6    6    0  502  0.54097199705E+02  0.53116135291E+02  0.37692577416E+02  0.84667356380E+02  0.00000000000E+00 0.  1.
<mgrwt>
<rscale>  0 0.20016499E+04</rscale>
<asrwt>0</asrwt>
<pdfrwt beam="1">  1        2 0.13030988E+00 0.20016499E+04</pdfrwt>
<pdfrwt beam="2">  1       -2 0.18193329E+00 0.20016499E+04</pdfrwt>
<totfact> 0.52072349E+00</totfact>
</mgrwt>
</event>
<event>
12    1  0.1495204E-007  0.2396083E+04  0.7818608E-02  0.8440971E-01
          2   -1    0    0  501    0  0.00000000000E+00  0.00000000000E+00  0.21272544567E+04  0.21272544567E+04  0.00000000000E+00 0. -1.
         -2   -1    0    0    0  501 -0.00000000000E+00 -0.00000000000E+00 -0.67472114446E+03  0.67472114446E+03  0.00000000000E+00 0.  1.
         23    2    1    2    0    0 -0.61736266339E+03 -0.41425962078E+03  0.14206980414E+04  0.16064810063E+04  0.98237504203E+02 0.  0.
        254    2    1    2    0    0  0.61736266339E+03  0.41425962078E+03  0.31835270853E+02  0.11954945949E+04  0.93565279366E+03 0.  0.
        -24    2    4    4    0    0 -0.98055562321E+02 -0.19687723966E+03 -0.79048432032E+02  0.24468539632E+03  0.72434437705E+02 0.  0.
         24    2    4    4    0    0  0.71541822571E+03  0.61113686044E+03  0.11088370288E+03  0.95080919854E+03  0.80196237950E+02 0.  0.
         11    1    3    3    0    0 -0.31346728512E+03 -0.20559721837E+03  0.61133107167E+03  0.71711758744E+03  0.00000000000E+00 0.  1.
        -11    1    3    3    0    0 -0.30389537828E+03 -0.20866240241E+03  0.80936696969E+03  0.88936341882E+03  0.00000000000E+00 0. -1.
          2    1    6    6  502    0  0.27668379379E+03  0.27983873915E+03  0.68116525088E+02  0.39937889612E+03  0.00000000000E+00 0. -1.
          1    1    5    5  503    0 -0.23272073259E+02 -0.10954590269E+03 -0.63284349631E+02  0.12863437759E+03  0.00000000000E+00 0. -1.
         -2    1    5    5    0  503 -0.74783489061E+02 -0.87331336966E+02 -0.15764082400E+02  0.11605101872E+03  0.00000000000E+00 0.  1.
         -1    1    6    6    0  502  0.43873443192E+03  0.33129812129E+03  0.42767177797E+02  0.55143030241E+03  0.00000000000E+00 0.  1.
<mgrwt>
<rscale>  0 0.23960831E+04</rscale>
<asrwt>0</asrwt>
<pdfrwt beam="1">  1        2 0.32726991E+00 0.23960831E+04</pdfrwt>
<pdfrwt beam="2">  1       -2 0.10380325E+00 0.23960831E+04</pdfrwt>
<totfact> 0.38554015E+00</totfact>
</mgrwt>
</event>
<event>
12    1  0.1495204E-007  0.1170425E+04  0.7818608E-02  0.9139144E-01
         -2   -1    0    0    0  501 -0.00000000000E+00  0.00000000000E+00  0.35448878462E+03  0.35448878462E+03  0.00000000000E+00 0.  1.
          2   -1    0    0  501    0  0.00000000000E+00 -0.00000000000E+00 -0.96610659007E+03  0.96610659007E+03  0.00000000000E+00 0. -1.
         23    2    1    2    0    0 -0.10119609146E+03 -0.18288777586E+03 -0.27753672923E+03  0.35718178872E+03  0.82846886703E+02 0.  0.
        254    2    1    2    0    0  0.10119609146E+03  0.18288777586E+03 -0.33408107622E+03  0.96341358596E+03  0.87912853704E+03 0.  0.
        -24    2    4    4    0    0 -0.26240988627E+03 -0.18856500063E+03  0.13031882477E+02  0.33331421539E+03  0.80702096287E+02 0.  0.
         24    2    4    4    0    0  0.36360597772E+03  0.37145277649E+03 -0.34711295870E+03  0.63009937058E+03  0.79695285349E+02 0.  0.
         13    1    3    3    0    0 -0.61078642959E+02 -0.16263808614E+03 -0.18201434384E+03  0.25161671060E+03  0.00000000000E+00 0.  1.
        -13    1    3    3    0    0 -0.40117448499E+02 -0.20249689716E+02 -0.95522385392E+02  0.10556507812E+03  0.00000000000E+00 0. -1.
          4    1    6    6  502    0  0.33248394992E+03  0.34668618556E+03 -0.34272855394E+03  0.59008452775E+03  0.00000000000E+00 0. -1.
          3    1    5    5  503    0 -0.26599807395E+03 -0.17368763469E+03  0.13888951617E+02  0.31798627763E+03  0.00000000000E+00 0. -1.
         -4    1    5    5    0  503  0.35881876805E+01 -0.14877365943E+02 -0.85706914007E+00  0.15327937753E+02  0.00000000000E+00 0.  1.
         -3    1    6    6    0  502  0.31122027807E+02  0.24766590932E+02 -0.43844047622E+01  0.40014842825E+02  0.00000000000E+00 0.  1.
<mgrwt>
<rscale>  0 0.11704255E+04</rscale>
<asrwt>0</asrwt>
<pdfrwt beam="1">  1        2 0.14863178E+00 0.11704255E+04</pdfrwt>
<pdfrwt beam="2">  1       -2 0.54536737E-01 0.11704255E+04</pdfrwt>
<totfact> 0.82885003E+01</totfact>
</mgrwt>
</event>
<event>
12    1  0.1495204E-007  0.3065486E+04  0.7818608E-02  0.8225274E-01
         -3   -1    0    0    0  501 -0.00000000000E+00  0.00000000000E+00  0.21900956871E+04  0.21900956871E+04  0.00000000000E+00 0.  1.
          3   -1    0    0  501    0  0.00000000000E+00 -0.00000000000E+00 -0.10726934135E+04  0.10726934135E+04  0.00000000000E+00 0. -1.
         23    2    1    2    0    0 -0.40725315380E+03 -0.67116228855E+03  0.17448818477E+04  0.19156504646E+04  0.93755487747E+02 0.  0.
        254    2    1    2    0    0  0.40725315380E+03  0.67116228855E+03 -0.62747957410E+03  0.13471386360E+04  0.89707186989E+03 0.  0.
        -24    2    4    4    0    0 -0.10025933163E+03 -0.16387709558E+03 -0.88390305954E+02  0.22816477569E+03  0.85666111416E+02 0.  0.
         24    2    4    4    0    0  0.50751248543E+03  0.83503938413E+03 -0.53908926815E+03  0.11189738603E+04  0.81397573905E+02 0.  0.
         11    1    3    3    0    0 -0.40739713185E+03 -0.66676247196E+03  0.17441622967E+04  0.19111898740E+04  0.00000000000E+00 0.  1.
        -11    1    3    3    0    0  0.14397805150E+00 -0.43998165888E+01  0.71955097190E+00  0.44605906891E+01  0.00000000000E+00 0. -1.
          4    1    6    6  502    0  0.35655723571E+03  0.54118405479E+03 -0.39138580120E+03  0.75709714626E+03  0.00000000000E+00 0. -1.
          1    1    5    5  503    0 -0.34884979503E+02 -0.12007514900E+03 -0.81316548400E+02  0.14915557062E+03  0.00000000000E+00 0. -1.
         -2    1    5    5    0  503 -0.65374352129E+02 -0.43801946573E+02 -0.70737575533E+01  0.79009205070E+02  0.00000000000E+00 0.  1.
         -3    1    6    6    0  502  0.15095524973E+03  0.29385532934E+03 -0.14770346695E+03  0.36187671402E+03  0.00000000000E+00 0.  1.
<mgrwt>
<rscale>  0 0.30654861E+04</rscale>
<asrwt>0</asrwt>
<pdfrwt beam="1">  1        3 0.16502976E+00 0.30654861E+04</pdfrwt>
<pdfrwt beam="2">  1       -3 0.33693780E+00 0.30654861E+04</pdfrwt>
<totfact> 0.13132029E-02</totfact>
</mgrwt>
</event>
<event>
12    1  0.1495204E-007  0.1544929E+04  0.7818608E-02  0.8855113E-01
          1   -1    0    0  501    0  0.00000000000E+00  0.00000000000E+00  0.44179689834E+03  0.44179689834E+03  0.00000000000E+00 0. -1.
         -1   -1    0    0    0  501 -0.00000000000E+00 -0.00000000000E+00 -0.13506233514E+04  0.13506233514E+04  0.00000000000E+00 0.  1.
         23    2    1    2    0    0 -0.55505140970E+01 -0.27247100101E+02  0.28545565720E+03  0.30028967559E+03  0.88970469074E+02 0.  0.
        254    2    1    2    0    0  0.55505140970E+01  0.27247100101E+02 -0.11942821102E+04  0.14921305741E+04  0.89407532050E+03 0.  0.
        -24    2    4    4    0    0  0.41496818418E+02  0.34268927691E+03 -0.12829266183E+03  0.37693574512E+03  0.80396656774E+02 0.  0.
         24    2    4    4    0    0 -0.35946304321E+02 -0.31544217681E+03 -0.10659894484E+04  0.11151948290E+04  0.80809026954E+02 0.  0.
         13    1    3    3    0    0 -0.15580173021E+02 -0.47410479879E+02  0.26565755679E+03  0.27030433380E+03  0.00000000000E+00 0. -1.
        -13    1    3    3    0    0  0.10029658924E+02  0.20163379778E+02  0.19798100415E+02  0.29985341790E+02  0.00000000000E+00 0.  1.
          4    1    6    6  502    0  0.23389490381E+02 -0.13804233962E+03 -0.42500070504E+03  0.44746883140E+03  0.00000000000E+00 0. -1.
          1    1    5    5  503    0 -0.12724111444E+02  0.16706870223E+02 -0.20477506560E+02  0.29331737072E+02  0.00000000000E+00 0. -1.
         -4    1    5    5    0  503  0.54220929862E+02  0.32598240668E+03 -0.10781515527E+03  0.34760400804E+03  0.00000000000E+00 0.  1.
         -3    1    6    6    0  502 -0.59335794702E+02 -0.17739983718E+03 -0.64098874334E+03  0.66772599759E+03  0.00000000000E+00 0.  1.
<mgrwt>
<rscale>  0 0.15449287E+04</rscale>
<asrwt>0</asrwt>
<pdfrwt beam="1">  1        1 0.67968753E-01 0.15449287E+04</pdfrwt>
<pdfrwt beam="2">  1       -1 0.20778821E+00 0.15449287E+04</pdfrwt>
<totfact> 0.67331557E+00</totfact>
</mgrwt>
</event>
<event>
12    1  0.1495204E-007  0.2387822E+04  0.7818608E-02  0.8444077E-01
         -2   -1    0    0    0  501 -0.00000000000E+00  0.00000000000E+00  0.75130300955E+03  0.75130300955E+03  0.00000000000E+00 0.  1.
          2   -1    0    0  501    0  0.00000000000E+00 -0.00000000000E+00 -0.18972676734E+04  0.18972676734E+04  0.00000000000E+00 0. -1.
         23    2    1    2    0    0  0.85410469234E+01  0.62995977497E+03  0.38727546318E+03  0.74533985959E+03  0.92881399398E+02 0.  0.
        254    2    1    2    0    0 -0.85410469234E+01 -0.62995977497E+03 -0.15332401270E+04  0.19032308233E+04  0.93516844057E+03 0.  0.
        -24    2    4    4    0    0  0.21444350812E+03 -0.59725538962E+03 -0.15376744066E+04  0.16653510781E+04  0.79067147898E+02 0.  0.
         24    2    4    4    0    0 -0.22298455505E+03 -0.32704385350E+02  0.44342796062E+01  0.23787974526E+03  0.75996195674E+02 0.  0.
         13    1    3    3    0    0 -0.38004309487E+02  0.37967391702E+03  0.24907238364E+03  0.45566836964E+03  0.00000000000E+00 0.  1.
        -13    1    3    3    0    0  0.46545356411E+02  0.25028585795E+03  0.13820307954E+03  0.28967148995E+03  0.00000000000E+00 0. -1.
          2    1    6    6  502    0 -0.18262512178E+03  0.12403264391E+01  0.17745201245E+02  0.18348941572E+03  0.00000000000E+00 0. -1.
          3    1    5    5  503    0  0.10747208722E+03 -0.39363709851E+03 -0.92873431582E+03  0.10144199546E+04  0.00000000000E+00 0. -1.
         -4    1    5    5    0  503  0.10697142090E+03 -0.20361829111E+03 -0.60894009078E+03  0.65093112349E+03  0.00000000000E+00 0.  1.
         -1    1    6    6    0  502 -0.40359433272E+02 -0.33944711789E+02 -0.13310921639E+02  0.54390329539E+02  0.00000000000E+00 0.  1.
<mgrwt>
<rscale>  0 0.23878215E+04</rscale>
<asrwt>0</asrwt>
<pdfrwt beam="1">  1        2 0.29188733E+00 0.23878215E+04</pdfrwt>
<pdfrwt beam="2">  1       -2 0.11558508E+00 0.23878215E+04</pdfrwt>
<totfact> 0.39946420E+00</totfact>
</mgrwt>
</event>
<event>
12    1  0.2074559E-007  0.1882562E+04  0.7818608E-02  0.8663585E-01
          2   -1    0    0  501    0  0.00000000000E+00  0.00000000000E+00  0.11104011160E+04  0.11104011160E+04  0.00000000000E+00 0.  1.
         -2   -1    0    0    0  501 -0.00000000000E+00 -0.00000000000E+00 -0.79791862250E+03  0.79791862250E+03  0.00000000000E+00 0. -1.
         23    2    1    2    0    0  0.44672095615E+03  0.35870324283E+02  0.69686239572E+03  0.83340100613E+03  0.89965246703E+02 0.  0.
        254    2    1    2    0    0 -0.44672095615E+03 -0.35870324283E+02 -0.38437990225E+03  0.10749187324E+04  0.89825167915E+03 0.  0.
        -24    2    4    4    0    0 -0.57454881903E+03 -0.14289242621E+03 -0.56072052111E+03  0.81925479783E+03  0.79033727328E+02 0.  0.
         24    2    4    4    0    0  0.12782786289E+03  0.10702210193E+03  0.17634061886E+03  0.25566393452E+03  0.80463288066E+02 0.  0.
         11    1    3    3    0    0  0.31978448191E+03  0.38645533831E+01  0.55360060332E+03  0.63933612258E+03  0.00000000000E+00 0. -1.
        -11    1    3    3    0    0  0.12693647423E+03  0.32005770899E+02  0.14326179241E+03  0.19406488354E+03  0.00000000000E+00 0.  1.
          2    1    6    6  502    0  0.13833520371E+03  0.10432840122E+03  0.15873367728E+03  0.23498388070E+03  0.00000000000E+00 0. -1.
          3    1    5    5  503    0 -0.56897212899E+03 -0.14966785681E+03 -0.54973429522E+03  0.80519410472E+03  0.00000000000E+00 0. -1.
         -4    1    5    5    0  503 -0.55766900432E+01  0.67754305960E+01 -0.10986225883E+02  0.14060693111E+02  0.00000000000E+00 0.  1.
         -3    1    6    6    0  502 -0.10507340817E+02  0.26937007045E+01  0.17606941574E+02  0.20680053823E+02  0.00000000000E+00 0.  1.
<mgrwt>
<rscale>  0 0.18825618E+04</rscale>
<asrwt>0</asrwt>
<pdfrwt beam="1">  1        2 0.17083094E+00 0.18825618E+04</pdfrwt>
<pdfrwt beam="2">  1       -2 0.12275671E+00 0.18825618E+04</pdfrwt>
<totfact> 0.10102897E+01</totfact>
</mgrwt>
</event>
<event>
12    1  0.1495204E-007  0.1855557E+04  0.7818608E-02  0.8677301E-01
          1   -1    0    0  501    0  0.00000000000E+00  0.00000000000E+00  0.63177148772E+03  0.63177148772E+03  0.00000000000E+00 0. -1.
         -1   -1    0    0    0  501 -0.00000000000E+00 -0.00000000000E+00 -0.13624745412E+04  0.13624745412E+04  0.00000000000E+00 0.  1.
         23    2    1    2    0    0  0.31067243900E+03  0.41258647158E+03  0.23550328151E+03  0.57496982592E+03  0.91561696306E+02 0.  0.
        254    2    1    2    0    0 -0.31067243900E+03 -0.41258647158E+03 -0.96620633497E+03  0.14192762030E+04  0.90224458863E+03 0.  0.
        -24    2    4    4    0    0 -0.65357469911E+02  0.18400892728E+03 -0.67408478282E+03  0.70662350896E+03  0.82435458347E+02 0.  0.
         24    2    4    4    0    0 -0.24531496909E+03 -0.59659539887E+03 -0.29212155215E+03  0.71265269401E+03  0.80208210611E+02 0.  0.
         13    1    3    3    0    0  0.28483211059E+03  0.35726177369E+03  0.17577467641E+03  0.48955290115E+03  0.00000000000E+00 0. -1.
        -13    1    3    3    0    0  0.25840328413E+02  0.55324697897E+02  0.59728605100E+02  0.85416924769E+02  0.00000000000E+00 0.  1.
          4    1    6    6  502    0 -0.65247726056E+02 -0.14230087949E+03 -0.10915204825E+03  0.19084280363E+03  0.00000000000E+00 0. -1.
          1    1    5    5  503    0 -0.16662646507E+02  0.21691231706E+01 -0.20701295997E+02  0.26662568141E+02  0.00000000000E+00 0. -1.
         -2    1    5    5    0  503 -0.48694823404E+02  0.18183980411E+03 -0.65338348682E+03  0.67996094082E+03  0.00000000000E+00 0.  1.
         -3    1    6    6    0  502 -0.18006724304E+03 -0.45429451937E+03 -0.18296950389E+03  0.52180989038E+03  0.00000000000E+00 0.  1.
<mgrwt>
<rscale>  0 0.18555566E+04</rscale>
<asrwt>0</asrwt>
<pdfrwt beam="1">  1        1 0.97195615E-01 0.18555566E+04</pdfrwt>
<pdfrwt beam="2">  1       -1 0.20961147E+00 0.18555566E+04</pdfrwt>
<totfact> 0.38577898E+00</totfact>
</mgrwt>
</event>
<event>
12    1  0.1495204E-007  0.1979401E+04  0.7818608E-02  0.8616312E-01
          1   -1    0    0  501    0  0.00000000000E+00  0.00000000000E+00  0.13437780624E+04  0.13437780624E+04  0.00000000000E+00 0. -1.
         -1   -1    0    0    0  501 -0.00000000000E+00 -0.00000000000E+00 -0.72892051323E+03  0.72892051323E+03  0.00000000000E+00 0.  1.
         23    2    1    2    0    0 -0.40202159575E+03  0.13349685698E+03  0.93111191479E+03  0.10269332709E+04  0.90442085061E+02 0.  0.
        254    2    1    2    0    0  0.40202159575E+03 -0.13349685698E+03 -0.31625436565E+03  0.10457653047E+04  0.90231118492E+03 0.  0.
        -24    2    4    4    0    0  0.56220217309E+02 -0.42991926041E+03 -0.37605345311E+03  0.57950009081E+03  0.80080411726E+02 0.  0.
         24    2    4    4    0    0  0.34580137844E+03  0.29642240344E+03  0.59799087457E+02  0.46626521389E+03  0.79890451404E+02 0.  0.
         11    1    3    3    0    0 -0.18119825475E+03  0.93076696755E+02  0.52083301186E+03  0.55925227335E+03  0.00000000000E+00 0.  1.
        -11    1    3    3    0    0 -0.22082334100E+03  0.40420160220E+02  0.41027890293E+03  0.46768099756E+03  0.00000000000E+00 0. -1.
          2    1    6    6  502    0  0.15834555863E+03  0.13864967294E+03 -0.12403904987E+02  0.21083383173E+03  0.00000000000E+00 0. -1.
          1    1    5    5  503    0  0.48180625796E+01 -0.30137017549E+03 -0.23870590253E+03  0.38448368535E+03  0.00000000000E+00 0. -1.
         -2    1    5    5    0  503  0.51402154730E+02 -0.12854908493E+03 -0.13734755058E+03  0.19501640545E+03  0.00000000000E+00 0.  1.
         -1    1    6    6    0  502  0.18745581982E+03  0.15777273050E+03  0.72202992444E+02  0.25543138216E+03  0.00000000000E+00 0.  1.
<mgrwt>
<rscale>  0 0.19794013E+04</rscale>
<asrwt>0</asrwt>
<pdfrwt beam="1">  1        1 0.20673509E+00 0.19794013E+04</pdfrwt>
<pdfrwt beam="2">  1       -1 0.11214162E+00 0.19794013E+04</pdfrwt>
<totfact> 0.57035103E+00</totfact>
</mgrwt>
</event>
<event>
12    1  0.1495204E-007  0.1583534E+04  0.7818608E-02  0.8830728E-01
          2   -1    0    0  501    0  0.00000000000E+00  0.00000000000E+00  0.65044054956E+03  0.65044054956E+03  0.00000000000E+00 0. -1.
         -2   -1    0    0    0  501 -0.00000000000E+00 -0.00000000000E+00 -0.96380085113E+03  0.96380085113E+03  0.00000000000E+00 0.  1.
         23    2    1    2    0    0 -0.40468558414E+03 -0.32089128146E+03  0.23684303430E+02  0.52511286286E+03  0.91874566584E+02 0.  0.
        254    2    1    2    0    0  0.40468558414E+03  0.32089128146E+03 -0.33704460500E+03  0.10891285378E+04  0.89769720375E+03 0.  0.
        -24    2    4    4    0    0 -0.14427498263E+03  0.15946399878E+03  0.19687031307E+03  0.30235101958E+03  0.80088584418E+02 0.  0.
         24    2    4    4    0    0  0.54896056677E+03  0.16142728268E+03 -0.53391491806E+03  0.78677751825E+03  0.80853274700E+02 0.  0.
         11    1    3    3    0    0 -0.52218938871E+02 -0.76420987664E+02  0.26057032397E+02  0.96155883178E+02  0.00000000000E+00 0. -1.
        -11    1    3    3    0    0 -0.35246664527E+03 -0.24447029379E+03 -0.23727289669E+01  0.42895697968E+03  0.00000000000E+00 0.  1.
          4    1    6    6  502    0  0.51581379322E+02  0.41571120600E+02 -0.63446913020E+02  0.91729534679E+02  0.00000000000E+00 0. -1.
          1    1    5    5  503    0  0.98193200459E+01  0.16334657403E+02  0.13928039189E+02  0.23605727150E+02  0.00000000000E+00 0. -1.
         -2    1    5    5    0  503 -0.15409430267E+03  0.14312934137E+03  0.18294227388E+03  0.27874529243E+03  0.00000000000E+00 0.  1.
         -3    1    6    6    0  502  0.49737918745E+03  0.11985616208E+03 -0.47046800504E+03  0.69504798357E+03  0.00000000000E+00 0.  1.
<mgrwt>
<rscale>  0 0.15835342E+04</rscale>
<asrwt>0</asrwt>
<pdfrwt beam="1">  1        2 0.10006778E+00 0.15835342E+04</pdfrwt>
<pdfrwt beam="2">  1       -2 0.14827705E+00 0.15835342E+04</pdfrwt>
<totfact> 0.13317061E+01</totfact>
</mgrwt>
</event>
<event>
12    1  0.1495204E-007  0.1568283E+04  0.7818608E-02  0.8840273E-01
          3   -1    0    0  501    0  0.00000000000E+00  0.00000000000E+00  0.96825467272E+03  0.96825467272E+03  0.00000000000E+00 0. -1.
         -3   -1    0    0    0  501 -0.00000000000E+00 -0.00000000000E+00 -0.63503724641E+03  0.63503724641E+03  0.00000000000E+00 0.  1.
         23    2    1    2    0    0 -0.26292991742E+03  0.38150142343E+02  0.57300519237E+03  0.63798692977E+03  0.90026647416E+02 0.  0.
        254    2    1    2    0    0  0.26292991742E+03 -0.38150142343E+02 -0.23978776605E+03  0.96530498935E+03  0.89650877011E+03 0.  0.
        -24    2    4    4    0    0 -0.14386522502E+02 -0.11467309238E+03 -0.52981505726E+03  0.54824691038E+03  0.80708052211E+02 0.  0.
         24    2    4    4    0    0  0.27731643992E+03  0.76522950040E+02  0.29002729121E+03  0.41705807898E+03  0.84032385781E+02 0.  0.
         13    1    3    3    0    0 -0.14291009839E+03  0.45617550692E+02  0.40077042887E+03  0.42792662199E+03  0.00000000000E+00 0. -1.
        -13    1    3    3    0    0 -0.12001981903E+03 -0.74674083492E+01  0.17223476350E+03  0.21006030778E+03  0.00000000000E+00 0.  1.
          4    1    6    6  502    0  0.17514275564E+03  0.26326125689E+02  0.12583047259E+03  0.21725873419E+03  0.00000000000E+00 0. -1.
          1    1    5    5  503    0 -0.27626355347E+02 -0.62962604572E+01 -0.16603651970E+03  0.16843688515E+03  0.00000000000E+00 0. -1.
         -2    1    5    5    0  503  0.13239832845E+02 -0.10837683193E+03 -0.36377853756E+03  0.37981002522E+03  0.00000000000E+00 0.  1.
         -3    1    6    6    0  502  0.10217368428E+03  0.50196824351E+02  0.16419681862E+03  0.19979934479E+03  0.00000000000E+00 0.  1.
<mgrwt>
<rscale>  0 0.15682829E+04</rscale>
<asrwt>0</asrwt>
<pdfrwt beam="1">  1        3 0.14896226E+00 0.15682829E+04</pdfrwt>
<pdfrwt beam="2">  1       -3 0.97698038E-01 0.15682829E+04</pdfrwt>
<totfact> 0.76501332E-01</totfact>
</mgrwt>
</event>
<event>
12    1  0.1495204E-007  0.1819434E+04  0.7818608E-02  0.8696033E-01
         -2   -1    0    0    0  501 -0.00000000000E+00  0.00000000000E+00  0.53211130675E+03  0.53211130675E+03  0.00000000000E+00 0.  1.
          2   -1    0    0  501    0  0.00000000000E+00 -0.00000000000E+00 -0.15552850819E+04  0.15552850819E+04  0.00000000000E+00 0. -1.
         23    2    1    2    0    0  0.23070162792E+03  0.55467259107E+03 -0.76581103916E+03  0.97752770917E+03  0.90603256447E+02 0.  0.
        254    2    1    2    0    0 -0.23070162792E+03 -0.55467259107E+03 -0.25736273599E+03  0.11098686795E+04  0.89704402535E+03 0.  0.
        -24    2    4    4    0    0  0.32375307606E+03 -0.31786304710E+03 -0.18750662016E+03  0.49707481588E+03  0.77920915049E+02 0.  0.
         24    2    4    4    0    0 -0.55445470398E+03 -0.23680954397E+03 -0.69856115828E+02  0.61279386361E+03  0.84484693743E+02 0.  0.
         13    1    3    3    0    0  0.14945342131E+02  0.10371879652E+02 -0.79855253189E+01  0.19867253297E+02  0.00000000000E+00 0.  1.
        -13    1    3    3    0    0  0.21575628579E+03  0.54430071142E+03 -0.75782551384E+03  0.95766045587E+03  0.00000000000E+00 0. -1.
          4    1    6    6  502    0 -0.25843385121E+03 -0.15309800826E+03 -0.50129240412E+02  0.30453242246E+03  0.00000000000E+00 0. -1.
          3    1    5    5  503    0  0.19711671864E+03 -0.14565618303E+03 -0.80096138735E+02  0.25784901757E+03  0.00000000000E+00 0. -1.
         -4    1    5    5    0  503  0.12663635742E+03 -0.17220686407E+03 -0.10741048142E+03  0.23922579831E+03  0.00000000000E+00 0.  1.
         -3    1    6    6    0  502 -0.29602085277E+03 -0.83711535707E+02 -0.19726875416E+02  0.30826144115E+03  0.00000000000E+00 0.  1.
<mgrwt>
<rscale>  0 0.18194337E+04</rscale>
<asrwt>0</asrwt>
<pdfrwt beam="1">  1        2 0.23927463E+00 0.18194337E+04</pdfrwt>
<pdfrwt beam="2">  1       -2 0.81863278E-01 0.18194337E+04</pdfrwt>
<totfact> 0.14614706E+01</totfact>
</mgrwt>
</event>
<event>
12    1  0.1495204E-007  0.2524629E+04  0.7818608E-02  0.8394264E-01
         -2   -1    0    0    0  501 -0.00000000000E+00  0.00000000000E+00  0.93775958230E+03  0.93775958230E+03  0.00000000000E+00 0.  1.
          2   -1    0    0  501    0  0.00000000000E+00 -0.00000000000E+00 -0.16991964197E+04  0.16991964197E+04  0.00000000000E+00 0. -1.
         23    2    1    2    0    0  0.62802593738E+03  0.63431407381E+03 -0.10217283721E+04  0.13595280264E+04  0.87273511340E+02 0.  0.
        254    2    1    2    0    0 -0.62802593738E+03 -0.63431407381E+03  0.26029153475E+03  0.12774279756E+04  0.87595640736E+03 0.  0.
        -24    2    4    4    0    0 -0.74325221684E+03 -0.41236177245E+03  0.43919950228E+03  0.95951270420E+03  0.72817151117E+02 0.  0.
         24    2    4    4    0    0  0.11522627946E+03 -0.22195230136E+03 -0.17890796752E+03  0.31791527143E+03  0.80759763540E+02 0.  0.
         11    1    3    3    0    0  0.10004557336E+03  0.10010340094E+03 -0.11678865283E+03  0.18349222615E+03  0.00000000000E+00 0.  1.
        -11    1    3    3    0    0  0.52798036402E+03  0.53421067288E+03 -0.90493971930E+03  0.11760358002E+04  0.00000000000E+00 0. -1.
          4    1    6    6  502    0  0.75315017433E+02 -0.20030173936E+03 -0.12655295527E+03  0.24861373480E+03  0.00000000000E+00 0. -1.
          1    1    5    5  503    0 -0.55568315705E+03 -0.28164618769E+03  0.34604035953E+03  0.71263754918E+03  0.00000000000E+00 0. -1.
         -2    1    5    5    0  503 -0.18756905979E+03 -0.13071558476E+03  0.93159142746E+02  0.24687515502E+03  0.00000000000E+00 0.  1.
         -3    1    6    6    0  502  0.39911262031E+02 -0.21650562001E+02 -0.52355012254E+02  0.69301536635E+02  0.00000000000E+00 0.  1.
<mgrwt>
<rscale>  0 0.25246289E+04</rscale>
<asrwt>0</asrwt>
<pdfrwt beam="1">  1        2 0.26141483E+00 0.25246289E+04</pdfrwt>
<pdfrwt beam="2">  1       -2 0.14427071E+00 0.25246289E+04</pdfrwt>
<totfact> 0.29018067E+00</totfact>
</mgrwt>
</event>
<event>
12    1  0.1495204E-007  0.1960774E+04  0.7818608E-02  0.8625183E-01
          1   -1    0    0  501    0  0.00000000000E+00  0.00000000000E+00  0.17595209974E+04  0.17595209974E+04  0.00000000000E+00 0. -1.
         -1   -1    0    0    0  501 -0.00000000000E+00 -0.00000000000E+00 -0.54626160487E+03  0.54626160487E+03  0.00000000000E+00 0.  1.
         23    2    1    2    0    0  0.30942982751E+03  0.19324690550E+03  0.13144265974E+04  0.13671308191E+04  0.90764595661E+02 0.  0.
        254    2    1    2    0    0 -0.30942982751E+03 -0.19324690550E+03 -0.10116720491E+03  0.93865178318E+03  0.85891861202E+03 0.  0.
        -24    2    4    4    0    0 -0.32774035152E+02 -0.27493972754E+03  0.31434937529E+03  0.42659915164E+03  0.80655534715E+02 0.  0.
         24    2    4    4    0    0 -0.27665579236E+03  0.81692822043E+02 -0.41551658019E+03  0.51205263154E+03  0.79572133482E+02 0.  0.
         11    1    3    3    0    0  0.13944714080E+03  0.86828386849E+02  0.75993513781E+03  0.77748703367E+03  0.00000000000E+00 0.  1.
        -11    1    3    3    0    0  0.16998268671E+03  0.10641851865E+03  0.55449145960E+03  0.58964378540E+03  0.00000000000E+00 0. -1.
          2    1    6    6  502    0 -0.33155680727E+02 -0.16036352315E+02 -0.53500691576E+02  0.64952195953E+02  0.00000000000E+00 0. -1.
          3    1    5    5  503    0 -0.50037452745E+02 -0.11823113478E+03  0.11429341467E+03  0.17188755785E+03  0.00000000000E+00 0. -1.
         -4    1    5    5    0  503  0.17263417593E+02 -0.15670859277E+03  0.20005596062E+03  0.25471159379E+03  0.00000000000E+00 0.  1.
         -1    1    6    6    0  502 -0.24350011164E+03  0.97729174359E+02 -0.36201588862E+03  0.44710043558E+03  0.00000000000E+00 0.  1.
<mgrwt>
<rscale>  0 0.19607741E+04</rscale>
<asrwt>0</asrwt>
<pdfrwt beam="1">  1        1 0.27069554E+00 0.19607741E+04</pdfrwt>
<pdfrwt beam="2">  1       -1 0.84040248E-01 0.19607741E+04</pdfrwt>
<totfact> 0.56688438E+00</totfact>
</mgrwt>
</event>
<event>
12    1  0.1495204E-007  0.2907919E+04  0.7818608E-02  0.8270525E-01
         -1   -1    0    0    0  501 -0.00000000000E+00  0.00000000000E+00  0.15685956101E+04  0.15685956101E+04  0.00000000000E+00 0.  1.
          1   -1    0    0  501    0  0.00000000000E+00 -0.00000000000E+00 -0.13477013274E+04  0.13477013274E+04  0.00000000000E+00 0. -1.
         23    2    1    2    0    0 -0.21939977677E+02  0.91362859051E+03 -0.84703107575E+03  0.12493762524E+04  0.90998970605E+02 0.  0.
        254    2    1    2    0    0  0.21939977677E+02 -0.91362859051E+03  0.10679253585E+04  0.16669206851E+04  0.89608115435E+03 0.  0.
        -24    2    4    4    0    0  0.69062387712E+02 -0.10731046869E+04  0.80694348223E+03  0.13467805313E+04  0.79603603400E+02 0.  0.
         24    2    4    4    0    0 -0.47122410035E+02  0.15947609635E+03  0.26098187624E+03  0.32014015379E+03  0.82006289468E+02 0.  0.
         13    1    3    3    0    0  0.27065518161E+02  0.12277253487E+03 -0.12750744339E+03  0.17906363592E+03  0.00000000000E+00 0.  1.
        -13    1    3    3    0    0 -0.49005495838E+02  0.79085605565E+03 -0.71952363236E+03  0.10703126164E+04  0.00000000000E+00 0. -1.
          2    1    6    6  502    0 -0.92588778451E+01  0.12867966881E+03  0.22550818570E+03  0.25980401421E+03  0.00000000000E+00 0. -1.
          1    1    5    5  503    0 -0.12880445002E+02 -0.92716115547E+02  0.55519612689E+02  0.10883295153E+03  0.00000000000E+00 0. -1.
         -2    1    5    5    0  503  0.81942832715E+02 -0.98038857132E+03  0.75142386954E+03  0.12379475798E+04  0.00000000000E+00 0.  1.
         -1    1    6    6    0  502 -0.37863532190E+02  0.30796427535E+02  0.35473690539E+02  0.60336139579E+02  0.00000000000E+00 0.  1.
<mgrwt>
<rscale>  0 0.29079191E+04</rscale>
<asrwt>0</asrwt>
<pdfrwt beam="1">  1        1 0.20733867E+00 0.29079191E+04</pdfrwt>
<pdfrwt beam="2">  1       -1 0.24132240E+00 0.29079191E+04</pdfrwt>
<totfact> 0.57018779E-01</totfact>
</mgrwt>
</event>
<event>
12    1  0.1744011E-007  0.1877648E+04  0.7818608E-02  0.8666063E-01
         -1   -1    0    0    0  501 -0.00000000000E+00  0.00000000000E+00  0.68729630016E+03  0.68729630016E+03  0.00000000000E+00 0.  1.
          1   -1    0    0  501    0  0.00000000000E+00 -0.00000000000E+00 -0.12824031154E+04  0.12824031154E+04  0.00000000000E+00 0. -1.
         23    2    1    2    0    0  0.35409232269E+03 -0.56652926139E+03 -0.51055278135E+03  0.84537966758E+03  0.87554913138E+02 0.  0.
        254    2    1    2    0    0 -0.35409232269E+03  0.56652926139E+03 -0.84554033870E+02  0.11243197480E+04  0.90033812206E+03 0.  0.
        -24    2    4    4    0    0 -0.44235357915E+03 -0.69667314075E+02 -0.13841471335E+03  0.47478039240E+03  0.75680674512E+02 0.  0.
         24    2    4    4    0    0  0.88261256460E+02  0.63619657546E+03  0.53860679484E+02  0.64953935558E+03  0.80400681751E+02 0.  0.
         13    1    3    3    0    0  0.30154976551E+03 -0.49887926505E+03 -0.40683746173E+03  0.71086531949E+03  0.00000000000E+00 0. -1.
        -13    1    3    3    0    0  0.52542557175E+02 -0.67649996335E+02 -0.10371531962E+03  0.13451434809E+03  0.00000000000E+00 0.  1.
          4    1    6    6  502    0  0.22894218473E+02  0.63493519065E+02  0.26367925112E+02  0.72462677824E+02  0.00000000000E+00 0. -1.
          3    1    5    5  503    0 -0.42466724208E+00  0.90849523153E+00 -0.88038473046E+01  0.88607806211E+01  0.00000000000E+00 0. -1.
         -4    1    5    5    0  503 -0.44192891191E+03 -0.70575809306E+02 -0.12961086605E+03  0.46591961178E+03  0.00000000000E+00 0.  1.
         -1    1    6    6    0  502  0.65367037986E+02  0.57270305640E+03  0.27492754372E+02  0.57707667775E+03  0.00000000000E+00 0.  1.
<mgrwt>
<rscale>  0 0.18776484E+04</rscale>
<asrwt>0</asrwt>
<pdfrwt beam="1">  1        1 0.19729279E+00 0.18776484E+04</pdfrwt>
<pdfrwt beam="2">  1       -1 0.10573789E+00 0.18776484E+04</pdfrwt>
<totfact> 0.73116749E+00</totfact>
</mgrwt>
</event>
<event>
12    1  0.1495204E-007  0.1712335E+04  0.7818608E-02  0.8754360E-01
         -2   -1    0    0    0  501 -0.00000000000E+00  0.00000000000E+00  0.56713131128E+03  0.56713131128E+03  0.00000000000E+00 0.  1.
          2   -1    0    0  501    0  0.00000000000E+00 -0.00000000000E+00 -0.12925097816E+04  0.12925097816E+04  0.00000000000E+00 0. -1.
         23    2    1    2    0    0 -0.28889105297E+03  0.52433124770E+03 -0.20148563996E+03  0.63815721992E+03  0.90922364819E+02 0.  0.
        254    2    1    2    0    0  0.28889105297E+03 -0.52433124770E+03 -0.52389283033E+03  0.12214838729E+04  0.92691847342E+03 0.  0.
        -24    2    4    4    0    0 -0.74469939499E+02  0.21345713550E+03 -0.26100505531E+03  0.35428648799E+03  0.79281499044E+02 0.  0.
         24    2    4    4    0    0  0.36336099247E+03 -0.73778838321E+03 -0.26288777502E+03  0.86719738495E+03  0.80984029019E+02 0.  0.
         11    1    3    3    0    0 -0.17766281384E+03  0.39786372962E+03 -0.16432647360E+03  0.46568531509E+03  0.00000000000E+00 0. -1.
        -11    1    3    3    0    0 -0.11122823913E+03  0.12646751809E+03 -0.37159166360E+02  0.17247190483E+03  0.00000000000E+00 0.  1.
          4    1    6    6  502    0  0.77102056479E+01 -0.54792967909E+02 -0.28672464077E+02  0.62320356222E+02  0.00000000000E+00 0. -1.
          3    1    5    5  503    0 -0.22600001673E+02  0.53833795251E+02 -0.12606498359E+03  0.13892882233E+03  0.00000000000E+00 0. -1.
         -4    1    5    5    0  503 -0.51869937825E+02  0.15962334025E+03 -0.13494007172E+03  0.21535766566E+03  0.00000000000E+00 0.  1.
         -3    1    6    6    0  502  0.35565078682E+03 -0.68299541530E+03 -0.23421531094E+03  0.80487702872E+03  0.00000000000E+00 0.  1.
<mgrwt>
<rscale>  0 0.17123350E+04</rscale>
<asrwt>0</asrwt>
<pdfrwt beam="1">  1        2 0.19884766E+00 0.17123350E+04</pdfrwt>
<pdfrwt beam="2">  1       -2 0.87250970E-01 0.17123350E+04</pdfrwt>
<totfact> 0.18019836E+01</totfact>
</mgrwt>
</event>
<event>
12    1  0.1495204E-007  0.2265307E+04  0.7818608E-02  0.8491727E-01
          1   -1    0    0  501    0  0.00000000000E+00  0.00000000000E+00  0.11233848932E+04  0.11233848932E+04  0.00000000000E+00 0. -1.
         -1   -1    0    0    0  501 -0.00000000000E+00 -0.00000000000E+00 -0.11419990593E+04  0.11419990593E+04  0.00000000000E+00 0.  1.
         23    2    1    2    0    0 -0.78253483029E+03 -0.48750493416E+03 -0.23740929150E+03  0.95645360323E+03  0.91752395039E+02 0.  0.
        254    2    1    2    0    0  0.78253483029E+03  0.48750493416E+03  0.21879512531E+03  0.13089303493E+04  0.90299807914E+03 0.  0.
        -24    2    4    4    0    0 -0.97510156379E+02  0.37094439899E+03  0.13110878476E+03  0.41336188207E+03  0.81058956102E+02 0.  0.
         24    2    4    4    0    0  0.88004498667E+03  0.11656053516E+03  0.87686340541E+02  0.89556846720E+03  0.79299736465E+02 0.  0.
         11    1    3    3    0    0 -0.29563570730E+03 -0.19210773637E+03 -0.13655947309E+03  0.37809303550E+03  0.00000000000E+00 0. -1.
        -11    1    3    3    0    0 -0.48689912299E+03 -0.29539719778E+03 -0.10084981841E+03  0.57836056773E+03  0.00000000000E+00 0.  1.
          2    1    6    6  502    0  0.86980889880E+03  0.11055958478E+03  0.94501317173E+02  0.88188516325E+03  0.00000000000E+00 0. -1.
          1    1    5    5  503    0 -0.45495984245E+02  0.13212240759E+03  0.88088672054E+02  0.16518422841E+03  0.00000000000E+00 0. -1.
         -2    1    5    5    0  503 -0.52014172134E+02  0.23882199140E+03  0.43020112710E+02  0.24817765366E+03  0.00000000000E+00 0.  1.
         -1    1    6    6    0  502  0.10236087872E+02  0.60009503857E+01 -0.68149766316E+01  0.13683303948E+02  0.00000000000E+00 0.  1.
<mgrwt>
<rscale>  0 0.22653075E+04</rscale>
<asrwt>0</asrwt>
<pdfrwt beam="1">  1        1 0.17282845E+00 0.22653075E+04</pdfrwt>
<pdfrwt beam="2">  1       -1 0.17569216E+00 0.22653075E+04</pdfrwt>
<totfact> 0.24681641E+00</totfact>
</mgrwt>
</event>
<event>
12    1  0.1495204E-007  0.1792128E+04  0.7818608E-02  0.8710497E-01
         -1   -1    0    0    0  501 -0.00000000000E+00  0.00000000000E+00  0.67840047391E+03  0.67840047391E+03  0.00000000000E+00 0.  1.
          1   -1    0    0  501    0  0.00000000000E+00 -0.00000000000E+00 -0.11835650117E+04  0.11835650117E+04  0.00000000000E+00 0. -1.
         23    2    1    2    0    0 -0.47349437160E+03 -0.98351490696E+02  0.28352445780E+03  0.56857563809E+03  0.94985274644E+02 0.  0.
        254    2    1    2    0    0  0.47349437160E+03  0.98351490696E+02 -0.78868899561E+03  0.12933898475E+04  0.90385675317E+03 0.  0.
        -24    2    4    4    0    0  0.26963079238E+02 -0.60356714832E+01  0.19041761981E+03  0.20928315937E+03  0.82323349607E+02 0.  0.
         24    2    4    4    0    0  0.44653129236E+03  0.10438716218E+03 -0.97910661543E+03  0.10841066882E+04  0.79691105302E+02 0.  0.
         11    1    3    3    0    0 -0.37962662298E+03 -0.11197542470E+03  0.24915682266E+03  0.46769005858E+03  0.00000000000E+00 0.  1.
        -11    1    3    3    0    0 -0.93867748619E+02  0.13623934006E+02  0.34367635140E+02  0.10088557951E+03  0.00000000000E+00 0. -1.
          2    1    6    6  502    0  0.40651429298E+03  0.10426260379E+03 -0.83478189915E+03  0.93433686649E+03  0.00000000000E+00 0. -1.
          3    1    5    5  503    0 -0.27266975923E+02  0.11048544001E+02  0.54076537303E+02  0.61561596692E+02  0.00000000000E+00 0. -1.
         -4    1    5    5    0  503  0.54230055162E+02 -0.17084215484E+02  0.13634108251E+03  0.14772156268E+03  0.00000000000E+00 0.  1.
         -1    1    6    6    0  502  0.40016999389E+02  0.12455838617E+00 -0.14432471628E+03  0.14976982167E+03  0.00000000000E+00 0.  1.
<mgrwt>
<rscale>  0 0.17921284E+04</rscale>
<asrwt>0</asrwt>
<pdfrwt beam="1">  1        1 0.18208692E+00 0.17921284E+04</pdfrwt>
<pdfrwt beam="2">  1       -1 0.10436930E+00 0.17921284E+04</pdfrwt>
<totfact> 0.89579400E+00</totfact>
</mgrwt>
</event>
<event>
12    1  0.1495204E-007  0.1094847E+04  0.7818608E-02  0.9210229E-01
         -2   -1    0    0    0  501 -0.00000000000E+00  0.00000000000E+00  0.12267635701E+03  0.12267635701E+03  0.00000000000E+00 0.  1.
          2   -1    0    0  501    0  0.00000000000E+00 -0.00000000000E+00 -0.24427907802E+04  0.24427907802E+04  0.00000000000E+00 0. -1.
         23    2    1    2    0    0  0.13036623064E+03 -0.72042833382E+02 -0.48275611181E+03  0.51319397070E+03  0.90161322839E+02 0.  0.
        254    2    1    2    0    0 -0.13036623064E+03  0.72042833382E+02 -0.18373583114E+04  0.20522731665E+04  0.90208317889E+03 0.  0.
        -24    2    4    4    0    0  0.15675916341E+03  0.42065245196E+03 -0.94184151458E+03  0.10463868586E+04  0.79612176923E+02 0.  0.
         24    2    4    4    0    0 -0.28712539406E+03 -0.34860961858E+03 -0.89551679678E+03  0.10058863078E+04  0.76728566453E+02 0.  0.
         11    1    3    3    0    0  0.13407268672E+03 -0.80253922584E+02 -0.47823318164E+03  0.50311345980E+03  0.00000000000E+00 0. -1.
        -11    1    3    3    0    0 -0.37064560798E+01  0.82110892021E+01 -0.45229301728E+01  0.10080510895E+02  0.00000000000E+00 0.  1.
          2    1    6    6  502    0 -0.27354751692E+03 -0.34990005372E+03 -0.87471154131E+03  0.98100895619E+03  0.00000000000E+00 0. -1.
          1    1    5    5  503    0  0.88055820492E+02  0.19892296264E+03 -0.54232068656E+03  0.58432516603E+03  0.00000000000E+00 0. -1.
         -2    1    5    5    0  503  0.68703342921E+02  0.22172948932E+03 -0.39952082802E+03  0.46206169261E+03  0.00000000000E+00 0.  1.
         -1    1    6    6    0  502 -0.13577877135E+02  0.12904351458E+01 -0.20805255469E+02  0.24877351658E+02  0.00000000000E+00 0.  1.
<mgrwt>
<rscale>  0 0.10948473E+04</rscale>
<asrwt>0</asrwt>
<pdfrwt beam="1">  1        2 0.37581397E+00 0.10948473E+04</pdfrwt>
<pdfrwt beam="2">  1       -2 0.18873286E-01 0.10948473E+04</pdfrwt>
<totfact> 0.88985461E+01</totfact>
</mgrwt>
</event>
<event>
12    1  0.1495204E-007  0.1435656E+04  0.7818608E-02  0.8928406E-01
         -2   -1    0    0    0  501 -0.00000000000E+00  0.00000000000E+00  0.54620693880E+03  0.54620693880E+03  0.00000000000E+00 0.  1.
          2   -1    0    0  501    0  0.00000000000E+00 -0.00000000000E+00 -0.94337336080E+03  0.94337336080E+03  0.00000000000E+00 0. -1.
         23    2    1    2    0    0 -0.33268059662E+03 -0.16424908584E+03  0.10644324818E+03  0.39575508658E+03  0.87394404340E+02 0.  0.
        254    2    1    2    0    0  0.33268059662E+03  0.16424908584E+03 -0.50360967017E+03  0.10938252130E+04  0.89731641866E+03 0.  0.
        -24    2    4    4    0    0  0.50815844691E+03  0.37099841610E+03 -0.16958636999E+03  0.65627996857E+03  0.77968123882E+02 0.  0.
         24    2    4    4    0    0 -0.17547785029E+03 -0.20674933027E+03 -0.33402330018E+03  0.43754524446E+03  0.79602225950E+02 0.  0.
         13    1    3    3    0    0 -0.29049174385E+03 -0.12331296373E+03  0.60927464682E+02  0.32140892368E+03  0.00000000000E+00 0. -1.
        -13    1    3    3    0    0 -0.42188852763E+02 -0.40936122110E+02  0.45515783494E+02  0.74346162900E+02  0.00000000000E+00 0.  1.
          2    1    6    6  502    0 -0.11588046098E+03 -0.78103595401E+02 -0.14656459759E+03  0.20250835567E+03  0.00000000000E+00 0. -1.
          3    1    5    5  503    0  0.25233769981E+03  0.13904318308E+03 -0.90858919998E+02  0.30209711162E+03  0.00000000000E+00 0. -1.
         -4    1    5    5    0  503  0.25582074709E+03  0.23195523302E+03 -0.78727449994E+02  0.35418285694E+03  0.00000000000E+00 0.  1.
         -1    1    6    6    0  502 -0.59597389310E+02 -0.12864573487E+03 -0.18745870259E+03  0.23503688878E+03  0.00000000000E+00 0.  1.
<mgrwt>
<rscale>  0 0.14356561E+04</rscale>
<asrwt>0</asrwt>
<pdfrwt beam="1">  1        2 0.14513436E+00 0.14356561E+04</pdfrwt>
<pdfrwt beam="2">  1       -2 0.84031838E-01 0.14356561E+04</pdfrwt>
<totfact> 0.32936609E+01</totfact>
</mgrwt>
</event>
<event>
12    1  0.1495204E-007  0.9749126E+03  0.7818608E-02  0.9336496E-01
          2   -1    0    0  501    0  0.00000000000E+00  0.00000000000E+00  0.66007094483E+03  0.66007094483E+03  0.00000000000E+00 0.  1.
         -2   -1    0    0    0  501 -0.00000000000E+00 -0.00000000000E+00 -0.35998195456E+03  0.35998195456E+03  0.00000000000E+00 0. -1.
         23    2    1    2    0    0 -0.45806743857E+01 -0.28068063420E+02 -0.44738403651E+01  0.93686554028E+02  0.89153555151E+02 0.  0.
        254    2    1    2    0    0  0.45806743857E+01  0.28068063420E+02  0.30456283063E+03  0.92636634536E+03  0.87440682137E+03 0.  0.
        -24    2    4    4    0    0  0.22227310891E+02 -0.35641042492E+03 -0.82207025843E+02  0.37471258232E+03  0.78288440456E+02 0.  0.
         24    2    4    4    0    0 -0.17646636506E+02  0.38447848834E+03  0.38676985648E+03  0.55165376304E+03  0.81214780824E+02 0.  0.
         11    1    3    3    0    0  0.21585006839E+02 -0.23209307168E+01 -0.38134491565E+02  0.43880960410E+02  0.00000000000E+00 0. -1.
        -11    1    3    3    0    0 -0.26165681225E+02 -0.25747132703E+02  0.33660651200E+02  0.49805593617E+02  0.00000000000E+00 0.  1.
          2    1    6    6  502    0 -0.24317214777E+02  0.26774910464E+03  0.21690669124E+03  0.34544091054E+03  0.00000000000E+00 0. -1.
          3    1    5    5  503    0 -0.96676348485E+00 -0.13245284836E+03  0.67327543332E+01  0.13262737897E+03  0.00000000000E+00 0. -1.
         -4    1    5    5    0  503  0.23194074376E+02 -0.22395757656E+03 -0.88939780176E+02  0.24208520335E+03  0.00000000000E+00 0.  1.
         -1    1    6    6    0  502  0.66705782714E+01  0.11672938370E+03  0.16986316524E+03  0.20621285250E+03  0.00000000000E+00 0.  1.
<mgrwt>
<rscale>  0 0.97491257E+03</rscale>
<asrwt>0</asrwt>
<pdfrwt beam="1">  1        2 0.10154938E+00 0.97491257E+03</pdfrwt>
<pdfrwt beam="2">  1       -2 0.55381839E-01 0.97491257E+03</pdfrwt>
<totfact> 0.13519069E+02</totfact>
</mgrwt>
</event>
<event>
12    1  0.1495204E-007  0.1278719E+04  0.7818608E-02  0.9046613E-01
         -1   -1    0    0    0  501 -0.00000000000E+00  0.00000000000E+00  0.14002446752E+04  0.14002446752E+04  0.00000000000E+00 0.  1.
          1   -1    0    0  501    0  0.00000000000E+00 -0.00000000000E+00 -0.29193527149E+03  0.29193527149E+03  0.00000000000E+00 0. -1.
         23    2    1    2    0    0 -0.84059755000E+02  0.22651209804E+03  0.55981507454E+03  0.61815926975E+03  0.10175555084E+03 0.  0.
        254    2    1    2    0    0  0.84059755000E+02 -0.22651209804E+03  0.54849432915E+03  0.10740206769E+04  0.89123544159E+03 0.  0.
        -24    2    4    4    0    0 -0.28860399409E+03 -0.39985807104E+03  0.35755727613E+03  0.61421817377E+03  0.78981117261E+02 0.  0.
         24    2    4    4    0    0  0.37266374909E+03  0.17334597300E+03  0.19093705302E+03  0.45980250315E+03  0.77680676103E+02 0.  0.
         13    1    3    3    0    0 -0.53328861543E+01  0.68458138251E+02  0.27168086093E+03  0.28022392218E+03  0.00000000000E+00 0.  1.
        -13    1    3    3    0    0 -0.78726868846E+02  0.15805395979E+03  0.28813421361E+03  0.33793534757E+03  0.00000000000E+00 0. -1.
          2    1    6    6  502    0  0.17614200501E+03  0.83313231656E+02  0.48070854080E+02  0.20069356619E+03  0.00000000000E+00 0. -1.
          3    1    5    5  503    0 -0.23973180376E+03 -0.35574016019E+03  0.33612032194E+03  0.54497639410E+03  0.00000000000E+00 0. -1.
         -4    1    5    5    0  503 -0.48872190335E+02 -0.44117910852E+02  0.21436954192E+02  0.69241779665E+02  0.00000000000E+00 0.  1.
         -1    1    6    6    0  502  0.19652174409E+03  0.90032741343E+02  0.14286619894E+03  0.25910893696E+03  0.00000000000E+00 0.  1.
<mgrwt>
<rscale>  0 0.12787194E+04</rscale>
<asrwt>0</asrwt>
<pdfrwt beam="1">  1        1 0.44913120E-01 0.12787194E+04</pdfrwt>
<pdfrwt beam="2">  1       -1 0.21542225E+00 0.12787194E+04</pdfrwt>
<totfact> 0.10566244E+01</totfact>
</mgrwt>
</event>
<event>
12    1  0.1495204E-007  0.1454437E+04  0.7818608E-02  0.8915330E-01
          2   -1    0    0  501    0  0.00000000000E+00  0.00000000000E+00  0.22495096862E+04  0.22495096862E+04  0.00000000000E+00 0.  1.
         -2   -1    0    0    0  501 -0.00000000000E+00 -0.00000000000E+00 -0.23509427911E+03  0.23509427911E+03  0.00000000000E+00 0. -1.
         23    2    1    2    0    0 -0.36974094137E+03  0.13846496061E+03  0.28656251479E+03  0.49631055835E+03  0.91242459406E+02 0.  0.
        254    2    1    2    0    0  0.36974094137E+03 -0.13846496061E+03  0.17278528923E+04  0.19882934069E+04  0.90108498249E+03 0.  0.
        -24    2    4    4    0    0  0.27213688753E+03 -0.41665278828E+03  0.15599134369E+04  0.16396166969E+04  0.85761008507E+02 0.  0.
         24    2    4    4    0    0  0.97604053847E+02  0.27818782767E+03  0.16793945538E+03  0.34867671005E+03  0.80354020832E+02 0.  0.
         13    1    3    3    0    0 -0.29728663724E+03  0.12999494781E+03  0.19248474743E+03  0.37726437565E+03  0.00000000000E+00 0. -1.
        -13    1    3    3    0    0 -0.72454304130E+02  0.84700128019E+01  0.94077767358E+02  0.11904618270E+03  0.00000000000E+00 0.  1.
          2    1    6    6  502    0  0.21107003313E+01  0.28885143655E+02 -0.66169874675E+01  0.29708434879E+02  0.00000000000E+00 0. -1.
          1    1    5    5  503    0  0.59833359194E+02 -0.16398034039E+03  0.57138493325E+03  0.59745319888E+03  0.00000000000E+00 0. -1.
         -2    1    5    5    0  503  0.21230352833E+03 -0.25267244789E+03  0.98852850362E+03  0.10421634980E+04  0.00000000000E+00 0.  1.
         -1    1    6    6    0  502  0.95493353515E+02  0.24930268402E+03  0.17455644285E+03  0.31896827517E+03  0.00000000000E+00 0.  1.
<mgrwt>
<rscale>  0 0.14544372E+04</rscale>
<asrwt>0</asrwt>
<pdfrwt beam="1">  1        2 0.34607840E+00 0.14544372E+04</pdfrwt>
<pdfrwt beam="2">  1       -2 0.36168352E-01 0.14544372E+04</pdfrwt>
<totfact> 0.33816097E+01</totfact>
</mgrwt>
</event>
<event>
12    1  0.1495204E-007  0.1519493E+04  0.7818608E-02  0.8871593E-01
          2   -1    0    0  501    0  0.00000000000E+00  0.00000000000E+00  0.15142272522E+04  0.15142272522E+04  0.00000000000E+00 0. -1.
         -2   -1    0    0    0  501 -0.00000000000E+00 -0.00000000000E+00 -0.38119416822E+03  0.38119416822E+03  0.00000000000E+00 0.  1.
         23    2    1    2    0    0  0.35873455691E+03  0.18576672688E+03  0.72757082429E+03  0.83731261894E+03  0.92376178435E+02 0.  0.
        254    2    1    2    0    0 -0.35873455691E+03 -0.18576672688E+03  0.40546225965E+03  0.10581088014E+04  0.88994091520E+03 0.  0.
        -24    2    4    4    0    0  0.23152484005E+03 -0.21647396309E+03 -0.17171184847E+02  0.32689269183E+03  0.78097721625E+02 0.  0.
         24    2    4    4    0    0 -0.59025939697E+03  0.30707236210E+02  0.42263344450E+03  0.73121610961E+03  0.81907755955E+02 0.  0.
         13    1    3    3    0    0  0.30451632136E+03  0.17214996323E+03  0.67652407212E+03  0.76161054350E+03  0.00000000000E+00 0. -1.
        -13    1    3    3    0    0  0.54218235558E+02  0.13616763648E+02  0.51046752174E+02  0.75702075446E+02  0.00000000000E+00 0.  1.
          4    1    6    6  502    0 -0.28120263054E+03  0.53910383005E+02  0.18868974656E+03  0.34290679386E+03  0.00000000000E+00 0. -1.
          3    1    5    5  503    0  0.16637293174E+03 -0.17354240452E+03 -0.43962104677E+02  0.24439636910E+03  0.00000000000E+00 0. -1.
         -4    1    5    5    0  503  0.65151908310E+02 -0.42931558576E+02  0.26790919830E+02  0.82496322728E+02  0.00000000000E+00 0.  1.
         -3    1    6    6    0  502 -0.30905676643E+03 -0.23203146795E+02  0.23394369794E+03  0.38830931575E+03  0.00000000000E+00 0.  1.
<mgrwt>
<rscale>  0 0.15194928E+04</rscale>
<asrwt>0</asrwt>
<pdfrwt beam="1">  1        2 0.23295804E+00 0.15194928E+04</pdfrwt>
<pdfrwt beam="2">  1       -2 0.58645257E-01 0.15194928E+04</pdfrwt>
<totfact> 0.32671076E+01</totfact>
</mgrwt>
</event>
<event>
12    1  0.1495204E-007  0.1632773E+04  0.7818608E-02  0.8800663E-01
          2   -1    0    0  501    0  0.00000000000E+00  0.00000000000E+00  0.23938314923E+04  0.23938314923E+04  0.00000000000E+00 0. -1.
         -2   -1    0    0    0  501 -0.00000000000E+00 -0.00000000000E+00 -0.27841864030E+03  0.27841864030E+03  0.00000000000E+00 0.  1.
         23    2    1    2    0    0 -0.55090531851E+03  0.14760021517E+02  0.94830009670E+03  0.11006121740E+04  0.91430607860E+02 0.  0.
        254    2    1    2    0    0  0.55090531851E+03 -0.14760021517E+02  0.11671127554E+04  0.15716379586E+04  0.89676036990E+03 0.  0.
        -24    2    4    4    0    0  0.16628302963E+02  0.17632950507E+03 -0.71551573018E+02  0.20726354998E+03  0.80436041248E+02 0.  0.
         24    2    4    4    0    0  0.53427701554E+03 -0.19108952659E+03  0.12386643284E+04  0.13643744086E+04  0.72533247670E+02 0.  0.
         13    1    3    3    0    0 -0.57224773341E+01  0.10858082033E+02  0.33422161046E+02  0.35604571915E+02  0.00000000000E+00 0.  1.
        -13    1    3    3    0    0 -0.54518284117E+03  0.39019394835E+01  0.91487793565E+03  0.10650076021E+04  0.00000000000E+00 0. -1.
          2    1    6    6  502    0  0.26991181171E+02 -0.41264283493E+00  0.95762940178E+02  0.99494898596E+02  0.00000000000E+00 0. -1.
          1    1    5    5  503    0 -0.38878955254E+01  0.14345361668E+01 -0.24697294462E+02  0.25042563354E+02  0.00000000000E+00 0. -1.
         -2    1    5    5    0  503  0.20516198489E+02  0.17489496891E+03 -0.46854278556E+02  0.18222098663E+03  0.00000000000E+00 0.  1.
         -1    1    6    6    0  502  0.50728583437E+03 -0.19067688375E+03  0.11429013882E+04  0.12648795100E+04  0.00000000000E+00 0.  1.
<mgrwt>
<rscale>  0 0.16327735E+04</rscale>
<asrwt>0</asrwt>
<pdfrwt beam="1">  1        2 0.36828175E+00 0.16327735E+04</pdfrwt>
<pdfrwt beam="2">  1       -2 0.42833639E-01 0.16327735E+04</pdfrwt>
<totfact> 0.19838774E+01</totfact>
</mgrwt>
</event>
<event>
12    1  0.1495204E-007  0.1834378E+04  0.7818608E-02  0.8688228E-01
         -2   -1    0    0    0  501 -0.00000000000E+00  0.00000000000E+00  0.45079521369E+03  0.45079521369E+03  0.00000000000E+00 0.  1.
          2   -1    0    0  501    0  0.00000000000E+00 -0.00000000000E+00 -0.18661144345E+04  0.18661144345E+04  0.00000000000E+00 0. -1.
         23    2    1    2    0    0 -0.52390835943E+03  0.33483517882E+03 -0.14468354757E+03  0.64473315837E+03  0.90293690258E+02 0.  0.
        254    2    1    2    0    0  0.52390835943E+03 -0.33483517882E+03 -0.12706356732E+04  0.16721764898E+04  0.89166396862E+03 0.  0.
        -24    2    4    4    0    0 -0.13009556756E+03 -0.19534450211E+03 -0.16940752069E+02  0.24923849494E+03  0.82149297469E+02 0.  0.
         24    2    4    4    0    0  0.65400392700E+03 -0.13949067671E+03 -0.12536949211E+04  0.14229379949E+04  0.76307250681E+02 0.  0.
         13    1    3    3    0    0 -0.10515120260E+03  0.30525108696E+02 -0.10633246996E+02  0.11000737980E+03  0.00000000000E+00 0. -1.
        -13    1    3    3    0    0 -0.41875715683E+03  0.30431007012E+03 -0.13405030058E+03  0.53472577856E+03  0.00000000000E+00 0.  1.
          4    1    6    6  502    0  0.29131267631E+03 -0.80092250209E+02 -0.63742094094E+03  0.70539584622E+03  0.00000000000E+00 0. -1.
          1    1    5    5  503    0 -0.11152261840E+03 -0.17475174972E+03  0.13891181266E+02  0.20777014551E+03  0.00000000000E+00 0. -1.
         -2    1    5    5    0  503 -0.18572949160E+02 -0.20592752383E+02 -0.30831933336E+02  0.41468349430E+02  0.00000000000E+00 0.  1.
         -3    1    6    6    0  502  0.36269125069E+03 -0.59398426500E+02 -0.61627398021E+03  0.71754214864E+03  0.00000000000E+00 0.  1.
<mgrwt>
<rscale>  0 0.18343778E+04</rscale>
<asrwt>0</asrwt>
<pdfrwt beam="1">  1        2 0.28709451E+00 0.18343778E+04</pdfrwt>
<pdfrwt beam="2">  1       -2 0.69353113E-01 0.18343778E+04</pdfrwt>
<totfact> 0.14160725E+01</totfact>
</mgrwt>
</event>
<event>
12    1  0.1495204E-007  0.1440904E+04  0.7818608E-02  0.8924731E-01
         -1   -1    0    0    0  501 -0.00000000000E+00  0.00000000000E+00  0.73533324218E+03  0.73533324218E+03  0.00000000000E+00 0. -1.
          1   -1    0    0  501    0  0.00000000000E+00 -0.00000000000E+00 -0.70587222809E+03  0.70587222809E+03  0.00000000000E+00 0.  1.
         23    2    1    2    0    0 -0.14192464055E+03  0.30731828578E+03  0.27730282779E+03  0.44604278062E+03  0.86430153712E+02 0.  0.
        254    2    1    2    0    0  0.14192464055E+03 -0.30731828578E+03 -0.24784181370E+03  0.99516268965E+03  0.90240571911E+03 0.  0.
        -24    2    4    4    0    0  0.49160070772E+02  0.28939613236E+03 -0.23980313255E+03  0.38595848703E+03  0.72743228830E+02 0.  0.
         24    2    4    4    0    0  0.92764569783E+02 -0.59671441814E+03 -0.80386811475E+01  0.60920420263E+03  0.79948595215E+02 0.  0.
         11    1    3    3    0    0 -0.20511702355E+02  0.73961404006E+01  0.33104061912E+01  0.22054287915E+02  0.00000000000E+00 0.  1.
        -11    1    3    3    0    0 -0.12141293820E+03  0.29992214538E+03  0.27399242160E+03  0.42398849270E+03  0.00000000000E+00 0. -1.
          4    1    6    6  502    0 -0.20382579447E+01  0.11670978810E+01  0.29282431201E+01  0.37538274712E+01  0.00000000000E+00 0. -1.
          3    1    5    5  503    0 -0.84631992895E+01  0.93026338382E+02 -0.46070461818E+02  0.10415379411E+03  0.00000000000E+00 0. -1.
         -4    1    5    5    0  503  0.57623270061E+02  0.19636979398E+03 -0.19373267074E+03  0.28180469292E+03  0.00000000000E+00 0.  1.
         -3    1    6    6    0  502  0.94802827727E+02 -0.59788151602E+03 -0.10966924268E+02  0.60545037516E+03  0.00000000000E+00 0.  1.
<mgrwt>
<rscale>  0 0.14409043E+04</rscale>
<asrwt>0</asrwt>
<pdfrwt beam="1">  1        1 0.10859573E+00 0.14409043E+04</pdfrwt>
<pdfrwt beam="2">  1       -1 0.11312819E+00 0.14409043E+04</pdfrwt>
<totfact> 0.18672257E+01</totfact>
</mgrwt>
</event>
<event>
12    1  0.1495204E-007  0.1273846E+04  0.7818608E-02  0.9050566E-01
         -1   -1    0    0    0  501 -0.00000000000E+00  0.00000000000E+00  0.91390085960E+03  0.91390085960E+03  0.00000000000E+00 0.  1.
          1   -1    0    0  501    0  0.00000000000E+00 -0.00000000000E+00 -0.44388951067E+03  0.44388951067E+03  0.00000000000E+00 0. -1.
         23    2    1    2    0    0 -0.71283040141E+02 -0.15675809446E+03  0.39923660542E+03  0.44431600329E+03  0.91501211370E+02 0.  0.
        254    2    1    2    0    0  0.71283040141E+02  0.15675809446E+03  0.70774743514E+02  0.91347436699E+03  0.89429971645E+03 0.  0.
        -24    2    4    4    0    0 -0.32487368545E+03  0.18939381196E+03  0.26176567454E+03  0.46516005334E+03  0.80247612744E+02 0.  0.
         24    2    4    4    0    0  0.39615672559E+03 -0.32635717496E+02 -0.19099093103E+03  0.44831431365E+03  0.80640850666E+02 0.  0.
         13    1    3    3    0    0 -0.23784974808E+02 -0.11750375328E+02  0.14810031469E+03  0.15045763376E+03  0.00000000000E+00 0.  1.
        -13    1    3    3    0    0 -0.47498065333E+02 -0.14500771913E+03  0.25113629073E+03  0.29385836952E+03  0.00000000000E+00 0. -1.
          2    1    6    6  502    0  0.15344912099E+03  0.14419508175E+02 -0.10528305542E+03  0.18665228824E+03  0.00000000000E+00 0. -1.
          3    1    5    5  503    0 -0.75215383461E+02  0.12483774320E+02  0.73460888476E+02  0.10587587386E+03  0.00000000000E+00 0. -1.
         -4    1    5    5    0  503 -0.24965830199E+03  0.17691003764E+03  0.18830478607E+03  0.35928417948E+03  0.00000000000E+00 0.  1.
         -1    1    6    6    0  502  0.24270760461E+03 -0.47055225672E+02 -0.85707875606E+02  0.26166202540E+03  0.00000000000E+00 0.  1.
<mgrwt>
<rscale>  0 0.12738462E+04</rscale>
<asrwt>0</asrwt>
<pdfrwt beam="1">  1        1 0.68290694E-01 0.12738462E+04</pdfrwt>
<pdfrwt beam="2">  1       -1 0.14060013E+00 0.12738462E+04</pdfrwt>
<totfact> 0.21287188E+01</totfact>
</mgrwt>
</event>
<event>
12    1  0.1495204E-007  0.1584737E+04  0.7818608E-02  0.8829980E-01
         -1   -1    0    0    0  501 -0.00000000000E+00  0.00000000000E+00  0.76032929188E+03  0.76032929188E+03  0.00000000000E+00 0.  1.
          1   -1    0    0  501    0  0.00000000000E+00 -0.00000000000E+00 -0.82575769128E+03  0.82575769128E+03  0.00000000000E+00 0. -1.
         23    2    1    2    0    0 -0.51741142555E+03 -0.17633142981E+02  0.96505824419E+02  0.53465808227E+03  0.92305903215E+02 0.  0.
        254    2    1    2    0    0  0.51741142555E+03  0.17633142981E+02 -0.16193422383E+03  0.10514289009E+04  0.90069669133E+03 0.  0.
        -24    2    4    4    0    0  0.65838251755E+03  0.15604984883E+03 -0.35177567225E+03  0.76630689931E+03  0.75239920264E+02 0.  0.
         24    2    4    4    0    0 -0.14097109200E+03 -0.13841670585E+03  0.18984144843E+03  0.28512200159E+03  0.78884390150E+02 0.  0.
         13    1    3    3    0    0 -0.41547033303E+03 -0.28995447033E+02  0.11111999774E+03  0.43104986658E+03  0.00000000000E+00 0.  1.
        -13    1    3    3    0    0 -0.10194109251E+03  0.11362304051E+02 -0.14614173322E+02  0.10360821569E+03  0.00000000000E+00 0. -1.
          4    1    6    6  502    0 -0.99021260580E+02 -0.84442768701E+02  0.16970494219E+03  0.21385873523E+03  0.00000000000E+00 0. -1.
          1    1    5    5  503    0  0.62161567836E+03  0.16397249756E+03 -0.33743691914E+03  0.72605558047E+03  0.00000000000E+00 0. -1.
         -2    1    5    5    0  503  0.36766839194E+02 -0.79226487302E+01 -0.14338753113E+02  0.40251318836E+02  0.00000000000E+00 0.  1.
         -3    1    6    6    0  502 -0.41949831423E+02 -0.53973937151E+02  0.20136506239E+02  0.71263266354E+02  0.00000000000E+00 0.  1.
<mgrwt>
<rscale>  0 0.15847369E+04</rscale>
<asrwt>0</asrwt>
<pdfrwt beam="1">  1        1 0.12703965E+00 0.15847369E+04</pdfrwt>
<pdfrwt beam="2">  1       -1 0.11697374E+00 0.15847369E+04</pdfrwt>
<totfact> 0.13297500E+01</totfact>
</mgrwt>
</event>
<event>
12    1  0.1495204E-007  0.2050606E+04  0.7818608E-02  0.8583319E-01
         -1   -1    0    0    0  501 -0.00000000000E+00  0.00000000000E+00  0.18082347221E+04  0.18082347221E+04  0.00000000000E+00 0.  1.
          1   -1    0    0  501    0  0.00000000000E+00 -0.00000000000E+00 -0.58136610826E+03  0.58136610826E+03  0.00000000000E+00 0. -1.
         23    2    1    2    0    0 -0.66427435652E+03 -0.44152140750E+03  0.74049383011E+03  0.10920285122E+04  0.89406851319E+02 0.  0.
        254    2    1    2    0    0  0.66427435652E+03  0.44152140750E+03  0.48637478377E+03  0.12975723182E+04  0.90051758262E+03 0.  0.
        -24    2    4    4    0    0  0.46630425772E+03  0.66456329332E+03  0.54818211207E+03  0.98281919574E+03  0.79661232196E+02 0.  0.
         24    2    4    4    0    0  0.19797009880E+03 -0.22304188582E+03 -0.61807328297E+02  0.31475312245E+03  0.79432609226E+02 0.  0.
         11    1    3    3    0    0 -0.50960795817E+03 -0.37455237056E+03  0.61217570595E+03  0.88019818466E+03  0.00000000000E+00 0. -1.
        -11    1    3    3    0    0 -0.15466639835E+03 -0.66969036941E+02  0.12831812416E+03  0.21183032756E+03  0.00000000000E+00 0.  1.
          2    1    6    6  502    0  0.70998745250E+02 -0.29225023595E+02 -0.19535825137E+02  0.79224821205E+02  0.00000000000E+00 0. -1.
          3    1    5    5  503    0  0.17014500332E+03  0.26221851221E+03  0.25619896903E+03  0.40416058941E+03  0.00000000000E+00 0. -1.
         -4    1    5    5    0  503  0.29615925440E+03  0.40234478111E+03  0.29198314304E+03  0.57865860633E+03  0.00000000000E+00 0.  1.
         -1    1    6    6    0  502  0.12697135355E+03 -0.19381686223E+03 -0.42271503160E+02  0.23552830124E+03  0.00000000000E+00 0.  1.
<mgrwt>
<rscale>  0 0.20506061E+04</rscale>
<asrwt>0</asrwt>
<pdfrwt beam="1">  1        1 0.89440941E-01 0.20506061E+04</pdfrwt>
<pdfrwt beam="2">  1       -1 0.27818995E+00 0.20506061E+04</pdfrwt>
<totfact> 0.15141046E+00</totfact>
</mgrwt>
</event>
<event>
12    1  0.1495204E-007  0.1836497E+04  0.7818608E-02  0.8687128E-01
          1   -1    0    0  501    0  0.00000000000E+00  0.00000000000E+00  0.73276640095E+03  0.73276640095E+03  0.00000000000E+00 0. -1.
         -1   -1    0    0    0  501 -0.00000000000E+00 -0.00000000000E+00 -0.11506802900E+04  0.11506802900E+04  0.00000000000E+00 0.  1.
         23    2    1    2    0    0 -0.43675255881E+03  0.29927620234E+03 -0.62029201896E+03  0.82048787898E+03  0.90106203151E+02 0.  0.
        254    2    1    2    0    0  0.43675255881E+03 -0.29927620234E+03  0.20237812988E+03  0.10629588120E+04  0.89922493606E+03 0.  0.
        -24    2    4    4    0    0  0.17140877352E+03 -0.13515354147E+02 -0.34003722769E+03  0.38991332517E+03  0.82725162386E+02 0.  0.
         24    2    4    4    0    0  0.26534378528E+03 -0.28576084820E+03  0.54241535757E+03  0.67304548683E+03  0.81909831274E+02 0.  0.
         11    1    3    3    0    0 -0.40718556366E+03  0.30236148467E+03 -0.58110997713E+03  0.77130496964E+03  0.00000000000E+00 0. -1.
        -11    1    3    3    0    0 -0.29566995143E+02 -0.30852823282E+01 -0.39182041834E+02  0.49182909339E+02  0.00000000000E+00 0.  1.
          4    1    6    6  502    0  0.14980874344E+03 -0.17098925268E+03  0.24682641089E+03  0.33556409411E+03  0.00000000000E+00 0. -1.
          3    1    5    5  503    0  0.33760059190E+02  0.29430173812E+02 -0.59318667255E+02  0.74327525265E+02  0.00000000000E+00 0. -1.
         -4    1    5    5    0  503  0.13764871433E+03 -0.42945527958E+02 -0.28071856044E+03  0.31558579991E+03  0.00000000000E+00 0.  1.
         -3    1    6    6    0  502  0.11553504185E+03 -0.11477159552E+03  0.29558894668E+03  0.33748139272E+03  0.00000000000E+00 0.  1.
<mgrwt>
<rscale>  0 0.18364965E+04</rscale>
<asrwt>0</asrwt>
<pdfrwt beam="1">  1        1 0.11273329E+00 0.18364965E+04</pdfrwt>
<pdfrwt beam="2">  1       -1 0.17702774E+00 0.18364965E+04</pdfrwt>
<totfact> 0.52227668E+00</totfact>
</mgrwt>
</event>
<event>
12    1  0.1495204E-007  0.1366526E+04  0.7818608E-02  0.8978412E-01
          1   -1    0    0  501    0  0.00000000000E+00  0.00000000000E+00  0.10818956484E+04  0.10818956484E+04  0.00000000000E+00 0. -1.
         -1   -1    0    0    0  501 -0.00000000000E+00 -0.00000000000E+00 -0.43150933783E+03  0.43150933783E+03  0.00000000000E+00 0.  1.
         23    2    1    2    0    0  0.23815615328E+03  0.29225504311E+03  0.13819589482E+03  0.41179191341E+03  0.91340631902E+02 0.  0.
        254    2    1    2    0    0 -0.23815615328E+03 -0.29225504311E+03  0.51219041570E+03  0.11016130728E+04  0.89948928654E+03 0.  0.
        -24    2    4    4    0    0 -0.41374313561E+03 -0.25235122425E+03  0.68307835512E+03  0.84130022249E+03  0.79533027585E+02 0.  0.
         24    2    4    4    0    0  0.17558698232E+03 -0.39903818854E+02 -0.17088793942E+03  0.26031285029E+03  0.78338937099E+02 0.  0.
         11    1    3    3    0    0  0.17683589030E+03  0.23627383345E+03  0.67500215807E+02  0.30274169783E+03  0.00000000000E+00 0. -1.
        -11    1    3    3    0    0  0.61320262980E+02  0.55981209659E+02  0.70695679010E+02  0.10905021558E+03  0.00000000000E+00 0.  1.
          2    1    6    6  502    0  0.38366150041E+02 -0.21071760478E+02 -0.89584374709E+02  0.99706272374E+02  0.00000000000E+00 0. -1.
          3    1    5    5  503    0  0.11566989820E+01  0.19316670482E+01 -0.39955421653E+00  0.22866861814E+01  0.00000000000E+00 0. -1.
         -4    1    5    5    0  503 -0.41489983459E+03 -0.25428289130E+03  0.68347790934E+03  0.83901353630E+03  0.00000000000E+00 0.  1.
         -1    1    6    6    0  502  0.13722083228E+03 -0.18832058376E+02 -0.81303564711E+02  0.16060657792E+03  0.00000000000E+00 0.  1.
<mgrwt>
<rscale>  0 0.13665256E+04</rscale>
<asrwt>0</asrwt>
<pdfrwt beam="1">  1        1 0.16644548E+00 0.13665256E+04</pdfrwt>
<pdfrwt beam="2">  1       -1 0.66386053E-01 0.13665256E+04</pdfrwt>
<totfact> 0.29414391E+01</totfact>
</mgrwt>
</event>
<event>
12    1  0.1495204E-007  0.3236111E+04  0.7818608E-02  0.8179345E-01
          4   -1    0    0  501    0  0.00000000000E+00  0.00000000000E+00  0.35091766245E+04  0.35091766245E+04  0.00000000000E+00 0.  1.
         -4   -1    0    0    0  501 -0.00000000000E+00 -0.00000000000E+00 -0.74607332615E+03  0.74607332615E+03  0.00000000000E+00 0. -1.
         23    2    1    2    0    0  0.12538604244E+04  0.79995376205E+03  0.11693801158E+04  0.18941429889E+04  0.90751428323E+02 0.  0.
        254    2    1    2    0    0 -0.12538604244E+04 -0.79995376205E+03  0.15937231825E+04  0.23611069617E+04  0.90707249826E+03 0.  0.
        -24    2    4    4    0    0 -0.22341919990E+03 -0.61903658392E+03  0.41091720697E+03  0.77979344798E+03  0.78118112012E+02 0.  0.
         24    2    4    4    0    0 -0.10304412245E+04 -0.18091717814E+03  0.11828059755E+04  0.15813135137E+04  0.83560221416E+02 0.  0.
         11    1    3    3    0    0  0.10335459547E+04  0.66017969271E+03  0.10067599815E+04  0.15867010202E+04  0.00000000000E+00 0.  1.
        -11    1    3    3    0    0  0.22031446969E+03  0.13977406935E+03  0.16262013431E+03  0.30744196866E+03  0.00000000000E+00 0. -1.
          2    1    6    6  502    0 -0.59140929709E+03 -0.10646071834E+03  0.61668144264E+03  0.86104288101E+03  0.00000000000E+00 0. -1.
          3    1    5    5  503    0 -0.16196039022E+03 -0.44213396991E+03  0.25131191352E+03  0.53373335405E+03  0.00000000000E+00 0. -1.
         -4    1    5    5    0  503 -0.61458809683E+02 -0.17690261400E+03  0.15960529345E+03  0.24606009393E+03  0.00000000000E+00 0.  1.
         -1    1    6    6    0  502 -0.43903192740E+03 -0.74456459801E+02  0.56612453286E+03  0.72027063274E+03  0.00000000000E+00 0.  1.
<mgrwt>
<rscale>  0 0.32361107E+04</rscale>
<asrwt>0</asrwt>
<pdfrwt beam="1">  1        4 0.53987332E+00 0.32361107E+04</pdfrwt>
<pdfrwt beam="2">  1       -4 0.11478051E+00 0.32361107E+04</pdfrwt>
<totfact> 0.55380712E-04</totfact>
</mgrwt>
</event>
<event>
12    1  0.1495204E-007  0.2559467E+04  0.7818608E-02  0.8382101E-01
          2   -1    0    0  501    0  0.00000000000E+00  0.00000000000E+00  0.35180522794E+04  0.35180522794E+04  0.00000000000E+00 0. -1.
         -2   -1    0    0    0  501 -0.00000000000E+00 -0.00000000000E+00 -0.46551819832E+03  0.46551819832E+03  0.00000000000E+00 0.  1.
         23    2    1    2    0    0  0.16958151002E+03 -0.44456167371E+00  0.30543862623E+04  0.30602725450E+04  0.85056006085E+02 0.  0.
        254    2    1    2    0    0 -0.16958151002E+03  0.44456167371E+00 -0.18521811665E+01  0.92329793278E+03  0.90758886943E+03 0.  0.
        -24    2    4    4    0    0  0.14185708690E+03  0.20531717442E+03 -0.32922548374E+03  0.42067085592E+03  0.79347178045E+02 0.  0.
         24    2    4    4    0    0 -0.31143859692E+03 -0.20487261275E+03  0.32737330257E+03  0.50262707685E+03  0.80584812730E+02 0.  0.
         11    1    3    3    0    0 -0.10032663341E+01  0.19385777825E+00 -0.99881637762E-01  0.10266939743E+01  0.00000000000E+00 0.  1.
        -11    1    3    3    0    0  0.17058477636E+03 -0.63841945196E+00  0.30544861439E+04  0.30592458510E+04  0.00000000000E+00 0. -1.
          4    1    6    6  502    0 -0.16074902249E+03 -0.76162289837E+02  0.19693832251E+03  0.26537830638E+03  0.00000000000E+00 0. -1.
          1    1    5    5  503    0  0.65401471622E+02  0.97309174206E+02 -0.91994624567E+02  0.14902831551E+03  0.00000000000E+00 0. -1.
         -2    1    5    5    0  503  0.76455615281E+02  0.10800800022E+03 -0.23723085917E+03  0.27164254041E+03  0.00000000000E+00 0.  1.
         -3    1    6    6    0  502 -0.15068957444E+03 -0.12871032291E+03  0.13043498006E+03  0.23724877047E+03  0.00000000000E+00 0.  1.
<mgrwt>
<rscale>  0 0.25594666E+04</rscale>
<asrwt>0</asrwt>
<pdfrwt beam="1">  1        2 0.54123879E+00 0.25594666E+04</pdfrwt>
<pdfrwt beam="2">  1       -2 0.71618187E-01 0.25594666E+04</pdfrwt>
<totfact> 0.12402755E+00</totfact>
</mgrwt>
</event>
<event>
12    1  0.1495204E-007  0.1280454E+04  0.7818608E-02  0.9045210E-01
          1   -1    0    0  501    0  0.00000000000E+00  0.00000000000E+00  0.35182250666E+03  0.35182250666E+03  0.00000000000E+00 0. -1.
         -1   -1    0    0    0  501 -0.00000000000E+00 -0.00000000000E+00 -0.11650497075E+04  0.11650497075E+04  0.00000000000E+00 0.  1.
         23    2    1    2    0    0  0.12014327963E+03 -0.19997559977E+03  0.49422305173E+02  0.25492760670E+03  0.90115882417E+02 0.  0.
        254    2    1    2    0    0 -0.12014327963E+03  0.19997559977E+03 -0.86264950602E+03  0.12619446075E+04  0.89101928932E+03 0.  0.
        -24    2    4    4    0    0 -0.20536597808E+03  0.39569241495E+03 -0.97454824178E+02  0.46354773145E+03  0.81433312437E+02 0.  0.
         24    2    4    4    0    0  0.85222698449E+02 -0.19571681518E+03 -0.76519468184E+03  0.79839687602E+03  0.79666118534E+02 0.  0.
         13    1    3    3    0    0  0.86715827653E+02 -0.18723862380E+03  0.17675378963E+02  0.20709986970E+03  0.00000000000E+00 0. -1.
        -13    1    3    3    0    0  0.33427451978E+02 -0.12736975971E+02  0.31746926210E+02  0.47827736998E+02  0.00000000000E+00 0.  1.
          2    1    6    6  502    0  0.48933939830E+02 -0.17644271930E+03 -0.67293157653E+03  0.69739764149E+03  0.00000000000E+00 0. -1.
          3    1    5    5  503    0 -0.13568285769E+03  0.24267609944E+03 -0.20936234625E+02  0.27881867411E+03  0.00000000000E+00 0. -1.
         -4    1    5    5    0  503 -0.69683120391E+02  0.15301631551E+03 -0.76518589553E+02  0.18472905734E+03  0.00000000000E+00 0.  1.
         -1    1    6    6    0  502  0.36288758620E+02 -0.19274095887E+02 -0.92263105309E+02  0.10099923453E+03  0.00000000000E+00 0.  1.
<mgrwt>
<rscale>  0 0.12804542E+04</rscale>
<asrwt>0</asrwt>
<pdfrwt beam="1">  1        1 0.54126539E-01 0.12804542E+04</pdfrwt>
<pdfrwt beam="2">  1       -1 0.17923842E+00 0.12804542E+04</pdfrwt>
<totfact> 0.14749453E+01</totfact>
</mgrwt>
</event>
<event>
12    1  0.1495204E-007  0.2302777E+04  0.7818608E-02  0.8476827E-01
         -2   -1    0    0    0  501 -0.00000000000E+00  0.00000000000E+00  0.10033666824E+04  0.10033666824E+04  0.00000000000E+00 0. -1.
          2   -1    0    0  501    0  0.00000000000E+00 -0.00000000000E+00 -0.13212474626E+04  0.13212474626E+04  0.00000000000E+00 0.  1.
         23    2    1    2    0    0 -0.70768640740E+03 -0.67229200674E+03 -0.17234556959E+03  0.99559407072E+03  0.93316476323E+02 0.  0.
        254    2    1    2    0    0  0.70768640740E+03  0.67229200674E+03 -0.14553521064E+03  0.13290200743E+04  0.89012205163E+03 0.  0.
        -24    2    4    4    0    0 -0.19186282332E+03  0.71490482917E+02  0.53259959839E+02  0.22634481573E+03  0.80455703122E+02 0.  0.
         24    2    4    4    0    0  0.89954923072E+03  0.60080152382E+03 -0.19879517048E+03  0.11026752586E+04  0.78879126142E+02 0.  0.
         13    1    3    3    0    0 -0.17942294913E+03 -0.20575752334E+03 -0.14688969803E+02  0.27339443835E+03  0.00000000000E+00 0.  1.
        -13    1    3    3    0    0 -0.52826345827E+03 -0.46653448340E+03 -0.15765659979E+03  0.72219963237E+03  0.00000000000E+00 0. -1.
          4    1    6    6  502    0  0.14883993876E+03  0.12567866570E+03 -0.57245346819E+02  0.20304059721E+03  0.00000000000E+00 0. -1.
          1    1    5    5  503    0 -0.61586734799E+01  0.28782058338E+02  0.66672878271E+01  0.30179278788E+02  0.00000000000E+00 0. -1.
         -2    1    5    5    0  503 -0.18570414984E+03  0.42708424580E+02  0.46592672012E+02  0.19616553694E+03  0.00000000000E+00 0.  1.
         -1    1    6    6    0  502  0.75070929196E+03  0.47512285812E+03 -0.14154982366E+03  0.89963466136E+03  0.00000000000E+00 0.  1.
<mgrwt>
<rscale>  0 0.23027772E+04</rscale>
<asrwt>0</asrwt>
<pdfrwt beam="1">  1        2 0.20326884E+00 0.23027772E+04</pdfrwt>
<pdfrwt beam="2">  1       -2 0.15436411E+00 0.23027772E+04</pdfrwt>
<totfact> 0.40427502E+00</totfact>
</mgrwt>
</event>
<event>
12    1  0.1495204E-007  0.3614971E+04  0.7818608E-02  0.8087071E-01
          1   -1    0    0  501    0  0.00000000000E+00  0.00000000000E+00  0.17752845204E+04  0.17752845204E+04  0.00000000000E+00 0. -1.
         -1   -1    0    0    0  501 -0.00000000000E+00 -0.00000000000E+00 -0.18402703656E+04  0.18402703656E+04  0.00000000000E+00 0.  1.
         23    2    1    2    0    0  0.13827129536E+04  0.69200232651E+03 -0.72218871169E+03  0.17090786387E+04  0.92902778258E+02 0.  0.
        254    2    1    2    0    0 -0.13827129536E+04 -0.69200232651E+03  0.65720286655E+03  0.19064762472E+04  0.90109585594E+03 0.  0.
        -24    2    4    4    0    0 -0.24833939412E+03  0.13002995601E+03  0.37522223020E+03  0.47525431292E+03  0.80589675395E+02 0.  0.
         24    2    4    4    0    0 -0.11343735595E+04 -0.82203228252E+03  0.28198063635E+03  0.14312219343E+04  0.79641070347E+02 0.  0.
         13    1    3    3    0    0  0.35887743094E+03  0.13901225576E+03 -0.19849391667E+03  0.43303262307E+03  0.00000000000E+00 0. -1.
        -13    1    3    3    0    0  0.10238355226E+04  0.55299007075E+03 -0.52369479502E+03  0.12760460157E+04  0.00000000000E+00 0.  1.
          4    1    6    6  502    0 -0.10513900427E+04 -0.78109449648E+03  0.25080234025E+03  0.13335784372E+04  0.00000000000E+00 0. -1.
          3    1    5    5  503    0 -0.16951154908E+03  0.12821604602E+03  0.26415708234E+03  0.33904643322E+03  0.00000000000E+00 0. -1.
         -4    1    5    5    0  503 -0.78827845042E+02  0.18139099903E+01  0.11106514786E+03  0.13620787970E+03  0.00000000000E+00 0.  1.
         -1    1    6    6    0  502 -0.82983516731E+02 -0.40937786040E+02  0.31178296097E+02  0.97643497082E+02  0.00000000000E+00 0.  1.
<mgrwt>
<rscale>  0 0.36149708E+04</rscale>
<asrwt>0</asrwt>
<pdfrwt beam="1">  1        1 0.27312070E+00 0.36149708E+04</pdfrwt>
<pdfrwt beam="2">  1       -1 0.28311852E+00 0.36149708E+04</pdfrwt>
<totfact> 0.14537900E-01</totfact>
</mgrwt>
</event>
<event>
12    1  0.1495204E-007  0.1493562E+04  0.7818608E-02  0.8888745E-01
          2   -1    0    0  501    0  0.00000000000E+00  0.00000000000E+00  0.37314110876E+04  0.37314110876E+04  0.00000000000E+00 0.  1.
         -2   -1    0    0    0  501 -0.00000000000E+00 -0.00000000000E+00 -0.14945608609E+03  0.14945608609E+03  0.00000000000E+00 0. -1.
         23    2    1    2    0    0  0.14341080564E+03  0.41015486940E+03  0.15744229268E+04  0.16359646375E+04  0.93696673559E+02 0.  0.
        254    2    1    2    0    0 -0.14341080564E+03 -0.41015486940E+03  0.20075320747E+04  0.22449025362E+04  0.90587454429E+03 0.  0.
        -24    2    4    4    0    0 -0.26342595080E+03 -0.50551530652E+03  0.19894305108E+04  0.20710060388E+04  0.79330314556E+02 0.  0.
         24    2    4    4    0    0  0.12001514516E+03  0.95360437121E+02  0.18101563871E+02  0.17389649736E+03  0.80094176712E+02 0.  0.
         13    1    3    3    0    0  0.78608212205E+02  0.13142171128E+03  0.67325489655E+03  0.69045135452E+03  0.00000000000E+00 0. -1.
        -13    1    3    3    0    0  0.64802593434E+02  0.27873315811E+03  0.90116803029E+03  0.94551328301E+03  0.00000000000E+00 0.  1.
          4    1    6    6  502    0  0.41466429738E+02  0.14761599131E+02  0.39728709265E+02  0.59293675413E+02  0.00000000000E+00 0. -1.
          1    1    5    5  503    0 -0.32579363357E+02 -0.48851152790E+02  0.30373185179E+03  0.30935560095E+03  0.00000000000E+00 0. -1.
         -2    1    5    5    0  503 -0.23084658744E+03 -0.45666415373E+03  0.16856986590E+04  0.17616504379E+04  0.00000000000E+00 0.  1.
         -3    1    6    6    0  502  0.78548715419E+02  0.80598837991E+02 -0.21627145394E+02  0.11460282194E+03  0.00000000000E+00 0.  1.
<mgrwt>
<rscale>  0 0.14935623E+04</rscale>
<asrwt>0</asrwt>
<pdfrwt beam="1">  1        2 0.57406318E+00 0.14935623E+04</pdfrwt>
<pdfrwt beam="2">  1       -2 0.22993247E-01 0.14935623E+04</pdfrwt>
<totfact> 0.90884161E+00</totfact>
</mgrwt>
</event>
<event>
12    1  0.1495204E-007  0.1969948E+04  0.7818608E-02  0.8620801E-01
          1   -1    0    0  501    0  0.00000000000E+00  0.00000000000E+00  0.12493149384E+04  0.12493149384E+04  0.00000000000E+00 0. -1.
         -1   -1    0    0    0  501 -0.00000000000E+00 -0.00000000000E+00 -0.77656485047E+03  0.77656485047E+03  0.00000000000E+00 0.  1.
         23    2    1    2    0    0  0.80441548653E+02 -0.34073299787E+03  0.89693941243E+03  0.96669978693E+03  0.86245868883E+02 0.  0.
        254    2    1    2    0    0 -0.80441548653E+02  0.34073299787E+03 -0.42418932447E+03  0.10591800020E+04  0.90518278540E+03 0.  0.
        -24    2    4    4    0    0 -0.16802944594E+03 -0.20669662113E+03  0.96792983476E+02  0.29414683313E+03  0.78715245686E+02 0.  0.
         24    2    4    4    0    0  0.87587897282E+02  0.54742961900E+03 -0.52098230795E+03  0.76503316884E+03  0.80637191883E+02 0.  0.
         11    1    3    3    0    0  0.54350974281E+01  0.44944044910E+01  0.13268446676E+02  0.15026364596E+02  0.00000000000E+00 0.  1.
        -11    1    3    3    0    0  0.75006451225E+02 -0.34522740236E+03  0.88367096575E+03  0.95167342234E+03  0.00000000000E+00 0. -1.
          4    1    6    6  502    0  0.47458605022E+02  0.12869953704E+03 -0.98699924334E+02  0.16898983723E+03  0.00000000000E+00 0. -1.
          3    1    5    5  503    0 -0.50794854131E+02 -0.10270687585E+03  0.72432245830E+02  0.13555533847E+03  0.00000000000E+00 0. -1.
         -4    1    5    5    0  503 -0.11723459180E+03 -0.10398974529E+03  0.24360737646E+02  0.15859149466E+03  0.00000000000E+00 0.  1.
         -3    1    6    6    0  502  0.40129292260E+02  0.41873008196E+03 -0.42228238361E+03  0.59604333160E+03  0.00000000000E+00 0.  1.
<mgrwt>
<rscale>  0 0.19699483E+04</rscale>
<asrwt>0</asrwt>
<pdfrwt beam="1">  1        1 0.19220230E+00 0.19699483E+04</pdfrwt>
<pdfrwt beam="2">  1       -1 0.11947152E+00 0.19699483E+04</pdfrwt>
<totfact> 0.57265970E+00</totfact>
</mgrwt>
</event>
<event>
12    1  0.1495204E-007  0.2392793E+04  0.7818608E-02  0.8442207E-01
          2   -1    0    0  501    0  0.00000000000E+00  0.00000000000E+00  0.25831052313E+04  0.25831052313E+04  0.00000000000E+00 0. -1.
         -2   -1    0    0    0  501 -0.00000000000E+00 -0.00000000000E+00 -0.55412572331E+03  0.55412572331E+03  0.00000000000E+00 0.  1.
         23    2    1    2    0    0 -0.61953234590E+03 -0.81383970072E+02  0.19338467706E+04  0.20343722467E+04  0.91996889855E+02 0.  0.
        254    2    1    2    0    0  0.61953234590E+03  0.81383970072E+02  0.95132737415E+02  0.11028587079E+04  0.90377177083E+03 0.  0.
        -24    2    4    4    0    0  0.25787545429E+03  0.20342017762E+03  0.45891508151E+03  0.56978320724E+03  0.78551464802E+02 0.  0.
         24    2    4    4    0    0  0.36165689161E+03 -0.12203620755E+03 -0.36378234410E+03  0.53307550071E+03  0.78379540526E+02 0.  0.
         13    1    3    3    0    0 -0.18808858696E+03 -0.46520676741E+02  0.72182609551E+03  0.74737835269E+03  0.00000000000E+00 0.  1.
        -13    1    3    3    0    0 -0.43144375895E+03 -0.34863293331E+02  0.12120206751E+04  0.12869938940E+04  0.00000000000E+00 0. -1.
          2    1    6    6  502    0  0.13766734340E+03 -0.77170336208E+02 -0.18374632584E+03  0.24221946761E+03  0.00000000000E+00 0. -1.
          1    1    5    5  503    0  0.34791125367E+02  0.31656465763E+02  0.12176370854E+03  0.13053334803E+03  0.00000000000E+00 0. -1.
         -2    1    5    5    0  503  0.22308432892E+03  0.17176371186E+03  0.33715137297E+03  0.43924985921E+03  0.00000000000E+00 0.  1.
         -1    1    6    6    0  502  0.22398954821E+03 -0.44865871339E+02 -0.18003601826E+03  0.29085603309E+03  0.00000000000E+00 0.  1.
<mgrwt>
<rscale>  0 0.23927934E+04</rscale>
<asrwt>0</asrwt>
<pdfrwt beam="1">  1        2 0.39740080E+00 0.23927934E+04</pdfrwt>
<pdfrwt beam="2">  1       -2 0.85250113E-01 0.23927934E+04</pdfrwt>
<totfact> 0.33527327E+00</totfact>
</mgrwt>
</event>
<event>
12    1  0.1495204E-007  0.1423003E+04  0.7818608E-02  0.8937334E-01
          1   -1    0    0  501    0  0.00000000000E+00  0.00000000000E+00  0.63470359540E+03  0.63470359540E+03  0.00000000000E+00 0. -1.
         -1   -1    0    0    0  501 -0.00000000000E+00 -0.00000000000E+00 -0.79759187264E+03  0.79759187264E+03  0.00000000000E+00 0.  1.
         23    2    1    2    0    0 -0.76571326615E+02 -0.87823545914E+02 -0.45403109894E+03  0.47742646422E+03  0.90640204393E+02 0.  0.
        254    2    1    2    0    0  0.76571326615E+02  0.87823545914E+02  0.29114282170E+03  0.95486900382E+03  0.90190605306E+03 0.  0.
        -24    2    4    4    0    0  0.42801156336E+03 -0.16883957639E+03  0.16183034058E+03  0.49393283955E+03  0.77973648901E+02 0.  0.
         24    2    4    4    0    0 -0.35144023675E+03  0.25666312231E+03  0.12931248112E+03  0.46093616427E+03  0.79713433024E+02 0.  0.
         11    1    3    3    0    0  0.10545510099E+00  0.17390085905E+02 -0.57217188799E+02  0.59801612877E+02  0.00000000000E+00 0. -1.
        -11    1    3    3    0    0 -0.76676781716E+02 -0.10521363182E+03 -0.39681391014E+03  0.41762485134E+03  0.00000000000E+00 0.  1.
          4    1    6    6  502    0 -0.25918160262E+03  0.16281746428E+03  0.58943711322E+02  0.31170337008E+03  0.00000000000E+00 0. -1.
          3    1    5    5  503    0  0.46714608802E+02 -0.14198222417E+00  0.34171572997E+02  0.57878936026E+02  0.00000000000E+00 0. -1.
         -4    1    5    5    0  503  0.38129695456E+03 -0.16869759417E+03  0.12765876759E+03  0.43605390352E+03  0.00000000000E+00 0.  1.
         -3    1    6    6    0  502 -0.92258634123E+02  0.93845658023E+02  0.70368769797E+02  0.14923279419E+03  0.00000000000E+00 0.  1.
<mgrwt>
<rscale>  0 0.14230031E+04</rscale>
<asrwt>0</asrwt>
<pdfrwt beam="1">  1        1 0.97646707E-01 0.14230031E+04</pdfrwt>
<pdfrwt beam="2">  1       -1 0.12270644E+00 0.14230031E+04</pdfrwt>
<totfact> 0.17998756E+01</totfact>
</mgrwt>
</event>
<event>
12    1  0.1495204E-007  0.1236429E+04  0.7818608E-02  0.9081555E-01
          2   -1    0    0  501    0  0.00000000000E+00  0.00000000000E+00  0.83089903925E+03  0.83089903925E+03  0.00000000000E+00 0. -1.
         -2   -1    0    0    0  501 -0.00000000000E+00 -0.00000000000E+00 -0.45997040688E+03  0.45997040688E+03  0.00000000000E+00 0.  1.
         23    2    1    2    0    0  0.78676098206E+02  0.12556511451E+03  0.32662994867E+03  0.37033188256E+03  0.92206580369E+02 0.  0.
        254    2    1    2    0    0 -0.78676098206E+02 -0.12556511451E+03  0.44298683705E+02  0.92053756357E+03  0.90745275698E+03 0.  0.
        -24    2    4    4    0    0 -0.14119068746E+03  0.37454400145E+03  0.44718794235E+02  0.41061739724E+03  0.79930326619E+02 0.  0.
         24    2    4    4    0    0  0.62514589253E+02 -0.50010911596E+03 -0.42011052957E+00  0.50992016632E+03  0.77467398278E+02 0.  0.
         11    1    3    3    0    0  0.97716255963E+02  0.11028668588E+03  0.29982841357E+03  0.33407887893E+03  0.00000000000E+00 0. -1.
        -11    1    3    3    0    0 -0.19040157757E+02  0.15278428630E+02  0.26801535100E+02  0.36253003634E+02  0.00000000000E+00 0.  1.
          4    1    6    6  502    0  0.10532934282E+02 -0.10516204556E+02  0.91700266631E+01  0.17482066578E+02  0.00000000000E+00 0. -1.
          1    1    5    5  503    0  0.95286816316E+01  0.17765704041E+02  0.75631465669E+01  0.21531771866E+02  0.00000000000E+00 0. -1.
         -2    1    5    5    0  503 -0.15071936909E+03  0.35677829741E+03  0.37155647668E+02  0.38908562538E+03  0.00000000000E+00 0.  1.
         -3    1    6    6    0  502  0.51981654972E+02 -0.48959291140E+03 -0.95901371927E+01  0.49243809974E+03  0.00000000000E+00 0.  1.
<mgrwt>
<rscale>  0 0.12364287E+04</rscale>
<asrwt>0</asrwt>
<pdfrwt beam="1">  1        2 0.12783062E+00 0.12364287E+04</pdfrwt>
<pdfrwt beam="2">  1       -2 0.70764678E-01 0.12364287E+04</pdfrwt>
<totfact> 0.58519685E+01</totfact>
</mgrwt>
</event>
<event>
12    1  0.1495204E-007  0.1540433E+04  0.7818608E-02  0.8858002E-01
          2   -1    0    0  501    0  0.00000000000E+00  0.00000000000E+00  0.94249025750E+03  0.94249025750E+03  0.00000000000E+00 0. -1.
         -2   -1    0    0    0  501 -0.00000000000E+00 -0.00000000000E+00 -0.62943207022E+03  0.62943207022E+03  0.00000000000E+00 0.  1.
         23    2    1    2    0    0  0.13537052617E+03  0.38860876587E+00  0.59862780800E+03  0.62170115699E+03  0.99155159821E+02 0.  0.
        254    2    1    2    0    0 -0.13537052617E+03 -0.38860876587E+00 -0.28556962072E+03  0.95022117073E+03  0.89612774460E+03 0.  0.
        -24    2    4    4    0    0  0.30094288545E+03 -0.82806739195E+01  0.13454144209E+03  0.33934714475E+03  0.80124248194E+02 0.  0.
         24    2    4    4    0    0 -0.43631341162E+03  0.78920651536E+01 -0.42011106281E+03  0.61087402598E+03  0.79006915315E+02 0.  0.
         13    1    3    3    0    0  0.29423574550E+02 -0.31418177202E+02  0.74623431963E+02  0.86148158401E+02  0.00000000000E+00 0.  1.
        -13    1    3    3    0    0  0.10594695162E+03  0.31806785968E+02  0.52400437604E+03  0.53555299859E+03  0.00000000000E+00 0. -1.
          4    1    6    6  502    0 -0.21405162500E+03 -0.30763678093E+02 -0.23180128941E+03  0.31701157680E+03  0.00000000000E+00 0. -1.
          3    1    5    5  503    0  0.12674003540E+03  0.27276047438E+02  0.84117502340E+02  0.15454052393E+03  0.00000000000E+00 0. -1.
         -4    1    5    5    0  503  0.17420285005E+03 -0.35556721357E+02  0.50423939746E+02  0.18480662082E+03  0.00000000000E+00 0.  1.
         -3    1    6    6    0  502 -0.22226178662E+03  0.38655743247E+02 -0.18830977340E+03  0.29386244918E+03  0.00000000000E+00 0.  1.
<mgrwt>
<rscale>  0 0.15404332E+04</rscale>
<asrwt>0</asrwt>
<pdfrwt beam="1">  1        2 0.14499850E+00 0.15404332E+04</pdfrwt>
<pdfrwt beam="2">  1       -2 0.96835703E-01 0.15404332E+04</pdfrwt>
<totfact> 0.23577960E+01</totfact>
</mgrwt>
</event>
<event>
12    1  0.1495204E-007  0.2285176E+04  0.7818608E-02  0.8483789E-01
          2   -1    0    0  501    0  0.00000000000E+00  0.00000000000E+00  0.17342822963E+04  0.17342822963E+04  0.00000000000E+00 0. -1.
         -2   -1    0    0    0  501 -0.00000000000E+00 -0.00000000000E+00 -0.75276499414E+03  0.75276499414E+03  0.00000000000E+00 0.  1.
         23    2    1    2    0    0  0.39405316822E+03  0.65612496029E+03  0.10504528165E+04  0.13028189723E+04  0.90046054954E+02 0.  0.
        254    2    1    2    0    0 -0.39405316822E+03 -0.65612496029E+03 -0.68935514362E+02  0.11842283181E+04  0.90103648170E+03 0.  0.
        -24    2    4    4    0    0 -0.35288773819E+03  0.47396848941E+02  0.21127528203E+03  0.42149875260E+03  0.79042625197E+02 0.  0.
         24    2    4    4    0    0 -0.41165430036E+02 -0.70352180923E+03 -0.28021079639E+03  0.76272956550E+03  0.81245128975E+02 0.  0.
         13    1    3    3    0    0  0.35135972119E+02  0.95892284501E+02  0.18323158979E+03  0.20977054669E+03  0.00000000000E+00 0.  1.
        -13    1    3    3    0    0  0.35891719610E+03  0.56023267579E+03  0.86722122669E+03  0.10930484256E+04  0.00000000000E+00 0. -1.
          2    1    6    6  502    0 -0.65007575242E+02 -0.55904733126E+03 -0.22867517138E+03  0.60749669747E+03  0.00000000000E+00 0. -1.
          1    1    5    5  503    0 -0.20787151796E+03  0.48152999641E+02  0.16349512702E+03  0.26881208290E+03  0.00000000000E+00 0. -1.
         -2    1    5    5    0  503 -0.14501622022E+03 -0.75615069995E+00  0.47780155008E+02  0.15268666970E+03  0.00000000000E+00 0.  1.
         -1    1    6    6    0  502  0.23842145205E+02 -0.14447447797E+03 -0.51535625017E+02  0.15523286804E+03  0.00000000000E+00 0.  1.
<mgrwt>
<rscale>  0 0.22851757E+04</rscale>
<asrwt>0</asrwt>
<pdfrwt beam="1">  1        2 0.26681266E+00 0.22851757E+04</pdfrwt>
<pdfrwt beam="2">  1       -2 0.11581000E+00 0.22851757E+04</pdfrwt>
<totfact> 0.49383763E+00</totfact>
</mgrwt>
</event>
<event>
12    1  0.1495204E-007  0.1797260E+04  0.7818608E-02  0.8707758E-01
         -2   -1    0    0    0  501 -0.00000000000E+00  0.00000000000E+00  0.18172052430E+03  0.18172052430E+03  0.00000000000E+00 0.  1.
          2   -1    0    0  501    0  0.00000000000E+00 -0.00000000000E+00 -0.44438353920E+04  0.44438353920E+04  0.00000000000E+00 0. -1.
         23    2    1    2    0    0 -0.59755206698E+03  0.64754856579E+02 -0.23467861176E+04  0.24239766941E+04  0.83643694343E+02 0.  0.
        254    2    1    2    0    0  0.59755206698E+03 -0.64754856579E+02 -0.19153287501E+04  0.22015792222E+04  0.90399401902E+03 0.  0.
        -24    2    4    4    0    0  0.71210170471E+03  0.17032920593E+03 -0.17031035325E+04  0.18554800862E+04  0.78382598518E+02 0.  0.
         24    2    4    4    0    0 -0.11454963773E+03 -0.23508406251E+03 -0.21222521764E+03  0.34609913600E+03  0.79742918095E+02 0.  0.
         11    1    3    3    0    0 -0.59738673852E+03  0.69990323613E+02 -0.23307247146E+04  0.24070827273E+04  0.00000000000E+00 0.  1.
        -11    1    3    3    0    0 -0.16532846621E+00 -0.52354670339E+01 -0.16061403000E+02  0.16893966819E+02  0.00000000000E+00 0. -1.
          2    1    6    6  502    0 -0.12648720901E+03 -0.20475090941E+03 -0.19026834740E+03  0.30679633794E+03  0.00000000000E+00 0. -1.
          1    1    5    5  503    0  0.54863510293E+03  0.99608777942E+02 -0.12563630620E+04  0.13745437528E+04  0.00000000000E+00 0. -1.
         -2    1    5    5    0  503  0.16346660178E+03  0.70720427986E+02 -0.44674047044E+03  0.48093633338E+03  0.00000000000E+00 0.  1.
         -1    1    6    6    0  502  0.11937571279E+02 -0.30333153093E+02 -0.21956870235E+02  0.39302798057E+02  0.00000000000E+00 0.  1.
<mgrwt>
<rscale>  0 0.17972602E+04</rscale>
<asrwt>0</asrwt>
<pdfrwt beam="1">  1        2 0.68366694E+00 0.17972602E+04</pdfrwt>
<pdfrwt beam="2">  1       -2 0.27957006E-01 0.17972602E+04</pdfrwt>
<totfact> 0.15735346E+00</totfact>
</mgrwt>
</event>
<event>
12    1  0.1495204E-007  0.2545510E+04  0.7818608E-02  0.8386949E-01
         -2   -1    0    0    0  501 -0.00000000000E+00  0.00000000000E+00  0.61017788289E+03  0.61017788289E+03  0.00000000000E+00 0.  1.
          2   -1    0    0  501    0  0.00000000000E+00 -0.00000000000E+00 -0.26548083037E+04  0.26548083037E+04  0.00000000000E+00 0. -1.
         23    2    1    2    0    0  0.12945662659E+03  0.73673632036E+03  0.16189911475E+03  0.76845207011E+03  0.69049524199E+02 0.  0.
        254    2    1    2    0    0 -0.12945662659E+03 -0.73673632036E+03 -0.22065295356E+04  0.24965341165E+04  0.89686709131E+03 0.  0.
        -24    2    4    4    0    0 -0.41604593755E+03 -0.61006445312E+02 -0.85629955330E+03  0.95763456801E+03  0.83660219598E+02 0.  0.
         24    2    4    4    0    0  0.28658931095E+03 -0.67572987505E+03 -0.13502299823E+04  0.15388995485E+04  0.79665036685E+02 0.  0.
         13    1    3    3    0    0  0.13602637757E+02  0.87844262219E+02 -0.31576166600E+01  0.88947269221E+02  0.00000000000E+00 0. -1.
        -13    1    3    3    0    0  0.11585398884E+03  0.64889205815E+03  0.16505673141E+03  0.67950480089E+03  0.00000000000E+00 0.  1.
          4    1    6    6  502    0  0.22675926598E+03 -0.58647501328E+03 -0.11097934130E+04  0.12755446388E+04  0.00000000000E+00 0. -1.
          1    1    5    5  503    0 -0.22858571310E+02  0.11232229356E+01 -0.10424559548E+03  0.10672825347E+03  0.00000000000E+00 0. -1.
         -2    1    5    5    0  503 -0.39318736624E+03 -0.62129668247E+02 -0.75205395782E+03  0.85090631453E+03  0.00000000000E+00 0.  1.
         -1    1    6    6    0  502  0.59830044967E+02 -0.89254861772E+02 -0.24043656923E+03  0.26335490969E+03  0.00000000000E+00 0.  1.
<mgrwt>
<rscale>  0 0.25455100E+04</rscale>
<asrwt>0</asrwt>
<pdfrwt beam="1">  1        2 0.40843205E+00 0.25455100E+04</pdfrwt>
<pdfrwt beam="2">  1       -2 0.93873519E-01 0.25455100E+04</pdfrwt>
<totfact> 0.24050398E+00</totfact>
</mgrwt>
</event>
<event>
12    1  0.1495204E-007  0.1765588E+04  0.7818608E-02  0.8724817E-01
          1   -1    0    0  501    0  0.00000000000E+00  0.00000000000E+00  0.27082917460E+04  0.27082917460E+04  0.00000000000E+00 0. -1.
         -1   -1    0    0    0  501 -0.00000000000E+00 -0.00000000000E+00 -0.28775518084E+03  0.28775518084E+03  0.00000000000E+00 0.  1.
         23    2    1    2    0    0  0.73987263105E+02 -0.44312232933E+03  0.16921241268E+04  0.17532185180E+04  0.93056958125E+02 0.  0.
        254    2    1    2    0    0 -0.73987263105E+02  0.44312232933E+03  0.72841243832E+03  0.12428284088E+04  0.90122486628E+03 0.  0.
        -24    2    4    4    0    0  0.38167744772E+03  0.38226307561E+02  0.30227524881E+03  0.49480032670E+03  0.79486555929E+02 0.  0.
         24    2    4    4    0    0 -0.45566471082E+03  0.40489602177E+03  0.42613718951E+03  0.74802808211E+03  0.79887359577E+02 0.  0.
         13    1    3    3    0    0  0.73532033151E+02 -0.39709349929E+03  0.13854280640E+04  0.14430873596E+04  0.00000000000E+00 0. -1.
        -13    1    3    3    0    0  0.45522995385E+00 -0.46028830032E+02  0.30669606283E+03  0.31013115836E+03  0.00000000000E+00 0.  1.
          4    1    6    6  502    0 -0.42728543928E+03  0.34875342477E+03  0.37493522416E+03  0.66691695152E+03  0.00000000000E+00 0. -1.
          1    1    5    5  503    0  0.31310298139E+03  0.58863272426E-01  0.24714720754E+03  0.39889249506E+03  0.00000000000E+00 0. -1.
         -2    1    5    5    0  503  0.68574466323E+02  0.38167444288E+02  0.55128041269E+02  0.95907831636E+02  0.00000000000E+00 0.  1.
         -3    1    6    6    0  502 -0.28379271541E+02  0.56142596999E+02  0.51201965346E+02  0.81111130594E+02  0.00000000000E+00 0.  1.
<mgrwt>
<rscale>  0 0.17655877E+04</rscale>
<asrwt>0</asrwt>
<pdfrwt beam="1">  1        1 0.41666025E+00 0.17655877E+04</pdfrwt>
<pdfrwt beam="2">  1       -1 0.44270030E-01 0.17655877E+04</pdfrwt>
<totfact> 0.46360110E+00</totfact>
</mgrwt>
</event>
<event>
12    1  0.1495204E-007  0.1738308E+04  0.7818608E-02  0.8739813E-01
         -2   -1    0    0    0  501 -0.00000000000E+00  0.00000000000E+00  0.17665901012E+04  0.17665901012E+04  0.00000000000E+00 0.  1.
          2   -1    0    0  501    0  0.00000000000E+00 -0.00000000000E+00 -0.42761967987E+03  0.42761967987E+03  0.00000000000E+00 0. -1.
         23    2    1    2    0    0 -0.22914819972E+03  0.59298392054E+03  0.43687559679E+03  0.77648697865E+03  0.89066904533E+02 0.  0.
        254    2    1    2    0    0  0.22914819972E+03 -0.59298392054E+03  0.90209482458E+03  0.14177228025E+04  0.88995732741E+03 0.  0.
        -24    2    4    4    0    0  0.51239399221E+03 -0.52622878615E+03  0.42262104327E+03  0.85104425158E+03  0.78761877175E+02 0.  0.
         24    2    4    4    0    0 -0.28324579250E+03 -0.66755134389E+02  0.47947378131E+03  0.56667855088E+03  0.80901459389E+02 0.  0.
         11    1    3    3    0    0 -0.73027840062E+02  0.28871933265E+03  0.17188738912E+03  0.34385635519E+03  0.00000000000E+00 0. -1.
        -11    1    3    3    0    0 -0.15612035965E+03  0.30426458789E+03  0.26498820767E+03  0.43263062345E+03  0.00000000000E+00 0.  1.
          4    1    6    6  502    0 -0.98263824353E+02 -0.22532989390E+02  0.24386943301E+03  0.26388598891E+03  0.00000000000E+00 0. -1.
          1    1    5    5  503    0  0.44250008398E+03 -0.43759640074E+03  0.32645799688E+03  0.70276009988E+03  0.00000000000E+00 0. -1.
         -2    1    5    5    0  503  0.69893908231E+02 -0.88632385416E+02  0.96163046392E+02  0.14828415169E+03  0.00000000000E+00 0.  1.
         -3    1    6    6    0  502 -0.18498196814E+03 -0.44222144998E+02  0.23560434830E+03  0.30279256197E+03  0.00000000000E+00 0.  1.
<mgrwt>
<rscale>  0 0.17383080E+04</rscale>
<asrwt>0</asrwt>
<pdfrwt beam="1">  1        2 0.65787644E-01 0.17383080E+04</pdfrwt>
<pdfrwt beam="2">  1       -2 0.27178309E+00 0.17383080E+04</pdfrwt>
<totfact> 0.33083468E+00</totfact>
</mgrwt>
</event>
<event>
12    1  0.1495204E-007  0.1445564E+04  0.7818608E-02  0.8921481E-01
          2   -1    0    0  501    0  0.00000000000E+00  0.00000000000E+00  0.88543917012E+03  0.88543917012E+03  0.00000000000E+00 0. -1.
         -2   -1    0    0    0  501 -0.00000000000E+00 -0.00000000000E+00 -0.59000565392E+03  0.59000565392E+03  0.00000000000E+00 0.  1.
         23    2    1    2    0    0  0.24314564045E+03 -0.82552493061E+02  0.43805295681E+03  0.51533039131E+03  0.87978989881E+02 0.  0.
        254    2    1    2    0    0 -0.24314564045E+03  0.82552493061E+02 -0.14261944062E+03  0.96011443273E+03  0.91408134349E+03 0.  0.
        -24    2    4    4    0    0 -0.17750173478E+03  0.40459968360E+03  0.18877218267E+03  0.48690244283E+03  0.78938470148E+02 0.  0.
         24    2    4    4    0    0 -0.65643905670E+02 -0.32204719054E+03 -0.33139162329E+03  0.47321198989E+03  0.78010666609E+02 0.  0.
         13    1    3    3    0    0  0.20945765895E+03 -0.35737170520E+02  0.36381647525E+03  0.42132182938E+03  0.00000000000E+00 0. -1.
        -13    1    3    3    0    0  0.33687981501E+02 -0.46815322541E+02  0.74236481561E+02  0.94008561934E+02  0.00000000000E+00 0.  1.
          4    1    6    6  502    0 -0.74181074310E+01 -0.74072978946E+02 -0.34567386052E+02  0.82077638284E+02  0.00000000000E+00 0. -1.
          1    1    5    5  503    0 -0.31898029858E+02  0.26689114244E+02  0.40917953168E+01  0.41791577104E+02  0.00000000000E+00 0. -1.
         -2    1    5    5    0  503 -0.14560370492E+03  0.37791056936E+03  0.18468038736E+03  0.44511086573E+03  0.00000000000E+00 0.  1.
         -3    1    6    6    0  502 -0.58225798239E+02 -0.24797421159E+03 -0.29682423724E+03  0.39113435161E+03  0.00000000000E+00 0.  1.
<mgrwt>
<rscale>  0 0.14455644E+04</rscale>
<asrwt>0</asrwt>
<pdfrwt beam="1">  1        2 0.13622141E+00 0.14455644E+04</pdfrwt>
<pdfrwt beam="2">  1       -2 0.90770101E-01 0.14455644E+04</pdfrwt>
<totfact> 0.30163191E+01</totfact>
</mgrwt>
</event>
<event>
12    1  0.1495204E-007  0.1340116E+04  0.7818608E-02  0.8998344E-01
         -2   -1    0    0    0  501 -0.00000000000E+00  0.00000000000E+00  0.11048086328E+04  0.11048086328E+04  0.00000000000E+00 0. -1.
          2   -1    0    0  501    0  0.00000000000E+00 -0.00000000000E+00 -0.40638521814E+03  0.40638521814E+03  0.00000000000E+00 0.  1.
         23    2    1    2    0    0 -0.31911496362E+03  0.64874320912E+02  0.37684714785E+03  0.50639693243E+03  0.91548035517E+02 0.  0.
        254    2    1    2    0    0  0.31911496362E+03 -0.64874320912E+02  0.32157626679E+03  0.10047969185E+04  0.89451803478E+03 0.  0.
        -24    2    4    4    0    0 -0.20878677185E+03  0.22887689810E+03  0.21763174663E+03  0.38634343837E+03  0.76948844350E+02 0.  0.
         24    2    4    4    0    0  0.52790173547E+03 -0.29375121902E+03  0.10394452016E+03  0.61845348013E+03  0.81915949811E+02 0.  0.
         13    1    3    3    0    0 -0.11191793707E+03 -0.12077981134E+02  0.16857119903E+03  0.20270113815E+03  0.00000000000E+00 0. -1.
        -13    1    3    3    0    0 -0.20719702655E+03  0.76952302046E+02  0.20827594882E+03  0.30369579427E+03  0.00000000000E+00 0.  1.
          2    1    6    6  502    0  0.39204365082E+03 -0.22502156398E+03  0.41642874706E+02  0.45394609528E+03  0.00000000000E+00 0. -1.
          1    1    5    5  503    0 -0.19934178002E+03  0.18551790455E+03  0.20288108152E+03  0.33958028713E+03  0.00000000000E+00 0. -1.
         -2    1    5    5    0  503 -0.94449918285E+01  0.43358993553E+02  0.14750665110E+02  0.46763151238E+02  0.00000000000E+00 0.  1.
         -1    1    6    6    0  502  0.13585808465E+03 -0.68729655035E+02  0.62301645452E+02  0.16450738486E+03  0.00000000000E+00 0.  1.
<mgrwt>
<rscale>  0 0.13401163E+04</rscale>
<asrwt>0</asrwt>
<pdfrwt beam="1">  1        2 0.62520803E-01 0.13401163E+04</pdfrwt>
<pdfrwt beam="2">  1       -2 0.16997056E+00 0.13401163E+04</pdfrwt>
<totfact> 0.16260492E+01</totfact>
</mgrwt>
</event>
<event>
12    1  0.1495204E-007  0.1919779E+04  0.7818608E-02  0.8645073E-01
         -2   -1    0    0    0  501 -0.00000000000E+00  0.00000000000E+00  0.45493561928E+03  0.45493561928E+03  0.00000000000E+00 0.  1.
          2   -1    0    0  501    0  0.00000000000E+00 -0.00000000000E+00 -0.20253154317E+04  0.20253154317E+04  0.00000000000E+00 0. -1.
         23    2    1    2    0    0  0.12950270124E+03  0.33345313573E+03 -0.15060804052E+04  0.15507084647E+04  0.91959841388E+02 0.  0.
        254    2    1    2    0    0 -0.12950270124E+03 -0.33345313573E+03 -0.64299407270E+02  0.92954258626E+03  0.85554255449E+03 0.  0.
        -24    2    4    4    0    0 -0.33379857715E+02  0.21397648687E+03 -0.24798619951E+03  0.33862739716E+03  0.79190953559E+02 0.  0.
         24    2    4    4    0    0 -0.96122843523E+02 -0.54742962259E+03  0.18368679224E+03  0.59091518910E+03  0.80753515840E+02 0.  0.
         11    1    3    3    0    0  0.12320995757E+03  0.33910787619E+03 -0.14763862277E+04  0.15198326022E+04  0.00000000000E+00 0. -1.
        -11    1    3    3    0    0  0.62927436689E+01 -0.56547404656E+01 -0.29694177510E+02  0.30875862589E+02  0.00000000000E+00 0.  1.
          2    1    6    6  502    0 -0.41208799219E+02 -0.78438940834E+02  0.17405614591E+02  0.90298327734E+02  0.00000000000E+00 0. -1.
          1    1    5    5  503    0 -0.50792844968E+01  0.72964234663E+02 -0.14280713490E+03  0.16044767511E+03  0.00000000000E+00 0. -1.
         -2    1    5    5    0  503 -0.28300573218E+02  0.14101225221E+03 -0.10517906462E+03  0.17817972205E+03  0.00000000000E+00 0.  1.
         -1    1    6    6    0  502 -0.54914044304E+02 -0.46899068176E+03  0.16628117765E+03  0.50061686136E+03  0.00000000000E+00 0.  1.
<mgrwt>
<rscale>  0 0.19197793E+04</rscale>
<asrwt>0</asrwt>
<pdfrwt beam="1">  1        2 0.31158699E+00 0.19197793E+04</pdfrwt>
<pdfrwt beam="2">  1       -2 0.69990096E-01 0.19197793E+04</pdfrwt>
<totfact> 0.11245496E+01</totfact>
</mgrwt>
</event>
<event>
12    1  0.1495204E-007  0.1911924E+04  0.7818608E-02  0.8648944E-01
         -2   -1    0    0    0  501 -0.00000000000E+00  0.00000000000E+00  0.35594452333E+03  0.35594452333E+03  0.00000000000E+00 0.  1.
          2   -1    0    0  501    0  0.00000000000E+00 -0.00000000000E+00 -0.25674310788E+04  0.25674310788E+04  0.00000000000E+00 0. -1.
         23    2    1    2    0    0  0.81297903184E+02 -0.45553288779E+03 -0.17551023020E+04  0.18173506867E+04  0.90883810775E+02 0.  0.
        254    2    1    2    0    0 -0.81297903184E+02  0.45553288779E+03 -0.45638425349E+03  0.11060249154E+04  0.89492176518E+03 0.  0.
        -24    2    4    4    0    0 -0.80187251288E+02  0.71809971880E+03 -0.37810285321E+03  0.81945410602E+03  0.80287376633E+02 0.  0.
         24    2    4    4    0    0 -0.11106518955E+01 -0.26256683101E+03 -0.78281400272E+02  0.28657080941E+03  0.83977835676E+02 0.  0.
         11    1    3    3    0    0  0.59079195525E+02 -0.44115341800E+03 -0.16597336846E+04  0.17183778960E+04  0.00000000000E+00 0. -1.
        -11    1    3    3    0    0  0.22218707659E+02 -0.14379469794E+02 -0.95368617344E+02  0.98972790684E+02  0.00000000000E+00 0.  1.
          2    1    6    6  502    0 -0.50598669644E+01  0.55080818018E+01 -0.33296166658E+01  0.81870364586E+01  0.00000000000E+00 0. -1.
          1    1    5    5  503    0 -0.35614601912E+02  0.13045372757E+03 -0.97598818768E+02  0.16676961453E+03  0.00000000000E+00 0. -1.
         -2    1    5    5    0  503 -0.44572649376E+02  0.58764599124E+03 -0.28050403444E+03  0.65268449149E+03  0.00000000000E+00 0.  1.
         -1    1    6    6    0  502  0.39492150689E+01 -0.26807491281E+03 -0.74951783607E+02  0.27838377295E+03  0.00000000000E+00 0.  1.
<mgrwt>
<rscale>  0 0.19119237E+04</rscale>
<asrwt>0</asrwt>
<pdfrwt beam="1">  1        2 0.39498941E+00 0.19119237E+04</pdfrwt>
<pdfrwt beam="2">  1       -2 0.54760694E-01 0.19119237E+04</pdfrwt>
<totfact> 0.93444336E+00</totfact>
</mgrwt>
</event>
<event>
12    1  0.1495204E-007  0.1149330E+04  0.7818608E-02  0.9158402E-01
          1   -1    0    0  501    0  0.00000000000E+00  0.00000000000E+00  0.26852273453E+04  0.26852273453E+04  0.00000000000E+00 0. -1.
         -1   -1    0    0    0  501 -0.00000000000E+00 -0.00000000000E+00 -0.12298387994E+03  0.12298387994E+03  0.00000000000E+00 0.  1.
         23    2    1    2    0    0 -0.62652491916E+02 -0.19956617274E+03  0.49938928445E+03  0.54907751116E+03  0.91348036576E+02 0.  0.
        254    2    1    2    0    0  0.62652491916E+02  0.19956617274E+03  0.20628541809E+04  0.22591337141E+04  0.89697590511E+03 0.  0.
        -24    2    4    4    0    0  0.25643460024E+03 -0.27748276767E+03  0.68961314805E+03  0.79037015979E+03  0.79770326385E+02 0.  0.
         24    2    4    4    0    0 -0.19378210832E+03  0.47704894041E+03  0.13732410329E+04  0.14687635543E+04  0.79675887303E+02 0.  0.
         11    1    3    3    0    0 -0.63685698588E+02 -0.14100502609E+03  0.43663604615E+03  0.46323786804E+03  0.00000000000E+00 0. -1.
        -11    1    3    3    0    0  0.10332066724E+01 -0.58561146652E+02  0.62753238302E+02  0.85839643118E+02  0.00000000000E+00 0.  1.
          2    1    6    6  502    0  0.49028128279E+01  0.30069544175E+02  0.10949428422E+03  0.11365391914E+03  0.00000000000E+00 0. -1.
          3    1    5    5  503    0  0.54124458106E+01 -0.30191489444E+02  0.87587576957E+02  0.92803040046E+02  0.00000000000E+00 0. -1.
         -4    1    5    5    0  503  0.25102215443E+03 -0.24729127823E+03  0.60202557109E+03  0.69756711975E+03  0.00000000000E+00 0.  1.
         -1    1    6    6    0  502 -0.19868492115E+03  0.44697939624E+03  0.12637467486E+04  0.13551096351E+04  0.00000000000E+00 0.  1.
<mgrwt>
<rscale>  0 0.11493297E+04</rscale>
<asrwt>0</asrwt>
<pdfrwt beam="1">  1        1 0.41311185E+00 0.11493297E+04</pdfrwt>
<pdfrwt beam="2">  1       -1 0.18920599E-01 0.11493297E+04</pdfrwt>
<totfact> 0.22633379E+01</totfact>
</mgrwt>
</event>
<event>
12    1  0.1495204E-007  0.1212986E+04  0.7818608E-02  0.9101565E-01
         -2   -1    0    0    0  501 -0.00000000000E+00  0.00000000000E+00  0.13361540111E+03  0.13361540111E+03  0.00000000000E+00 0.  1.
          2   -1    0    0  501    0  0.00000000000E+00 -0.00000000000E+00 -0.27529290264E+04  0.27529290264E+04  0.00000000000E+00 0. -1.
         23    2    1    2    0    0 -0.20346777745E+03  0.73060412857E+02 -0.26694480162E+03  0.35549941555E+03  0.91560619044E+02 0.  0.
        254    2    1    2    0    0  0.20346777745E+03 -0.73060412857E+02 -0.23523688237E+04  0.25310450120E+04  0.90874243302E+03 0.  0.
        -24    2    4    4    0    0 -0.12902893482E+03 -0.23487085281E+03 -0.19671376979E+03  0.34244192692E+03  0.82203300215E+02 0.  0.
         24    2    4    4    0    0  0.33249671227E+03  0.16181043995E+03 -0.21556550539E+04  0.21886030850E+04  0.79987938872E+02 0.  0.
         13    1    3    3    0    0 -0.16806446819E+03  0.94138100683E+02 -0.23136600198E+03  0.30106124683E+03  0.00000000000E+00 0. -1.
        -13    1    3    3    0    0 -0.35403309255E+02 -0.21077687826E+02 -0.35578799639E+02  0.54438168724E+02  0.00000000000E+00 0.  1.
          4    1    6    6  502    0  0.16072363246E+02 -0.93324450335E+01 -0.10816188570E+03  0.10974702232E+03  0.00000000000E+00 0. -1.
          3    1    5    5  503    0  0.55227099895E+01 -0.60854415885E+01  0.45048644651E+01  0.93715915833E+01  0.00000000000E+00 0. -1.
         -4    1    5    5    0  503 -0.13455164481E+03 -0.22878541122E+03 -0.20121863426E+03  0.33307033534E+03  0.00000000000E+00 0.  1.
         -3    1    6    6    0  502  0.31642434902E+03  0.17114288498E+03 -0.20474931682E+04  0.20788560627E+04  0.00000000000E+00 0.  1.
<mgrwt>
<rscale>  0 0.12129859E+04</rscale>
<asrwt>0</asrwt>
<pdfrwt beam="1">  1        2 0.42352756E+00 0.12129859E+04</pdfrwt>
<pdfrwt beam="2">  1       -2 0.20556215E-01 0.12129859E+04</pdfrwt>
<totfact> 0.50056995E+01</totfact>
</mgrwt>
</event>
<event>
12    1  0.1495204E-007  0.1882518E+04  0.7818608E-02  0.8663608E-01
          2   -1    0    0  501    0  0.00000000000E+00  0.00000000000E+00  0.35719455299E+04  0.35719455299E+04  0.00000000000E+00 0. -1.
         -2   -1    0    0    0  501 -0.00000000000E+00 -0.00000000000E+00 -0.24803519516E+03  0.24803519516E+03  0.00000000000E+00 0.  1.
         23    2    1    2    0    0 -0.11127258976E+03 -0.43028596614E+03  0.12860043333E+03  0.47163425765E+03  0.91505189144E+02 0.  0.
        254    2    1    2    0    0  0.11127258976E+03  0.43028596614E+03  0.31953099014E+04  0.33483464674E+04  0.89659974229E+03 0.  0.
        -24    2    4    4    0    0  0.78233580230E+01 -0.20129803296E+03  0.23969034994E+03  0.32317708322E+03  0.80061602923E+02 0.  0.
         24    2    4    4    0    0  0.10344923173E+03  0.63158399911E+03  0.29556195515E+04  0.30251693842E+04  0.79767026340E+02 0.  0.
         11    1    3    3    0    0 -0.87248132612E+02 -0.16200107355E+03  0.61973722059E+02  0.19415799417E+03  0.00000000000E+00 0. -1.
        -11    1    3    3    0    0 -0.24024457145E+02 -0.26828489260E+03  0.66626711274E+02  0.27747626348E+03  0.00000000000E+00 0.  1.
          4    1    6    6  502    0  0.76931822220E+02  0.48189158937E+03  0.24011638261E+04  0.24502501360E+04  0.00000000000E+00 0. -1.
          1    1    5    5  503    0 -0.67551069522E-02 -0.17441515225E+03  0.23807879266E+03  0.29513074543E+03  0.00000000000E+00 0. -1.
         -2    1    5    5    0  503  0.78301131299E+01 -0.26882880710E+02  0.16115572734E+01  0.28046337795E+02  0.00000000000E+00 0.  1.
         -3    1    6    6    0  502  0.26517409514E+02  0.14969240973E+03  0.55445572533E+03  0.57491924815E+03  0.00000000000E+00 0.  1.
<mgrwt>
<rscale>  0 0.18825177E+04</rscale>
<asrwt>0</asrwt>
<pdfrwt beam="1">  1        2 0.54953005E+00 0.18825177E+04</pdfrwt>
<pdfrwt beam="2">  1       -2 0.38159263E-01 0.18825177E+04</pdfrwt>
<totfact> 0.44316241E+00</totfact>
</mgrwt>
</event>
<event>
12    1  0.1495204E-007  0.1943083E+04  0.7818608E-02  0.8633704E-01
          2   -1    0    0  501    0  0.00000000000E+00  0.00000000000E+00  0.97212093480E+03  0.97212093480E+03  0.00000000000E+00 0. -1.
         -2   -1    0    0    0  501 -0.00000000000E+00 -0.00000000000E+00 -0.97096236431E+03  0.97096236431E+03  0.00000000000E+00 0.  1.
         23    2    1    2    0    0 -0.45937975163E+03 -0.59759255190E+03 -0.87169586981E+02  0.76485636415E+03  0.96229447583E+02 0.  0.
        254    2    1    2    0    0  0.45937975163E+03  0.59759255190E+03  0.88328157468E+02  0.11782269350E+04  0.90126035781E+03 0.  0.
        -24    2    4    4    0    0  0.67377766242E+03  0.64420587288E+03  0.23469981425E+02  0.93607932883E+03  0.81951966465E+02 0.  0.
         24    2    4    4    0    0 -0.21439791079E+03 -0.46613320978E+02  0.64858176043E+02  0.24214760613E+03  0.79307088639E+02 0.  0.
         11    1    3    3    0    0 -0.31388168263E+03 -0.34624646902E+03 -0.81399684887E+02  0.47437773630E+03  0.00000000000E+00 0. -1.
        -11    1    3    3    0    0 -0.14549806900E+03 -0.25134608289E+03 -0.57699020943E+01  0.29047862785E+03  0.00000000000E+00 0.  1.
          2    1    6    6  502    0 -0.15009331849E+03 -0.42347268815E+02  0.80967722777E+02  0.17571871717E+03  0.00000000000E+00 0. -1.
          3    1    5    5  503    0  0.15068372446E+03  0.18275461095E+03 -0.16139869033E+02  0.23741383282E+03  0.00000000000E+00 0. -1.
         -4    1    5    5    0  503  0.52309393796E+03  0.46145126193E+03  0.39609850459E+02  0.69866549601E+03  0.00000000000E+00 0.  1.
         -1    1    6    6    0  502 -0.64304592302E+02 -0.42660521630E+01 -0.16109546735E+02  0.66428888958E+02  0.00000000000E+00 0.  1.
<mgrwt>
<rscale>  0 0.19430830E+04</rscale>
<asrwt>0</asrwt>
<pdfrwt beam="1">  1        2 0.14955707E+00 0.19430830E+04</pdfrwt>
<pdfrwt beam="2">  1       -2 0.14937882E+00 0.19430830E+04</pdfrwt>
<totfact> 0.74231380E+00</totfact>
</mgrwt>
</event>
<event>
12    1  0.1495204E-007  0.1133124E+04  0.7818608E-02  0.9173495E-01
         -2   -1    0    0    0  501 -0.00000000000E+00  0.00000000000E+00  0.53992997653E+03  0.53992997653E+03  0.00000000000E+00 0.  1.
          2   -1    0    0  501    0  0.00000000000E+00 -0.00000000000E+00 -0.59450770475E+03  0.59450770475E+03  0.00000000000E+00 0. -1.
         23    2    1    2    0    0  0.72764092933E+02  0.14933431959E+03  0.72479775143E+02  0.20480237071E+03  0.95369497310E+02 0.  0.
        254    2    1    2    0    0 -0.72764092933E+02 -0.14933431959E+03 -0.12705750336E+03  0.92963531057E+03  0.90580508348E+03 0.  0.
        -24    2    4    4    0    0  0.13261923116E+03 -0.42138345280E+03 -0.29919556755E+03  0.53954556029E+03  0.80246801942E+02 0.  0.
         24    2    4    4    0    0 -0.20538332409E+03  0.27204913322E+03  0.17213806418E+03  0.39008975027E+03  0.79658392086E+02 0.  0.
         13    1    3    3    0    0 -0.34946161656E+01  0.69561026661E+02  0.63208105090E+02  0.94054310488E+02  0.00000000000E+00 0.  1.
        -13    1    3    3    0    0  0.76258709099E+02  0.79773292925E+02  0.92716700531E+01  0.11074806022E+03  0.00000000000E+00 0. -1.
          2    1    6    6  502    0 -0.17715690640E+03  0.22580594571E+03  0.10928366747E+03  0.30710879925E+03  0.00000000000E+00 0. -1.
          1    1    5    5  503    0  0.56963905656E+02 -0.15157604562E+03 -0.65504815561E+02  0.17467416814E+03  0.00000000000E+00 0. -1.
         -2    1    5    5    0  503  0.75655325499E+02 -0.26980740718E+03 -0.23369075199E+03  0.36487139215E+03  0.00000000000E+00 0.  1.
         -1    1    6    6    0  502 -0.28226417691E+02  0.46243187507E+02  0.62854396710E+02  0.82980951021E+02  0.00000000000E+00 0.  1.
<mgrwt>
<rscale>  0 0.11331241E+04</rscale>
<asrwt>0</asrwt>
<pdfrwt beam="1">  1        2 0.91462723E-01 0.11331241E+04</pdfrwt>
<pdfrwt beam="2">  1       -2 0.83066151E-01 0.11331241E+04</pdfrwt>
<totfact> 0.63130104E+01</totfact>
</mgrwt>
</event>
<event>
12    1  0.1495204E-007  0.1301410E+04  0.7818608E-02  0.9028448E-01
         -1   -1    0    0    0  501 -0.00000000000E+00  0.00000000000E+00  0.55174642360E+03  0.55174642360E+03  0.00000000000E+00 0.  1.
          1   -1    0    0  501    0  0.00000000000E+00 -0.00000000000E+00 -0.76741247962E+03  0.76741247962E+03  0.00000000000E+00 0. -1.
         23    2    1    2    0    0  0.17389042007E+03 -0.29208529884E+02  0.21971521281E+03  0.29748540385E+03  0.95560317889E+02 0.  0.
        254    2    1    2    0    0 -0.17389042007E+03  0.29208529884E+02 -0.43538126883E+03  0.10216734994E+04  0.90728654441E+03 0.  0.
        -24    2    4    4    0    0  0.84250250418E+02  0.37358511481E+03  0.17745826058E+02  0.39154933041E+03  0.79573997628E+02 0.  0.
         24    2    4    4    0    0 -0.25814067049E+03 -0.34437658493E+03 -0.45312709488E+03  0.63012416896E+03  0.80625468550E+02 0.  0.
         13    1    3    3    0    0  0.68863836463E+02 -0.27707552299E+02  0.16067425471E+03  0.17699195618E+03  0.00000000000E+00 0.  1.
        -13    1    3    3    0    0  0.10502658361E+03 -0.15009775849E+01  0.59040958097E+02  0.12049344767E+03  0.00000000000E+00 0. -1.
          2    1    6    6  502    0 -0.10259817829E+03 -0.20397923127E+03 -0.23426572760E+03  0.32713046954E+03  0.00000000000E+00 0. -1.
          3    1    5    5  503    0 -0.51885705993E+01  0.14732703083E+03 -0.22434097609E+01  0.14743543728E+03  0.00000000000E+00 0. -1.
         -4    1    5    5    0  503  0.89438821017E+02  0.22625808399E+03  0.19989235819E+02  0.24411389314E+03  0.00000000000E+00 0.  1.
         -1    1    6    6    0  502 -0.15554249220E+03 -0.14039735366E+03 -0.21886136728E+03  0.30299369941E+03  0.00000000000E+00 0.  1.
<mgrwt>
<rscale>  0 0.13014101E+04</rscale>
<asrwt>0</asrwt>
<pdfrwt beam="1">  1        1 0.11806346E+00 0.13014101E+04</pdfrwt>
<pdfrwt beam="2">  1       -1 0.84884065E-01 0.13014101E+04</pdfrwt>
<totfact> 0.31885076E+01</totfact>
</mgrwt>
</event>
<event>
12    1  0.1495204E-007  0.1911248E+04  0.7818608E-02  0.8649278E-01
         -1   -1    0    0    0  501 -0.00000000000E+00  0.00000000000E+00  0.11892732421E+04  0.11892732421E+04  0.00000000000E+00 0.  1.
          1   -1    0    0  501    0  0.00000000000E+00 -0.00000000000E+00 -0.76787864692E+03  0.76787864692E+03  0.00000000000E+00 0. -1.
         23    2    1    2    0    0  0.27197912045E+03 -0.13880612621E+03 -0.52804989064E+03  0.61548792776E+03  0.82151808154E+02 0.  0.
        254    2    1    2    0    0 -0.27197912045E+03  0.13880612621E+03  0.94944448586E+03  0.13416639613E+04  0.89742830948E+03 0.  0.
        -24    2    4    4    0    0 -0.56859339052E+03  0.22429368476E+03  0.72539546120E+03  0.95189617991E+03  0.79383004674E+02 0.  0.
         24    2    4    4    0    0  0.29661427006E+03 -0.85487558559E+02  0.22404902467E+03  0.38976778139E+03  0.80204800861E+02 0.  0.
         11    1    3    3    0    0  0.90609653973E+02 -0.55950037071E+01 -0.16597677437E+03  0.18918166690E+03  0.00000000000E+00 0.  1.
        -11    1    3    3    0    0  0.18136946648E+03 -0.13321112250E+03 -0.36207311627E+03  0.42630626087E+03  0.00000000000E+00 0. -1.
          2    1    6    6  502    0 -0.48702199449E+01 -0.10079768700E+01  0.77996519731E+01  0.92503854290E+01  0.00000000000E+00 0. -1.
          1    1    5    5  503    0 -0.13553928233E+03  0.20898268251E+02  0.18211183133E+03  0.22797445862E+03  0.00000000000E+00 0. -1.
         -2    1    5    5    0  503 -0.43305410818E+03  0.20339541651E+03  0.54328362986E+03  0.72392172128E+03  0.00000000000E+00 0.  1.
         -1    1    6    6    0  502  0.30148449001E+03 -0.84479581689E+02  0.21624937269E+03  0.38051739596E+03  0.00000000000E+00 0.  1.
<mgrwt>
<rscale>  0 0.19112483E+04</rscale>
<asrwt>0</asrwt>
<pdfrwt beam="1">  1        1 0.11813518E+00 0.19112483E+04</pdfrwt>
<pdfrwt beam="2">  1       -1 0.18296511E+00 0.19112483E+04</pdfrwt>
<totfact> 0.43717525E+00</totfact>
</mgrwt>
</event>
<event>
12    1  0.1495204E-007  0.1164553E+04  0.7818608E-02  0.9144462E-01
          2   -1    0    0  501    0  0.00000000000E+00  0.00000000000E+00  0.34707483250E+03  0.34707483250E+03  0.00000000000E+00 0.  1.
         -2   -1    0    0    0  501 -0.00000000000E+00 -0.00000000000E+00 -0.97686705344E+03  0.97686705344E+03  0.00000000000E+00 0. -1.
         23    2    1    2    0    0 -0.22959145141E+02 -0.19199624982E+03  0.79872735750E+01  0.20936625488E+03  0.79879595963E+02 0.  0.
        254    2    1    2    0    0  0.22959145141E+02  0.19199624982E+03 -0.63777949452E+03  0.11145756311E+04  0.89337924278E+03 0.  0.
        -24    2    4    4    0    0 -0.33135654845E+02 -0.16394881635E+02 -0.81593433546E+03  0.82071185930E+03  0.80326536379E+02 0.  0.
         24    2    4    4    0    0  0.56094799987E+02  0.20839113146E+03  0.17815484094E+03  0.29386377176E+03  0.89684328312E+02 0.  0.
         11    1    3    3    0    0 -0.59415326140E+00 -0.16892992390E+03  0.28399843228E+02  0.17130155662E+03  0.00000000000E+00 0.  1.
        -11    1    3    3    0    0 -0.22364991880E+02 -0.23066325927E+02 -0.20412569653E+02  0.38064698258E+02  0.00000000000E+00 0. -1.
          2    1    6    6  502    0 -0.12149806352E+02  0.11869314205E+03  0.73992100902E+02  0.14039412652E+03  0.00000000000E+00 0. -1.
          1    1    5    5  503    0  0.26692541553E+02 -0.60274500941E+01 -0.28803142186E+03  0.28932839804E+03  0.00000000000E+00 0. -1.
         -2    1    5    5    0  503 -0.59828196399E+02 -0.10367431541E+02 -0.52790291360E+03  0.53138346126E+03  0.00000000000E+00 0.  1.
         -1    1    6    6    0  502  0.68244606338E+02  0.89697989408E+02  0.10416274004E+03  0.15346964524E+03  0.00000000000E+00 0.  1.
<mgrwt>
<rscale>  0 0.11645531E+04</rscale>
<asrwt>0</asrwt>
<pdfrwt beam="1">  1        2 0.53396128E-01 0.11645531E+04</pdfrwt>
<pdfrwt beam="2">  1       -2 0.15028724E+00 0.11645531E+04</pdfrwt>
<totfact> 0.27471088E+01</totfact>
</mgrwt>
</event>
<event>
12    1  0.1495204E-007  0.1774434E+04  0.7818608E-02  0.8720014E-01
         -1   -1    0    0    0  501 -0.00000000000E+00  0.00000000000E+00  0.45604137029E+03  0.45604137029E+03  0.00000000000E+00 0.  1.
          1   -1    0    0  501    0  0.00000000000E+00 -0.00000000000E+00 -0.17260589411E+04  0.17260589411E+04  0.00000000000E+00 0. -1.
         23    2    1    2    0    0 -0.42448222328E+03 -0.46296754395E+03 -0.19197477337E+03  0.66305261883E+03  0.90886506674E+02 0.  0.
        254    2    1    2    0    0  0.42448222328E+03  0.46296754395E+03 -0.10780427975E+04  0.15190476926E+04  0.86649034304E+03 0.  0.
        -24    2    4    4    0    0  0.22326262675E+03  0.59852912245E+03 -0.10866909903E+04  0.12631228109E+04  0.80613994352E+02 0.  0.
         24    2    4    4    0    0  0.20121959652E+03 -0.13556157850E+03  0.86481928107E+01  0.25592488172E+03  0.80972132577E+02 0.  0.
         11    1    3    3    0    0 -0.10552427640E+03 -0.17149197969E+03 -0.80272641867E+02  0.21676846874E+03  0.00000000000E+00 0. -1.
        -11    1    3    3    0    0 -0.31895794688E+03 -0.29147556426E+03 -0.11170213150E+03  0.44628415009E+03  0.00000000000E+00 0.  1.
          4    1    6    6  502    0  0.19538160902E+03 -0.11998356456E+03  0.27335668722E+02  0.23090532192E+03  0.00000000000E+00 0. -1.
          1    1    5    5  503    0  0.19051272631E+03  0.53902420481E+03 -0.92050012388E+03  0.10835878692E+04  0.00000000000E+00 0. -1.
         -2    1    5    5    0  503  0.32749900441E+02  0.59504917636E+02 -0.16619086639E+03  0.17953494165E+03  0.00000000000E+00 0.  1.
         -3    1    6    6    0  502  0.58379874997E+01 -0.15578013939E+02 -0.18687475912E+02  0.25019559793E+02  0.00000000000E+00 0.  1.
<mgrwt>
<rscale>  0 0.17744343E+04</rscale>
<asrwt>0</asrwt>
<pdfrwt beam="1">  1        1 0.26554753E+00 0.17744343E+04</pdfrwt>
<pdfrwt beam="2">  1       -1 0.70160212E-01 0.17744343E+04</pdfrwt>
<totfact> 0.88836243E+00</totfact>
</mgrwt>
</event>
<event>
12    1  0.1607068E-007  0.2093838E+04  0.7818608E-02  0.8563963E-01
          2   -1    0    0  501    0  0.00000000000E+00  0.00000000000E+00  0.11081583104E+04  0.11081583104E+04  0.00000000000E+00 0. -1.
         -2   -1    0    0    0  501 -0.00000000000E+00 -0.00000000000E+00 -0.98906394088E+03  0.98906394088E+03  0.00000000000E+00 0.  1.
         23    2    1    2    0    0 -0.12366650590E+02  0.69041627706E+03 -0.34603522479E+03  0.77755889592E+03  0.89609654322E+02 0.  0.
        254    2    1    2    0    0  0.12366650590E+02 -0.69041627706E+03  0.46512959432E+03  0.13196633554E+04  0.10238839106E+04 0.  0.
        -24    2    4    4    0    0  0.68689937735E+02  0.24644518573E+03  0.21883469367E+03  0.34594321597E+03  0.79589876260E+02 0.  0.
         24    2    4    4    0    0 -0.56323287145E+02 -0.93686146279E+03  0.24629490065E+03  0.97372013941E+03  0.81166610553E+02 0.  0.
         11    1    3    3    0    0  0.99828743427E+00  0.59850145948E+03 -0.26599884660E+03  0.65495066988E+03  0.00000000000E+00 0. -1.
        -11    1    3    3    0    0 -0.13364938024E+02  0.91914817577E+02 -0.80036378190E+02  0.12260822604E+03  0.00000000000E+00 0.  1.
          4    1    6    6  502    0 -0.23584470341E+02 -0.68075653010E+02  0.28299337517E+02  0.77403968102E+02  0.00000000000E+00 0. -1.
          1    1    5    5  503    0 -0.40055501691E+01 -0.39373125358E+01  0.11618179368E+02  0.12904609796E+02  0.00000000000E+00 0. -1.
         -2    1    5    5    0  503  0.72695487904E+02  0.25038249827E+03  0.20721651430E+03  0.33303860617E+03  0.00000000000E+00 0.  1.
         -3    1    6    6    0  502 -0.32738816804E+02 -0.86878580978E+03  0.21799556313E+03  0.89631617131E+03  0.00000000000E+00 0.  1.
<mgrwt>
<rscale>  0 0.20938380E+04</rscale>
<asrwt>0</asrwt>
<pdfrwt beam="1">  1        2 0.17048589E+00 0.20938380E+04</pdfrwt>
<pdfrwt beam="2">  1       -2 0.15216368E+00 0.20938380E+04</pdfrwt>
<totfact> 0.57267482E+00</totfact>
</mgrwt>
</event>
<event>
12    1  0.1495204E-007  0.1468289E+04  0.7818608E-02  0.8905819E-01
          1   -1    0    0  501    0  0.00000000000E+00  0.00000000000E+00  0.14168966894E+04  0.14168966894E+04  0.00000000000E+00 0. -1.
         -1   -1    0    0    0  501 -0.00000000000E+00 -0.00000000000E+00 -0.38038634080E+03  0.38038634080E+03  0.00000000000E+00 0.  1.
         23    2    1    2    0    0  0.11738226776E+03  0.34900080054E+03  0.31807320633E+01  0.37909434105E+03  0.90123508569E+02 0.  0.
        254    2    1    2    0    0 -0.11738226776E+03 -0.34900080054E+03  0.10333296166E+04  0.14181886892E+04  0.89883753042E+03 0.  0.
        -24    2    4    4    0    0  0.31357777035E+03  0.57570535826E+02  0.17274776847E+03  0.37045778456E+03  0.75840582674E+02 0.  0.
         24    2    4    4    0    0 -0.43096003810E+03 -0.40657133636E+03  0.86058184810E+03  0.10477309046E+04  0.78180082021E+02 0.  0.
         13    1    3    3    0    0  0.11603033608E+03  0.32895911678E+03 -0.18786016911E+02  0.34932800322E+03  0.00000000000E+00 0.  1.
        -13    1    3    3    0    0  0.13519316824E+01  0.20041683760E+02  0.21966748974E+02  0.29766337828E+02  0.00000000000E+00 0. -1.
          2    1    6    6  502    0 -0.19932816455E+03 -0.23629200692E+03  0.47594220437E+03  0.56752674970E+03  0.00000000000E+00 0. -1.
          1    1    5    5  503    0  0.62548722902E+02  0.29335627688E+02  0.96201241007E+01  0.69752910880E+02  0.00000000000E+00 0. -1.
         -2    1    5    5    0  503  0.25102904744E+03  0.28234908138E+02  0.16312764437E+03  0.30070487368E+03  0.00000000000E+00 0.  1.
         -1    1    6    6    0  502 -0.23163187355E+03 -0.17027932944E+03  0.38463964373E+03  0.48020415492E+03  0.00000000000E+00 0.  1.
<mgrwt>
<rscale>  0 0.14682890E+04</rscale>
<asrwt>0</asrwt>
<pdfrwt beam="1">  1        1 0.21798410E+00 0.14682890E+04</pdfrwt>
<pdfrwt beam="2">  1       -1 0.58520976E-01 0.14682890E+04</pdfrwt>
<totfact> 0.21451691E+01</totfact>
</mgrwt>
</event>
<event>
12    1  0.3053523E-007  0.1806903E+04  0.7818608E-02  0.8702637E-01
          1   -1    0    0  501    0  0.00000000000E+00  0.00000000000E+00  0.17541972353E+04  0.17541972353E+04  0.00000000000E+00 0. -1.
         -1   -1    0    0    0  501 -0.00000000000E+00 -0.00000000000E+00 -0.46529813639E+03  0.46529813639E+03  0.00000000000E+00 0.  1.
         23    2    1    2    0    0 -0.18220096988E+03 -0.63945874646E+03  0.62822984722E+03  0.91925752900E+03  0.90867936272E+02 0.  0.
        254    2    1    2    0    0  0.18220096988E+03  0.63945874646E+03  0.66066925170E+03  0.13002378427E+04  0.90112701967E+03 0.  0.
        -24    2    4    4    0    0  0.18209389852E+03  0.13966488787E+03 -0.19136604405E+03  0.30928520772E+03  0.79824232654E+02 0.  0.
         24    2    4    4    0    0  0.10707136009E+00  0.49979385860E+03  0.85203529576E+03  0.99095263497E+03  0.78924438462E+02 0.  0.
         11    1    3    3    0    0 -0.82594143770E+02 -0.25369150118E+03  0.31254140920E+03  0.41092980279E+03  0.00000000000E+00 0.  1.
        -11    1    3    3    0    0 -0.99606826109E+02 -0.38576724528E+03  0.31568843802E+03  0.50832772621E+03  0.00000000000E+00 0. -1.
          2    1    6    6  502    0 -0.44980619330E+01  0.17278967103E+02  0.10024531540E+02  0.20476486464E+02  0.00000000000E+00 0. -1.
          1    1    5    5  503    0  0.14929849299E+02 -0.97560611015E+01 -0.75943592457E+01  0.19384411796E+02  0.00000000000E+00 0. -1.
         -2    1    5    5    0  503  0.16716404922E+03  0.14942094897E+03 -0.18377168481E+03  0.28990079593E+03  0.00000000000E+00 0.  1.
         -1    1    6    6    0  502  0.46051332931E+01  0.48251489149E+03  0.84201076422E+03  0.97047614851E+03  0.00000000000E+00 0.  1.
<mgrwt>
<rscale>  0 0.18069031E+04</rscale>
<asrwt>0</asrwt>
<pdfrwt beam="1">  1        1 0.26987649E+00 0.18069031E+04</pdfrwt>
<pdfrwt beam="2">  1       -1 0.71584329E-01 0.18069031E+04</pdfrwt>
<totfact> 0.81320250E+00</totfact>
</mgrwt>
</event>
<event>
12    1  0.1495204E-007  0.1256339E+04  0.7818608E-02  0.9064924E-01
         -2   -1    0    0    0  501 -0.00000000000E+00  0.00000000000E+00  0.99583813163E+03  0.99583813163E+03  0.00000000000E+00 0.  1.
          2   -1    0    0  501    0  0.00000000000E+00 -0.00000000000E+00 -0.39624615552E+03  0.39624615552E+03  0.00000000000E+00 0. -1.
         23    2    1    2    0    0 -0.53340391754E+02 -0.21708822289E+03  0.37645803091E+03  0.44694472862E+03  0.89813403767E+02 0.  0.
        254    2    1    2    0    0  0.53340391754E+02  0.21708822289E+03  0.22313394520E+03  0.94513955854E+03  0.89080162421E+03 0.  0.
        -24    2    4    4    0    0 -0.30383344671E+03 -0.99304107053E+02 -0.12100585064E+03  0.35141323100E+03  0.81687049232E+02 0.  0.
         24    2    4    4    0    0  0.35717383847E+03  0.31639232994E+03  0.34413979584E+03  0.59372632754E+03  0.80009346958E+02 0.  0.
         13    1    3    3    0    0 -0.47719676842E+02 -0.45696223108E+02  0.14044954874E+03  0.15521400744E+03  0.00000000000E+00 0. -1.
        -13    1    3    3    0    0 -0.56207149122E+01 -0.17139199978E+03  0.23600848217E+03  0.29173072118E+03  0.00000000000E+00 0.  1.
          2    1    6    6  502    0  0.86437901966E+02  0.60155123572E+02  0.40084805611E+02  0.11268070567E+03  0.00000000000E+00 0. -1.
          3    1    5    5  503    0 -0.19227889972E+03 -0.79930804531E+02 -0.11535485031E+03  0.23804799995E+03  0.00000000000E+00 0. -1.
         -4    1    5    5    0  503 -0.11155454700E+03 -0.19373302522E+02 -0.56510003274E+01  0.11336523105E+03  0.00000000000E+00 0.  1.
         -1    1    6    6    0  502  0.27073593650E+03  0.25623720637E+03  0.30405499023E+03  0.48104562187E+03  0.00000000000E+00 0.  1.
<mgrwt>
<rscale>  0 0.12563392E+04</rscale>
<asrwt>0</asrwt>
<pdfrwt beam="1">  1        2 0.60960947E-01 0.12563392E+04</pdfrwt>
<pdfrwt beam="2">  1       -2 0.15320587E+00 0.12563392E+04</pdfrwt>
<totfact> 0.22352725E+01</totfact>
</mgrwt>
</event>
<event>
12    1  0.1495204E-007  0.1515787E+04  0.7818608E-02  0.8874022E-01
          2   -1    0    0  501    0  0.00000000000E+00  0.00000000000E+00  0.10917110942E+04  0.10917110942E+04  0.00000000000E+00 0. -1.
         -2   -1    0    0    0  501 -0.00000000000E+00 -0.00000000000E+00 -0.52614890503E+03  0.52614890503E+03  0.00000000000E+00 0.  1.
         23    2    1    2    0    0  0.26424782459E+03  0.15954609488E+03 -0.21257420505E+03  0.38595590937E+03  0.92153687563E+02 0.  0.
        254    2    1    2    0    0 -0.26424782459E+03 -0.15954609488E+03  0.77813639420E+03  0.12319040899E+04  0.90377517637E+03 0.  0.
        -24    2    4    4    0    0 -0.91998150907E+02  0.21674502115E+03  0.77116396793E+03  0.81044984622E+03  0.81810902977E+02 0.  0.
         24    2    4    4    0    0 -0.17224967369E+03 -0.37629111603E+03  0.69724262706E+01  0.42145424363E+03  0.79436204969E+02 0.  0.
         13    1    3    3    0    0  0.20696942805E+03  0.79367804377E+02 -0.12713517836E+03  0.25553658465E+03  0.00000000000E+00 0.  1.
        -13    1    3    3    0    0  0.57278396546E+02  0.80178290503E+02 -0.85439026685E+02  0.13041932472E+03  0.00000000000E+00 0. -1.
          2    1    6    6  502    0 -0.73969644695E+02 -0.11734508142E+03  0.35027984304E+02  0.14306759296E+03  0.00000000000E+00 0. -1.
          1    1    5    5  503    0 -0.13996015236E+02  0.11391957917E+02  0.15986358350E+03  0.16087893112E+03  0.00000000000E+00 0. -1.
         -2    1    5    5    0  503 -0.78002135670E+02  0.20535306323E+03  0.61130038443E+03  0.64957091510E+03  0.00000000000E+00 0.  1.
         -1    1    6    6    0  502 -0.98280028993E+02 -0.25894603461E+03 -0.28055558033E+02  0.27838665068E+03  0.00000000000E+00 0.  1.
<mgrwt>
<rscale>  0 0.15157871E+04</rscale>
<asrwt>0</asrwt>
<pdfrwt beam="1">  1        2 0.16795555E+00 0.15157871E+04</pdfrwt>
<pdfrwt beam="2">  1       -2 0.80945985E-01 0.15157871E+04</pdfrwt>
<totfact> 0.28644459E+01</totfact>
</mgrwt>
</event>
<event>
12    1  0.1495204E-007  0.1619338E+04  0.7818608E-02  0.8808755E-01
         -1   -1    0    0    0  501 -0.00000000000E+00  0.00000000000E+00  0.11290809687E+04  0.11290809687E+04  0.00000000000E+00 0.  1.
          1   -1    0    0  501    0  0.00000000000E+00 -0.00000000000E+00 -0.58061718048E+03  0.58061718048E+03  0.00000000000E+00 0. -1.
         23    2    1    2    0    0  0.13426259046E+03  0.50327637505E+03  0.41951153994E+03  0.67496556675E+03  0.90967198873E+02 0.  0.
        254    2    1    2    0    0 -0.13426259046E+03 -0.50327637505E+03  0.12895224824E+03  0.10347325824E+04  0.88471988892E+03 0.  0.
        -24    2    4    4    0    0  0.40143375936E+02  0.15128414166E+03 -0.20976656719E+03  0.27347212719E+03  0.79288142191E+02 0.  0.
         24    2    4    4    0    0 -0.17440596639E+03 -0.65456051671E+03  0.33871881543E+03  0.76126045520E+03  0.76942404232E+02 0.  0.
         11    1    3    3    0    0 -0.61896347874E+01  0.59112200907E+00  0.89716272664E+01  0.10915635567E+02  0.00000000000E+00 0. -1.
        -11    1    3    3    0    0  0.14045222524E+03  0.50268525304E+03  0.41053991267E+03  0.66404993118E+03  0.00000000000E+00 0.  1.
          4    1    6    6  502    0 -0.13551475144E+03 -0.47361195875E+03  0.28229404322E+03  0.56776972636E+03  0.00000000000E+00 0. -1.
          1    1    5    5  503    0  0.32935444413E+02  0.33312328833E+02 -0.10717478174E+03  0.11696533073E+03  0.00000000000E+00 0. -1.
         -2    1    5    5    0  503  0.72079315237E+01  0.11797181283E+03 -0.10259178544E+03  0.15650679646E+03  0.00000000000E+00 0.  1.
         -3    1    6    6    0  502 -0.38891214956E+02 -0.18094855796E+03  0.56424772214E+02  0.19349072884E+03  0.00000000000E+00 0.  1.
<mgrwt>
<rscale>  0 0.16193379E+04</rscale>
<asrwt>0</asrwt>
<pdfrwt beam="1">  1        1 0.89325720E-01 0.16193379E+04</pdfrwt>
<pdfrwt beam="2">  1       -1 0.17370476E+00 0.16193379E+04</pdfrwt>
<totfact> 0.79513642E+00</totfact>
</mgrwt>
</event>
<event>
12    1  0.1495204E-007  0.1562935E+04  0.7818608E-02  0.8843648E-01
         -1   -1    0    0    0  501 -0.00000000000E+00  0.00000000000E+00  0.39302482222E+03  0.39302482222E+03  0.00000000000E+00 0.  1.
          1   -1    0    0  501    0  0.00000000000E+00 -0.00000000000E+00 -0.15538240376E+04  0.15538240376E+04  0.00000000000E+00 0. -1.
         23    2    1    2    0    0 -0.24251732567E+03 -0.40244363956E+02 -0.95958240355E+03  0.99475854971E+03  0.91169736975E+02 0.  0.
        254    2    1    2    0    0  0.24251732567E+03  0.40244363956E+02 -0.20121681182E+03  0.95209031010E+03  0.89752631780E+03 0.  0.
        -24    2    4    4    0    0  0.56893112657E+03  0.11152489253E+03 -0.97511219391E+02  0.59315758336E+03  0.78784848556E+02 0.  0.
         24    2    4    4    0    0 -0.32641380090E+03 -0.71280528574E+02 -0.10370559243E+03  0.35893272674E+03  0.80317926094E+02 0.  0.
         13    1    3    3    0    0 -0.71060641457E+02  0.27231193737E+02 -0.33683438552E+03  0.34532384213E+03  0.00000000000E+00 0.  1.
        -13    1    3    3    0    0 -0.17145668421E+03 -0.67475557693E+02 -0.62274801804E+03  0.64943470758E+03  0.00000000000E+00 0. -1.
          4    1    6    6  502    0 -0.26100981380E+03 -0.89082742366E+02 -0.80850503289E+02  0.28739982910E+03  0.00000000000E+00 0. -1.
          1    1    5    5  503    0  0.21207168404E+03  0.79734725901E+02 -0.29351534478E+02  0.22845905161E+03  0.00000000000E+00 0. -1.
         -2    1    5    5    0  503  0.35685944253E+03  0.31790166629E+02 -0.68159684914E+02  0.36469853175E+03  0.00000000000E+00 0.  1.
         -1    1    6    6    0  502 -0.65403987103E+02  0.17802213792E+02 -0.22855089137E+02  0.71532897637E+02  0.00000000000E+00 0.  1.
<mgrwt>
<rscale>  0 0.15629350E+04</rscale>
<asrwt>0</asrwt>
<pdfrwt beam="1">  1        1 0.23904985E+00 0.15629350E+04</pdfrwt>
<pdfrwt beam="2">  1       -1 0.60465358E-01 0.15629350E+04</pdfrwt>
<totfact> 0.16027011E+01</totfact>
</mgrwt>
</event>
<event>
12    1  0.1495204E-007  0.2332463E+04  0.7818608E-02  0.8465230E-01
         -2   -1    0    0    0  501 -0.00000000000E+00  0.00000000000E+00  0.90536985629E+03  0.90536985629E+03  0.00000000000E+00 0.  1.
          2   -1    0    0  501    0  0.00000000000E+00 -0.00000000000E+00 -0.15022550479E+04  0.15022550479E+04  0.00000000000E+00 0. -1.
         23    2    1    2    0    0 -0.63162636809E+03  0.30407896888E+03  0.46990555146E+03  0.84881940544E+03  0.90924515798E+02 0.  0.
        254    2    1    2    0    0  0.63162636809E+03 -0.30407896888E+03 -0.10667907430E+04  0.15588054987E+04  0.89465982654E+03 0.  0.
        -24    2    4    4    0    0  0.78225994037E+03 -0.44247401202E+03 -0.74913613450E+03  0.11725350600E+04  0.76939282862E+02 0.  0.
         24    2    4    4    0    0 -0.15063357228E+03  0.13839504314E+03 -0.31765460854E+03  0.38627043874E+03  0.80353845329E+02 0.  0.
         13    1    3    3    0    0 -0.49780446836E+03  0.27251794807E+03  0.35300235987E+03  0.66834570906E+03  0.00000000000E+00 0.  1.
        -13    1    3    3    0    0 -0.13382189973E+03  0.31561020810E+02  0.11690319159E+03  0.18047369638E+03  0.00000000000E+00 0. -1.
          2    1    6    6  502    0 -0.31633488898E+02  0.54993659049E+01 -0.16137768371E+02  0.35935333771E+02  0.00000000000E+00 0. -1.
          1    1    5    5  503    0  0.25587206295E+03 -0.18013848194E+03 -0.23468184138E+03  0.39114696976E+03  0.00000000000E+00 0. -1.
         -2    1    5    5    0  503  0.52638787741E+03 -0.26233553007E+03 -0.51445429312E+03  0.78138809022E+03  0.00000000000E+00 0.  1.
         -1    1    6    6    0  502 -0.11900008338E+03  0.13289567724E+03 -0.30151684017E+03  0.35033510497E+03  0.00000000000E+00 0.  1.
<mgrwt>
<rscale>  0 0.23324635E+04</rscale>
<asrwt>0</asrwt>
<pdfrwt beam="1">  1        2 0.23111616E+00 0.23324635E+04</pdfrwt>
<pdfrwt beam="2">  1       -2 0.13928767E+00 0.23324635E+04</pdfrwt>
<totfact> 0.41659324E+00</totfact>
</mgrwt>
</event>
<event>
12    1  0.1495204E-007  0.1421842E+04  0.7818608E-02  0.8938158E-01
         -2   -1    0    0    0  501 -0.00000000000E+00  0.00000000000E+00  0.13298378278E+03  0.13298378278E+03  0.00000000000E+00 0. -1.
          2   -1    0    0  501    0  0.00000000000E+00 -0.00000000000E+00 -0.38005275229E+04  0.38005275229E+04  0.00000000000E+00 0.  1.
         23    2    1    2    0    0  0.27323803601E+02  0.38448609655E+03 -0.63970234711E+03  0.75250615913E+03  0.92034112998E+02 0.  0.
        254    2    1    2    0    0 -0.27323803601E+02 -0.38448609655E+03 -0.30278413930E+04  0.31810051465E+04  0.89576452958E+03 0.  0.
        -24    2    4    4    0    0 -0.11966126405E+03  0.29713267309E+01 -0.25522647906E+04  0.25562834008E+04  0.78750346930E+02 0.  0.
         24    2    4    4    0    0  0.92337460454E+02 -0.38745742328E+03 -0.47557660241E+03  0.62472174572E+03  0.73855895869E+02 0.  0.
         11    1    3    3    0    0  0.85260545050E+01  0.75101958806E+02 -0.20601382659E+03  0.21944177945E+03  0.00000000000E+00 0.  1.
        -11    1    3    3    0    0  0.18797749096E+02  0.30938413774E+03 -0.43368852052E+03  0.53306437968E+03  0.00000000000E+00 0. -1.
          2    1    6    6  502    0  0.83035148280E+02 -0.19927504157E+03 -0.23427170497E+03  0.31857277001E+03  0.00000000000E+00 0. -1.
          3    1    5    5  503    0 -0.80292304471E+02 -0.28751749495E+02 -0.11750763410E+04  0.11781671886E+04  0.00000000000E+00 0. -1.
         -4    1    5    5    0  503 -0.39368959583E+02  0.31723076226E+02 -0.13771884496E+04  0.13781162122E+04  0.00000000000E+00 0.  1.
         -1    1    6    6    0  502  0.93023121735E+01 -0.18818238171E+03 -0.24130489744E+03  0.30614897571E+03  0.00000000000E+00 0.  1.
<mgrwt>
<rscale>  0 0.14218418E+04</rscale>
<asrwt>0</asrwt>
<pdfrwt beam="1">  1        2 0.58469644E+00 0.14218418E+04</pdfrwt>
<pdfrwt beam="2">  1       -2 0.20459047E-01 0.14218418E+04</pdfrwt>
<totfact> 0.10016039E+01</totfact>
</mgrwt>
</event>
<event>
12    1  0.1495204E-007  0.1478202E+04  0.7818608E-02  0.8899079E-01
         -2   -1    0    0    0  501 -0.00000000000E+00  0.00000000000E+00  0.43314170848E+03  0.43314170848E+03  0.00000000000E+00 0.  1.
          2   -1    0    0  501    0  0.00000000000E+00 -0.00000000000E+00 -0.12611816513E+04  0.12611816513E+04  0.00000000000E+00 0. -1.
         23    2    1    2    0    0 -0.26311182616E+03 -0.97359335627E+02 -0.67957948212E+03  0.74083074095E+03  0.91078213178E+02 0.  0.
        254    2    1    2    0    0  0.26311182616E+03  0.97359335627E+02 -0.14846046075E+03  0.95349261888E+03  0.89911122368E+03 0.  0.
        -24    2    4    4    0    0  0.52251687196E+03 -0.11988319164E+03  0.64500203096E+02  0.54565849332E+03  0.78657828682E+02 0.  0.
         24    2    4    4    0    0 -0.25940504579E+03  0.21724252726E+03 -0.21296066384E+03  0.40783412556E+03  0.80567587727E+02 0.  0.
         13    1    3    3    0    0 -0.17053236391E+03 -0.65932601122E+02 -0.54232645068E+03  0.57231667295E+03  0.00000000000E+00 0. -1.
        -13    1    3    3    0    0 -0.92579462258E+02 -0.31426734505E+02 -0.13725303143E+03  0.16851406799E+03  0.00000000000E+00 0.  1.
          4    1    6    6  502    0 -0.89523091654E+02  0.28668814517E+02 -0.58462164833E+02  0.11069828175E+03  0.00000000000E+00 0. -1.
          3    1    5    5  503    0  0.50736000938E+03 -0.10390274736E+03  0.52414819434E+02  0.52053556393E+03  0.00000000000E+00 0. -1.
         -4    1    5    5    0  503  0.15156862581E+02 -0.15980444276E+02  0.12085383663E+02  0.25122929383E+02  0.00000000000E+00 0.  1.
         -3    1    6    6    0  502 -0.16988195414E+03  0.18857371275E+03 -0.15449849901E+03  0.29713584381E+03  0.00000000000E+00 0.  1.
<mgrwt>
<rscale>  0 0.14782021E+04</rscale>
<asrwt>0</asrwt>
<pdfrwt beam="1">  1        2 0.19402794E+00 0.14782021E+04</pdfrwt>
<pdfrwt beam="2">  1       -2 0.66637187E-01 0.14782021E+04</pdfrwt>
<totfact> 0.34883687E+01</totfact>
</mgrwt>
</event>
<event>
12    1  0.1495204E-007  0.1788765E+04  0.7818608E-02  0.8712297E-01
          1   -1    0    0  501    0  0.00000000000E+00  0.00000000000E+00  0.19871797805E+04  0.19871797805E+04  0.00000000000E+00 0. -1.
         -1   -1    0    0    0  501 -0.00000000000E+00 -0.00000000000E+00 -0.40254053432E+03  0.40254053432E+03  0.00000000000E+00 0.  1.
         23    2    1    2    0    0 -0.51559108734E+02 -0.61824570469E+03  0.26537682716E+03  0.68087436231E+03  0.90988701527E+02 0.  0.
        254    2    1    2    0    0  0.51559108734E+02  0.61824570469E+03  0.13192624190E+04  0.17088459525E+04  0.89152401319E+03 0.  0.
        -24    2    4    4    0    0  0.27129559771E+03  0.37694071582E+03  0.12875535149E+04  0.13710760018E+04  0.79810679475E+02 0.  0.
         24    2    4    4    0    0 -0.21973648897E+03  0.24130498886E+03  0.31708904097E+02  0.33776995063E+03  0.81060858094E+02 0.  0.
         11    1    3    3    0    0 -0.66458848977E+02 -0.59882977873E+03  0.25336112214E+03  0.65360977710E+03  0.00000000000E+00 0.  1.
        -11    1    3    3    0    0  0.14899740242E+02 -0.19415925955E+02  0.12015705017E+02  0.27264585216E+02  0.00000000000E+00 0. -1.
          4    1    6    6  502    0 -0.55844142399E+02  0.34161535845E+02 -0.20341623817E+02  0.68551881309E+02  0.00000000000E+00 0. -1.
          1    1    5    5  503    0  0.19514721866E+03  0.32193205918E+03  0.99656442870E+03  0.10652996518E+04  0.00000000000E+00 0. -1.
         -2    1    5    5    0  503  0.76148379049E+02  0.55008656640E+02  0.29098908618E+03  0.30577634999E+03  0.00000000000E+00 0.  1.
         -3    1    6    6    0  502 -0.16389234657E+03  0.20714345302E+03  0.52050527914E+02  0.26921806932E+03  0.00000000000E+00 0.  1.
<mgrwt>
<rscale>  0 0.17887654E+04</rscale>
<asrwt>0</asrwt>
<pdfrwt beam="1">  1        1 0.30571996E+00 0.17887654E+04</pdfrwt>
<pdfrwt beam="2">  1       -1 0.61929314E-01 0.17887654E+04</pdfrwt>
<totfact> 0.75952307E+00</totfact>
</mgrwt>
</event>
<event>
12    1  0.1495204E-007  0.1705036E+04  0.7818608E-02  0.8758497E-01
          1   -1    0    0  501    0  0.00000000000E+00  0.00000000000E+00  0.28325245980E+04  0.28325245980E+04  0.00000000000E+00 0. -1.
         -1   -1    0    0    0  501 -0.00000000000E+00 -0.00000000000E+00 -0.25658642524E+03  0.25658642524E+03  0.00000000000E+00 0.  1.
         23    2    1    2    0    0 -0.15127199109E+03 -0.58959914333E+03  0.10458011698E+04  0.12133435137E+04  0.89398156222E+02 0.  0.
        254    2    1    2    0    0  0.15127199109E+03  0.58959914333E+03  0.15301370029E+04  0.18757675095E+04  0.89815039774E+03 0.  0.
        -24    2    4    4    0    0  0.18787432969E+03 -0.12795874497E+03  0.74539782236E+02  0.25043187757E+03  0.74092793158E+02 0.  0.
         24    2    4    4    0    0 -0.36602338603E+02  0.71755788829E+03  0.14555972207E+04  0.16253356320E+04  0.81997520494E+02 0.  0.
         13    1    3    3    0    0 -0.10611672009E+03 -0.40212341121E+03  0.79244143121E+03  0.89494548327E+03  0.00000000000E+00 0. -1.
        -13    1    3    3    0    0 -0.45155270995E+02 -0.18747573212E+03  0.25335973859E+03  0.31839803042E+03  0.00000000000E+00 0.  1.
          2    1    6    6  502    0 -0.40687093779E+02  0.27988927969E+03  0.50480087623E+03  0.57863405805E+03  0.00000000000E+00 0. -1.
          3    1    5    5  503    0  0.13448650770E+02 -0.18714788116E+02  0.33351022388E+02  0.40538872655E+02  0.00000000000E+00 0. -1.
         -4    1    5    5    0  503  0.17442567892E+03 -0.10924395685E+03  0.41188759848E+02  0.20989300492E+03  0.00000000000E+00 0.  1.
         -1    1    6    6    0  502  0.40847551756E+01  0.43766860860E+03  0.95079634447E+03  0.10467015739E+04  0.00000000000E+00 0.  1.
<mgrwt>
<rscale>  0 0.17050365E+04</rscale>
<asrwt>0</asrwt>
<pdfrwt beam="1">  1        1 0.43577299E+00 0.17050365E+04</pdfrwt>
<pdfrwt beam="2">  1       -1 0.39474837E-01 0.17050365E+04</pdfrwt>
<totfact> 0.47029828E+00</totfact>
</mgrwt>
</event>
<event>
12    1  0.1495204E-007  0.2286797E+04  0.7818608E-02  0.8483145E-01
         -1   -1    0    0    0  501 -0.00000000000E+00  0.00000000000E+00  0.20364343654E+04  0.20364343654E+04  0.00000000000E+00 0.  1.
          1   -1    0    0  501    0  0.00000000000E+00 -0.00000000000E+00 -0.64198484328E+03  0.64198484328E+03  0.00000000000E+00 0. -1.
         23    2    1    2    0    0  0.87709896688E+03  0.12293799926E+03  0.14646937420E+03  0.90236245904E+03  0.91588102591E+02 0.  0.
        254    2    1    2    0    0 -0.87709896688E+03 -0.12293799926E+03  0.12479801479E+04  0.17760567496E+04  0.90139157917E+03 0.  0.
        -24    2    4    4    0    0 -0.95841584335E+02 -0.38201359687E+03  0.22565705760E+03  0.46109768740E+03  0.81055365001E+02 0.  0.
         24    2    4    4    0    0 -0.78125738255E+03  0.25907559761E+03  0.10223230903E+04  0.13149590622E+04  0.80557875652E+02 0.  0.
         11    1    3    3    0    0  0.10236126956E+03  0.30486394103E+02 -0.75508166557E+01  0.10707130598E+03  0.00000000000E+00 0.  1.
        -11    1    3    3    0    0  0.77473769732E+03  0.92451605162E+02  0.15402019086E+03  0.79529115306E+03  0.00000000000E+00 0. -1.
          4    1    6    6  502    0 -0.42086182344E+03  0.18154320408E+03  0.56035955814E+03  0.72393745846E+03  0.00000000000E+00 0. -1.
          3    1    5    5  503    0 -0.21299785711E+02 -0.19699503891E+03  0.14683062606E+03  0.24661702897E+03  0.00000000000E+00 0. -1.
         -4    1    5    5    0  503 -0.74541798624E+02 -0.18501855796E+03  0.78826431543E+02  0.21448065843E+03  0.00000000000E+00 0.  1.
         -3    1    6    6    0  502 -0.36039555911E+03  0.77532393533E+02  0.46196353217E+03  0.59102160378E+03  0.00000000000E+00 0.  1.
<mgrwt>
<rscale>  0 0.22867969E+04</rscale>
<asrwt>0</asrwt>
<pdfrwt beam="1">  1        1 0.98766900E-01 0.22867969E+04</pdfrwt>
<pdfrwt beam="2">  1       -1 0.31329759E+00 0.22867969E+04</pdfrwt>
<totfact> 0.76008142E-01</totfact>
</mgrwt>
</event>
<event>
12    1  0.1495204E-007  0.1671887E+04  0.7818608E-02  0.8777563E-01
         -1   -1    0    0    0  501 -0.00000000000E+00  0.00000000000E+00  0.40856606903E+03  0.40856606903E+03  0.00000000000E+00 0.  1.
          1   -1    0    0  501    0  0.00000000000E+00 -0.00000000000E+00 -0.17103754306E+04  0.17103754306E+04  0.00000000000E+00 0. -1.
         23    2    1    2    0    0 -0.47623064638E+03  0.29433142259E+03 -0.67870798138E+03  0.88459058192E+03  0.91811539425E+02 0.  0.
        254    2    1    2    0    0  0.47623064638E+03 -0.29433142259E+03 -0.62310138019E+03  0.12343509177E+04  0.90660920090E+03 0.  0.
        -24    2    4    4    0    0  0.79087083116E+02 -0.38938106408E+03 -0.70175648252E+03  0.81102335680E+03  0.86164637347E+02 0.  0.
         24    2    4    4    0    0  0.39714356326E+03  0.95049641494E+02  0.78655102334E+02  0.42332756090E+03  0.79133776007E+02 0.  0.
         11    1    3    3    0    0 -0.28155495158E+03  0.19497865530E+03 -0.47672149490E+03  0.58698658459E+03  0.00000000000E+00 0. -1.
        -11    1    3    3    0    0 -0.19467569480E+03  0.99352767284E+02 -0.20198648647E+03  0.29760399734E+03  0.00000000000E+00 0.  1.
          4    1    6    6  502    0  0.35456647302E+01  0.13158812841E+02  0.55160538463E+01  0.14702140790E+02  0.00000000000E+00 0. -1.
          1    1    5    5  503    0  0.90062601753E+01 -0.35550568258E+02 -0.12933165732E+03  0.13443077479E+03  0.00000000000E+00 0. -1.
         -2    1    5    5    0  503  0.70080822941E+02 -0.35383049582E+03 -0.57242482520E+03  0.67659258201E+03  0.00000000000E+00 0.  1.
         -3    1    6    6    0  502  0.39359789853E+03  0.81890828654E+02  0.73139048487E+02  0.40862542011E+03  0.00000000000E+00 0.  1.
<mgrwt>
<rscale>  0 0.16718868E+04</rscale>
<asrwt>0</asrwt>
<pdfrwt beam="1">  1        1 0.26313468E+00 0.16718868E+04</pdfrwt>
<pdfrwt beam="2">  1       -1 0.62856319E-01 0.16718868E+04</pdfrwt>
<totfact> 0.11481649E+01</totfact>
</mgrwt>
</event>
<event>
12    1  0.1495204E-007  0.2265937E+04  0.7818608E-02  0.8491474E-01
         -2   -1    0    0    0  501 -0.00000000000E+00  0.00000000000E+00  0.11558198234E+04  0.11558198234E+04  0.00000000000E+00 0. -1.
          2   -1    0    0  501    0  0.00000000000E+00 -0.00000000000E+00 -0.11105685053E+04  0.11105685053E+04  0.00000000000E+00 0.  1.
         23    2    1    2    0    0  0.15510898678E+03  0.89432582388E+03  0.31066916734E+03  0.96417252115E+03  0.96103287959E+02 0.  0.
        254    2    1    2    0    0 -0.15510898678E+03 -0.89432582388E+03 -0.26541784927E+03  0.13022158076E+04  0.89523287353E+03 0.  0.
        -24    2    4    4    0    0 -0.43011356260E+03 -0.83174954701E+03 -0.55501573972E+02  0.94141617814E+03  0.79868705156E+02 0.  0.
         24    2    4    4    0    0  0.27500457582E+03 -0.62576276870E+02 -0.20991627529E+03  0.36079962948E+03  0.81044573236E+02 0.  0.
         13    1    3    3    0    0  0.92206640482E+01  0.89855371982E+02  0.22881705056E+01  0.90356207555E+02  0.00000000000E+00 0.  1.
        -13    1    3    3    0    0  0.14588832273E+03  0.80447045190E+03  0.30838099684E+03  0.87381631359E+03  0.00000000000E+00 0. -1.
          4    1    6    6  502    0  0.11803849199E+03 -0.37445480563E+02 -0.14065585430E+03  0.18740149134E+03  0.00000000000E+00 0. -1.
          3    1    5    5  503    0 -0.40926970382E+01 -0.84938172174E+01  0.78940891147E+01  0.12296818406E+02  0.00000000000E+00 0. -1.
         -4    1    5    5    0  503 -0.42602086556E+03 -0.82325572979E+03 -0.63395663087E+02  0.92911935973E+03  0.00000000000E+00 0.  1.
         -3    1    6    6    0  502  0.15696608382E+03 -0.25130796306E+02 -0.69260420992E+02  0.17339813814E+03  0.00000000000E+00 0.  1.
<mgrwt>
<rscale>  0 0.22659365E+04</rscale>
<asrwt>0</asrwt>
<pdfrwt beam="1">  1        2 0.17085669E+00 0.22659365E+04</pdfrwt>
<pdfrwt beam="2">  1       -2 0.17781843E+00 0.22659365E+04</pdfrwt>
<totfact> 0.36631994E+00</totfact>
</mgrwt>
</event>
<event>
12    1  0.1495204E-007  0.1385707E+04  0.7818608E-02  0.8964230E-01
          2   -1    0    0  501    0  0.00000000000E+00  0.00000000000E+00  0.11472490595E+04  0.11472490595E+04  0.00000000000E+00 0. -1.
         -2   -1    0    0    0  501 -0.00000000000E+00 -0.00000000000E+00 -0.41843241593E+03  0.41843241593E+03  0.00000000000E+00 0.  1.
         23    2    1    2    0    0 -0.58564329747E+02  0.27530345045E+03  0.50640055728E+03  0.58781494334E+03  0.99313204838E+02 0.  0.
        254    2    1    2    0    0  0.58564329747E+02 -0.27530345045E+03  0.22241608626E+03  0.97786653206E+03  0.90968800616E+03 0.  0.
        -24    2    4    4    0    0  0.41527459468E+03 -0.38234813853E+03  0.10414120109E+03  0.57941693648E+03  0.78965236022E+02 0.  0.
         24    2    4    4    0    0 -0.35671026493E+03  0.10704468808E+03  0.11827488518E+03  0.39844959558E+03  0.77925306537E+02 0.  0.
         13    1    3    3    0    0 -0.56916061520E+02  0.23425458198E+03  0.34242514267E+03  0.41877156729E+03  0.00000000000E+00 0. -1.
        -13    1    3    3    0    0 -0.16482682272E+01  0.41048868467E+02  0.16397541461E+03  0.16904337605E+03  0.00000000000E+00 0.  1.
          2    1    6    6  502    0 -0.33140312750E+03  0.11322258719E+03  0.93448173885E+02  0.36246372008E+03  0.00000000000E+00 0. -1.
          3    1    5    5  503    0  0.30865898971E+03 -0.23460903806E+03  0.66063082187E+02  0.39328882961E+03  0.00000000000E+00 0. -1.
         -4    1    5    5    0  503  0.10661560497E+03 -0.14773910046E+03  0.38078118900E+02  0.18612810687E+03  0.00000000000E+00 0.  1.
         -1    1    6    6    0  502 -0.25307137430E+02 -0.61778991073E+01  0.24826711290E+02  0.35985875504E+02  0.00000000000E+00 0.  1.
<mgrwt>
<rscale>  0 0.13857073E+04</rscale>
<asrwt>0</asrwt>
<pdfrwt beam="1">  1        2 0.17649985E+00 0.13857073E+04</pdfrwt>
<pdfrwt beam="2">  1       -2 0.64374218E-01 0.13857073E+04</pdfrwt>
<totfact> 0.44265535E+01</totfact>
</mgrwt>
</event>
<event>
12    1  0.1667887E-007  0.2251936E+04  0.7818608E-02  0.8497117E-01
         -2   -1    0    0    0  501 -0.00000000000E+00  0.00000000000E+00  0.56724595383E+03  0.56724595383E+03  0.00000000000E+00 0.  1.
          2   -1    0    0  501    0  0.00000000000E+00 -0.00000000000E+00 -0.22350155719E+04  0.22350155719E+04  0.00000000000E+00 0. -1.
         23    2    1    2    0    0 -0.55516995025E+02 -0.60088889210E+03  0.20255745143E+03  0.64306169421E+03  0.91374088498E+02 0.  0.
        254    2    1    2    0    0  0.55516995025E+02  0.60088889210E+03 -0.18703270695E+04  0.21591998315E+04  0.89435505709E+03 0.  0.
        -24    2    4    4    0    0 -0.35119419568E+03  0.51031934712E+03 -0.85470912974E+03  0.10585723307E+04  0.79274735593E+02 0.  0.
         24    2    4    4    0    0  0.40671119071E+03  0.90569544985E+02 -0.10156179398E+04  0.11006275009E+04  0.79273330369E+02 0.  0.
         11    1    3    3    0    0 -0.44322901197E+02 -0.59674740370E+03  0.19858370304E+03  0.63048193511E+03  0.00000000000E+00 0.  1.
        -11    1    3    3    0    0 -0.11194093828E+02 -0.41414884063E+01  0.39737483862E+01  0.12579759103E+02  0.00000000000E+00 0. -1.
          2    1    6    6  502    0  0.36619938790E+03  0.62402067107E+02 -0.84570542310E+03  0.92369566002E+03  0.00000000000E+00 0. -1.
          3    1    5    5  503    0 -0.34712294635E+03  0.48245604426E+03 -0.79556528198E+03  0.99306711375E+03  0.00000000000E+00 0. -1.
         -4    1    5    5    0  503 -0.40712493342E+01  0.27863302855E+02 -0.59143847759E+02  0.65505216928E+02  0.00000000000E+00 0.  1.
         -1    1    6    6    0  502  0.40511802809E+02  0.28167477878E+02 -0.16991251668E+03  0.17693184084E+03  0.00000000000E+00 0.  1.
<mgrwt>
<rscale>  0 0.22519356E+04</rscale>
<asrwt>0</asrwt>
<pdfrwt beam="1">  1        2 0.34384855E+00 0.22519356E+04</pdfrwt>
<pdfrwt beam="2">  1       -2 0.87268608E-01 0.22519356E+04</pdfrwt>
<totfact> 0.50944775E+00</totfact>
</mgrwt>
</event>
<event>
12    1  0.1495204E-007  0.1155467E+04  0.7818608E-02  0.9152755E-01
         -1   -1    0    0    0  501 -0.00000000000E+00  0.00000000000E+00  0.92101754784E+03  0.92101754784E+03  0.00000000000E+00 0.  1.
          1   -1    0    0  501    0  0.00000000000E+00 -0.00000000000E+00 -0.36239929175E+03  0.36239929175E+03  0.00000000000E+00 0. -1.
         23    2    1    2    0    0 -0.12885559679E+03  0.10835530526E+03  0.26481492289E+03  0.32645032275E+03  0.89990181904E+02 0.  0.
        254    2    1    2    0    0  0.12885559679E+03 -0.10835530526E+03  0.29380333320E+03  0.95696651683E+03  0.89505300331E+03 0.  0.
        -24    2    4    4    0    0 -0.29437253893E+03 -0.14169404128E+03  0.38907903600E+03  0.51431029652E+03  0.80001198980E+02 0.  0.
         24    2    4    4    0    0  0.42322813573E+03  0.33338736025E+02 -0.95275702804E+02  0.44265622031E+03  0.81446569256E+02 0.  0.
         13    1    3    3    0    0 -0.10507837155E+03  0.64388171161E+02  0.24185912048E+03  0.27144637576E+03  0.00000000000E+00 0.  1.
        -13    1    3    3    0    0 -0.23777225242E+02  0.43967134097E+02  0.22955802411E+02  0.55003946997E+02  0.00000000000E+00 0. -1.
          4    1    6    6  502    0  0.81339885091E+02 -0.19437751661E+02 -0.38592704007E+02  0.92105373887E+02  0.00000000000E+00 0. -1.
          3    1    5    5  503    0 -0.83655455562E+02 -0.31834621193E+02  0.16486271408E+03  0.18759369085E+03  0.00000000000E+00 0. -1.
         -4    1    5    5    0  503 -0.21071708337E+03 -0.10985942009E+03  0.22421632192E+03  0.32671660568E+03  0.00000000000E+00 0.  1.
         -3    1    6    6    0  502  0.34188825064E+03  0.52776487686E+02 -0.56682998798E+02  0.35055084642E+03  0.00000000000E+00 0.  1.
<mgrwt>
<rscale>  0 0.11554672E+04</rscale>
<asrwt>0</asrwt>
<pdfrwt beam="1">  1        1 0.55753737E-01 0.11554672E+04</pdfrwt>
<pdfrwt beam="2">  1       -1 0.14169501E+00 0.11554672E+04</pdfrwt>
<totfact> 0.27583224E+01</totfact>
</mgrwt>
</event>
<event>
12    1  0.1495204E-007  0.1358483E+04  0.7818608E-02  0.8984431E-01
          1   -1    0    0  501    0  0.00000000000E+00  0.00000000000E+00  0.32303034118E+04  0.32303034118E+04  0.00000000000E+00 0. -1.
         -1   -1    0    0    0  501 -0.00000000000E+00 -0.00000000000E+00 -0.14282524645E+03  0.14282524645E+03  0.00000000000E+00 0.  1.
         23    2    1    2    0    0  0.10435118678E+03  0.14859292625E+03  0.51640991888E+02  0.20960736729E+03  0.91101199041E+02 0.  0.
        254    2    1    2    0    0 -0.10435118678E+03 -0.14859292625E+03  0.30358371735E+04  0.31635212910E+04  0.87097105962E+03 0.  0.
        -24    2    4    4    0    0  0.24947219989E+03 -0.67579868245E+02  0.30451382462E+03  0.40704449482E+03  0.78441916525E+02 0.  0.
         24    2    4    4    0    0 -0.35382338667E+03 -0.81013058006E+02  0.27313233489E+04  0.27564767962E+04  0.79265296525E+02 0.  0.
         11    1    3    3    0    0  0.20622877253E+02 -0.10646852919E+02  0.48182957526E+01  0.23703892449E+02  0.00000000000E+00 0. -1.
        -11    1    3    3    0    0  0.83728309523E+02  0.15923977917E+03  0.46822696135E+02  0.18590347484E+03  0.00000000000E+00 0.  1.
          2    1    6    6  502    0 -0.35402999450E+03 -0.80731375790E+02  0.27318322040E+04  0.27558595724E+04  0.00000000000E+00 0. -1.
          3    1    5    5  503    0  0.13123154604E+03 -0.10953356872E+02  0.19962648453E+03  0.23914938434E+03  0.00000000000E+00 0. -1.
         -4    1    5    5    0  503  0.11824065385E+03 -0.56626511372E+02  0.10488734009E+03  0.16789511048E+03  0.00000000000E+00 0.  1.
         -1    1    6    6    0  502  0.20660783444E+00 -0.28168221613E+00 -0.50885511153E+00  0.61722377844E+00  0.00000000000E+00 0.  1.
<mgrwt>
<rscale>  0 0.13584828E+04</rscale>
<asrwt>0</asrwt>
<pdfrwt beam="1">  1        1 0.49696970E+00 0.13584828E+04</pdfrwt>
<pdfrwt beam="2">  1       -1 0.21973117E-01 0.13584828E+04</pdfrwt>
<totfact> 0.69682174E+00</totfact>
</mgrwt>
</event>
<event>
12    1  0.1495204E-007  0.1826308E+04  0.7818608E-02  0.8692433E-01
          2   -1    0    0  501    0  0.00000000000E+00  0.00000000000E+00  0.23354013154E+04  0.23354013154E+04  0.00000000000E+00 0. -1.
         -2   -1    0    0    0  501 -0.00000000000E+00 -0.00000000000E+00 -0.35704787825E+03  0.35704787825E+03  0.00000000000E+00 0.  1.
         23    2    1    2    0    0 -0.31006511590E+03 -0.50919063894E+03  0.26318831243E+03  0.65804121989E+03  0.91294448864E+02 0.  0.
        254    2    1    2    0    0  0.31006511590E+03  0.50919063894E+03  0.17151651247E+04  0.20344079737E+04  0.91739245460E+03 0.  0.
        -24    2    4    4    0    0  0.62149622425E+03  0.34770678786E+03  0.96789169335E+03  0.12042924888E+04  0.79677483910E+02 0.  0.
         24    2    4    4    0    0 -0.31143110835E+03  0.16148385108E+03  0.74727343133E+03  0.83011548493E+03  0.87222518525E+02 0.  0.
         13    1    3    3    0    0 -0.35310832764E+01 -0.10253692202E+02 -0.72358349596E+01  0.13037026518E+02  0.00000000000E+00 0. -1.
        -13    1    3    3    0    0 -0.30653403262E+03 -0.49893694674E+03  0.27042414739E+03  0.64500419337E+03  0.00000000000E+00 0.  1.
          2    1    6    6  502    0 -0.30620899099E+03  0.14017171508E+03  0.72178362663E+03  0.79648205225E+03  0.00000000000E+00 0. -1.
          3    1    5    5  503    0  0.35759421719E+03  0.24277413181E+03  0.56490243931E+03  0.71128592646E+03  0.00000000000E+00 0. -1.
         -4    1    5    5    0  503  0.26390200706E+03  0.10493265604E+03  0.40298925404E+03  0.49300656234E+03  0.00000000000E+00 0.  1.
         -1    1    6    6    0  502 -0.52221173542E+01  0.21312135997E+02  0.25489804697E+02  0.33633432681E+02  0.00000000000E+00 0.  1.
<mgrwt>
<rscale>  0 0.18263078E+04</rscale>
<asrwt>0</asrwt>
<pdfrwt beam="1">  1        2 0.35929250E+00 0.18263078E+04</pdfrwt>
<pdfrwt beam="2">  1       -2 0.54930444E-01 0.18263078E+04</pdfrwt>
<totfact> 0.12717536E+01</totfact>
</mgrwt>
</event>
<event>
12    1  0.1495204E-007  0.2220831E+04  0.7818608E-02  0.8509808E-01
         -2   -1    0    0    0  501 -0.00000000000E+00  0.00000000000E+00  0.93862255967E+03  0.93862255967E+03  0.00000000000E+00 0.  1.
          2   -1    0    0  501    0  0.00000000000E+00 -0.00000000000E+00 -0.13136506004E+04  0.13136506004E+04  0.00000000000E+00 0. -1.
         23    2    1    2    0    0 -0.93038113614E+02  0.83998026460E+03 -0.57058727564E+03  0.10237070174E+04  0.90461499501E+02 0.  0.
        254    2    1    2    0    0  0.93038113614E+02 -0.83998026460E+03  0.19555923493E+03  0.12285661426E+04  0.87000483733E+03 0.  0.
        -24    2    4    4    0    0  0.19463314933E+03 -0.65960419438E+03 -0.24585223511E+03  0.73459180711E+03  0.78879943663E+02 0.  0.
         24    2    4    4    0    0 -0.10159503572E+03 -0.18037607022E+03  0.44141147004E+03  0.49397433553E+03  0.79432237070E+02 0.  0.
         13    1    3    3    0    0 -0.56289944675E+02  0.27369102162E+03 -0.22967448228E+03  0.36169835637E+03  0.00000000000E+00 0. -1.
        -13    1    3    3    0    0 -0.36748168940E+02  0.56628924298E+03 -0.34091279336E+03  0.66200866105E+03  0.00000000000E+00 0.  1.
          4    1    6    6  502    0 -0.63060296696E+02 -0.98866202461E+02  0.33258145196E+03  0.35264932893E+03  0.00000000000E+00 0. -1.
          1    1    5    5  503    0  0.13865769692E+03 -0.56169747213E+03 -0.21932642400E+03  0.61873587853E+03  0.00000000000E+00 0. -1.
         -2    1    5    5    0  503  0.55975452407E+02 -0.97906722247E+02 -0.26525811106E+02  0.11585592858E+03  0.00000000000E+00 0.  1.
         -3    1    6    6    0  502 -0.38534739022E+02 -0.81509867760E+02  0.10883001808E+03  0.14132500659E+03  0.00000000000E+00 0.  1.
<mgrwt>
<rscale>  0 0.22208306E+04</rscale>
<asrwt>0</asrwt>
<pdfrwt beam="1">  1        2 0.20210009E+00 0.22208306E+04</pdfrwt>
<pdfrwt beam="2">  1       -2 0.14440347E+00 0.22208306E+04</pdfrwt>
<totfact> 0.49066748E+00</totfact>
</mgrwt>
</event>
<event>
12    1  0.1495204E-007  0.1829354E+04  0.7818608E-02  0.8690843E-01
         -1   -1    0    0    0  501 -0.00000000000E+00  0.00000000000E+00  0.49659002909E+03  0.49659002909E+03  0.00000000000E+00 0.  1.
          1   -1    0    0  501    0  0.00000000000E+00 -0.00000000000E+00 -0.16847586449E+04  0.16847586449E+04  0.00000000000E+00 0. -1.
         23    2    1    2    0    0 -0.18675475223E+03  0.42102833300E+03  0.16093467183E+03  0.49647242785E+03  0.91884211633E+02 0.  0.
        254    2    1    2    0    0  0.18675475223E+03 -0.42102833300E+03 -0.13491032877E+04  0.16848762462E+04  0.89810138038E+03 0.  0.
        -24    2    4    4    0    0  0.31095965968E+03  0.78902853075E+02 -0.12347867109E+03  0.35305257520E+03  0.80483342809E+02 0.  0.
         24    2    4    4    0    0 -0.12420490745E+03 -0.49993118608E+03 -0.12256246166E+04  0.13318236710E+04  0.78997088211E+02 0.  0.
         11    1    3    3    0    0 -0.10973632503E+03  0.33097103907E+03  0.97507564743E+02  0.36206576048E+03  0.00000000000E+00 0.  1.
        -11    1    3    3    0    0 -0.77018427197E+02  0.90057293933E+02  0.63427107087E+02  0.13440666736E+03  0.00000000000E+00 0. -1.
          2    1    6    6  502    0 -0.88598284717E+02 -0.39915287990E+03 -0.10421562670E+04  0.11194920109E+04  0.00000000000E+00 0. -1.
          3    1    5    5  503    0  0.27784111233E+03  0.70886488711E+02 -0.79768721362E+02  0.29763001678E+03  0.00000000000E+00 0. -1.
         -4    1    5    5    0  503  0.33118547346E+02  0.80163643638E+01 -0.43709949727E+02  0.55422558413E+02  0.00000000000E+00 0.  1.
         -1    1    6    6    0  502 -0.35606622733E+02 -0.10077830618E+03 -0.18346834962E+03  0.21233166012E+03  0.00000000000E+00 0.  1.
<mgrwt>
<rscale>  0 0.18293544E+04</rscale>
<asrwt>0</asrwt>
<pdfrwt beam="1">  1        1 0.25919364E+00 0.18293544E+04</pdfrwt>
<pdfrwt beam="2">  1       -1 0.76398466E-01 0.18293544E+04</pdfrwt>
<totfact> 0.79018038E+00</totfact>
</mgrwt>
</event>
<event>
12    1  0.1495204E-007  0.1300995E+04  0.7818608E-02  0.9028776E-01
         -2   -1    0    0    0  501 -0.00000000000E+00  0.00000000000E+00  0.39601044878E+03  0.39601044878E+03  0.00000000000E+00 0. -1.
          2   -1    0    0  501    0  0.00000000000E+00 -0.00000000000E+00 -0.10685249181E+04  0.10685249181E+04  0.00000000000E+00 0.  1.
         23    2    1    2    0    0  0.20612391168E+03 -0.97580459349E+02 -0.42908590162E+03  0.49477165495E+03  0.93141111006E+02 0.  0.
        254    2    1    2    0    0 -0.20612391168E+03  0.97580459349E+02 -0.24342856775E+03  0.96976371198E+03  0.91059056466E+03 0.  0.
        -24    2    4    4    0    0 -0.35157124840E+03  0.40932482991E+02 -0.52532094373E+03  0.63831176049E+03  0.78752770059E+02 0.  0.
         24    2    4    4    0    0  0.14544733672E+03  0.56647976357E+02  0.28189237598E+03  0.33145195149E+03  0.77673441553E+02 0.  0.
         13    1    3    3    0    0 -0.66409683883E+01  0.20493374863E+01 -0.18360688822E+01  0.71884208424E+01  0.00000000000E+00 0. -1.
        -13    1    3    3    0    0  0.21276488007E+03 -0.99629796835E+02 -0.42724983274E+03  0.48758323411E+03  0.00000000000E+00 0.  1.
          2    1    6    6  502    0  0.51800546133E+02  0.86304154412E+00  0.15878107291E+03  0.16701937174E+03  0.00000000000E+00 0. -1.
          3    1    5    5  503    0 -0.17542763679E+03  0.46839726360E+02 -0.31814677855E+03  0.36631433007E+03  0.00000000000E+00 0. -1.
         -4    1    5    5    0  503 -0.17614361161E+03 -0.59072433687E+01 -0.20717416518E+03  0.27199743042E+03  0.00000000000E+00 0.  1.
         -1    1    6    6    0  502  0.93646790583E+02  0.55784934813E+02  0.12311130307E+03  0.16443257975E+03  0.00000000000E+00 0.  1.
<mgrwt>
<rscale>  0 0.13009951E+04</rscale>
<asrwt>0</asrwt>
<pdfrwt beam="1">  1        2 0.16438845E+00 0.13009951E+04</pdfrwt>
<pdfrwt beam="2">  1       -2 0.60924684E-01 0.13009951E+04</pdfrwt>
<totfact> 0.56009506E+01</totfact>
</mgrwt>
</event>
<event>
12    1  0.1495204E-007  0.1597712E+04  0.7818608E-02  0.8821955E-01
          2   -1    0    0  501    0  0.00000000000E+00  0.00000000000E+00  0.99602969208E+03  0.99602969208E+03  0.00000000000E+00 0.  1.
         -2   -1    0    0    0  501 -0.00000000000E+00 -0.00000000000E+00 -0.64071460589E+03  0.64071460589E+03  0.00000000000E+00 0. -1.
         23    2    1    2    0    0  0.34784621387E+03 -0.52180456607E+02 -0.27717152579E+03  0.45706306037E+03  0.91448334563E+02 0.  0.
        254    2    1    2    0    0 -0.34784621387E+03  0.52180456607E+02  0.63248661198E+03  0.11796812376E+04  0.93160545266E+03 0.  0.
        -24    2    4    4    0    0 -0.45840624755E+03  0.36425656379E+03  0.58918212680E+03  0.83533712095E+03  0.88506468937E+02 0.  0.
         24    2    4    4    0    0  0.11056003368E+03 -0.31207610718E+03  0.43304485183E+02  0.34434411664E+03  0.84158032940E+02 0.  0.
         11    1    3    3    0    0  0.17541396086E+03 -0.69875831869E+02 -0.12536258266E+03  0.22664612654E+03  0.00000000000E+00 0. -1.
        -11    1    3    3    0    0  0.17243225301E+03  0.17695375263E+02 -0.15180894312E+03  0.23041693383E+03  0.00000000000E+00 0.  1.
          4    1    6    6  502    0  0.68529823975E+02 -0.90224495677E+02  0.34256144710E+02  0.11836502796E+03  0.00000000000E+00 0. -1.
          1    1    5    5  503    0 -0.14501445051E+03  0.11416861025E+03  0.13005454414E+03  0.22578274264E+03  0.00000000000E+00 0. -1.
         -2    1    5    5    0  503 -0.31339179703E+03  0.25008795353E+03  0.45912758266E+03  0.60955437830E+03  0.00000000000E+00 0.  1.
         -3    1    6    6    0  502  0.42030209702E+02 -0.22185161150E+03  0.90483404731E+01  0.22597908868E+03  0.00000000000E+00 0.  1.
<mgrwt>
<rscale>  0 0.15977118E+04</rscale>
<asrwt>0</asrwt>
<pdfrwt beam="1">  1        2 0.15323534E+00 0.15977118E+04</pdfrwt>
<pdfrwt beam="2">  1       -2 0.98571478E-01 0.15977118E+04</pdfrwt>
<totfact> 0.20771668E+01</totfact>
</mgrwt>
</event>
<event>
12    1  0.1495204E-007  0.1084925E+04  0.7818608E-02  0.9220011E-01
          1   -1    0    0  501    0  0.00000000000E+00  0.00000000000E+00  0.15559787882E+04  0.15559787882E+04  0.00000000000E+00 0. -1.
         -1   -1    0    0    0  501 -0.00000000000E+00 -0.00000000000E+00 -0.18911912090E+03  0.18911912090E+03  0.00000000000E+00 0.  1.
         23    2    1    2    0    0 -0.12666342321E+03  0.51975318986E+02  0.14730672237E+03  0.22084482644E+03  0.91258480973E+02 0.  0.
        254    2    1    2    0    0  0.12666342321E+03 -0.51975318986E+02  0.12195529449E+04  0.15242530826E+04  0.90404259741E+03 0.  0.
        -24    2    4    4    0    0  0.23423129927E+03 -0.43645457236E+03  0.75622152452E+03  0.90766877013E+03  0.81453709756E+02 0.  0.
         24    2    4    4    0    0 -0.10756787606E+03  0.38447925337E+03  0.46333142039E+03  0.61658431250E+03  0.78134915850E+02 0.  0.
         11    1    3    3    0    0  0.12480781434E+02  0.99951160025E+01  0.34660189418E+01  0.16361098264E+02  0.00000000000E+00 0. -1.
        -11    1    3    3    0    0 -0.13914420464E+03  0.41980202984E+02  0.14384070343E+03  0.20448372818E+03  0.00000000000E+00 0.  1.
          2    1    6    6  502    0 -0.76761958717E+02  0.18534086916E+03  0.18442321656E+03  0.27249873191E+03  0.00000000000E+00 0. -1.
          3    1    5    5  503    0  0.20591326345E+03 -0.31061944621E+03  0.54709063559E+03  0.66196138556E+03  0.00000000000E+00 0. -1.
         -4    1    5    5    0  503  0.28318035819E+02 -0.12583512615E+03  0.20913088893E+03  0.24570738457E+03  0.00000000000E+00 0.  1.
         -1    1    6    6    0  502 -0.30805917344E+02  0.19913838422E+03  0.27890820383E+03  0.34408558060E+03  0.00000000000E+00 0.  1.
<mgrwt>
<rscale>  0 0.10849246E+04</rscale>
<asrwt>0</asrwt>
<pdfrwt beam="1">  1        1 0.23938134E+00 0.10849246E+04</pdfrwt>
<pdfrwt beam="2">  1       -1 0.29095250E-01 0.10849246E+04</pdfrwt>
<totfact> 0.64259921E+01</totfact>
</mgrwt>
</event>
<event>
12    1  0.1495204E-007  0.1486242E+04  0.7818608E-02  0.8893654E-01
         -2   -1    0    0    0  501 -0.00000000000E+00  0.00000000000E+00  0.33488991705E+03  0.33488991705E+03  0.00000000000E+00 0.  1.
          2   -1    0    0  501    0  0.00000000000E+00 -0.00000000000E+00 -0.16489861447E+04  0.16489861447E+04  0.00000000000E+00 0. -1.
         23    2    1    2    0    0  0.44635480396E+02 -0.40455753158E+03 -0.73159676886E+03  0.84192412160E+03  0.89125035046E+02 0.  0.
        254    2    1    2    0    0 -0.44635480396E+02  0.40455753158E+03 -0.58249945874E+03  0.11419519401E+04  0.89391805641E+03 0.  0.
        -24    2    4    4    0    0  0.62265624166E+02 -0.21322111003E+03  0.57166069517E+02  0.24234388679E+03  0.78245448726E+02 0.  0.
         24    2    4    4    0    0 -0.10690110456E+03  0.61777864160E+03 -0.63966552826E+03  0.89960805331E+03  0.83930717572E+02 0.  0.
         13    1    3    3    0    0  0.35085176513E+02 -0.22559665228E+03 -0.49499567605E+03  0.54511057450E+03  0.00000000000E+00 0. -1.
        -13    1    3    3    0    0  0.95503038825E+01 -0.17896087930E+03 -0.23660109281E+03  0.29681354710E+03  0.00000000000E+00 0.  1.
          4    1    6    6  502    0 -0.75559827781E+02  0.50164212656E+03 -0.46950825743E+03  0.69122508237E+03  0.00000000000E+00 0. -1.
          1    1    5    5  503    0  0.56464761755E+02 -0.15074120247E+03  0.55026531832E+01  0.16106352360E+03  0.00000000000E+00 0. -1.
         -2    1    5    5    0  503  0.58008624119E+01 -0.62479907553E+02  0.51663416333E+02  0.81280363187E+02  0.00000000000E+00 0.  1.
         -3    1    6    6    0  502 -0.31341276781E+02  0.11613651505E+03 -0.17015727083E+03  0.20838297093E+03  0.00000000000E+00 0.  1.
<mgrwt>
<rscale>  0 0.14862420E+04</rscale>
<asrwt>0</asrwt>
<pdfrwt beam="1">  1        2 0.25369017E+00 0.14862420E+04</pdfrwt>
<pdfrwt beam="2">  1       -2 0.51521526E-01 0.14862420E+04</pdfrwt>
<totfact> 0.36033959E+01</totfact>
</mgrwt>
</event>
<event>
12    1  0.1495204E-007  0.2327376E+04  0.7818608E-02  0.8467205E-01
         -1   -1    0    0    0  501 -0.00000000000E+00  0.00000000000E+00  0.15833715507E+04  0.15833715507E+04  0.00000000000E+00 0. -1.
          1   -1    0    0  501    0  0.00000000000E+00 -0.00000000000E+00 -0.85524431430E+03  0.85524431430E+03  0.00000000000E+00 0.  1.
         23    2    1    2    0    0  0.25761598822E+03 -0.84640323466E+03  0.79722895440E+03  0.11943108762E+04  0.89666215187E+02 0.  0.
        254    2    1    2    0    0 -0.25761598822E+03  0.84640323466E+03 -0.69101718006E+02  0.12443049888E+04  0.87221294692E+03 0.  0.
        -24    2    4    4    0    0  0.24290248933E+03  0.71145731475E+01  0.35506658032E+02  0.25829535564E+03  0.80022068883E+02 0.  0.
         24    2    4    4    0    0 -0.50051847754E+03  0.83928866151E+03 -0.10460837604E+03  0.98600963319E+03  0.79673588507E+02 0.  0.
         13    1    3    3    0    0 -0.45313691172E+01 -0.51715695842E+02  0.37142505724E+02  0.63832689384E+02  0.00000000000E+00 0.  1.
        -13    1    3    3    0    0  0.26214735733E+03 -0.79468753882E+03  0.76008644868E+03  0.11304781868E+04  0.00000000000E+00 0. -1.
          2    1    6    6  502    0 -0.45594455050E+03  0.71423157255E+03 -0.99110261301E+02  0.85313247286E+03  0.00000000000E+00 0. -1.
          1    1    5    5  503    0  0.20718063921E+03  0.33530960538E+02  0.39951697329E+02  0.21364522157E+03  0.00000000000E+00 0. -1.
         -2    1    5    5    0  503  0.35721850113E+02 -0.26416387391E+02 -0.44450392960E+01  0.44650134072E+02  0.00000000000E+00 0.  1.
         -1    1    6    6    0  502 -0.44573927044E+02  0.12505708896E+03 -0.54981147373E+01  0.13287716033E+03  0.00000000000E+00 0.  1.
<mgrwt>
<rscale>  0 0.23273758E+04</rscale>
<asrwt>0</asrwt>
<pdfrwt beam="1">  1        1 0.13157605E+00 0.23273758E+04</pdfrwt>
<pdfrwt beam="2">  1       -1 0.24359562E+00 0.23273758E+04</pdfrwt>
<totfact> 0.13726023E+00</totfact>
</mgrwt>
</event>
<event>
12    1  0.1495204E-007  0.1645731E+04  0.7818608E-02  0.8792936E-01
          2   -1    0    0  501    0  0.00000000000E+00  0.00000000000E+00  0.16841315798E+04  0.16841315798E+04  0.00000000000E+00 0.  1.
         -2   -1    0    0    0  501 -0.00000000000E+00 -0.00000000000E+00 -0.40205148551E+03  0.40205148551E+03  0.00000000000E+00 0. -1.
         23    2    1    2    0    0  0.34684220211E+03 -0.20227900265E+03 -0.65054313166E+02  0.41549909371E+03  0.84800501962E+02 0.  0.
        254    2    1    2    0    0 -0.34684220211E+03  0.20227900265E+03  0.13471344075E+04  0.16706839716E+04  0.90288289004E+03 0.  0.
        -24    2    4    4    0    0 -0.26447423851E+03  0.55137315157E+03  0.77473857712E+03  0.99027774017E+03  0.80443549669E+02 0.  0.
         24    2    4    4    0    0 -0.82367963604E+02 -0.34909414892E+03  0.57239583038E+03  0.68040623147E+03  0.81636064025E+02 0.  0.
         11    1    3    3    0    0  0.23222991573E+03 -0.10996892343E+03 -0.75927153194E+02  0.26793437717E+03  0.00000000000E+00 0. -1.
        -11    1    3    3    0    0  0.11461228638E+03 -0.92310079224E+02  0.10872840028E+02  0.14756471654E+03  0.00000000000E+00 0.  1.
          4    1    6    6  502    0 -0.67896722119E+02 -0.15293684749E+03  0.31241106499E+03  0.35440135119E+03  0.00000000000E+00 0. -1.
          1    1    5    5  503    0 -0.69505740583E+02  0.21383641561E+03  0.32385685446E+03  0.39425920762E+03  0.00000000000E+00 0. -1.
         -2    1    5    5    0  503 -0.19496849793E+03  0.33753673596E+03  0.45088172267E+03  0.59601853255E+03  0.00000000000E+00 0.  1.
         -3    1    6    6    0  502 -0.14471241485E+02 -0.19615730142E+03  0.25998476538E+03  0.32600488027E+03  0.00000000000E+00 0.  1.
<mgrwt>
<rscale>  0 0.16457310E+04</rscale>
<asrwt>0</asrwt>
<pdfrwt beam="1">  1        2 0.25909716E+00 0.16457310E+04</pdfrwt>
<pdfrwt beam="2">  1       -2 0.61854075E-01 0.16457310E+04</pdfrwt>
<totfact> 0.23216783E+01</totfact>
</mgrwt>
</event>
<event>
12    1  0.1495204E-007  0.2277480E+04  0.7818608E-02  0.8486854E-01
         -2   -1    0    0    0  501 -0.00000000000E+00  0.00000000000E+00  0.10180766449E+04  0.10180766449E+04  0.00000000000E+00 0.  1.
          2   -1    0    0  501    0  0.00000000000E+00 -0.00000000000E+00 -0.12737049433E+04  0.12737049433E+04  0.00000000000E+00 0. -1.
         23    2    1    2    0    0 -0.34547537772E+03  0.36557253559E+03 -0.92766390523E+03  0.10590174825E+04  0.89225511400E+02 0.  0.
        254    2    1    2    0    0  0.34547537772E+03 -0.36557253559E+03  0.67203560676E+03  0.12327641057E+04  0.90281723958E+03 0.  0.
        -24    2    4    4    0    0  0.31069730764E+03 -0.36248392605E+03 -0.66547446005E+02  0.48875454972E+03  0.80777680618E+02 0.  0.
         24    2    4    4    0    0  0.34778070077E+02 -0.30886095407E+01  0.73858305276E+03  0.74400955595E+03  0.82621061734E+02 0.  0.
         11    1    3    3    0    0 -0.22902710030E+03  0.26972918311E+03 -0.57062435100E+03  0.67143085634E+03  0.00000000000E+00 0. -1.
        -11    1    3    3    0    0 -0.11644827742E+03  0.95843352479E+02 -0.35703955423E+03  0.38758662620E+03  0.00000000000E+00 0.  1.
          4    1    6    6  502    0 -0.62694850537E+01 -0.25967966638E+02  0.50717845883E+03  0.50788151259E+03  0.00000000000E+00 0. -1.
          1    1    5    5  503    0  0.67485961683E+02 -0.54299096020E+02 -0.39588502637E+02  0.95236528675E+02  0.00000000000E+00 0. -1.
         -2    1    5    5    0  503  0.24321134596E+03 -0.30818483003E+03 -0.26958943368E+02  0.39351802105E+03  0.00000000000E+00 0.  1.
         -3    1    6    6    0  502  0.41047555130E+02  0.22879357098E+02  0.23140459394E+03  0.23612804335E+03  0.00000000000E+00 0.  1.
<mgrwt>
<rscale>  0 0.22774804E+04</rscale>
<asrwt>0</asrwt>
<pdfrwt beam="1">  1        2 0.19595461E+00 0.22774804E+04</pdfrwt>
<pdfrwt beam="2">  1       -2 0.15662718E+00 0.22774804E+04</pdfrwt>
<totfact> 0.41525401E+00</totfact>
</mgrwt>
</event>
<event>
12    1  0.1526285E-007  0.1572875E+04  0.7818608E-02  0.8837387E-01
         -2   -1    0    0    0  501 -0.00000000000E+00  0.00000000000E+00  0.31308846414E+03  0.31308846414E+03  0.00000000000E+00 0.  1.
          2   -1    0    0  501    0  0.00000000000E+00 -0.00000000000E+00 -0.19754298888E+04  0.19754298888E+04  0.00000000000E+00 0. -1.
         23    2    1    2    0    0  0.15294635265E+03  0.33695038885E+03 -0.30511132517E+02  0.38287131764E+03  0.93441775079E+02 0.  0.
        254    2    1    2    0    0 -0.15294635265E+03 -0.33695038885E+03 -0.16318302921E+04  0.19056470353E+04  0.91197169336E+03 0.  0.
        -24    2    4    4    0    0 -0.49133092393E+03 -0.15588196763E+03 -0.12674532024E+04  0.13704331600E+04  0.77098385082E+02 0.  0.
         24    2    4    4    0    0  0.33838457129E+03 -0.18106842121E+03 -0.36437708969E+03  0.53521387530E+03  0.79958349040E+02 0.  0.
         13    1    3    3    0    0 -0.84774213883E+01  0.18220320937E+02 -0.15324405794E+02  0.25272201751E+02  0.00000000000E+00 0. -1.
        -13    1    3    3    0    0  0.16142377404E+03  0.31873006791E+03 -0.15186726724E+02  0.35759911589E+03  0.00000000000E+00 0.  1.
          4    1    6    6  502    0  0.33121721121E+03 -0.18542339519E+03 -0.36525582527E+03  0.52678125857E+03  0.00000000000E+00 0. -1.
          3    1    5    5  503    0 -0.42470264274E+03 -0.12269635694E+03 -0.11417475529E+04  0.12243423562E+04  0.00000000000E+00 0. -1.
         -4    1    5    5    0  503 -0.66628281198E+02 -0.33185610695E+02 -0.12570564958E+03  0.14609080378E+03  0.00000000000E+00 0.  1.
         -3    1    6    6    0  502  0.71673600763E+01  0.43549739726E+01  0.87873558288E+00  0.84326167344E+01  0.00000000000E+00 0.  1.
<mgrwt>
<rscale>  0 0.15728755E+04</rscale>
<asrwt>0</asrwt>
<pdfrwt beam="1">  1        2 0.30391230E+00 0.15728755E+04</pdfrwt>
<pdfrwt beam="2">  1       -2 0.48167455E-01 0.15728755E+04</pdfrwt>
<totfact> 0.27057964E+01</totfact>
</mgrwt>
</event>
<event>
12    1  0.1495204E-007  0.2045778E+04  0.7818608E-02  0.8585512E-01
          2   -1    0    0  501    0  0.00000000000E+00  0.00000000000E+00  0.34283726575E+03  0.34283726575E+03  0.00000000000E+00 0. -1.
         -2   -1    0    0    0  501 -0.00000000000E+00 -0.00000000000E+00 -0.30518916824E+04  0.30518916824E+04  0.00000000000E+00 0.  1.
         23    2    1    2    0    0 -0.12133453016E+03 -0.30339087918E+03 -0.23465686616E+04  0.23710124193E+04  0.92451688340E+02 0.  0.
        254    2    1    2    0    0  0.12133453016E+03  0.30339087918E+03 -0.36248575498E+03  0.10237165289E+04  0.89990639243E+03 0.  0.
        -24    2    4    4    0    0 -0.29213334376E+03  0.26785959098E+03  0.80702611395E+02  0.41114180085E+03  0.73715791420E+02 0.  0.
         24    2    4    4    0    0  0.41346787392E+03  0.35531288208E+02 -0.44318836638E+03  0.61257472803E+03  0.81324744778E+02 0.  0.
         13    1    3    3    0    0 -0.11244605494E+03 -0.17890086086E+03 -0.13056272240E+04  0.13226156212E+04  0.00000000000E+00 0. -1.
        -13    1    3    3    0    0 -0.88884752252E+01 -0.12449001833E+03 -0.10409414376E+04  0.10483967981E+04  0.00000000000E+00 0.  1.
          4    1    6    6  502    0  0.31592854480E+03  0.53459387804E+02 -0.30411837728E+03  0.44176547960E+03  0.00000000000E+00 0. -1.
          3    1    5    5  503    0 -0.20376908632E+03  0.21476466423E+03  0.84850090087E+02  0.30796954286E+03  0.00000000000E+00 0. -1.
         -4    1    5    5    0  503 -0.88364257438E+02  0.53094926746E+02 -0.41474786919E+01  0.10317225799E+03  0.00000000000E+00 0.  1.
         -3    1    6    6    0  502  0.97539329124E+02 -0.17928099596E+02 -0.13906998910E+03  0.17080924843E+03  0.00000000000E+00 0.  1.
<mgrwt>
<rscale>  0 0.20457783E+04</rscale>
<asrwt>0</asrwt>
<pdfrwt beam="1">  1        2 0.52744196E-01 0.20457783E+04</pdfrwt>
<pdfrwt beam="2">  1       -2 0.46952178E+00 0.20457783E+04</pdfrwt>
<totfact> 0.22606081E-01</totfact>
</mgrwt>
</event>
<event>
12    1  0.1495204E-007  0.1663604E+04  0.7818608E-02  0.8782399E-01
          1   -1    0    0  501    0  0.00000000000E+00  0.00000000000E+00  0.66248819383E+03  0.66248819383E+03  0.00000000000E+00 0. -1.
         -1   -1    0    0    0  501 -0.00000000000E+00 -0.00000000000E+00 -0.10443881844E+04  0.10443881844E+04  0.00000000000E+00 0.  1.
         23    2    1    2    0    0 -0.33747097350E+03 -0.19167933192E+03 -0.51107531842E+03  0.64851532240E+03  0.93522821021E+02 0.  0.
        254    2    1    2    0    0  0.33747097350E+03  0.19167933192E+03  0.12917532780E+03  0.10583610559E+04  0.97612203901E+03 0.  0.
        -24    2    4    4    0    0 -0.14947223779E+03  0.31519272400E+03  0.35297831490E+03  0.50265201550E+03  0.79855837414E+02 0.  0.
         24    2    4    4    0    0  0.48694321129E+03 -0.12351339207E+03 -0.22380298711E+03  0.55570904037E+03  0.79721461769E+02 0.  0.
         11    1    3    3    0    0 -0.86120910728E+02 -0.96705990341E+02 -0.18845767150E+03  0.22865947122E+03  0.00000000000E+00 0. -1.
        -11    1    3    3    0    0 -0.25135006277E+03 -0.94973341581E+02 -0.32261764692E+03  0.41985585118E+03  0.00000000000E+00 0.  1.
          4    1    6    6  502    0  0.74513304796E+02  0.96702583870E+01 -0.28983652817E+02  0.80534456101E+02  0.00000000000E+00 0. -1.
          1    1    5    5  503    0 -0.14367366959E+03  0.25344721868E+03  0.25763351235E+03  0.38891212719E+03  0.00000000000E+00 0. -1.
         -2    1    5    5    0  503 -0.57985682038E+01  0.61745505315E+02  0.95344802556E+02  0.11373988832E+03  0.00000000000E+00 0.  1.
         -3    1    6    6    0  502  0.41242990649E+03 -0.13318365046E+03 -0.19481933429E+03  0.47517458427E+03  0.00000000000E+00 0.  1.
<mgrwt>
<rscale>  0 0.16636043E+04</rscale>
<asrwt>0</asrwt>
<pdfrwt beam="1">  1        1 0.10192126E+00 0.16636043E+04</pdfrwt>
<pdfrwt beam="2">  1       -1 0.16067510E+00 0.16636043E+04</pdfrwt>
<totfact> 0.81614614E+00</totfact>
</mgrwt>
</event>
<event>
12    1  0.1495204E-007  0.3192691E+04  0.7818608E-02  0.8190750E-01
          2   -1    0    0  501    0  0.00000000000E+00  0.00000000000E+00  0.26600801315E+04  0.26600801315E+04  0.00000000000E+00 0. -1.
         -2   -1    0    0    0  501 -0.00000000000E+00 -0.00000000000E+00 -0.95798550311E+03  0.95798550311E+03  0.00000000000E+00 0.  1.
         23    2    1    2    0    0  0.64611128632E+03 -0.81522909960E+03  0.19581740804E+04  0.22191090705E+04  0.89112617551E+02 0.  0.
        254    2    1    2    0    0 -0.64611128632E+03  0.81522909960E+03 -0.25607945201E+03  0.13989565641E+04  0.89969133779E+03 0.  0.
        -24    2    4    4    0    0 -0.23514130769E+03  0.17321259774E+03  0.31982319211E+03  0.44039356087E+03  0.79784557672E+02 0.  0.
         24    2    4    4    0    0 -0.41096997863E+03  0.64201650186E+03 -0.57590264413E+03  0.95856300321E+03  0.78087538161E+02 0.  0.
         13    1    3    3    0    0  0.19666908866E+03 -0.18582260345E+03  0.51772362572E+03  0.58416309625E+03  0.00000000000E+00 0.  1.
        -13    1    3    3    0    0  0.44944219766E+03 -0.62940649615E+03  0.14404504547E+04  0.16349459743E+04  0.00000000000E+00 0. -1.
          2    1    6    6  502    0 -0.35149001607E+03  0.49473493288E+03 -0.47097496081E+03  0.76819613311E+03  0.00000000000E+00 0. -1.
          3    1    5    5  503    0 -0.18624952964E+03  0.91699251699E+02  0.21403401534E+03  0.29817478058E+03  0.00000000000E+00 0. -1.
         -4    1    5    5    0  503 -0.48891778055E+02  0.81513346044E+02  0.10578917677E+03  0.14221878029E+03  0.00000000000E+00 0.  1.
         -1    1    6    6    0  502 -0.59479962560E+02  0.14728156898E+03 -0.10492768332E+03  0.19036687010E+03  0.00000000000E+00 0.  1.
<mgrwt>
<rscale>  0 0.31926905E+04</rscale>
<asrwt>0</asrwt>
<pdfrwt beam="1">  1        2 0.40924309E+00 0.31926905E+04</pdfrwt>
<pdfrwt beam="2">  1       -2 0.14738239E+00 0.31926905E+04</pdfrwt>
<totfact> 0.74154986E-01</totfact>
</mgrwt>
</event>
<event>
12    1  0.1495204E-007  0.2725959E+04  0.7818608E-02  0.8326631E-01
         -2   -1    0    0    0  501 -0.00000000000E+00  0.00000000000E+00  0.13058297007E+04  0.13058297007E+04  0.00000000000E+00 0.  1.
          2   -1    0    0  501    0  0.00000000000E+00 -0.00000000000E+00 -0.14226306595E+04  0.14226306595E+04  0.00000000000E+00 0. -1.
         23    2    1    2    0    0  0.32582461793E+03 -0.11386166506E+04  0.21763676530E+03  0.12074644853E+04  0.89415675509E+02 0.  0.
        254    2    1    2    0    0 -0.32582461793E+03  0.11386166506E+04 -0.33443772415E+03  0.15209958748E+04  0.89385138654E+03 0.  0.
        -24    2    4    4    0    0  0.23357192426E+03  0.37506185111E+03 -0.35149374320E+03  0.57029516906E+03  0.80383408581E+02 0.  0.
         24    2    4    4    0    0 -0.55939654219E+03  0.76355479951E+03  0.17056019047E+02  0.95070070579E+03  0.87180851840E+02 0.  0.
         13    1    3    3    0    0  0.37286994852E+02 -0.12074084416E+03 -0.43620507935E+01  0.12644247277E+03  0.00000000000E+00 0. -1.
        -13    1    3    3    0    0  0.28853762307E+03 -0.10178758065E+04  0.22199881609E+03  0.10810220126E+04  0.00000000000E+00 0.  1.
          4    1    6    6  502    0 -0.48950620051E+03  0.69874968850E+03 -0.36790159298E+01  0.85315941223E+03  0.00000000000E+00 0. -1.
          1    1    5    5  503    0  0.22875124775E+03  0.33420327940E+03 -0.33636347838E+03  0.52645926233E+03  0.00000000000E+00 0. -1.
         -2    1    5    5    0  503  0.48206765145E+01  0.40858571717E+02 -0.15130264816E+02  0.43835906723E+02  0.00000000000E+00 0.  1.
         -3    1    6    6    0  502 -0.69890341684E+02  0.64805111010E+02  0.20735034977E+02  0.97541293560E+02  0.00000000000E+00 0.  1.
<mgrwt>
<rscale>  0 0.27259592E+04</rscale>
<asrwt>0</asrwt>
<pdfrwt beam="1">  1        2 0.21886625E+00 0.27259592E+04</pdfrwt>
<pdfrwt beam="2">  1       -2 0.20089688E+00 0.27259592E+04</pdfrwt>
<totfact> 0.16135001E+00</totfact>
</mgrwt>
</event>
<event>
12    1  0.1495204E-007  0.1601385E+04  0.7818608E-02  0.8819698E-01
         -2   -1    0    0    0  501 -0.00000000000E+00  0.00000000000E+00  0.41657545386E+03  0.41657545386E+03  0.00000000000E+00 0. -1.
          2   -1    0    0  501    0  0.00000000000E+00 -0.00000000000E+00 -0.15389967414E+04  0.15389967414E+04  0.00000000000E+00 0.  1.
         23    2    1    2    0    0  0.20479543901E+03  0.17181113112E+03 -0.97059521949E+03  0.10109678341E+04  0.92415609508E+02 0.  0.
        254    2    1    2    0    0 -0.20479543901E+03 -0.17181113112E+03 -0.15182606802E+03  0.94460436112E+03  0.89317747816E+03 0.  0.
        -24    2    4    4    0    0  0.25519039917E+03  0.77507698109E+01 -0.32116281380E+03  0.41699567465E+03  0.74549483180E+02 0.  0.
         24    2    4    4    0    0 -0.45998583818E+03 -0.17956190094E+03  0.16933674578E+03  0.52760868647E+03  0.76593374189E+02 0.  0.
         11    1    3    3    0    0  0.14238467693E+02  0.28879964473E+01 -0.17523409271E+03  0.17583532562E+03  0.00000000000E+00 0. -1.
        -11    1    3    3    0    0  0.19055697131E+03  0.16892313468E+03 -0.79536112678E+03  0.83513250849E+03  0.00000000000E+00 0.  1.
          2    1    6    6  502    0 -0.43333060205E+03 -0.15811598632E+03  0.17415841035E+03  0.49305905092E+03  0.00000000000E+00 0. -1.
          3    1    5    5  503    0  0.14326890679E+03 -0.30157667618E+02 -0.19874083606E+03  0.24684688470E+03  0.00000000000E+00 0. -1.
         -4    1    5    5    0  503  0.11192149239E+03  0.37908437429E+02 -0.12242197774E+03  0.17014878994E+03  0.00000000000E+00 0.  1.
         -1    1    6    6    0  502 -0.26655236133E+02 -0.21445914616E+02 -0.48216645701E+01  0.34549635545E+02  0.00000000000E+00 0.  1.
<mgrwt>
<rscale>  0 0.16013847E+04</rscale>
<asrwt>0</asrwt>
<pdfrwt beam="1">  1        2 0.23676872E+00 0.16013847E+04</pdfrwt>
<pdfrwt beam="2">  1       -2 0.64088533E-01 0.16013847E+04</pdfrwt>
<totfact> 0.26034881E+01</totfact>
</mgrwt>
</event>
<event>
12    1  0.1495204E-007  0.2842305E+04  0.7818608E-02  0.8290253E-01
          1   -1    0    0  501    0  0.00000000000E+00  0.00000000000E+00  0.21467147271E+04  0.21467147271E+04  0.00000000000E+00 0. -1.
         -1   -1    0    0    0  501 -0.00000000000E+00 -0.00000000000E+00 -0.94082113689E+03  0.94082113689E+03  0.00000000000E+00 0.  1.
         23    2    1    2    0    0 -0.60122102268E+03 -0.70334032234E+03  0.14980277602E+04  0.17631318035E+04  0.91609273036E+02 0.  0.
        254    2    1    2    0    0  0.60122102268E+03  0.70334032234E+03 -0.29213416993E+03  0.13244040606E+04  0.90141522913E+03 0.  0.
        -24    2    4    4    0    0 -0.13587120518E+03  0.41984903782E+03  0.66088085742E+02  0.45351602080E+03  0.81086047456E+02 0.  0.
         24    2    4    4    0    0  0.73709222786E+03  0.28349128452E+03 -0.35822225567E+03  0.87088803978E+03  0.80315207827E+02 0.  0.
         13    1    3    3    0    0 -0.24582201649E+03 -0.23611642419E+03  0.49641146936E+03  0.60216590444E+03  0.00000000000E+00 0.  1.
        -13    1    3    3    0    0 -0.35539900619E+03 -0.46722389815E+03  0.10016162908E+04  0.11609658990E+04  0.00000000000E+00 0. -1.
          4    1    6    6  502    0  0.60967882441E+03  0.20097728148E+03 -0.29370026638E+03  0.70594616160E+03  0.00000000000E+00 0. -1.
          3    1    5    5  503    0 -0.13222267858E+03  0.31487692910E+03  0.31633107474E+02  0.34297371721E+03  0.00000000000E+00 0. -1.
         -4    1    5    5    0  503 -0.36485266005E+01  0.10497210872E+03  0.34454978268E+02  0.11054230359E+03  0.00000000000E+00 0.  1.
         -3    1    6    6    0  502  0.12741340345E+03  0.82514003044E+02 -0.64521989290E+02  0.16494187818E+03  0.00000000000E+00 0.  1.
<mgrwt>
<rscale>  0 0.28423051E+04</rscale>
<asrwt>0</asrwt>
<pdfrwt beam="1">  1        1 0.33026380E+00 0.28423051E+04</pdfrwt>
<pdfrwt beam="2">  1       -1 0.14474171E+00 0.28423051E+04</pdfrwt>
<totfact> 0.78421160E-01</totfact>
</mgrwt>
</event>
<event>
12    1  0.1495204E-007  0.1607208E+04  0.7818608E-02  0.8816132E-01
         -1   -1    0    0    0  501 -0.00000000000E+00  0.00000000000E+00  0.79177989369E+03  0.79177989369E+03  0.00000000000E+00 0.  1.
          1   -1    0    0  501    0  0.00000000000E+00 -0.00000000000E+00 -0.81560444767E+03  0.81560444767E+03  0.00000000000E+00 0. -1.
         23    2    1    2    0    0 -0.35454980001E+02  0.51077542640E+03 -0.19349731260E+03  0.55568622227E+03  0.95902949974E+02 0.  0.
        254    2    1    2    0    0  0.35454980001E+02 -0.51077542640E+03  0.16967275862E+03  0.10516981191E+04  0.90284633070E+03 0.  0.
        -24    2    4    4    0    0  0.17021930466E+03 -0.60135288409E+03  0.40954744106E+03  0.75124395812E+03  0.77707626766E+02 0.  0.
         24    2    4    4    0    0 -0.13476432466E+03  0.90577457686E+02 -0.23987468244E+03  0.30045416097E+03  0.79794364028E+02 0.  0.
         13    1    3    3    0    0  0.16153049396E+02  0.20691498450E+02  0.41062466568E-01  0.26249967601E+02  0.00000000000E+00 0.  1.
        -13    1    3    3    0    0 -0.51608029397E+02  0.49008392795E+03 -0.19353837506E+03  0.52943625467E+03  0.00000000000E+00 0. -1.
          4    1    6    6  502    0 -0.15102006731E+02  0.10767417992E+02  0.23973044991E+01  0.18701736988E+02  0.00000000000E+00 0. -1.
          3    1    5    5  503    0  0.57092316637E+02 -0.25450971650E+03  0.12881699318E+03  0.29090985914E+03  0.00000000000E+00 0. -1.
         -4    1    5    5    0  503  0.11312698802E+03 -0.34684316759E+03  0.28073044788E+03  0.46033409898E+03  0.00000000000E+00 0.  1.
         -1    1    6    6    0  502 -0.11966231792E+03  0.79810039694E+02 -0.24227198693E+03  0.28175242398E+03  0.00000000000E+00 0.  1.
<mgrwt>
<rscale>  0 0.16072078E+04</rscale>
<asrwt>0</asrwt>
<pdfrwt beam="1">  1        1 0.12547761E+00 0.16072078E+04</pdfrwt>
<pdfrwt beam="2">  1       -1 0.12181229E+00 0.16072078E+04</pdfrwt>
<totfact> 0.12264807E+01</totfact>
</mgrwt>
</event>
<event>
12    1  0.1495204E-007  0.1272916E+04  0.7818608E-02  0.9051323E-01
          2   -1    0    0  501    0  0.00000000000E+00  0.00000000000E+00  0.25537941424E+04  0.25537941424E+04  0.00000000000E+00 0. -1.
         -2   -1    0    0    0  501 -0.00000000000E+00 -0.00000000000E+00 -0.15861830160E+03  0.15861830160E+03  0.00000000000E+00 0.  1.
         23    2    1    2    0    0  0.27300881807E+01  0.28531943100E+03  0.74679421141E+03  0.80462272931E+03  0.91112629454E+02 0.  0.
        254    2    1    2    0    0 -0.27300881807E+01 -0.28531943100E+03  0.16483816294E+04  0.19077897147E+04  0.91710684669E+03 0.  0.
        -24    2    4    4    0    0  0.24419098045E+03 -0.30634570229E+03  0.22281775075E+03  0.45832746506E+03  0.83303006764E+02 0.  0.
         24    2    4    4    0    0 -0.24692106863E+03  0.21026271288E+02  0.14255638786E+04  0.14494622496E+04  0.85418515440E+02 0.  0.
         13    1    3    3    0    0 -0.34052909323E+02  0.19726965116E+03  0.44154941041E+03  0.48481006356E+03  0.00000000000E+00 0. -1.
        -13    1    3    3    0    0  0.36782997504E+02  0.88049779843E+02  0.30524480100E+03  0.31981266575E+03  0.00000000000E+00 0.  1.
          2    1    6    6  502    0 -0.19889597666E+03 -0.30240918036E+01  0.12542518954E+04  0.12699277821E+04  0.00000000000E+00 0. -1.
          3    1    5    5  503    0  0.22852736141E+03 -0.27443564895E+03  0.17220093665E+03  0.39647552625E+03  0.00000000000E+00 0. -1.
         -4    1    5    5    0  503  0.15663619031E+02 -0.31910053334E+02  0.50616814095E+02  0.61851938806E+02  0.00000000000E+00 0.  1.
         -1    1    6    6    0  502 -0.48025091969E+02  0.24050363091E+02  0.17131198328E+03  0.17953446755E+03  0.00000000000E+00 0.  1.
<mgrwt>
<rscale>  0 0.12729155E+04</rscale>
<asrwt>0</asrwt>
<pdfrwt beam="1">  1        2 0.39289138E+00 0.12729155E+04</pdfrwt>
<pdfrwt beam="2">  1       -2 0.24402818E-01 0.12729155E+04</pdfrwt>
<totfact> 0.47948776E+01</totfact>
</mgrwt>
</event>
<event>
12    1  0.1495204E-007  0.1183653E+04  0.7818608E-02  0.9127286E-01
          2   -1    0    0  501    0  0.00000000000E+00  0.00000000000E+00  0.14168282515E+04  0.14168282515E+04  0.00000000000E+00 0. -1.
         -2   -1    0    0    0  501 -0.00000000000E+00 -0.00000000000E+00 -0.24721330604E+03  0.24721330604E+03  0.00000000000E+00 0.  1.
         23    2    1    2    0    0 -0.18177196704E+02  0.98668786489E+02 -0.45483598964E+02  0.14261130625E+03  0.90571998916E+02 0.  0.
        254    2    1    2    0    0  0.18177196704E+02 -0.98668786489E+02  0.12150985444E+04  0.15214302513E+04  0.91006571025E+03 0.  0.
        -24    2    4    4    0    0 -0.43231355129E+03 -0.68449971816E+02  0.47377653976E+03  0.64996890979E+03  0.80093500412E+02 0.  0.
         24    2    4    4    0    0  0.45049074799E+03 -0.30218814673E+02  0.74132200465E+03  0.87146134148E+03  0.77662502746E+02 0.  0.
         11    1    3    3    0    0 -0.36878769474E+01  0.15363278962E+02 -0.55276255176E+02  0.57489957063E+02  0.00000000000E+00 0. -1.
        -11    1    3    3    0    0 -0.14489319756E+02  0.83305507527E+02  0.97926562113E+01  0.85121349185E+02  0.00000000000E+00 0.  1.
          2    1    6    6  502    0  0.42412972781E+03 -0.88906508843E+01  0.68573307002E+03  0.80634664568E+03  0.00000000000E+00 0. -1.
          3    1    5    5  503    0 -0.31391802100E+03 -0.57024406761E+02  0.39291326151E+03  0.50613944516E+03  0.00000000000E+00 0. -1.
         -2    1    5    5    0  503 -0.11839553028E+03 -0.11425565055E+02  0.80863278245E+02  0.14382946463E+03  0.00000000000E+00 0.  1.
         -1    1    6    6    0  502  0.26361020178E+02 -0.21328163789E+02  0.55588934625E+02  0.65114695793E+02  0.00000000000E+00 0.  1.
<mgrwt>
<rscale>  0 0.11836533E+04</rscale>
<asrwt>0</asrwt>
<pdfrwt beam="1">  1        2 0.21797357E+00 0.11836533E+04</pdfrwt>
<pdfrwt beam="2">  1       -2 0.38032817E-01 0.11836533E+04</pdfrwt>
<totfact> 0.91175405E+01</totfact>
</mgrwt>
</event>
<event>
12    1  0.1495204E-007  0.1330100E+04  0.7818608E-02  0.9006030E-01
          2   -1    0    0  501    0  0.00000000000E+00  0.00000000000E+00  0.13637654243E+04  0.13637654243E+04  0.00000000000E+00 0. -1.
         -2   -1    0    0    0  501 -0.00000000000E+00 -0.00000000000E+00 -0.32431639572E+03  0.32431639572E+03  0.00000000000E+00 0.  1.
         23    2    1    2    0    0 -0.44800003746E+03 -0.15144002149E+02  0.49445012437E+03  0.67355188160E+03  0.90872643576E+02 0.  0.
        254    2    1    2    0    0  0.44800003746E+03  0.15144002149E+02  0.54499890424E+03  0.10145299384E+04  0.72891276296E+03 0.  0.
        -24    2    4    4    0    0  0.23533902188E+03  0.33290898332E+03  0.45335926199E+03  0.61502210727E+03  0.80651879109E+02 0.  0.
         24    2    4    4    0    0  0.21266101558E+03 -0.31776498117E+03  0.91639642249E+02  0.39950783118E+03  0.70777060791E+02 0.  0.
         13    1    3    3    0    0 -0.26218018643E+03 -0.52603233241E+02  0.30333356799E+03  0.40437211052E+03  0.00000000000E+00 0. -1.
        -13    1    3    3    0    0 -0.18581985104E+03  0.37459231092E+02  0.19111655639E+03  0.26917977108E+03  0.00000000000E+00 0.  1.
          4    1    6    6  502    0  0.67229672355E+02 -0.71591139371E+02  0.51153126967E+02  0.11073284282E+03  0.00000000000E+00 0. -1.
          3    1    5    5  503    0  0.11500591957E+02  0.53519261170E+02  0.37806537683E+02  0.66527507266E+02  0.00000000000E+00 0. -1.
         -4    1    5    5    0  503  0.22383842993E+03  0.27938972215E+03  0.41555272431E+03  0.54849460001E+03  0.00000000000E+00 0.  1.
         -1    1    6    6    0  502  0.14543134322E+03 -0.24617384180E+03  0.40486515283E+02  0.28877498835E+03  0.00000000000E+00 0.  1.
<mgrwt>
<rscale>  0 0.13301000E+04</rscale>
<asrwt>0</asrwt>
<pdfrwt beam="1">  1        2 0.20981006E+00 0.13301000E+04</pdfrwt>
<pdfrwt beam="2">  1       -2 0.49894831E-01 0.13301000E+04</pdfrwt>
<totfact> 0.56421851E+01</totfact>
</mgrwt>
</event>
<event>
12    1  0.1495204E-007  0.1476756E+04  0.7818608E-02  0.8900059E-01
         -1   -1    0    0    0  501 -0.00000000000E+00  0.00000000000E+00  0.60092027851E+03  0.60092027851E+03  0.00000000000E+00 0.  1.
          1   -1    0    0  501    0  0.00000000000E+00 -0.00000000000E+00 -0.90727892816E+03  0.90727892816E+03  0.00000000000E+00 0. -1.
         23    2    1    2    0    0  0.24468232141E+03 -0.23040374854E+03  0.21422915999E+03  0.40877490905E+03  0.90815568722E+02 0.  0.
        254    2    1    2    0    0 -0.24468232141E+03  0.23040374854E+03 -0.52058780964E+03  0.10994242976E+04  0.90816672086E+03 0.  0.
        -24    2    4    4    0    0 -0.42466398798E+03 -0.80677275497E+01  0.65120331458E+02  0.43774427159E+03  0.83515261054E+02 0.  0.
         24    2    4    4    0    0  0.17998166656E+03  0.23847147609E+03 -0.58570814110E+03  0.66168002603E+03  0.74191543184E+02 0.  0.
         13    1    3    3    0    0  0.19527391184E+03 -0.22500092304E+03  0.17556197429E+03  0.34580243324E+03  0.00000000000E+00 0.  1.
        -13    1    3    3    0    0  0.49408409576E+02 -0.54028255013E+01  0.38667185697E+02  0.62972475813E+02  0.00000000000E+00 0. -1.
          2    1    6    6  502    0  0.15833738926E+03  0.23026836664E+03 -0.56620210696E+03  0.63141038591E+03  0.00000000000E+00 0. -1.
          1    1    5    5  503    0 -0.17024278382E+03 -0.40792529540E+01 -0.15064293441E+02  0.17095665733E+03  0.00000000000E+00 0. -1.
         -2    1    5    5    0  503 -0.25442120415E+03 -0.39884745957E+01  0.80184624900E+02  0.26678761426E+03  0.00000000000E+00 0.  1.
         -1    1    6    6    0  502  0.21644277304E+02  0.82031094506E+01 -0.19506034146E+02  0.30269640116E+02  0.00000000000E+00 0.  1.
<mgrwt>
<rscale>  0 0.14767563E+04</rscale>
<asrwt>0</asrwt>
<pdfrwt beam="1">  1        1 0.13958137E+00 0.14767563E+04</pdfrwt>
<pdfrwt beam="2">  1       -1 0.92449274E-01 0.14767563E+04</pdfrwt>
<totfact> 0.19802467E+01</totfact>
</mgrwt>
</event>
<event>
12    1  0.1495204E-007  0.1637635E+04  0.7818608E-02  0.8797755E-01
         -2   -1    0    0    0  501 -0.00000000000E+00  0.00000000000E+00  0.21192914607E+03  0.21192914607E+03  0.00000000000E+00 0.  1.
          2   -1    0    0  501    0  0.00000000000E+00 -0.00000000000E+00 -0.31636140960E+04  0.31636140960E+04  0.00000000000E+00 0. -1.
         23    2    1    2    0    0 -0.24300872386E+03 -0.50934338592E+03 -0.10369899448E+04  0.11841553756E+04  0.91607222876E+02 0.  0.
        254    2    1    2    0    0  0.24300872386E+03  0.50934338592E+03 -0.19146950051E+04  0.21913878665E+04  0.90423442425E+03 0.  0.
        -24    2    4    4    0    0  0.27545157403E+03  0.85334466462E+02 -0.16661389200E+04  0.16926335653E+04  0.76380266346E+02 0.  0.
         24    2    4    4    0    0 -0.32442850175E+02  0.42400891946E+03 -0.24855608516E+03  0.49875430113E+03  0.78355747189E+02 0.  0.
         13    1    3    3    0    0 -0.14106919056E+03 -0.30136519111E+03 -0.70226152754E+03  0.77710536480E+03  0.00000000000E+00 0. -1.
        -13    1    3    3    0    0 -0.10193953330E+03 -0.20797819481E+03 -0.33472841722E+03  0.40705001076E+03  0.00000000000E+00 0.  1.
          4    1    6    6  502    0  0.18437966140E+02  0.25396266860E+03 -0.15526999746E+03  0.29823777050E+03  0.00000000000E+00 0. -1.
          1    1    5    5  503    0 -0.83097442880E+00 -0.18504683006E+01 -0.64330599390E+00  0.21280493496E+01  0.00000000000E+00 0. -1.
         -2    1    5    5    0  503  0.27628254846E+03  0.87184934763E+02 -0.16654956140E+04  0.16905055160E+04  0.00000000000E+00 0.  1.
         -3    1    6    6    0  502 -0.50880816315E+02  0.17004625085E+03 -0.93286087696E+02  0.20051653063E+03  0.00000000000E+00 0.  1.
<mgrwt>
<rscale>  0 0.16376349E+04</rscale>
<asrwt>0</asrwt>
<pdfrwt beam="1">  1        2 0.48670988E+00 0.16376349E+04</pdfrwt>
<pdfrwt beam="2">  1       -2 0.32604483E-01 0.16376349E+04</pdfrwt>
<totfact> 0.11563198E+01</totfact>
</mgrwt>
</event>
<event>
12    1  0.1495204E-007  0.1384124E+04  0.7818608E-02  0.8965391E-01
         -1   -1    0    0    0  501 -0.00000000000E+00  0.00000000000E+00  0.29274664091E+03  0.29274664091E+03  0.00000000000E+00 0.  1.
          1   -1    0    0  501    0  0.00000000000E+00 -0.00000000000E+00 -0.16360554848E+04  0.16360554848E+04  0.00000000000E+00 0. -1.
         23    2    1    2    0    0  0.12936856554E+03 -0.29165857818E+03 -0.72083894122E+03  0.79367430717E+03  0.92245188010E+02 0.  0.
        254    2    1    2    0    0 -0.12936856554E+03  0.29165857818E+03 -0.62246990262E+03  0.11351278185E+04  0.89400527553E+03 0.  0.
        -24    2    4    4    0    0 -0.31310205809E+03  0.15541261520E+03 -0.77199133031E+03  0.85086189458E+03  0.76219222244E+02 0.  0.
         24    2    4    4    0    0  0.18373349255E+03  0.13624596298E+03  0.14952142769E+03  0.28426592391E+03  0.78291119839E+02 0.  0.
         13    1    3    3    0    0 -0.64324105777E+00 -0.13388820686E+01 -0.62440107667E+02  0.62457773012E+02  0.00000000000E+00 0.  1.
        -13    1    3    3    0    0  0.13001180660E+03 -0.29031969611E+03 -0.65839883355E+03  0.73121653416E+03  0.00000000000E+00 0. -1.
          2    1    6    6  502    0  0.16915792379E+03  0.14662557379E+03  0.13773018287E+03  0.26283657535E+03  0.00000000000E+00 0. -1.
          3    1    5    5  503    0 -0.26363828926E+03  0.14890874955E+03 -0.70554367645E+03  0.76777004541E+03  0.00000000000E+00 0. -1.
         -4    1    5    5    0  503 -0.49463768823E+02  0.65038656431E+01 -0.66447653858E+02  0.83091849165E+02  0.00000000000E+00 0.  1.
         -1    1    6    6    0  502  0.14575568757E+02 -0.10379610809E+02  0.11791244823E+02  0.21429348558E+02  0.00000000000E+00 0.  1.
<mgrwt>
<rscale>  0 0.13841239E+04</rscale>
<asrwt>0</asrwt>
<pdfrwt beam="1">  1        1 0.25170085E+00 0.13841239E+04</pdfrwt>
<pdfrwt beam="2">  1       -1 0.45037944E-01 0.13841239E+04</pdfrwt>
<totfact> 0.25163214E+01</totfact>
</mgrwt>
</event>
<event>
12    1  0.1495204E-007  0.1833413E+04  0.7818608E-02  0.8688730E-01
          2   -1    0    0  501    0  0.00000000000E+00  0.00000000000E+00  0.28715129337E+03  0.28715129337E+03  0.00000000000E+00 0. -1.
         -2   -1    0    0    0  501 -0.00000000000E+00 -0.00000000000E+00 -0.29265093077E+04  0.29265093077E+04  0.00000000000E+00 0.  1.
         23    2    1    2    0    0 -0.16154335694E+03  0.43776308110E+03 -0.10697516936E+03  0.48707373740E+03  0.89801823269E+02 0.  0.
        254    2    1    2    0    0  0.16154335694E+03 -0.43776308110E+03 -0.25323828450E+04  0.27265868637E+04  0.89642639423E+03 0.  0.
        -24    2    4    4    0    0  0.10704333030E+02 -0.57444719509E+01 -0.20685968832E+04  0.20701547896E+04  0.79373837432E+02 0.  0.
         24    2    4    4    0    0  0.15083902391E+03 -0.43201860915E+03 -0.46378596183E+03  0.65643207411E+03  0.80082206169E+02 0.  0.
         13    1    3    3    0    0 -0.75973735401E+02  0.11677763359E+03 -0.43375121341E+01  0.13938378023E+03  0.00000000000E+00 0. -1.
        -13    1    3    3    0    0 -0.85569621538E+02  0.32098544751E+03 -0.10263765722E+03  0.34768995718E+03  0.00000000000E+00 0.  1.
          2    1    6    6  502    0  0.44481750016E+02 -0.23058531352E+03 -0.20555506457E+03  0.31209148894E+03  0.00000000000E+00 0. -1.
          1    1    5    5  503    0  0.31019986846E+02 -0.10861542649E+02 -0.18968673855E+04  0.18971521001E+04  0.00000000000E+00 0. -1.
         -2    1    5    5    0  503 -0.20315653816E+02  0.51170706977E+01 -0.17172949761E+03  0.17300268943E+03  0.00000000000E+00 0.  1.
         -1    1    6    6    0  502  0.10635727389E+03 -0.20143329563E+03 -0.25823089727E+03  0.34434058518E+03  0.00000000000E+00 0.  1.
<mgrwt>
<rscale>  0 0.18334131E+04</rscale>
<asrwt>0</asrwt>
<pdfrwt beam="1">  1        2 0.44177124E-01 0.18334131E+04</pdfrwt>
<pdfrwt beam="2">  1       -2 0.45023219E+00 0.18334131E+04</pdfrwt>
<totfact> 0.37659529E-01</totfact>
</mgrwt>
</event>
<event>
12    1  0.1495204E-007  0.1485660E+04  0.7818608E-02  0.8894045E-01
         -2   -1    0    0    0  501 -0.00000000000E+00  0.00000000000E+00  0.21841162968E+03  0.21841162968E+03  0.00000000000E+00 0.  1.
          2   -1    0    0  501    0  0.00000000000E+00 -0.00000000000E+00 -0.25264064058E+04  0.25264064058E+04  0.00000000000E+00 0. -1.
         23    2    1    2    0    0  0.31952143723E+03  0.26735696865E+02 -0.13622967301E+04  0.14025955135E+04  0.92806504277E+02 0.  0.
        254    2    1    2    0    0 -0.31952143723E+03 -0.26735696865E+02 -0.94569804601E+03  0.13422225220E+04  0.89688781795E+03 0.  0.
        -24    2    4    4    0    0 -0.51796035532E+02  0.39769997707E+03 -0.24899684380E+03  0.47984117500E+03  0.86023391841E+02 0.  0.
         24    2    4    4    0    0 -0.26772540170E+03 -0.42443567393E+03 -0.69670120221E+03  0.86238134700E+03  0.80538751364E+02 0.  0.
         13    1    3    3    0    0  0.14539812531E+03 -0.28481865806E+01 -0.43607892409E+03  0.45968854135E+03  0.00000000000E+00 0.  1.
        -13    1    3    3    0    0  0.17412331192E+03  0.29583883445E+02 -0.92621780601E+03  0.94290697213E+03  0.00000000000E+00 0. -1.
          4    1    6    6  502    0 -0.38142184798E+02 -0.65538437545E+02 -0.62017619528E+02  0.97960697164E+02  0.00000000000E+00 0. -1.
          3    1    5    5  503    0  0.16056679050E+02  0.17989617748E+03 -0.90168627054E+02  0.20186835541E+03  0.00000000000E+00 0. -1.
         -4    1    5    5    0  503 -0.67852714582E+02  0.21780379959E+03 -0.15882821674E+03  0.27797281958E+03  0.00000000000E+00 0.  1.
         -3    1    6    6    0  502 -0.22958321690E+03 -0.35889723639E+03 -0.63468358269E+03  0.76442064984E+03  0.00000000000E+00 0.  1.
<mgrwt>
<rscale>  0 0.14856602E+04</rscale>
<asrwt>0</asrwt>
<pdfrwt beam="1">  1        2 0.38867791E+00 0.14856602E+04</pdfrwt>
<pdfrwt beam="2">  1       -2 0.33601789E-01 0.14856602E+04</pdfrwt>
<totfact> 0.26997838E+01</totfact>
</mgrwt>
</event>
<event>
12    1  0.1495204E-007  0.1438973E+04  0.7818608E-02  0.8926081E-01
          2   -1    0    0  501    0  0.00000000000E+00  0.00000000000E+00  0.13364559782E+04  0.13364559782E+04  0.00000000000E+00 0. -1.
         -2   -1    0    0    0  501 -0.00000000000E+00 -0.00000000000E+00 -0.38733826310E+03  0.38733826310E+03  0.00000000000E+00 0.  1.
         23    2    1    2    0    0 -0.15131721200E+02  0.13788743562E+03  0.81702256023E+03  0.83457853385E+03  0.98760069601E+02 0.  0.
        254    2    1    2    0    0  0.15131721200E+02 -0.13788743562E+03  0.13209515490E+03  0.88921570747E+03  0.86833952494E+03 0.  0.
        -24    2    4    4    0    0  0.11211177247E+03  0.24974608378E+02 -0.34370358647E+03  0.37111214634E+03  0.79995557449E+02 0.  0.
         24    2    4    4    0    0 -0.96980051270E+02 -0.16286204400E+03  0.47579874137E+03  0.51810356113E+03  0.78215612579E+02 0.  0.
         11    1    3    3    0    0 -0.16970804924E+02 -0.11353174412E+02  0.77457972269E+02  0.80103934092E+02  0.00000000000E+00 0.  1.
        -11    1    3    3    0    0  0.18390837241E+01  0.14924061003E+03  0.73956458796E+03  0.75447459975E+03  0.00000000000E+00 0. -1.
          4    1    6    6  502    0 -0.35933832507E+02 -0.33560676730E+02  0.21630034358E+03  0.22181838963E+03  0.00000000000E+00 0. -1.
          1    1    5    5  503    0  0.21914686341E+02  0.43202978835E+01 -0.93910804605E+01  0.24230370270E+02  0.00000000000E+00 0. -1.
         -2    1    5    5    0  503  0.90197086130E+02  0.20654310494E+02 -0.33431250601E+03  0.34688177606E+03  0.00000000000E+00 0.  1.
         -3    1    6    6    0  502 -0.61046218763E+02 -0.12930136727E+03  0.25949839779E+03  0.29628517151E+03  0.00000000000E+00 0.  1.
<mgrwt>
<rscale>  0 0.14389726E+04</rscale>
<asrwt>0</asrwt>
<pdfrwt beam="1">  1        2 0.20560861E+00 0.14389726E+04</pdfrwt>
<pdfrwt beam="2">  1       -2 0.59590503E-01 0.14389726E+04</pdfrwt>
<totfact> 0.40148658E+01</totfact>
</mgrwt>
</event>
<event>
12    1  0.1495204E-007  0.1128777E+04  0.7818608E-02  0.9177589E-01
          1   -1    0    0  501    0  0.00000000000E+00  0.00000000000E+00  0.54099822041E+03  0.54099822041E+03  0.00000000000E+00 0. -1.
         -1   -1    0    0    0  501 -0.00000000000E+00 -0.00000000000E+00 -0.58878979925E+03  0.58878979925E+03  0.00000000000E+00 0.  1.
         23    2    1    2    0    0  0.14492607984E+03 -0.42290805497E+02  0.37062895921E+02  0.18104020069E+03  0.92789089678E+02 0.  0.
        254    2    1    2    0    0 -0.14492607984E+03  0.42290805497E+02 -0.84854474768E+02  0.94874781897E+03  0.93280762286E+03 0.  0.
        -24    2    4    4    0    0 -0.31302160013E+03  0.41035450718E+03 -0.11698647938E+03  0.53524909831E+03  0.80202351428E+02 0.  0.
         24    2    4    4    0    0  0.16809552029E+03 -0.36806370168E+03  0.32132004608E+02  0.41349872066E+03  0.78877967953E+02 0.  0.
         11    1    3    3    0    0  0.55751805529E+02 -0.12131322447E+02  0.61391055483E+02  0.83811064290E+02  0.00000000000E+00 0. -1.
        -11    1    3    3    0    0  0.89174274315E+02 -0.30159483050E+02 -0.24328159563E+02  0.97229136400E+02  0.00000000000E+00 0.  1.
          2    1    6    6  502    0  0.11091485710E+03 -0.24022099005E+03 -0.16864043826E+02  0.26512756469E+03  0.00000000000E+00 0. -1.
          1    1    5    5  503    0 -0.26694515928E+03  0.34267923633E+03 -0.67535376332E+02  0.43960187003E+03  0.00000000000E+00 0. -1.
         -2    1    5    5    0  503 -0.46076440846E+02  0.67675270853E+02 -0.49451103045E+02  0.95647228284E+02  0.00000000000E+00 0.  1.
         -1    1    6    6    0  502  0.57180663190E+02 -0.12784271164E+03  0.48996048434E+02  0.14837115597E+03  0.00000000000E+00 0.  1.
<mgrwt>
<rscale>  0 0.11287767E+04</rscale>
<asrwt>0</asrwt>
<pdfrwt beam="1">  1        1 0.83230495E-01 0.11287767E+04</pdfrwt>
<pdfrwt beam="2">  1       -1 0.90583047E-01 0.11287767E+04</pdfrwt>
<totfact> 0.47053836E+01</totfact>
</mgrwt>
</event>
<event>
12    1  0.1495204E-007  0.1437366E+04  0.7818608E-02  0.8927206E-01
         -2   -1    0    0    0  501 -0.00000000000E+00  0.00000000000E+00  0.38627198272E+03  0.38627198272E+03  0.00000000000E+00 0.  1.
          2   -1    0    0  501    0  0.00000000000E+00 -0.00000000000E+00 -0.13371547153E+04  0.13371547153E+04  0.00000000000E+00 0. -1.
         23    2    1    2    0    0  0.26839882116E+03  0.21495836378E+03 -0.18934411997E+03  0.40303816599E+03  0.91342991629E+02 0.  0.
        254    2    1    2    0    0 -0.26839882116E+03 -0.21495836378E+03 -0.76153861260E+03  0.13203885320E+04  0.10223696942E+04 0.  0.
        -24    2    4    4    0    0 -0.41503848472E+03  0.71908459717E+02  0.61024211731E+02  0.43339354381E+03  0.81720493245E+02 0.  0.
         24    2    4    4    0    0  0.14663966357E+03 -0.28686682349E+03 -0.82256282433E+03  0.88699498821E+03  0.79716646895E+02 0.  0.
         13    1    3    3    0    0  0.10691145627E+03  0.92323382251E+02 -0.28233402907E+02  0.14405134998E+03  0.00000000000E+00 0.  1.
        -13    1    3    3    0    0  0.16148736488E+03  0.12263498153E+03 -0.16111071707E+03  0.25898681601E+03  0.00000000000E+00 0. -1.
          4    1    6    6  502    0  0.10715770830E+03 -0.23200493100E+03 -0.72141017100E+03  0.76533763613E+03  0.00000000000E+00 0. -1.
          1    1    5    5  503    0 -0.14237944934E+03  0.81584402030E+01  0.56349824463E+02  0.15334200487E+03  0.00000000000E+00 0. -1.
         -2    1    5    5    0  503 -0.27265903538E+03  0.63750019514E+02  0.46743872681E+01  0.28005153893E+03  0.00000000000E+00 0.  1.
         -3    1    6    6    0  502  0.39481955263E+02 -0.54861892497E+02 -0.10115265332E+03  0.12165735208E+03  0.00000000000E+00 0.  1.
<mgrwt>
<rscale>  0 0.14373662E+04</rscale>
<asrwt>0</asrwt>
<pdfrwt beam="1">  1        2 0.20571611E+00 0.14373662E+04</pdfrwt>
<pdfrwt beam="2">  1       -2 0.59426460E-01 0.14373662E+04</pdfrwt>
<totfact> 0.40350274E+01</totfact>
</mgrwt>
</event>
<event>
12    1  0.1495204E-007  0.2179244E+04  0.7818608E-02  0.8527117E-01
         -1   -1    0    0    0  501 -0.00000000000E+00  0.00000000000E+00  0.12789260040E+04  0.12789260040E+04  0.00000000000E+00 0.  1.
          1   -1    0    0  501    0  0.00000000000E+00 -0.00000000000E+00 -0.92833866006E+03  0.92833866006E+03  0.00000000000E+00 0. -1.
         23    2    1    2    0    0  0.53330010293E+03 -0.69411503017E+03 -0.65409972674E+02  0.88363419159E+03  0.10161813383E+03 0.  0.
        254    2    1    2    0    0 -0.53330010293E+03  0.69411503017E+03  0.41599731658E+03  0.13236304724E+04  0.90152048521E+03 0.  0.
        -24    2    4    4    0    0 -0.20458317942E+03  0.73215048364E+03 -0.26833365856E+02  0.76533061940E+03  0.84334568621E+02 0.  0.
         24    2    4    4    0    0 -0.32871692351E+03 -0.38035453470E+02  0.44283068244E+03  0.55829985304E+03  0.78090979451E+02 0.  0.
         11    1    3    3    0    0  0.41980483286E+03 -0.49464019501E+03 -0.16520827283E+02  0.64898224780E+03  0.00000000000E+00 0. -1.
        -11    1    3    3    0    0  0.11349527007E+03 -0.19947483516E+03 -0.48889145391E+02  0.23465194379E+03  0.00000000000E+00 0.  1.
          4    1    6    6  502    0 -0.21125373932E+03 -0.55345785140E+02  0.25106950373E+03  0.33275695937E+03  0.00000000000E+00 0. -1.
          3    1    5    5  503    0 -0.16528316194E+03  0.64544809854E+03 -0.47337174421E+02  0.66795402508E+03  0.00000000000E+00 0. -1.
         -4    1    5    5    0  503 -0.39300017481E+02  0.86702385099E+02  0.20503808564E+02  0.97376594320E+02  0.00000000000E+00 0.  1.
         -3    1    6    6    0  502 -0.11746318419E+03  0.17310331670E+02  0.19176117871E+03  0.22554289367E+03  0.00000000000E+00 0.  1.
<mgrwt>
<rscale>  0 0.21792443E+04</rscale>
<asrwt>0</asrwt>
<pdfrwt beam="1">  1        1 0.14282133E+00 0.21792443E+04</pdfrwt>
<pdfrwt beam="2">  1       -1 0.19675785E+00 0.21792443E+04</pdfrwt>
<totfact> 0.24975574E+00</totfact>
</mgrwt>
</event>
<event>
12    1  0.1495204E-007  0.1474001E+04  0.7818608E-02  0.8901928E-01
         -2   -1    0    0    0  501 -0.00000000000E+00  0.00000000000E+00  0.15952355691E+03  0.15952355691E+03  0.00000000000E+00 0.  1.
          2   -1    0    0  501    0  0.00000000000E+00 -0.00000000000E+00 -0.34049506540E+04  0.34049506540E+04  0.00000000000E+00 0. -1.
         23    2    1    2    0    0  0.20645878519E+03  0.37976124733E+03 -0.71702797153E+03  0.84263673308E+03  0.95203555773E+02 0.  0.
        254    2    1    2    0    0 -0.20645878519E+03 -0.37976124733E+03 -0.25283991255E+04  0.27218374778E+04  0.91035887572E+03 0.  0.
        -24    2    4    4    0    0 -0.31938347946E+03 -0.47190662521E+03 -0.24833834583E+04  0.25491577280E+04  0.79435833292E+02 0.  0.
         24    2    4    4    0    0  0.11292469427E+03  0.92145377886E+02 -0.45015667221E+02  0.17267974974E+03  0.80926685552E+02 0.  0.
         13    1    3    3    0    0  0.19492274540E+03  0.38313671029E+03 -0.70436140088E+03  0.82517488965E+03  0.00000000000E+00 0.  1.
        -13    1    3    3    0    0  0.11536039792E+02 -0.33754629653E+01 -0.12666570646E+02  0.17461843438E+02  0.00000000000E+00 0. -1.
          4    1    6    6  502    0  0.14665386540E+01  0.87613960781E+01 -0.31614829561E+02  0.32839157191E+02  0.00000000000E+00 0. -1.
          1    1    5    5  503    0 -0.20367855271E+02 -0.75977659177E+01 -0.13295853998E+03  0.13472397310E+03  0.00000000000E+00 0. -1.
         -2    1    5    5    0  503 -0.29901562419E+03 -0.46430885929E+03 -0.23504249183E+04  0.24144337549E+04  0.00000000000E+00 0.  1.
         -3    1    6    6    0  502  0.11145815562E+03  0.83383981808E+02 -0.13400837660E+02  0.13984059255E+03  0.00000000000E+00 0.  1.
<mgrwt>
<rscale>  0 0.14740011E+04</rscale>
<asrwt>0</asrwt>
<pdfrwt beam="1">  1        2 0.52383853E+00 0.14740011E+04</pdfrwt>
<pdfrwt beam="2">  1       -2 0.24542087E-01 0.14740011E+04</pdfrwt>
<totfact> 0.13768900E+01</totfact>
</mgrwt>
</event>
<event>
12    1  0.1495204E-007  0.1835950E+04  0.7818608E-02  0.8687412E-01
         -2   -1    0    0    0  501 -0.00000000000E+00  0.00000000000E+00  0.67932950943E+03  0.67932950943E+03  0.00000000000E+00 0.  1.
          2   -1    0    0  501    0  0.00000000000E+00 -0.00000000000E+00 -0.12404550706E+04  0.12404550706E+04  0.00000000000E+00 0. -1.
         23    2    1    2    0    0  0.47619119649E+03 -0.38065108295E+03  0.18878356534E+03  0.64562889588E+03  0.97694084193E+02 0.  0.
        254    2    1    2    0    0 -0.47619119649E+03  0.38065108295E+03 -0.74990912651E+03  0.12741556842E+04  0.83033469570E+03 0.  0.
        -24    2    4    4    0    0  0.33664315962E+02 -0.11748827619E+03  0.88304350212E+02  0.17095737404E+03  0.80572850648E+02 0.  0.
         24    2    4    4    0    0 -0.50985551245E+03  0.49813935915E+03 -0.83821347672E+03  0.11031983101E+04  0.79681956366E+02 0.  0.
         13    1    3    3    0    0  0.41918569438E+03 -0.35213445920E+03  0.19597950266E+03  0.58148369641E+03  0.00000000000E+00 0. -1.
        -13    1    3    3    0    0  0.57005502113E+02 -0.28516623750E+02 -0.71959373197E+01  0.64145199471E+02  0.00000000000E+00 0.  1.
          4    1    6    6  502    0 -0.36467400099E+03  0.30393495513E+03 -0.54861401589E+03  0.72549357156E+03  0.00000000000E+00 0. -1.
          1    1    5    5  503    0  0.24587602173E+02 -0.50256984957E+02  0.86591959783E+02  0.10309453049E+03  0.00000000000E+00 0. -1.
         -2    1    5    5    0  503  0.90767137887E+01 -0.67231291236E+02  0.17123904294E+01  0.67862843555E+02  0.00000000000E+00 0.  1.
         -3    1    6    6    0  502 -0.14518151146E+03  0.19420440401E+03 -0.28959946083E+03  0.37770473855E+03  0.00000000000E+00 0.  1.
<mgrwt>
<rscale>  0 0.18359496E+04</rscale>
<asrwt>0</asrwt>
<pdfrwt beam="1">  1        2 0.19083924E+00 0.18359496E+04</pdfrwt>
<pdfrwt beam="2">  1       -2 0.10451223E+00 0.18359496E+04</pdfrwt>
<totfact> 0.12541283E+01</totfact>
</mgrwt>
</event>
<event>
12    1  0.1495204E-007  0.1274973E+04  0.7818608E-02  0.9049651E-01
         -2   -1    0    0    0  501 -0.00000000000E+00  0.00000000000E+00  0.12266081323E+03  0.12266081323E+03  0.00000000000E+00 0.  1.
          2   -1    0    0  501    0  0.00000000000E+00 -0.00000000000E+00 -0.33131098617E+04  0.33131098617E+04  0.00000000000E+00 0. -1.
         23    2    1    2    0    0  0.21933204302E+03 -0.19750859887E+03 -0.10519126815E+04  0.10962800934E+04  0.90518296376E+02 0.  0.
        254    2    1    2    0    0 -0.21933204302E+03  0.19750859887E+03 -0.21385363670E+04  0.23394905815E+04  0.90153324756E+03 0.  0.
        -24    2    4    4    0    0 -0.19183067495E+03  0.52124369477E+03 -0.93456234085E+03  0.10899916162E+04  0.78619063772E+02 0.  0.
         24    2    4    4    0    0 -0.27501368066E+02 -0.32373509590E+03 -0.12039740261E+04  0.12494989654E+04  0.78316481546E+02 0.  0.
         11    1    3    3    0    0 -0.88727927987E+01 -0.51987135072E+01 -0.33564887671E+02  0.35104910747E+02  0.00000000000E+00 0. -1.
        -11    1    3    3    0    0  0.22820483582E+03 -0.19230988536E+03 -0.10183477938E+04  0.10611751826E+04  0.00000000000E+00 0.  1.
          2    1    6    6  502    0 -0.49251747254E+02 -0.28534583482E+03 -0.10197804848E+04  0.10600944379E+04  0.00000000000E+00 0. -1.
          1    1    5    5  503    0 -0.79284319757E+02  0.32688451205E+03 -0.55850607472E+03  0.65197279320E+03  0.00000000000E+00 0. -1.
         -2    1    5    5    0  503 -0.11254635519E+03  0.19435918272E+03 -0.37605626613E+03  0.43801882297E+03  0.00000000000E+00 0.  1.
         -1    1    6    6    0  502  0.21750379188E+02 -0.38389261086E+02 -0.18419354132E+03  0.18940452746E+03  0.00000000000E+00 0.  1.
<mgrwt>
<rscale>  0 0.12749725E+04</rscale>
<asrwt>0</asrwt>
<pdfrwt beam="1">  1        2 0.50970917E+00 0.12749725E+04</pdfrwt>
<pdfrwt beam="2">  1       -2 0.18870896E-01 0.12749725E+04</pdfrwt>
<totfact> 0.25823518E+01</totfact>
</mgrwt>
</event>
<event>
12    1  0.1495204E-007  0.1236765E+04  0.7818608E-02  0.9081271E-01
         -2   -1    0    0    0  501 -0.00000000000E+00  0.00000000000E+00  0.22119040626E+03  0.22119040626E+03  0.00000000000E+00 0.  1.
          2   -1    0    0  501    0  0.00000000000E+00 -0.00000000000E+00 -0.17288140468E+04  0.17288140468E+04  0.00000000000E+00 0. -1.
         23    2    1    2    0    0 -0.10464259338E+03  0.16205652794E+02  0.61830028571E+02  0.15636961371E+03  0.97035087088E+02 0.  0.
        254    2    1    2    0    0  0.10464259338E+03 -0.16205652794E+02 -0.15694536691E+04  0.17936348393E+04  0.86181693061E+03 0.  0.
        -24    2    4    4    0    0  0.16908928192E+03 -0.38114766070E+03 -0.11608389705E+04  0.12360564981E+04  0.80148777796E+02 0.  0.
         24    2    4    4    0    0 -0.64446688538E+02  0.36494200791E+03 -0.40861469860E+03  0.55757834122E+03  0.81188606878E+02 0.  0.
         11    1    3    3    0    0 -0.21468914866E+02 -0.23146837408E+02  0.55858241876E+02  0.64162555849E+02  0.00000000000E+00 0.  1.
        -11    1    3    3    0    0 -0.83173678516E+02  0.39352490202E+02  0.59717866949E+01  0.92207057861E+02  0.00000000000E+00 0. -1.
          4    1    6    6  502    0 -0.38670909373E+02  0.31527565954E+03 -0.37819304249E+03  0.49388678674E+03  0.00000000000E+00 0. -1.
          1    1    5    5  503    0  0.81972092061E+02 -0.19579792441E+03 -0.47452562332E+03  0.51983729981E+03  0.00000000000E+00 0. -1.
         -2    1    5    5    0  503  0.87117189859E+02 -0.18534973629E+03 -0.68631334715E+03  0.71621919829E+03  0.00000000000E+00 0.  1.
         -3    1    6    6    0  502 -0.25775779165E+02  0.49666348365E+02 -0.30421656118E+02  0.63691554483E+02  0.00000000000E+00 0.  1.
<mgrwt>
<rscale>  0 0.12367653E+04</rscale>
<asrwt>0</asrwt>
<pdfrwt beam="1">  1        2 0.26597141E+00 0.12367653E+04</pdfrwt>
<pdfrwt beam="2">  1       -2 0.34029292E-01 0.12367653E+04</pdfrwt>
<totfact> 0.75204141E+01</totfact>
</mgrwt>
</event>
<event>
12    1  0.1495204E-007  0.2847947E+04  0.7818608E-02  0.8288535E-01
         -2   -1    0    0    0  501 -0.00000000000E+00  0.00000000000E+00  0.17598620887E+04  0.17598620887E+04  0.00000000000E+00 0.  1.
          2   -1    0    0  501    0  0.00000000000E+00 -0.00000000000E+00 -0.11521931442E+04  0.11521931442E+04  0.00000000000E+00 0. -1.
         23    2    1    2    0    0  0.63385332685E+03 -0.10151643526E+04  0.73917780744E+03  0.14096956445E+04  0.92354081756E+02 0.  0.
        254    2    1    2    0    0 -0.63385332685E+03  0.10151643526E+04 -0.13150886298E+03  0.15023595884E+04  0.89858836454E+03 0.  0.
        -24    2    4    4    0    0  0.39199117780E+02  0.32344176700E+03  0.29214121306E+03  0.44497482549E+03  0.80653329001E+02 0.  0.
         24    2    4    4    0    0 -0.67305244462E+03  0.69172258563E+03 -0.42365007604E+03  0.10573847629E+04  0.84281795908E+02 0.  0.
         11    1    3    3    0    0  0.59968590596E+02 -0.54992150208E+02  0.41307826676E+02  0.91250780749E+02  0.00000000000E+00 0. -1.
        -11    1    3    3    0    0  0.57388473625E+03 -0.96017220241E+03  0.69786998076E+03  0.13184448638E+04  0.00000000000E+00 0.  1.
          4    1    6    6  502    0 -0.30963393475E+03  0.30062284966E+03 -0.14579999300E+03  0.45552706752E+03  0.00000000000E+00 0. -1.
          3    1    5    5  503    0  0.58168039138E+02  0.18021327503E+03  0.14272647184E+03  0.23713116842E+03  0.00000000000E+00 0. -1.
         -4    1    5    5    0  503 -0.18968921358E+02  0.14322849197E+03  0.14941474123E+03  0.20784365707E+03  0.00000000000E+00 0.  1.
         -3    1    6    6    0  502 -0.36341850987E+03  0.39109973596E+03 -0.27785008305E+03  0.60185769534E+03  0.00000000000E+00 0.  1.
<mgrwt>
<rscale>  0 0.28479474E+04</rscale>
<asrwt>0</asrwt>
<pdfrwt beam="1">  1        2 0.17726048E+00 0.28479474E+04</pdfrwt>
<pdfrwt beam="2">  1       -2 0.27074801E+00 0.28479474E+04</pdfrwt>
<totfact> 0.84134429E-01</totfact>
</mgrwt>
</event>
<event>
12    1  0.1495204E-007  0.1480556E+04  0.7818608E-02  0.8897487E-01
         -1   -1    0    0    0  501 -0.00000000000E+00  0.00000000000E+00  0.24204668790E+03  0.24204668790E+03  0.00000000000E+00 0.  1.
          1   -1    0    0  501    0  0.00000000000E+00 -0.00000000000E+00 -0.22640729339E+04  0.22640729339E+04  0.00000000000E+00 0. -1.
         23    2    1    2    0    0 -0.28564775249E+03 -0.18465071422E+03 -0.11268763544E+03  0.36902342587E+03  0.88256789509E+02 0.  0.
        254    2    1    2    0    0  0.28564775249E+03  0.18465071422E+03 -0.19093386106E+04  0.21370961960E+04  0.89772807474E+03 0.  0.
        -24    2    4    4    0    0  0.12511664168E+03  0.54083544969E+03 -0.11495601318E+04  0.12790422670E+04  0.79394372897E+02 0.  0.
         24    2    4    4    0    0  0.16053111081E+03 -0.35618473547E+03 -0.75977847879E+03  0.85805392898E+03  0.79720793382E+02 0.  0.
         11    1    3    3    0    0 -0.26423264842E+03 -0.14504378801E+03 -0.75780029161E+02  0.31080412763E+03  0.00000000000E+00 0.  1.
        -11    1    3    3    0    0 -0.21415104066E+02 -0.39606926206E+02 -0.36907606281E+02  0.58219298235E+02  0.00000000000E+00 0. -1.
          4    1    6    6  502    0  0.14936962365E+03 -0.35604881024E+03 -0.74830460159E+03  0.84204620806E+03  0.00000000000E+00 0. -1.
          3    1    5    5  503    0  0.12693025748E+03  0.41179461518E+03 -0.85493978947E+03  0.95739654218E+03  0.00000000000E+00 0. -1.
         -4    1    5    5    0  503 -0.18136157994E+01  0.12904083451E+03 -0.29462034232E+03  0.32164572480E+03  0.00000000000E+00 0.  1.
         -3    1    6    6    0  502  0.11161487163E+02 -0.13592523222E+00 -0.11473877192E+02  0.16007720924E+02  0.00000000000E+00 0.  1.
<mgrwt>
<rscale>  0 0.14805558E+04</rscale>
<asrwt>0</asrwt>
<pdfrwt beam="1">  1        1 0.34831893E+00 0.14805558E+04</pdfrwt>
<pdfrwt beam="2">  1       -1 0.37237950E-01 0.14805558E+04</pdfrwt>
<totfact> 0.13263498E+01</totfact>
</mgrwt>
</event>
<event>
12    1  0.1495204E-007  0.1307805E+04  0.7818608E-02  0.9023399E-01
         -2   -1    0    0    0  501 -0.00000000000E+00  0.00000000000E+00  0.19245522118E+03  0.19245522118E+03  0.00000000000E+00 0. -1.
          2   -1    0    0  501    0  0.00000000000E+00 -0.00000000000E+00 -0.22217554959E+04  0.22217554959E+04  0.00000000000E+00 0.  1.
         23    2    1    2    0    0 -0.14847220100E+03  0.24639986312E+03 -0.22064425818E+03  0.37283143949E+03  0.86962673517E+02 0.  0.
        254    2    1    2    0    0  0.14847220100E+03 -0.24639986312E+03 -0.18086560166E+04  0.20413792776E+04  0.90179592028E+03 0.  0.
        -24    2    4    4    0    0 -0.90683418397E+02 -0.36328594143E+03 -0.17002948613E+04  0.17430870191E+04  0.84555207345E+02 0.  0.
         24    2    4    4    0    0  0.23915561940E+03  0.11688607831E+03 -0.10836115528E+03  0.29829225857E+03  0.79864672744E+02 0.  0.
         11    1    3    3    0    0 -0.14654325654E+03  0.20341542970E+03 -0.21333410926E+03  0.32918718877E+03  0.00000000000E+00 0. -1.
        -11    1    3    3    0    0 -0.19289444655E+01  0.42984433422E+02 -0.73101489188E+01  0.43644250716E+02  0.00000000000E+00 0.  1.
          2    1    6    6  502    0  0.21881010059E+03  0.11189435008E+03 -0.12088828495E+03  0.27388352112E+03  0.00000000000E+00 0. -1.
          1    1    5    5  503    0 -0.10470173255E+03 -0.34574386295E+03 -0.15884672474E+04  0.16290271537E+04  0.00000000000E+00 0. -1.
         -2    1    5    5    0  503  0.14018314152E+02 -0.17542078484E+02 -0.11182761392E+03  0.11405986535E+03  0.00000000000E+00 0.  1.
         -1    1    6    6    0  502  0.20345518808E+02  0.49917282276E+01  0.12527129664E+02  0.24408737449E+02  0.00000000000E+00 0.  1.
<mgrwt>
<rscale>  0 0.13078049E+04</rscale>
<asrwt>0</asrwt>
<pdfrwt beam="1">  1        2 0.34180855E+00 0.13078049E+04</pdfrwt>
<pdfrwt beam="2">  1       -2 0.29608495E-01 0.13078049E+04</pdfrwt>
<totfact> 0.51797352E+01</totfact>
</mgrwt>
</event>
<event>
12    1  0.1495204E-007  0.1565630E+04  0.7818608E-02  0.8841945E-01
         -2   -1    0    0    0  501 -0.00000000000E+00  0.00000000000E+00  0.93792145031E+03  0.93792145031E+03  0.00000000000E+00 0.  1.
          2   -1    0    0  501    0  0.00000000000E+00 -0.00000000000E+00 -0.65335894610E+03  0.65335894610E+03  0.00000000000E+00 0. -1.
         23    2    1    2    0    0  0.11343795349E+03  0.48393111388E+03  0.24702273530E+03  0.56288429046E+03  0.93600215928E+02 0.  0.
        254    2    1    2    0    0 -0.11343795349E+03 -0.48393111388E+03  0.37539768906E+02  0.10283961059E+04  0.89951755080E+03 0.  0.
        -24    2    4    4    0    0  0.39285942781E+02  0.15609856819E+03 -0.24943642955E+03  0.30612549109E+03  0.74727074168E+02 0.  0.
         24    2    4    4    0    0 -0.15272389627E+03 -0.64002968207E+03  0.28697619846E+03  0.72227061486E+03  0.79730296544E+02 0.  0.
         11    1    3    3    0    0  0.57624122179E+02  0.23470488940E+03  0.17220527357E+03  0.29675171577E+03  0.00000000000E+00 0. -1.
        -11    1    3    3    0    0  0.55813831306E+02  0.24922622448E+03  0.74817461727E+02  0.26613257469E+03  0.00000000000E+00 0.  1.
          2    1    6    6  502    0 -0.56707241302E+01 -0.14672856565E+02  0.22707997698E+02  0.27624318840E+02  0.00000000000E+00 0. -1.
          3    1    5    5  503    0  0.32431186597E+01 -0.55280379671E+01 -0.32942354596E+02  0.33560032013E+02  0.00000000000E+00 0. -1.
         -4    1    5    5    0  503  0.36042824121E+02  0.16162660616E+03 -0.21649407496E+03  0.27256545907E+03  0.00000000000E+00 0.  1.
         -1    1    6    6    0  502 -0.14705317214E+03 -0.62535682550E+03  0.26426820076E+03  0.69464629602E+03  0.00000000000E+00 0.  1.
<mgrwt>
<rscale>  0 0.15656301E+04</rscale>
<asrwt>0</asrwt>
<pdfrwt beam="1">  1        2 0.10051676E+00 0.15656301E+04</pdfrwt>
<pdfrwt beam="2">  1       -2 0.14429561E+00 0.15656301E+04</pdfrwt>
<totfact> 0.14247830E+01</totfact>
</mgrwt>
</event>
<event>
12    1  0.1495204E-007  0.3081931E+04  0.7818608E-02  0.8220714E-01
         -2   -1    0    0    0  501 -0.00000000000E+00  0.00000000000E+00  0.60119365830E+03  0.60119365830E+03  0.00000000000E+00 0.  1.
          2   -1    0    0  501    0  0.00000000000E+00 -0.00000000000E+00 -0.39497662742E+04  0.39497662742E+04  0.00000000000E+00 0. -1.
         23    2    1    2    0    0 -0.17972249535E+03  0.10639795089E+04 -0.28714095488E+04  0.30688039599E+04  0.90622163538E+02 0.  0.
        254    2    1    2    0    0  0.17972249535E+03 -0.10639795089E+04 -0.47716306708E+03  0.14821559726E+04  0.89707812576E+03 0.  0.
        -24    2    4    4    0    0 -0.76942789651E+02 -0.11200600844E+04 -0.42075801702E+03  0.12015666455E+04  0.79185284521E+02 0.  0.
         24    2    4    4    0    0  0.25666528500E+03  0.56080575415E+02 -0.56405050067E+02  0.28058932708E+03  0.80788249967E+02 0.  0.
         11    1    3    3    0    0  0.10117058037E+02  0.71705218205E+02 -0.17908050681E+03  0.19316785731E+03  0.00000000000E+00 0.  1.
        -11    1    3    3    0    0 -0.18983955339E+03  0.99227429074E+03 -0.26923290420E+04  0.28756361026E+04  0.00000000000E+00 0. -1.
          2    1    6    6  502    0  0.24490626459E+03  0.69325598078E+02 -0.42459420962E+02  0.25804635128E+03  0.00000000000E+00 0. -1.
          3    1    5    5  503    0 -0.31796368602E+02 -0.85010327172E+03 -0.34077508114E+03  0.91641379168E+03  0.00000000000E+00 0. -1.
         -2    1    5    5    0  503 -0.45146421050E+02 -0.26995681264E+03 -0.79982935876E+02  0.28515285384E+03  0.00000000000E+00 0.  1.
         -1    1    6    6    0  502  0.11759020415E+02 -0.13245022663E+02 -0.13945629105E+02  0.22542975793E+02  0.00000000000E+00 0.  1.
<mgrwt>
<rscale>  0 0.30819308E+04</rscale>
<asrwt>0</asrwt>
<pdfrwt beam="1">  1        2 0.60765633E+00 0.30819308E+04</pdfrwt>
<pdfrwt beam="2">  1       -2 0.92491335E-01 0.30819308E+04</pdfrwt>
<totfact> 0.31635512E-01</totfact>
</mgrwt>
</event>
<event>
12    1  0.1495204E-007  0.1581675E+04  0.7818608E-02  0.8831885E-01
          1   -1    0    0  501    0  0.00000000000E+00  0.00000000000E+00  0.12659393588E+04  0.12659393588E+04  0.00000000000E+00 0. -1.
         -1   -1    0    0    0  501 -0.00000000000E+00 -0.00000000000E+00 -0.49403972313E+03  0.49403972313E+03  0.00000000000E+00 0.  1.
         23    2    1    2    0    0 -0.24454488781E+03  0.19077809101E+03 -0.21458544050E+03  0.38762444602E+03  0.89483617052E+02 0.  0.
        254    2    1    2    0    0  0.24454488781E+03 -0.19077809101E+03  0.98648507616E+03  0.13723546359E+04  0.90222278792E+03 0.  0.
        -24    2    4    4    0    0  0.39217415580E+02  0.27681728445E+03  0.39602912124E+02  0.29364877279E+03  0.80594022476E+02 0.  0.
         24    2    4    4    0    0  0.20532747223E+03 -0.46759537546E+03  0.94688216404E+03  0.10787058631E+04  0.78839714325E+02 0.  0.
         11    1    3    3    0    0 -0.31073085564E+02  0.15306380707E+02 -0.64376586901E+02  0.73103808915E+02  0.00000000000E+00 0. -1.
        -11    1    3    3    0    0 -0.21347180224E+03  0.17547171030E+03 -0.15020885360E+03  0.31452063711E+03  0.00000000000E+00 0.  1.
          4    1    6    6  502    0  0.29112049182E+02 -0.55788646014E+02  0.70570343485E+02  0.94551878941E+02  0.00000000000E+00 0. -1.
          3    1    5    5  503    0  0.23506780498E+02  0.16436743960E+02 -0.46799403526E+01  0.29062641364E+02  0.00000000000E+00 0. -1.
         -4    1    5    5    0  503  0.15710635082E+02  0.26038054049E+03  0.44282852476E+02  0.26458613143E+03  0.00000000000E+00 0.  1.
         -3    1    6    6    0  502  0.17621542304E+03 -0.41180672944E+03  0.87631182055E+03  0.98415398418E+03  0.00000000000E+00 0.  1.
<mgrwt>
<rscale>  0 0.15816755E+04</rscale>
<asrwt>0</asrwt>
<pdfrwt beam="1">  1        1 0.19475990E+00 0.15816755E+04</pdfrwt>
<pdfrwt beam="2">  1       -1 0.76006112E-01 0.15816755E+04</pdfrwt>
<totfact> 0.15989284E+01</totfact>
</mgrwt>
</event>
<event>
12    1  0.1495204E-007  0.1583524E+04  0.7818608E-02  0.8830734E-01
         -2   -1    0    0    0  501 -0.00000000000E+00  0.00000000000E+00  0.21447468639E+03  0.21447468639E+03  0.00000000000E+00 0.  1.
          2   -1    0    0  501    0  0.00000000000E+00 -0.00000000000E+00 -0.29228947562E+04  0.29228947562E+04  0.00000000000E+00 0. -1.
         23    2    1    2    0    0 -0.10459843294E+03 -0.35405567389E+03 -0.16872673660E+04  0.17296530619E+04  0.92370436886E+02 0.  0.
        254    2    1    2    0    0  0.10459843294E+03  0.35405567389E+03 -0.10211527038E+04  0.14077163807E+04  0.89588855985E+03 0.  0.
        -24    2    4    4    0    0 -0.10601310126E+03  0.37027401837E+03 -0.33689391888E+02  0.39485884925E+03  0.80230352022E+02 0.  0.
         24    2    4    4    0    0  0.21061153420E+03 -0.16218344480E+02 -0.98746331189E+03  0.10128575314E+04  0.78589653594E+02 0.  0.
         11    1    3    3    0    0 -0.53045335007E+02 -0.30439336731E+03 -0.13703533874E+04  0.14047553296E+04  0.00000000000E+00 0. -1.
        -11    1    3    3    0    0 -0.51553097935E+02 -0.49662306589E+02 -0.31691397863E+03  0.32489773230E+03  0.00000000000E+00 0.  1.
          4    1    6    6  502    0  0.16198470708E+03 -0.43491567579E+02 -0.79398471025E+03  0.81150618105E+03  0.00000000000E+00 0. -1.
          3    1    5    5  503    0 -0.11033176250E+03  0.37228847377E+03 -0.35132910452E+02  0.38987963131E+03  0.00000000000E+00 0. -1.
         -4    1    5    5    0  503  0.43186612431E+01 -0.20144553907E+01  0.14435185641E+01  0.49792179405E+01  0.00000000000E+00 0.  1.
         -3    1    6    6    0  502  0.48626827120E+02  0.27273223099E+02 -0.19347860164E+03  0.20135135040E+03  0.00000000000E+00 0.  1.
<mgrwt>
<rscale>  0 0.15835238E+04</rscale>
<asrwt>0</asrwt>
<pdfrwt beam="1">  1        2 0.44967610E+00 0.15835238E+04</pdfrwt>
<pdfrwt beam="2">  1       -2 0.32996107E-01 0.15835238E+04</pdfrwt>
<totfact> 0.16093263E+01</totfact>
</mgrwt>
</event>
<event>
12    1  0.1495204E-007  0.1223060E+04  0.7818608E-02  0.9092909E-01
         -1   -1    0    0    0  501 -0.00000000000E+00  0.00000000000E+00  0.20195129630E+03  0.20195129630E+03  0.00000000000E+00 0.  1.
          1   -1    0    0  501    0  0.00000000000E+00 -0.00000000000E+00 -0.18517764846E+04  0.18517764846E+04  0.00000000000E+00 0. -1.
         23    2    1    2    0    0  0.18006680848E+03 -0.18444197096E+03 -0.18434010685E+03  0.32900944992E+03  0.88447990241E+02 0.  0.
        254    2    1    2    0    0 -0.18006680848E+03  0.18444197096E+03 -0.14654850815E+04  0.17247183310E+04  0.87210314819E+03 0.  0.
        -24    2    4    4    0    0  0.13795007003E+03  0.75214484445E+02  0.40880564743E+02  0.17923771504E+03  0.75944041419E+02 0.  0.
         24    2    4    4    0    0 -0.31801687851E+03  0.10922748651E+03 -0.15063656462E+04  0.15454806159E+04  0.79419741744E+02 0.  0.
         11    1    3    3    0    0  0.10807154507E+02 -0.38448332238E+01 -0.41883304848E+02  0.43425667019E+02  0.00000000000E+00 0. -1.
        -11    1    3    3    0    0  0.16925965397E+03 -0.18059713773E+03 -0.14245680200E+03  0.28558378290E+03  0.00000000000E+00 0.  1.
          4    1    6    6  502    0 -0.29371102266E+03  0.76718782292E+02 -0.12799914472E+04  0.13154961198E+04  0.00000000000E+00 0. -1.
          3    1    5    5  503    0  0.10732210176E+03  0.36297410930E+02  0.57434166301E+02  0.12702054568E+03  0.00000000000E+00 0. -1.
         -4    1    5    5    0  503  0.30627968275E+02  0.38917073515E+02 -0.16553601559E+02  0.52217169362E+02  0.00000000000E+00 0.  1.
         -3    1    6    6    0  502 -0.24305855849E+02  0.32508704221E+02 -0.22637419900E+03  0.22998449611E+03  0.00000000000E+00 0.  1.
<mgrwt>
<rscale>  0 0.12230595E+04</rscale>
<asrwt>0</asrwt>
<pdfrwt beam="1">  1        1 0.28488869E+00 0.12230595E+04</pdfrwt>
<pdfrwt beam="2">  1       -1 0.31069430E-01 0.12230595E+04</pdfrwt>
<totfact> 0.35644373E+01</totfact>
</mgrwt>
</event>
<event>
12    1  0.1495204E-007  0.1180847E+04  0.7818608E-02  0.9129789E-01
          1   -1    0    0  501    0  0.00000000000E+00  0.00000000000E+00  0.14054288463E+04  0.14054288463E+04  0.00000000000E+00 0. -1.
         -1   -1    0    0    0  501 -0.00000000000E+00 -0.00000000000E+00 -0.24803791416E+03  0.24803791416E+03  0.00000000000E+00 0.  1.
         23    2    1    2    0    0 -0.54726529852E+02 -0.12438189012E+03  0.51307473663E+03  0.53873733053E+03  0.92338390070E+02 0.  0.
        254    2    1    2    0    0  0.54726529852E+02  0.12438189012E+03  0.64431619551E+03  0.11147294299E+04  0.89945121851E+03 0.  0.
        -24    2    4    4    0    0  0.32728905082E+03 -0.26422506536E+03  0.29044545375E+03  0.51736080306E+03  0.79816232599E+02 0.  0.
         24    2    4    4    0    0 -0.27256252097E+03  0.38860695548E+03  0.35387074176E+03  0.59736862686E+03  0.79492646176E+02 0.  0.
         13    1    3    3    0    0 -0.37704311557E+02 -0.95297273478E+02  0.48240408251E+03  0.49317023862E+03  0.00000000000E+00 0. -1.
        -13    1    3    3    0    0 -0.17022218295E+02 -0.29084616642E+02  0.30670654126E+02  0.45567091913E+02  0.00000000000E+00 0.  1.
          4    1    6    6  502    0 -0.14081235370E+02  0.43206722969E+02  0.60472860323E+02  0.75644358249E+02  0.00000000000E+00 0. -1.
          1    1    5    5  503    0  0.15792810458E+03 -0.12847938927E+03  0.18892915463E+03  0.27774532427E+03  0.00000000000E+00 0. -1.
         -2    1    5    5    0  503  0.16936094625E+03 -0.13574567609E+03  0.10151629912E+03  0.23961547879E+03  0.00000000000E+00 0.  1.
         -3    1    6    6    0  502 -0.25848128560E+03  0.34540023251E+03  0.29339788144E+03  0.52172426861E+03  0.00000000000E+00 0.  1.
<mgrwt>
<rscale>  0 0.11808465E+04</rscale>
<asrwt>0</asrwt>
<pdfrwt beam="1">  1        1 0.21621982E+00 0.11808465E+04</pdfrwt>
<pdfrwt beam="2">  1       -1 0.38159680E-01 0.11808465E+04</pdfrwt>
<totfact> 0.50080050E+01</totfact>
</mgrwt>
</event>
<event>
12    1  0.1495204E-007  0.1633809E+04  0.7818608E-02  0.8800043E-01
         -1   -1    0    0    0  501 -0.00000000000E+00  0.00000000000E+00  0.11114394233E+04  0.11114394233E+04  0.00000000000E+00 0.  1.
          1   -1    0    0  501    0  0.00000000000E+00 -0.00000000000E+00 -0.60042201175E+03  0.60042201175E+03  0.00000000000E+00 0. -1.
         23    2    1    2    0    0 -0.29451645537E+03 -0.30186873170E+03  0.55552727132E+03  0.70300456230E+03  0.87978359729E+02 0.  0.
        254    2    1    2    0    0  0.29451645537E+03  0.30186873170E+03 -0.44509859728E+02  0.10088568728E+04  0.91539411648E+03 0.  0.
        -24    2    4    4    0    0  0.60631069839E+02  0.55968281534E+03 -0.22126664032E+03  0.61035264537E+03  0.81550261667E+02 0.  0.
         24    2    4    4    0    0  0.23388538553E+03 -0.25781408364E+03  0.17675678059E+03  0.39850422741E+03  0.79951138140E+02 0.  0.
         13    1    3    3    0    0 -0.27562400899E+02 -0.73910587848E+02  0.85096272294E+02  0.11603377309E+03  0.00000000000E+00 0. -1.
        -13    1    3    3    0    0 -0.26695405447E+03 -0.22795814385E+03  0.47043099902E+03  0.58697078921E+03  0.00000000000E+00 0.  1.
          2    1    6    6  502    0  0.56125904271E+01 -0.21864925201E+02  0.33299941199E+02  0.40230115700E+02  0.00000000000E+00 0. -1.
          1    1    5    5  503    0 -0.10750551806E+02  0.14186889361E+03 -0.81882178653E+02  0.16415556195E+03  0.00000000000E+00 0. -1.
         -2    1    5    5    0  503  0.71381621645E+02  0.41781392173E+03 -0.13938446166E+03  0.44619708342E+03  0.00000000000E+00 0.  1.
         -1    1    6    6    0  502  0.22827279510E+03 -0.23594915844E+03  0.14345683939E+03  0.35827411171E+03  0.00000000000E+00 0.  1.
<mgrwt>
<rscale>  0 0.16338087E+04</rscale>
<asrwt>0</asrwt>
<pdfrwt beam="1">  1        1 0.92372617E-01 0.16338087E+04</pdfrwt>
<pdfrwt beam="2">  1       -1 0.17099068E+00 0.16338087E+04</pdfrwt>
<totfact> 0.79209900E+00</totfact>
</mgrwt>
</event>
<event>
12    1  0.1495204E-007  0.2331532E+04  0.7818608E-02  0.8465591E-01
         -2   -1    0    0    0  501 -0.00000000000E+00  0.00000000000E+00  0.81514024219E+03  0.81514024219E+03  0.00000000000E+00 0.  1.
          2   -1    0    0  501    0  0.00000000000E+00 -0.00000000000E+00 -0.16672099097E+04  0.16672099097E+04  0.00000000000E+00 0. -1.
         23    2    1    2    0    0 -0.26248919847E+03 -0.22370012813E+03 -0.13579675731E+04  0.14039646864E+04  0.89992135301E+02 0.  0.
        254    2    1    2    0    0  0.26248919847E+03  0.22370012813E+03  0.50589790563E+03  0.10783854655E+04  0.88771628044E+03 0.  0.
        -24    2    4    4    0    0  0.26121787584E+03 -0.53044067835E+02 -0.18228725230E+03  0.33264412193E+03  0.79843708029E+02 0.  0.
         24    2    4    4    0    0  0.12713226258E+01  0.27674419596E+03  0.68818515793E+03  0.74574134352E+03  0.77086792584E+02 0.  0.
         11    1    3    3    0    0 -0.29101827453E+02 -0.94861663002E+01 -0.54044335006E+02  0.62110336164E+02  0.00000000000E+00 0.  1.
        -11    1    3    3    0    0 -0.23338737101E+03 -0.21421396183E+03 -0.13039232381E+04  0.13418543503E+04  0.00000000000E+00 0. -1.
          2    1    6    6  502    0  0.34287582133E+02  0.19291498090E+03  0.50258542804E+03  0.53942927305E+03  0.00000000000E+00 0. -1.
          3    1    5    5  503    0  0.22212185206E+03 -0.13955221481E+02 -0.15303240229E+03  0.27009587468E+03  0.00000000000E+00 0. -1.
         -4    1    5    5    0  503  0.39096023783E+02 -0.39088846354E+02 -0.29254850010E+02  0.62548247250E+02  0.00000000000E+00 0.  1.
         -1    1    6    6    0  502 -0.33016259507E+02  0.83829215059E+02  0.18559972989E+03  0.20631207047E+03  0.00000000000E+00 0.  1.
<mgrwt>
<rscale>  0 0.23315316E+04</rscale>
<asrwt>0</asrwt>
<pdfrwt beam="1">  1        2 0.25649383E+00 0.23315316E+04</pdfrwt>
<pdfrwt beam="2">  1       -2 0.12540619E+00 0.23315316E+04</pdfrwt>
<totfact> 0.43994106E+00</totfact>
</mgrwt>
</event>
<event>
12    1  0.1495204E-007  0.1385238E+04  0.7818608E-02  0.8964574E-01
          2   -1    0    0  501    0  0.00000000000E+00  0.00000000000E+00  0.71455403666E+03  0.71455403666E+03  0.00000000000E+00 0. -1.
         -2   -1    0    0    0  501 -0.00000000000E+00 -0.00000000000E+00 -0.67135771502E+03  0.67135771502E+03  0.00000000000E+00 0.  1.
         23    2    1    2    0    0 -0.38209138639E+03  0.30784849623E+02 -0.26351834416E+02  0.39255095821E+03  0.80375998243E+02 0.  0.
        254    2    1    2    0    0  0.38209138639E+03 -0.30784849623E+02  0.69548156059E+02  0.99336079346E+03  0.91377633229E+03 0.  0.
        -24    2    4    4    0    0 -0.23850737925E+03 -0.22279187004E+03  0.13518727395E+02  0.33641256258E+03  0.80428035890E+02 0.  0.
         24    2    4    4    0    0  0.62059876565E+03  0.19200702042E+03  0.56029428664E+02  0.65694823088E+03  0.80200731725E+02 0.  0.
         13    1    3    3    0    0 -0.53251819078E+02 -0.76829711920E+01 -0.29691556760E+02  0.61452199507E+02  0.00000000000E+00 0.  1.
        -13    1    3    3    0    0 -0.32883956732E+03  0.38467820815E+02  0.33397223436E+01  0.33109875871E+03  0.00000000000E+00 0. -1.
          2    1    6    6  502    0  0.29176463403E+03  0.10105939776E+03  0.65480788209E+02  0.31563798436E+03  0.00000000000E+00 0. -1.
          3    1    5    5  503    0 -0.23484946193E+03 -0.22958088351E+03  0.13511899513E+02  0.32870081118E+03  0.00000000000E+00 0. -1.
         -4    1    5    5    0  503 -0.36579173252E+01  0.67890134701E+01  0.68278812901E-02  0.77117514013E+01  0.00000000000E+00 0.  1.
         -1    1    6    6    0  502  0.32883413161E+03  0.90947622658E+02 -0.94513595444E+01  0.34131024652E+03  0.00000000000E+00 0.  1.
<mgrwt>
<rscale>  0 0.13852384E+04</rscale>
<asrwt>0</asrwt>
<pdfrwt beam="1">  1        2 0.10993139E+00 0.13852384E+04</pdfrwt>
<pdfrwt beam="2">  1       -2 0.10328580E+00 0.13852384E+04</pdfrwt>
<totfact> 0.29743607E+01</totfact>
</mgrwt>
</event>
<event>
12    1  0.1495204E-007  0.1978291E+04  0.7818608E-02  0.8616838E-01
          1   -1    0    0  501    0  0.00000000000E+00  0.00000000000E+00  0.14277502631E+04  0.14277502631E+04  0.00000000000E+00 0. -1.
         -1   -1    0    0    0  501 -0.00000000000E+00 -0.00000000000E+00 -0.68528015511E+03  0.68528015511E+03  0.00000000000E+00 0.  1.
         23    2    1    2    0    0 -0.54746591825E+03 -0.18246405061E+03 -0.25816113056E+03  0.63879083609E+03  0.91621512360E+02 0.  0.
        254    2    1    2    0    0  0.54746591825E+03  0.18246405061E+03  0.10006312385E+04  0.14742395821E+04  0.91602806099E+03 0.  0.
        -24    2    4    4    0    0  0.30832853914E+03 -0.32301424530E+03  0.70056682969E+03  0.83471554095E+03  0.80941094186E+02 0.  0.
         24    2    4    4    0    0  0.23913737911E+03  0.50547829591E+03  0.30006440885E+03  0.63952404116E+03  0.79103451524E+02 0.  0.
         13    1    3    3    0    0 -0.24994717803E+03 -0.11912322391E+03 -0.89576498556E+02  0.29101182687E+03  0.00000000000E+00 0.  1.
        -13    1    3    3    0    0 -0.29751874022E+03 -0.63340826692E+02 -0.16858463200E+03  0.34777900922E+03  0.00000000000E+00 0. -1.
          4    1    6    6  502    0  0.85865186338E+01  0.31458709337E+02  0.40415960151E+02  0.51930997779E+02  0.00000000000E+00 0. -1.
          3    1    5    5  503    0  0.11625992259E+03 -0.84436533710E+02  0.17517915451E+03  0.22656926976E+03  0.00000000000E+00 0. -1.
         -4    1    5    5    0  503  0.19206861655E+03 -0.23857771159E+03  0.52538767518E+03  0.60814627119E+03  0.00000000000E+00 0.  1.
         -3    1    6    6    0  502  0.23055086048E+03  0.47401958657E+03  0.25964844870E+03  0.58759304338E+03  0.00000000000E+00 0.  1.
<mgrwt>
<rscale>  0 0.19782911E+04</rscale>
<asrwt>0</asrwt>
<pdfrwt beam="1">  1        1 0.21965389E+00 0.19782911E+04</pdfrwt>
<pdfrwt beam="2">  1       -1 0.10542772E+00 0.19782911E+04</pdfrwt>
<totfact> 0.57574890E+00</totfact>
</mgrwt>
</event>
<event>
12    1  0.1495204E-007  0.1898568E+04  0.7818608E-02  0.8655569E-01
          2   -1    0    0  501    0  0.00000000000E+00  0.00000000000E+00  0.25823542760E+04  0.25823542760E+04  0.00000000000E+00 0. -1.
         -2   -1    0    0    0  501 -0.00000000000E+00 -0.00000000000E+00 -0.34896084146E+03  0.34896084146E+03  0.00000000000E+00 0.  1.
         23    2    1    2    0    0  0.34750528872E+03 -0.66095526171E+02 -0.11574783218E+03  0.38403747940E+03  0.94650307242E+02 0.  0.
        254    2    1    2    0    0 -0.34750528872E+03  0.66095526171E+02  0.23491412667E+04  0.25472776380E+04  0.91925520401E+03 0.  0.
        -24    2    4    4    0    0 -0.66354478838E+02 -0.39765439244E+03  0.13041034877E+04  0.13673913289E+04  0.80877729867E+02 0.  0.
         24    2    4    4    0    0 -0.28115080988E+03  0.46374991861E+03  0.10450377790E+04  0.11798863091E+04  0.76928394779E+02 0.  0.
         11    1    3    3    0    0  0.25176716134E+03 -0.67865049876E+02 -0.12239981818E+03  0.28805222446E+03  0.00000000000E+00 0.  1.
        -11    1    3    3    0    0  0.95738127378E+02  0.17695237056E+01  0.66519860049E+01  0.95985254939E+02  0.00000000000E+00 0. -1.
          2    1    6    6  502    0 -0.42973924583E+02  0.13541777696E+03  0.26402962438E+03  0.29982724202E+03  0.00000000000E+00 0. -1.
          1    1    5    5  503    0  0.13852806654E+02 -0.12340155952E+03  0.44596287356E+03  0.46292842831E+03  0.00000000000E+00 0. -1.
         -2    1    5    5    0  503 -0.80207285492E+02 -0.27425283292E+03  0.85814061414E+03  0.90446290064E+03  0.00000000000E+00 0.  1.
         -1    1    6    6    0  502 -0.23817688530E+03  0.32833214165E+03  0.78100815460E+03  0.88005906704E+03  0.00000000000E+00 0.  1.
<mgrwt>
<rscale>  0 0.18985684E+04</rscale>
<asrwt>0</asrwt>
<pdfrwt beam="1">  1        2 0.39728526E+00 0.18985684E+04</pdfrwt>
<pdfrwt beam="2">  1       -2 0.53686285E-01 0.18985684E+04</pdfrwt>
<totfact> 0.95539415E+00</totfact>
</mgrwt>
</event>
<event>
12    1  0.1495204E-007  0.1456331E+04  0.7818608E-02  0.8914023E-01
         -2   -1    0    0    0  501 -0.00000000000E+00  0.00000000000E+00  0.28272718305E+03  0.28272718305E+03  0.00000000000E+00 0.  1.
          2   -1    0    0  501    0  0.00000000000E+00 -0.00000000000E+00 -0.18753956516E+04  0.18753956516E+04  0.00000000000E+00 0. -1.
         23    2    1    2    0    0  0.12911426571E+03  0.18329272297E+03  0.67721909306E+02  0.25112927925E+03  0.90625283419E+02 0.  0.
        254    2    1    2    0    0 -0.12911426571E+03 -0.18329272297E+03 -0.16603903778E+04  0.19069935554E+04  0.91074776834E+03 0.  0.
        -24    2    4    4    0    0 -0.13424251462E+03 -0.41738845931E+03 -0.15876901385E+04  0.16490525367E+04  0.79875615780E+02 0.  0.
         24    2    4    4    0    0  0.51282489097E+01  0.23409573634E+03 -0.72700239278E+02  0.25794101869E+03  0.80131963794E+02 0.  0.
         13    1    3    3    0    0  0.48171496483E+02  0.13535803025E+03  0.18210164490E+02  0.14482368424E+03  0.00000000000E+00 0. -1.
        -13    1    3    3    0    0  0.80942769223E+02  0.47934692720E+02  0.49511744816E+02  0.10630559501E+03  0.00000000000E+00 0.  1.
          4    1    6    6  502    0 -0.93232177793E+01  0.21718995827E+03 -0.83925965025E+02  0.23302782660E+03  0.00000000000E+00 0. -1.
          3    1    5    5  503    0 -0.17615599721E+02 -0.18311384497E+03 -0.65224420962E+03  0.67768982474E+03  0.00000000000E+00 0. -1.
         -4    1    5    5    0  503 -0.11662691489E+03 -0.23427461434E+03 -0.93544592892E+03  0.97136271193E+03  0.00000000000E+00 0.  1.
         -3    1    6    6    0  502  0.14451466689E+02  0.16905778065E+02  0.11225725746E+02  0.24913192087E+02  0.00000000000E+00 0.  1.
<mgrwt>
<rscale>  0 0.14563315E+04</rscale>
<asrwt>0</asrwt>
<pdfrwt beam="1">  1        2 0.28852241E+00 0.14563315E+04</pdfrwt>
<pdfrwt beam="2">  1       -2 0.43496489E-01 0.14563315E+04</pdfrwt>
<totfact> 0.38074938E+01</totfact>
</mgrwt>
</event>
<event>
12    1  0.1495204E-007  0.2287733E+04  0.7818608E-02  0.8482773E-01
          2   -1    0    0  501    0  0.00000000000E+00  0.00000000000E+00  0.44384693020E+03  0.44384693020E+03  0.00000000000E+00 0. -1.
         -2   -1    0    0    0  501 -0.00000000000E+00 -0.00000000000E+00 -0.29479331512E+04  0.29479331512E+04  0.00000000000E+00 0.  1.
         23    2    1    2    0    0 -0.30619358178E+03 -0.42154565064E+02  0.29207938666E+03  0.43535036838E+03  0.93209754096E+02 0.  0.
        254    2    1    2    0    0  0.30619358178E+03  0.42154565064E+02 -0.27961656076E+04  0.29564297130E+04  0.90906711837E+03 0.  0.
        -24    2    4    4    0    0  0.60215269305E+03 -0.66965246437E+02 -0.21050984756E+04  0.21920849431E+04  0.82003633952E+02 0.  0.
         24    2    4    4    0    0 -0.29595911126E+03  0.10911981150E+03 -0.69106713207E+03  0.76434476990E+03  0.84558958360E+02 0.  0.
         11    1    3    3    0    0 -0.20649110743E+03 -0.64247911812E+02  0.23066596719E+03  0.31618532546E+03  0.00000000000E+00 0. -1.
        -11    1    3    3    0    0 -0.99702474352E+02  0.22093346749E+02  0.61413419469E+02  0.11916504292E+03  0.00000000000E+00 0.  1.
          2    1    6    6  502    0 -0.30128332225E+03  0.10379793940E+03 -0.67996024046E+03  0.75092714766E+03  0.00000000000E+00 0. -1.
          3    1    5    5  503    0  0.57283612641E+03 -0.79069430789E+02 -0.19580322790E+04  0.20416374821E+04  0.00000000000E+00 0. -1.
         -4    1    5    5    0  503  0.29316566637E+02  0.12104184351E+02 -0.14706619653E+03  0.15044746100E+03  0.00000000000E+00 0.  1.
         -1    1    6    6    0  502  0.53242109822E+01  0.53218720996E+01 -0.11106891609E+02  0.13417622235E+02  0.00000000000E+00 0.  1.
<mgrwt>
<rscale>  0 0.22877334E+04</rscale>
<asrwt>0</asrwt>
<pdfrwt beam="1">  1        2 0.68284143E-01 0.22877334E+04</pdfrwt>
<pdfrwt beam="2">  1       -2 0.45352818E+00 0.22877334E+04</pdfrwt>
<totfact> 0.21084539E-01</totfact>
</mgrwt>
</event>
<event>
12    1  0.1495204E-007  0.1480550E+04  0.7818608E-02  0.8897491E-01
          2   -1    0    0  501    0  0.00000000000E+00  0.00000000000E+00  0.31669457567E+04  0.31669457567E+04  0.00000000000E+00 0. -1.
         -2   -1    0    0    0  501 -0.00000000000E+00 -0.00000000000E+00 -0.17303969424E+03  0.17303969424E+03  0.00000000000E+00 0.  1.
         23    2    1    2    0    0 -0.44552740972E+03  0.68864907483E+02  0.74070371850E+03  0.87224860440E+03  0.94544068952E+02 0.  0.
        254    2    1    2    0    0  0.44552740972E+03 -0.68864907483E+02  0.22532023439E+04  0.24677368465E+04  0.89975957490E+03 0.  0.
        -24    2    4    4    0    0 -0.32113103198E+02  0.15399828920E+03  0.26394871505E+02  0.17790004123E+03  0.78771891906E+02 0.  0.
         24    2    4    4    0    0  0.47764051292E+03 -0.22286319668E+03  0.22268074724E+04  0.22898368053E+04  0.82901215578E+02 0.  0.
         13    1    3    3    0    0 -0.34486570765E+03  0.13798130681E+02  0.57675934388E+03  0.67214141776E+03  0.00000000000E+00 0.  1.
        -13    1    3    3    0    0 -0.10066170208E+03  0.55066776802E+02  0.16394437462E+03  0.20010718664E+03  0.00000000000E+00 0. -1.
          2    1    6    6  502    0  0.24413244131E+03 -0.15941776134E+03  0.12104586738E+04  0.12450802675E+04  0.00000000000E+00 0. -1.
          1    1    5    5  503    0  0.15133615542E+02  0.68995418267E+01  0.15954962170E+02  0.23047577196E+02  0.00000000000E+00 0. -1.
         -2    1    5    5    0  503 -0.47246718740E+02  0.14709874737E+03  0.10439909336E+02  0.15485246403E+03  0.00000000000E+00 0.  1.
         -1    1    6    6    0  502  0.23350807161E+03 -0.63445435337E+02  0.10163487986E+04  0.10447565378E+04  0.00000000000E+00 0.  1.
<mgrwt>
<rscale>  0 0.14805503E+04</rscale>
<asrwt>0</asrwt>
<pdfrwt beam="1">  1        2 0.48722238E+00 0.14805503E+04</pdfrwt>
<pdfrwt beam="2">  1       -2 0.26621494E-01 0.14805503E+04</pdfrwt>
<totfact> 0.17031351E+01</totfact>
</mgrwt>
</event>
<event>
12    1  0.1495204E-007  0.1251446E+04  0.7818608E-02  0.9068980E-01
         -2   -1    0    0    0  501 -0.00000000000E+00  0.00000000000E+00  0.84710744721E+03  0.84710744721E+03  0.00000000000E+00 0.  1.
          2   -1    0    0  501    0  0.00000000000E+00 -0.00000000000E+00 -0.46219588306E+03  0.46219588306E+03  0.00000000000E+00 0. -1.
         23    2    1    2    0    0 -0.19228000846E+03  0.14185665415E+02 -0.13742580735E+03  0.25387811479E+03  0.91626469351E+02 0.  0.
        254    2    1    2    0    0  0.19228000846E+03 -0.14185665415E+02  0.52233737151E+03  0.10554252155E+04  0.89661207945E+03 0.  0.
        -24    2    4    4    0    0  0.69076343421E+02  0.29785497387E+03 -0.11029890233E+03  0.33516694234E+03  0.81742918385E+02 0.  0.
         24    2    4    4    0    0  0.12320366504E+03 -0.31204063928E+03  0.63263627384E+03  0.72025827313E+03  0.77426231916E+02 0.  0.
         11    1    3    3    0    0 -0.40601791570E+02 -0.43238084537E+00 -0.82409529613E+02  0.91869597816E+02  0.00000000000E+00 0.  1.
        -11    1    3    3    0    0 -0.15167821689E+03  0.14618046261E+02 -0.55016277742E+02  0.16200851698E+03  0.00000000000E+00 0. -1.
          2    1    6    6  502    0  0.68011394155E+02 -0.77245830100E+02  0.17848232223E+03  0.20603011273E+03  0.00000000000E+00 0. -1.
          3    1    5    5  503    0  0.75897894413E+02  0.15013045352E+03 -0.50377855118E+02  0.17560629754E+03  0.00000000000E+00 0. -1.
         -4    1    5    5    0  503 -0.68215509920E+01  0.14772452035E+03 -0.59921047215E+02  0.15956064480E+03  0.00000000000E+00 0.  1.
         -1    1    6    6    0  502  0.55192270888E+02 -0.23479480918E+03  0.45415395161E+03  0.51422816040E+03  0.00000000000E+00 0.  1.
<mgrwt>
<rscale>  0 0.12514465E+04</rscale>
<asrwt>0</asrwt>
<pdfrwt beam="1">  1        2 0.71107059E-01 0.12514465E+04</pdfrwt>
<pdfrwt beam="2">  1       -2 0.13032422E+00 0.12514465E+04</pdfrwt>
<totfact> 0.28607621E+01</totfact>
</mgrwt>
</event>
<event>
12    1  0.1495204E-007  0.2432717E+04  0.7818608E-02  0.8427355E-01
          2   -1    0    0  501    0  0.00000000000E+00  0.00000000000E+00  0.36693817019E+04  0.36693817019E+04  0.00000000000E+00 0. -1.
         -2   -1    0    0    0  501 -0.00000000000E+00 -0.00000000000E+00 -0.40320915546E+03  0.40320915546E+03  0.00000000000E+00 0.  1.
         23    2    1    2    0    0  0.10830745450E+03 -0.52060513763E+03 -0.10965172438E+03  0.54805236290E+03  0.74683852340E+02 0.  0.
        254    2    1    2    0    0 -0.10830745450E+03  0.52060513763E+03  0.33758242709E+04  0.35245384945E+04  0.86221915857E+03 0.  0.
        -24    2    4    4    0    0 -0.47263908744E+03  0.19465598347E+03  0.17384009557E+04  0.18137597290E+04  0.80048815117E+02 0.  0.
         24    2    4    4    0    0  0.36433163294E+03  0.32594915415E+03  0.16374233151E+04  0.17107787655E+04  0.81415487802E+02 0.  0.
         11    1    3    3    0    0  0.62294294888E+02 -0.34200967677E+03 -0.10654941042E+03  0.36359864554E+03  0.00000000000E+00 0.  1.
        -11    1    3    3    0    0  0.46013159611E+02 -0.17859546086E+03 -0.31023139612E+01  0.18445371736E+03  0.00000000000E+00 0. -1.
          4    1    6    6  502    0  0.33127618295E+03  0.30775187239E+03  0.15663630316E+04  0.16303215238E+04  0.00000000000E+00 0. -1.
          3    1    5    5  503    0 -0.47258100791E+03  0.18825042764E+03  0.17297247371E+04  0.18029749579E+04  0.00000000000E+00 0. -1.
         -4    1    5    5    0  503 -0.58079523126E-01  0.64055558297E+01  0.86762185916E+01  0.10784771104E+02  0.00000000000E+00 0.  1.
         -3    1    6    6    0  502  0.33055449985E+02  0.18197281766E+02  0.71060283553E+02  0.80457241663E+02  0.00000000000E+00 0.  1.
<mgrwt>
<rscale>  0 0.24327172E+04</rscale>
<asrwt>0</asrwt>
<pdfrwt beam="1">  1        2 0.56452024E+00 0.24327172E+04</pdfrwt>
<pdfrwt beam="2">  1       -2 0.62032180E-01 0.24327172E+04</pdfrwt>
<totfact> 0.13336953E+00</totfact>
</mgrwt>
</event>
<event>
12    1  0.1495204E-007  0.2430856E+04  0.7818608E-02  0.8428041E-01
         -3   -1    0    0    0  501 -0.00000000000E+00  0.00000000000E+00  0.24660922100E+04  0.24660922100E+04  0.00000000000E+00 0.  1.
          3   -1    0    0  501    0  0.00000000000E+00 -0.00000000000E+00 -0.59903059861E+03  0.59903059861E+03  0.00000000000E+00 0. -1.
         23    2    1    2    0    0 -0.65607039581E+03 -0.47436365131E+03 -0.49245040153E+02  0.81574832095E+03  0.87011557891E+02 0.  0.
        254    2    1    2    0    0  0.65607039581E+03  0.47436365131E+03  0.19163066516E+04  0.22493744877E+04  0.85557300396E+03 0.  0.
        -24    2    4    4    0    0  0.82711300238E+03  0.44894249737E+03  0.17805095146E+04  0.20157255854E+04  0.85265583233E+02 0.  0.
         24    2    4    4    0    0 -0.17104260658E+03  0.25421153945E+02  0.13579713702E+03  0.23364890227E+03  0.79051494470E+02 0.  0.
         11    1    3    3    0    0 -0.56985912153E+03 -0.42073497093E+03 -0.71050623465E+02  0.71190274985E+03  0.00000000000E+00 0. -1.
        -11    1    3    3    0    0 -0.86211274280E+02 -0.53628680386E+02  0.21805583313E+02  0.10384557110E+03  0.00000000000E+00 0.  1.
          2    1    6    6  502    0 -0.30117037677E+02  0.58025797662E+00 -0.75994055119E+01  0.31066438835E+02  0.00000000000E+00 0. -1.
          1    1    5    5  503    0  0.45349501144E+01  0.10663288952E+02  0.12266186390E+02  0.16873969076E+02  0.00000000000E+00 0. -1.
         -2    1    5    5    0  503  0.82257805227E+03  0.43827920842E+03  0.17682433282E+04  0.19988516164E+04  0.00000000000E+00 0.  1.
         -1    1    6    6    0  502 -0.14092556890E+03  0.24840895969E+02  0.14339654254E+03  0.20258246344E+03  0.00000000000E+00 0.  1.
<mgrwt>
<rscale>  0 0.24308556E+04</rscale>
<asrwt>0</asrwt>
<pdfrwt beam="1">  1        3 0.92158555E-01 0.24308556E+04</pdfrwt>
<pdfrwt beam="2">  1       -3 0.37939880E+00 0.24308556E+04</pdfrwt>
<totfact> 0.33988636E-02</totfact>
</mgrwt>
</event>
<event>
12    1  0.1495204E-007  0.2242946E+04  0.7818608E-02  0.8500763E-01
          1   -1    0    0  501    0  0.00000000000E+00  0.00000000000E+00  0.14645328780E+04  0.14645328780E+04  0.00000000000E+00 0. -1.
         -1   -1    0    0    0  501 -0.00000000000E+00 -0.00000000000E+00 -0.85877338276E+03  0.85877338276E+03  0.00000000000E+00 0.  1.
         23    2    1    2    0    0  0.82052994463E+03  0.34030930631E+03  0.57338829898E+03  0.10613048377E+04  0.92271355434E+02 0.  0.
        254    2    1    2    0    0 -0.82052994463E+03 -0.34030930631E+03  0.32371196288E+02  0.12620014231E+04  0.89583474125E+03 0.  0.
        -24    2    4    4    0    0  0.35073533712E+02  0.17992826342E+03 -0.13840546455E+03  0.24310159156E+03  0.79611421653E+02 0.  0.
         24    2    4    4    0    0 -0.85560347834E+03 -0.52023756973E+03  0.17077666083E+03  0.10188998316E+04  0.79295383028E+02 0.  0.
         13    1    3    3    0    0  0.55227580818E+03  0.20039700566E+03  0.41920436577E+03  0.72173390419E+03  0.00000000000E+00 0. -1.
        -13    1    3    3    0    0  0.26825413645E+03  0.13991230065E+03  0.15418393321E+03  0.33957093347E+03  0.00000000000E+00 0.  1.
          4    1    6    6  502    0 -0.20145034719E+03 -0.96171469841E+02  0.62657634883E+02  0.23185593200E+03  0.00000000000E+00 0. -1.
          3    1    5    5  503    0 -0.67278089416E+01  0.11277619866E+02 -0.42826117250E+02  0.44794245631E+02  0.00000000000E+00 0. -1.
         -4    1    5    5    0  503  0.41801342653E+02  0.16865064356E+03 -0.95579347296E+02  0.19830734593E+03  0.00000000000E+00 0.  1.
         -3    1    6    6    0  502 -0.65415313115E+03 -0.42406609989E+03  0.10811902595E+03  0.78704389956E+03  0.00000000000E+00 0.  1.
<mgrwt>
<rscale>  0 0.22429461E+04</rscale>
<asrwt>0</asrwt>
<pdfrwt beam="1">  1        1 0.22531275E+00 0.22429461E+04</pdfrwt>
<pdfrwt beam="2">  1       -1 0.13211898E+00 0.22429461E+04</pdfrwt>
<totfact> 0.30614252E+00</totfact>
</mgrwt>
</event>
<event>
12    1  0.1495204E-007  0.1162671E+04  0.7818608E-02  0.9146173E-01
          2   -1    0    0  501    0  0.00000000000E+00  0.00000000000E+00  0.27868065888E+04  0.27868065888E+04  0.00000000000E+00 0. -1.
         -2   -1    0    0    0  501 -0.00000000000E+00 -0.00000000000E+00 -0.12126819679E+03  0.12126819679E+03  0.00000000000E+00 0.  1.
         23    2    1    2    0    0  0.14220408889E+02 -0.73654407600E+02  0.29844012393E+02  0.12169070498E+03  0.91053669972E+02 0.  0.
        254    2    1    2    0    0 -0.14220408889E+02  0.73654407600E+02  0.26356943796E+04  0.27863840806E+04  0.90079086928E+03 0.  0.
        -24    2    4    4    0    0 -0.22554364511E+03 -0.33286384909E+03  0.15894122227E+04  0.16414686346E+04  0.80745195707E+02 0.  0.
         24    2    4    4    0    0  0.21132323622E+03  0.40651825669E+03  0.10462821569E+04  0.11449154461E+04  0.78806240801E+02 0.  0.
         11    1    3    3    0    0 -0.42475251451E+01  0.10798771424E+02 -0.19099668119E+02  0.22348428499E+02  0.00000000000E+00 0. -1.
        -11    1    3    3    0    0  0.18467934034E+02 -0.84453179024E+02  0.48943680512E+02  0.99342276483E+02  0.00000000000E+00 0.  1.
          2    1    6    6  502    0  0.20505903100E+03  0.40001948815E+03  0.98190319642E+03  0.10799067942E+04  0.00000000000E+00 0. -1.
          1    1    5    5  503    0 -0.23142226812E+03 -0.31562132487E+03  0.14998075135E+04  0.15500308592E+04  0.00000000000E+00 0. -1.
         -2    1    5    5    0  503  0.58786230095E+01 -0.17242524220E+02  0.89604709169E+02  0.91437775318E+02  0.00000000000E+00 0.  1.
         -1    1    6    6    0  502  0.62642052207E+01  0.64987685443E+01  0.64378960496E+02  0.65008651841E+02  0.00000000000E+00 0.  1.
<mgrwt>
<rscale>  0 0.11626711E+04</rscale>
<asrwt>0</asrwt>
<pdfrwt beam="1">  1        2 0.42873943E+00 0.11626711E+04</pdfrwt>
<pdfrwt beam="2">  1       -2 0.18656648E-01 0.11626711E+04</pdfrwt>
<totfact> 0.56912419E+01</totfact>
</mgrwt>
</event>
<event>
12    1  0.1495204E-007  0.2040513E+04  0.7818608E-02  0.8587910E-01
          2   -1    0    0  501    0  0.00000000000E+00  0.00000000000E+00  0.28004359062E+04  0.28004359062E+04  0.00000000000E+00 0. -1.
         -2   -1    0    0    0  501 -0.00000000000E+00 -0.00000000000E+00 -0.37170060023E+03  0.37170060023E+03  0.00000000000E+00 0.  1.
         23    2    1    2    0    0  0.45028044062E+03  0.90558482796E+02  0.20116710780E+04  0.20654630323E+04  0.91453253902E+02 0.  0.
        254    2    1    2    0    0 -0.45028044062E+03 -0.90558482796E+02  0.41706422801E+03  0.11066734742E+04  0.91642255219E+03 0.  0.
        -24    2    4    4    0    0  0.26564186764E+03 -0.40977509426E+02  0.22519481860E+03  0.35945971870E+03  0.79081128706E+02 0.  0.
         24    2    4    4    0    0 -0.71592230826E+03 -0.49580973370E+02  0.19186940941E+03  0.74721375549E+03  0.80693876724E+02 0.  0.
         11    1    3    3    0    0  0.86080375663E+02  0.15537016740E+02  0.24674324349E+03  0.26178895732E+03  0.00000000000E+00 0.  1.
        -11    1    3    3    0    0  0.36420006496E+03  0.75021466056E+02  0.17649278345E+04  0.18036740749E+04  0.00000000000E+00 0. -1.
          2    1    6    6  502    0 -0.68232720260E+03 -0.29381938864E+02  0.18132707491E+03  0.70662098599E+03  0.00000000000E+00 0. -1.
          1    1    5    5  503    0  0.13100734794E+03  0.18934296576E+02  0.11668484214E+03  0.17645618489E+03  0.00000000000E+00 0. -1.
         -2    1    5    5    0  503  0.13463451970E+03 -0.59911806002E+02  0.10850997647E+03  0.18300353381E+03  0.00000000000E+00 0.  1.
         -1    1    6    6    0  502 -0.33595105656E+02 -0.20199034506E+02  0.10542334492E+02  0.40592769498E+02  0.00000000000E+00 0.  1.
<mgrwt>
<rscale>  0 0.20405134E+04</rscale>
<asrwt>0</asrwt>
<pdfrwt beam="1">  1        2 0.43083628E+00 0.20405134E+04</pdfrwt>
<pdfrwt beam="2">  1       -2 0.57184710E-01 0.20405134E+04</pdfrwt>
<totfact> 0.61412667E+00</totfact>
</mgrwt>
</event>
<event>
12    1  0.1495204E-007  0.1970664E+04  0.7818608E-02  0.8620460E-01
          1   -1    0    0  501    0  0.00000000000E+00  0.00000000000E+00  0.82229057475E+03  0.82229057475E+03  0.00000000000E+00 0. -1.
         -1   -1    0    0    0  501 -0.00000000000E+00 -0.00000000000E+00 -0.11807007347E+04  0.11807007347E+04  0.00000000000E+00 0.  1.
         23    2    1    2    0    0 -0.31124703911E+03 -0.64567127959E+03  0.16014081107E+03  0.74012163974E+03  0.91481372970E+02 0.  0.
        254    2    1    2    0    0  0.31124703911E+03  0.64567127959E+03 -0.51855097104E+03  0.12628696697E+04  0.90120950534E+03 0.  0.
        -24    2    4    4    0    0  0.17424887905E+03  0.29938736929E+02 -0.59318165922E+03  0.62347014935E+03  0.74776643892E+02 0.  0.
         24    2    4    4    0    0  0.13699816006E+03  0.61573254266E+03  0.74630688181E+02  0.63939952038E+03  0.73259450552E+02 0.  0.
         11    1    3    3    0    0 -0.31113162544E+02 -0.19822890515E+02  0.71415773428E+01  0.37576295703E+02  0.00000000000E+00 0.  1.
        -11    1    3    3    0    0 -0.28013387657E+03 -0.62584838907E+03  0.15299923373E+03  0.70254534404E+03  0.00000000000E+00 0. -1.
          2    1    6    6  502    0  0.29966744731E+02  0.30296729584E+03  0.37699871651E+02  0.30677103589E+03  0.00000000000E+00 0. -1.
          3    1    5    5  503    0  0.86039134301E+02  0.29093182516E+02 -0.18790555833E+03  0.20870468311E+03  0.00000000000E+00 0. -1.
         -4    1    5    5    0  503  0.88209744752E+02  0.84555441265E+00 -0.40527610089E+03  0.41476546624E+03  0.00000000000E+00 0.  1.
         -1    1    6    6    0  502  0.10703141533E+03  0.31276524682E+03  0.36930816530E+02  0.33262848449E+03  0.00000000000E+00 0.  1.
<mgrwt>
<rscale>  0 0.19706639E+04</rscale>
<asrwt>0</asrwt>
<pdfrwt beam="1">  1        1 0.12650624E+00 0.19706639E+04</pdfrwt>
<pdfrwt beam="2">  1       -1 0.18164627E+00 0.19706639E+04</pdfrwt>
<totfact> 0.39828236E+00</totfact>
</mgrwt>
</event>
<event>
12    1  0.1495204E-007  0.2188685E+04  0.7818608E-02  0.8523152E-01
         -2   -1    0    0    0  501 -0.00000000000E+00  0.00000000000E+00  0.63422214620E+03  0.63422214620E+03  0.00000000000E+00 0. -1.
          2   -1    0    0  501    0  0.00000000000E+00 -0.00000000000E+00 -0.18882753513E+04  0.18882753513E+04  0.00000000000E+00 0.  1.
         23    2    1    2    0    0 -0.90535578528E+03  0.45331627436E+00 -0.62026540815E+03  0.11014774786E+04  0.94096524006E+02 0.  0.
        254    2    1    2    0    0  0.90535578528E+03 -0.45331627436E+00 -0.63378779699E+03  0.14210200189E+04  0.89327578003E+03 0.  0.
        -24    2    4    4    0    0  0.66492333984E+03  0.39332337670E+03 -0.25016183452E+03  0.81586200031E+03  0.78889375582E+02 0.  0.
         24    2    4    4    0    0  0.24043244545E+03 -0.39377669298E+03 -0.38362596246E+03  0.60515801863E+03  0.78609819268E+02 0.  0.
         13    1    3    3    0    0 -0.17072852139E+03  0.19126786030E+02 -0.15733329888E+03  0.23295456402E+03  0.00000000000E+00 0. -1.
        -13    1    3    3    0    0 -0.73462726389E+03 -0.18673469756E+02 -0.46293210927E+03  0.86852291456E+03  0.00000000000E+00 0.  1.
          4    1    6    6  502    0  0.41640520234E+02 -0.12527738552E+03 -0.13408492602E+03  0.18816780711E+03  0.00000000000E+00 0. -1.
          3    1    5    5  503    0  0.18025180054E+03  0.93433964431E+02 -0.10076882106E+03  0.22666047870E+03  0.00000000000E+00 0. -1.
         -4    1    5    5    0  503  0.48467153930E+03  0.29988941227E+03 -0.14939301347E+03  0.58920152161E+03  0.00000000000E+00 0.  1.
         -3    1    6    6    0  502  0.19879192521E+03 -0.26849930745E+03 -0.24954103645E+03  0.41699021152E+03  0.00000000000E+00 0.  1.
<mgrwt>
<rscale>  0 0.21886855E+04</rscale>
<asrwt>0</asrwt>
<pdfrwt beam="1">  1        2 0.29050389E+00 0.21886855E+04</pdfrwt>
<pdfrwt beam="2">  1       -2 0.97572641E-01 0.21886855E+04</pdfrwt>
<totfact> 0.61729159E+00</totfact>
</mgrwt>
</event>
<event>
12    1  0.1495204E-007  0.1534400E+04  0.7818608E-02  0.8861894E-01
         -1   -1    0    0    0  501 -0.00000000000E+00  0.00000000000E+00  0.24151566620E+03  0.24151566620E+03  0.00000000000E+00 0.  1.
          1   -1    0    0  501    0  0.00000000000E+00 -0.00000000000E+00 -0.24370907767E+04  0.24370907767E+04  0.00000000000E+00 0. -1.
         23    2    1    2    0    0 -0.28143800905E+02 -0.16488281552E+03  0.92376760243E+02  0.21112568988E+03  0.89789613601E+02 0.  0.
        254    2    1    2    0    0  0.28143800905E+02  0.16488281552E+03 -0.22879518708E+04  0.24674807530E+04  0.90871287396E+03 0.  0.
        -24    2    4    4    0    0 -0.31762091827E+03 -0.69372222000E+02 -0.35429267131E+03  0.48760079180E+03  0.80843566914E+02 0.  0.
         24    2    4    4    0    0  0.34576471918E+03  0.23425503752E+03 -0.19336591994E+04  0.19798799612E+04  0.80362289955E+02 0.  0.
         13    1    3    3    0    0 -0.22862125789E+02 -0.14273990153E+03  0.34051589514E+02  0.14851554475E+03  0.00000000000E+00 0. -1.
        -13    1    3    3    0    0 -0.52816751151E+01 -0.22142913986E+02  0.58325170729E+02  0.62610145123E+02  0.00000000000E+00 0.  1.
          4    1    6    6  502    0  0.26533226626E+03  0.16825435700E+03 -0.12801879026E+04  0.13181774562E+04  0.00000000000E+00 0. -1.
          3    1    5    5  503    0 -0.15121005600E+03 -0.50917376210E+02 -0.22611026139E+03  0.27673617497E+03  0.00000000000E+00 0. -1.
         -4    1    5    5    0  503 -0.16641086227E+03 -0.18454845790E+02 -0.12818240993E+03  0.21086461683E+03  0.00000000000E+00 0.  1.
         -3    1    6    6    0  502  0.80432452918E+02  0.66000680513E+02 -0.65347129689E+03  0.66170250503E+03  0.00000000000E+00 0.  1.
<mgrwt>
<rscale>  0 0.15343997E+04</rscale>
<asrwt>0</asrwt>
<pdfrwt beam="1">  1        1 0.37493702E+00 0.15343997E+04</pdfrwt>
<pdfrwt beam="2">  1       -1 0.37156259E-01 0.15343997E+04</pdfrwt>
<totfact> 0.10086705E+01</totfact>
</mgrwt>
</event>
<event>
12    1  0.1495204E-007  0.1614786E+04  0.7818608E-02  0.8811515E-01
         -2   -1    0    0    0  501 -0.00000000000E+00  0.00000000000E+00  0.10055965997E+04  0.10055965997E+04  0.00000000000E+00 0.  1.
          2   -1    0    0  501    0  0.00000000000E+00 -0.00000000000E+00 -0.64825550816E+03  0.64825550816E+03  0.00000000000E+00 0. -1.
         23    2    1    2    0    0  0.20412517093E+03 -0.15952391836E+03 -0.37640027964E+03  0.46591165124E+03  0.91002913760E+02 0.  0.
        254    2    1    2    0    0 -0.20412517093E+03  0.15952391836E+03  0.73374137118E+03  0.11879404566E+04  0.89761415026E+03 0.  0.
        -24    2    4    4    0    0  0.50122800776E+02  0.41938812735E+03  0.82824467835E+02  0.43819175428E+03  0.82179221974E+02 0.  0.
         24    2    4    4    0    0 -0.25424797170E+03 -0.25986420900E+03  0.65091690335E+03  0.74974870234E+03  0.79112978443E+02 0.  0.
         13    1    3    3    0    0  0.12087496492E+03 -0.13255733044E+03 -0.30097780244E+03  0.35038527447E+03  0.00000000000E+00 0. -1.
        -13    1    3    3    0    0  0.83250206006E+02 -0.26966587915E+02 -0.75422477196E+02  0.11552637677E+03  0.00000000000E+00 0.  1.
          4    1    6    6  502    0 -0.17636862047E+03 -0.12894900051E+03  0.41338163582E+03  0.46756615773E+03  0.00000000000E+00 0. -1.
          1    1    5    5  503    0  0.14847080320E+02  0.27080150326E+03  0.88750056773E+02  0.28536023294E+03  0.00000000000E+00 0. -1.
         -4    1    5    5    0  503  0.35275720457E+02  0.14858662409E+03 -0.59255889384E+01  0.15283152135E+03  0.00000000000E+00 0.  1.
         -3    1    6    6    0  502 -0.77879351231E+02 -0.13091520849E+03  0.23753526753E+03  0.28218254461E+03  0.00000000000E+00 0.  1.
<mgrwt>
<rscale>  0 0.16147861E+04</rscale>
<asrwt>0</asrwt>
<pdfrwt beam="1">  1        2 0.99731617E-01 0.16147861E+04</pdfrwt>
<pdfrwt beam="2">  1       -2 0.15470717E+00 0.16147861E+04</pdfrwt>
<totfact> 0.11914398E+01</totfact>
</mgrwt>
</event>
<event>
12    1  0.1495204E-007  0.1627105E+04  0.7818608E-02  0.8804067E-01
         -1   -1    0    0    0  501 -0.00000000000E+00  0.00000000000E+00  0.30025137710E+03  0.30025137710E+03  0.00000000000E+00 0.  1.
          1   -1    0    0  501    0  0.00000000000E+00 -0.00000000000E+00 -0.22043795196E+04  0.22043795196E+04  0.00000000000E+00 0. -1.
         23    2    1    2    0    0  0.15691812843E+02  0.55333592687E+03 -0.71737032960E+03  0.91088741746E+03  0.93106479606E+02 0.  0.
        254    2    1    2    0    0 -0.15691812843E+02 -0.55333592687E+03 -0.11867578129E+04  0.15937434793E+04  0.90840370441E+03 0.  0.
        -24    2    4    4    0    0  0.42995328140E+03 -0.32059106739E+03 -0.73575645889E+03  0.91340285812E+03  0.72998340759E+02 0.  0.
         24    2    4    4    0    0 -0.44564509425E+03 -0.23274485948E+03 -0.45100135406E+03  0.68034062115E+03  0.81801098902E+02 0.  0.
         11    1    3    3    0    0  0.55125268784E+01  0.11217973596E+03 -0.90292273520E+02  0.14410890247E+03  0.00000000000E+00 0.  1.
        -11    1    3    3    0    0  0.10179285965E+02  0.44115619091E+03 -0.62707805608E+03  0.76677851499E+03  0.00000000000E+00 0. -1.
          2    1    6    6  502    0 -0.13967296823E+02  0.66938213309E+01 -0.10262812473E+02  0.18580041561E+02  0.00000000000E+00 0. -1.
          3    1    5    5  503    0  0.19112051993E+03 -0.13361812892E+03 -0.26076144591E+03  0.34982479785E+03  0.00000000000E+00 0. -1.
         -4    1    5    5    0  503  0.23883276147E+03 -0.18697293846E+03 -0.47499501297E+03  0.56357806027E+03  0.00000000000E+00 0.  1.
         -1    1    6    6    0  502 -0.43167779743E+03 -0.23943868081E+03 -0.44073854158E+03  0.66176057959E+03  0.00000000000E+00 0.  1.
<mgrwt>
<rscale>  0 0.16271054E+04</rscale>
<asrwt>0</asrwt>
<pdfrwt beam="1">  1        1 0.33913532E+00 0.16271054E+04</pdfrwt>
<pdfrwt beam="2">  1       -1 0.46192519E-01 0.16271054E+04</pdfrwt>
<totfact> 0.96674809E+00</totfact>
</mgrwt>
</event>
<event>
12    1  0.1495204E-007  0.1986979E+04  0.7818608E-02  0.8612733E-01
          1   -1    0    0  501    0  0.00000000000E+00  0.00000000000E+00  0.91163925981E+03  0.91163925981E+03  0.00000000000E+00 0. -1.
         -1   -1    0    0    0  501 -0.00000000000E+00 -0.00000000000E+00 -0.10826885546E+04  0.10826885546E+04  0.00000000000E+00 0.  1.
         23    2    1    2    0    0 -0.10910128039E+02  0.78386988579E+03 -0.14746898467E+03  0.80294048749E+03  0.91625849417E+02 0.  0.
        254    2    1    2    0    0  0.10910128039E+02 -0.78386988579E+03 -0.23580310081E+02  0.11913873269E+04  0.89681475394E+03 0.  0.
        -24    2    4    4    0    0  0.22722133399E+02 -0.29249333962E+03  0.42402054310E+03  0.52175912822E+03  0.79815523826E+02 0.  0.
         24    2    4    4    0    0 -0.11812005359E+02 -0.49137654616E+03 -0.44760085318E+03  0.66962819866E+03  0.80405018959E+02 0.  0.
         13    1    3    3    0    0 -0.15402385471E+01  0.26383621756E+03 -0.59275537960E+01  0.26390729040E+03  0.00000000000E+00 0. -1.
        -13    1    3    3    0    0 -0.93698894921E+01  0.52003366823E+03 -0.14154143087E+03  0.53903319710E+03  0.00000000000E+00 0.  1.
          4    1    6    6  502    0 -0.32784703647E+02 -0.45253179817E+03 -0.40252639939E+03  0.60653719371E+03  0.00000000000E+00 0. -1.
          1    1    5    5  503    0  0.80870382552E+01 -0.10648652085E+03  0.22440841096E+03  0.24852346815E+03  0.00000000000E+00 0. -1.
         -2    1    5    5    0  503  0.14635095143E+02 -0.18600681877E+03  0.19961213214E+03  0.27323566007E+03  0.00000000000E+00 0.  1.
         -3    1    6    6    0  502  0.20972698288E+02 -0.38844747992E+02 -0.45074453798E+02  0.63091004947E+02  0.00000000000E+00 0.  1.
<mgrwt>
<rscale>  0 0.19869790E+04</rscale>
<asrwt>0</asrwt>
<pdfrwt beam="1">  1        1 0.14025219E+00 0.19869790E+04</pdfrwt>
<pdfrwt beam="2">  1       -1 0.16656747E+00 0.19869790E+04</pdfrwt>
<totfact> 0.43129147E+00</totfact>
</mgrwt>
</event>
<event>
12    1  0.1495204E-007  0.3356543E+04  0.7818608E-02  0.8148655E-01
          2   -1    0    0  501    0  0.00000000000E+00  0.00000000000E+00  0.16519551303E+04  0.16519551303E+04  0.00000000000E+00 0. -1.
         -2   -1    0    0    0  501 -0.00000000000E+00 -0.00000000000E+00 -0.17050073450E+04  0.17050073450E+04  0.00000000000E+00 0.  1.
         23    2    1    2    0    0 -0.83431690934E+03  0.11910487770E+04  0.53222135555E+03  0.15512232372E+04  0.91389638478E+02 0.  0.
        254    2    1    2    0    0  0.83431690934E+03 -0.11910487770E+04 -0.58527357025E+03  0.18057392381E+04  0.89636329101E+03 0.  0.
        -24    2    4    4    0    0  0.33221673641E+03 -0.45768811003E+03 -0.70266838268E+03  0.90565454649E+03  0.81369131389E+02 0.  0.
         24    2    4    4    0    0  0.50210017294E+03 -0.73336066693E+03  0.11739481243E+03  0.90008469156E+03  0.80302294630E+02 0.  0.
         13    1    3    3    0    0  0.20636759754E+01  0.66791958723E+01  0.10416743550E+01  0.70679205919E+01  0.00000000000E+00 0.  1.
        -13    1    3    3    0    0 -0.83638058532E+03  0.11843695811E+04  0.53117968119E+03  0.15441553166E+04  0.00000000000E+00 0. -1.
          4    1    6    6  502    0  0.34874882510E+03 -0.56211776301E+03  0.10579114933E+03  0.66992080858E+03  0.00000000000E+00 0. -1.
          3    1    5    5  503    0  0.24497165822E+03 -0.27972445904E+03 -0.48743378312E+03  0.61306490622E+03  0.00000000000E+00 0. -1.
         -4    1    5    5    0  503  0.87245078190E+02 -0.17796365100E+03 -0.21523459956E+03  0.29258964027E+03  0.00000000000E+00 0.  1.
         -3    1    6    6    0  502  0.15335134784E+03 -0.17124290393E+03  0.11603663104E+02  0.23016388297E+03  0.00000000000E+00 0.  1.
<mgrwt>
<rscale>  0 0.33565432E+04</rscale>
<asrwt>0</asrwt>
<pdfrwt beam="1">  1        2 0.25414694E+00 0.33565432E+04</pdfrwt>
<pdfrwt beam="2">  1       -2 0.26230882E+00 0.33565432E+04</pdfrwt>
<totfact> 0.46834574E-01</totfact>
</mgrwt>
</event>
<event>
12    1  0.1495204E-007  0.1129429E+04  0.7818608E-02  0.9176974E-01
          2   -1    0    0  501    0  0.00000000000E+00  0.00000000000E+00  0.11025562726E+04  0.11025562726E+04  0.00000000000E+00 0. -1.
         -2   -1    0    0    0  501 -0.00000000000E+00 -0.00000000000E+00 -0.28923922529E+03  0.28923922529E+03  0.00000000000E+00 0.  1.
         23    2    1    2    0    0 -0.14653302481E+02  0.16685224089E+03  0.27057744180E+03  0.33140280872E+03  0.92527185485E+02 0.  0.
        254    2    1    2    0    0  0.14653302481E+02 -0.16685224089E+03  0.54273960554E+03  0.10603926892E+04  0.89543954923E+03 0.  0.
        -24    2    4    4    0    0  0.16196458895E+03  0.12262510170E+03  0.66913432666E+03  0.70409009540E+03  0.82052859044E+02 0.  0.
         24    2    4    4    0    0 -0.14731128647E+03 -0.28947734259E+03 -0.12639472113E+03  0.35630259380E+03  0.74014632513E+02 0.  0.
         11    1    3    3    0    0 -0.16019098255E+02  0.46148656221E+02  0.16144146755E+03  0.16867026242E+03  0.00000000000E+00 0. -1.
        -11    1    3    3    0    0  0.13657957742E+01  0.12070358467E+03  0.10913597424E+03  0.16273254630E+03  0.00000000000E+00 0.  1.
          4    1    6    6  502    0 -0.26744827069E+02 -0.66741694154E+02  0.28520369301E+01  0.71957443174E+02  0.00000000000E+00 0. -1.
          1    1    5    5  503    0  0.37850940792E+02  0.11699835695E+02  0.54914698854E+02  0.67714134598E+02  0.00000000000E+00 0. -1.
         -2    1    5    5    0  503  0.12411364816E+03  0.11092526600E+03  0.61421962781E+03  0.63637596080E+03  0.00000000000E+00 0.  1.
         -3    1    6    6    0  502 -0.12056645940E+03 -0.22273564843E+03 -0.12924675806E+03  0.28434515062E+03  0.00000000000E+00 0.  1.
<mgrwt>
<rscale>  0 0.11294291E+04</rscale>
<asrwt>0</asrwt>
<pdfrwt beam="1">  1        2 0.16962404E+00 0.11294291E+04</pdfrwt>
<pdfrwt beam="2">  1       -2 0.44498343E-01 0.11294291E+04</pdfrwt>
<totfact> 0.10298804E+02</totfact>
</mgrwt>
</event>
<event>
12    1  0.1495204E-007  0.1917109E+04  0.7818608E-02  0.8646387E-01
         -1   -1    0    0    0  501 -0.00000000000E+00  0.00000000000E+00  0.48648454026E+03  0.48648454026E+03  0.00000000000E+00 0.  1.
          1   -1    0    0  501    0  0.00000000000E+00 -0.00000000000E+00 -0.18887064619E+04  0.18887064619E+04  0.00000000000E+00 0. -1.
         23    2    1    2    0    0  0.21566767779E+03 -0.16536787282E+03  0.26416450443E+03  0.38986327295E+03  0.91386025127E+02 0.  0.
        254    2    1    2    0    0 -0.21566767779E+03  0.16536787282E+03 -0.16663864261E+04  0.19853277292E+04  0.10444249091E+04 0.  0.
        -24    2    4    4    0    0 -0.56297875069E+03 -0.10849948682E+03 -0.63396064151E+03  0.85917335127E+03  0.86922610259E+02 0.  0.
         24    2    4    4    0    0  0.34731107290E+03  0.27386735964E+03 -0.10324257846E+04  0.11261543780E+04  0.81806908537E+02 0.  0.
         11    1    3    3    0    0  0.14506531368E+02  0.11166304148E+02  0.24628624190E+02  0.30687048247E+02  0.00000000000E+00 0. -1.
        -11    1    3    3    0    0  0.20116114642E+03 -0.17653417697E+03  0.23953588024E+03  0.35917622470E+03  0.00000000000E+00 0.  1.
          2    1    6    6  502    0  0.13815861409E+03  0.61910353698E+02 -0.32030908099E+03  0.35428604532E+03  0.00000000000E+00 0. -1.
          1    1    5    5  503    0 -0.40054800594E+03 -0.59509198250E+02 -0.49732348569E+03  0.64133509116E+03  0.00000000000E+00 0. -1.
         -2    1    5    5    0  503 -0.16243074475E+03 -0.48990288572E+02 -0.13663715582E+03  0.21783826011E+03  0.00000000000E+00 0.  1.
         -1    1    6    6    0  502  0.20915245881E+03  0.21195700594E+03 -0.71211670360E+03  0.77186833264E+03  0.00000000000E+00 0.  1.
<mgrwt>
<rscale>  0 0.19171088E+04</rscale>
<asrwt>0</asrwt>
<pdfrwt beam="1">  1        1 0.29057022E+00 0.19171088E+04</pdfrwt>
<pdfrwt beam="2">  1       -1 0.74843777E-01 0.19171088E+04</pdfrwt>
<totfact> 0.59488738E+00</totfact>
</mgrwt>
</event>
<event>
12    1  0.1495204E-007  0.2166155E+04  0.7818608E-02  0.8532649E-01
          1   -1    0    0  501    0  0.00000000000E+00  0.00000000000E+00  0.15648885882E+04  0.15648885882E+04  0.00000000000E+00 0. -1.
         -1   -1    0    0    0  501 -0.00000000000E+00 -0.00000000000E+00 -0.74961015050E+03  0.74961015050E+03  0.00000000000E+00 0.  1.
         23    2    1    2    0    0 -0.61954285511E+03  0.42795481397E+03  0.81223402811E+03  0.11113726041E+04  0.91903626669E+02 0.  0.
        254    2    1    2    0    0  0.61954285511E+03 -0.42795481397E+03  0.30444095916E+01  0.12031261346E+04  0.93836269920E+03 0.  0.
        -24    2    4    4    0    0  0.60956259324E+03 -0.78189666527E+02  0.34371266521E+03  0.70828682947E+03  0.76496127572E+02 0.  0.
         24    2    4    4    0    0  0.99802618642E+01 -0.34976514744E+03 -0.34066825562E+03  0.49483930515E+03  0.79848691566E+02 0.  0.
         11    1    3    3    0    0 -0.49346858486E+03  0.31328940517E+03  0.67224575724E+03  0.89082874547E+03  0.00000000000E+00 0. -1.
        -11    1    3    3    0    0 -0.12607427025E+03  0.11466540880E+03  0.13998827087E+03  0.22054385862E+03  0.00000000000E+00 0.  1.
          4    1    6    6  502    0  0.36758800884E+01 -0.75195543855E+02 -0.32362859794E+02  0.81946547237E+02  0.00000000000E+00 0. -1.
          3    1    5    5  503    0  0.20909228691E+03  0.72977944689E+01  0.10174807509E+03  0.23264890508E+03  0.00000000000E+00 0. -1.
         -2    1    5    5    0  503  0.40047030633E+03 -0.85487460996E+02  0.24196459013E+03  0.47563792439E+03  0.00000000000E+00 0.  1.
         -3    1    6    6    0  502  0.63043817757E+01 -0.27456960359E+03 -0.30830539583E+03  0.41289275792E+03  0.00000000000E+00 0.  1.
<mgrwt>
<rscale>  0 0.21661545E+04</rscale>
<asrwt>0</asrwt>
<pdfrwt beam="1">  1        1 0.24075209E+00 0.21661545E+04</pdfrwt>
<pdfrwt beam="2">  1       -1 0.11532464E+00 0.21661545E+04</pdfrwt>
<totfact> 0.36776893E+00</totfact>
</mgrwt>
</event>
<event>
12    1  0.1495204E-007  0.2266187E+04  0.7818608E-02  0.8491374E-01
         -2   -1    0    0    0  501 -0.00000000000E+00  0.00000000000E+00  0.94566374320E+03  0.94566374320E+03  0.00000000000E+00 0.  1.
          2   -1    0    0  501    0  0.00000000000E+00 -0.00000000000E+00 -0.13576713996E+04  0.13576713996E+04  0.00000000000E+00 0. -1.
         23    2    1    2    0    0 -0.94220100678E+03 -0.80935903084E+02 -0.64713679166E+02  0.95223705542E+03  0.90962584906E+02 0.  0.
        254    2    1    2    0    0  0.94220100678E+03  0.80935903084E+02 -0.34729397724E+03  0.13510980874E+04  0.90031082274E+03 0.  0.
        -24    2    4    4    0    0  0.59255786889E+03  0.47707478513E+03 -0.27319939313E+03  0.81232459699E+03  0.80673191767E+02 0.  0.
         24    2    4    4    0    0  0.34964313789E+03 -0.39613888205E+03 -0.74094584105E+02  0.53877349040E+03  0.74903463348E+02 0.  0.
         11    1    3    3    0    0 -0.26739049008E+03 -0.25709055107E+02 -0.59576866627E+02  0.27515092720E+03  0.00000000000E+00 0. -1.
        -11    1    3    3    0    0 -0.67481051670E+03 -0.55226847976E+02 -0.51368125390E+01  0.67708612822E+03  0.00000000000E+00 0.  1.
          4    1    6    6  502    0  0.38397038107E+02 -0.74792920244E+02  0.60239257603E+01  0.84288796026E+02  0.00000000000E+00 0. -1.
          3    1    5    5  503    0  0.76107986345E+02  0.33135379531E+02 -0.17222896413E+02  0.84776217909E+02  0.00000000000E+00 0. -1.
         -4    1    5    5    0  503  0.51644988255E+03  0.44393940560E+03 -0.25597649672E+03  0.72754837908E+03  0.00000000000E+00 0.  1.
         -3    1    6    6    0  502  0.31124609978E+03 -0.32134596181E+03 -0.80118509865E+02  0.45448469437E+03  0.00000000000E+00 0.  1.
<mgrwt>
<rscale>  0 0.22661868E+04</rscale>
<asrwt>0</asrwt>
<pdfrwt beam="1">  1        2 0.20887252E+00 0.22661868E+04</pdfrwt>
<pdfrwt beam="2">  1       -2 0.14548673E+00 0.22661868E+04</pdfrwt>
<totfact> 0.45200179E+00</totfact>
</mgrwt>
</event>
<event>
12    1  0.1495204E-007  0.1061019E+04  0.7818608E-02  0.9244041E-01
         -1   -1    0    0    0  501 -0.00000000000E+00  0.00000000000E+00  0.26230685224E+03  0.26230685224E+03  0.00000000000E+00 0.  1.
          1   -1    0    0  501    0  0.00000000000E+00 -0.00000000000E+00 -0.10729429212E+04  0.10729429212E+04  0.00000000000E+00 0. -1.
         23    2    1    2    0    0 -0.68083032915E+01  0.14875497689E+03 -0.80224961606E+02  0.19166542972E+03  0.90139870993E+02 0.  0.
        254    2    1    2    0    0  0.68083032915E+01 -0.14875497689E+03 -0.73041110736E+03  0.11435843437E+04  0.86724297016E+03 0.  0.
        -24    2    4    4    0    0  0.18006247728E+03  0.21975719026E+03  0.98841295766E+01  0.29505348684E+03  0.79013579131E+02 0.  0.
         24    2    4    4    0    0 -0.17325417399E+03 -0.36851216715E+03 -0.74029523693E+03  0.84853085687E+03  0.78417798290E+02 0.  0.
         13    1    3    3    0    0  0.23094273017E+02  0.42864826982E+02 -0.64043481597E+02  0.80450645575E+02  0.00000000000E+00 0. -1.
        -13    1    3    3    0    0 -0.29902576309E+02  0.10589014991E+03 -0.16181480009E+02  0.11121478415E+03  0.00000000000E+00 0.  1.
          2    1    6    6  502    0 -0.16971340685E+03 -0.36713770587E+03 -0.70305513035E+03  0.81109756001E+03  0.00000000000E+00 0. -1.
          1    1    5    5  503    0  0.89715695816E+02  0.93752575337E+02  0.42629453875E+02  0.13658595021E+03  0.00000000000E+00 0. -1.
         -2    1    5    5    0  503  0.90346781462E+02  0.12600461492E+03 -0.32745324298E+02  0.15846753663E+03  0.00000000000E+00 0.  1.
         -1    1    6    6    0  502 -0.35407671361E+01 -0.13744612839E+01 -0.37240106581E+02  0.37433296861E+02  0.00000000000E+00 0.  1.
<mgrwt>
<rscale>  0 0.10610189E+04</rscale>
<asrwt>0</asrwt>
<pdfrwt beam="1">  1        1 0.16506814E+00 0.10610189E+04</pdfrwt>
<pdfrwt beam="2">  1       -1 0.40354900E-01 0.10610189E+04</pdfrwt>
<totfact> 0.79508522E+01</totfact>
</mgrwt>
</event>
<event>
12    1  0.1495204E-007  0.1848632E+04  0.7818608E-02  0.8680857E-01
         -1   -1    0    0    0  501 -0.00000000000E+00  0.00000000000E+00  0.60727653006E+03  0.60727653006E+03  0.00000000000E+00 0.  1.
          1   -1    0    0  501    0  0.00000000000E+00 -0.00000000000E+00 -0.14068717796E+04  0.14068717796E+04  0.00000000000E+00 0. -1.
         23    2    1    2    0    0 -0.57704138403E+03  0.20392062249E+03 -0.68009557530E+03  0.91932366482E+03  0.89808852443E+02 0.  0.
        254    2    1    2    0    0  0.57704138403E+03 -0.20392062249E+03 -0.11949967424E+03  0.10948246449E+04  0.89988913299E+03 0.  0.
        -24    2    4    4    0    0  0.36170419811E+03  0.33498439120E+03 -0.13296794376E+02  0.49947293922E+03  0.79069229150E+02 0.  0.
         24    2    4    4    0    0  0.21533718592E+03 -0.53890501369E+03 -0.10620287987E+03  0.59535170563E+03  0.79849134526E+02 0.  0.
         13    1    3    3    0    0 -0.10405846584E+03  0.39906703705E+02 -0.76675108747E+02  0.13527668541E+03  0.00000000000E+00 0.  1.
        -13    1    3    3    0    0 -0.47298291819E+03  0.16401391879E+03 -0.60342046656E+03  0.78404697941E+03  0.00000000000E+00 0. -1.
          2    1    6    6  502    0  0.67526077705E+02 -0.26531525499E+03 -0.31842779881E+02  0.27561915451E+03  0.00000000000E+00 0. -1.
          1    1    5    5  503    0  0.22620076300E+03  0.16181207994E+03 -0.25249453526E+02  0.27926236642E+03  0.00000000000E+00 0. -1.
         -2    1    5    5    0  503  0.13550343511E+03  0.17317231125E+03  0.11952659150E+02  0.22021057280E+03  0.00000000000E+00 0.  1.
         -1    1    6    6    0  502  0.14781110822E+03 -0.27358975870E+03 -0.74360099986E+02  0.31973255112E+03  0.00000000000E+00 0.  1.
<mgrwt>
<rscale>  0 0.18486322E+04</rscale>
<asrwt>0</asrwt>
<pdfrwt beam="1">  1        1 0.21644181E+00 0.18486322E+04</pdfrwt>
<pdfrwt beam="2">  1       -1 0.93427159E-01 0.18486322E+04</pdfrwt>
<totfact> 0.79366591E+00</totfact>
</mgrwt>
</event>
<event>
12    1  0.1495204E-007  0.1795150E+04  0.7818608E-02  0.8708883E-01
         -2   -1    0    0    0  501 -0.00000000000E+00  0.00000000000E+00  0.35920905757E+03  0.35920905757E+03  0.00000000000E+00 0.  1.
          2   -1    0    0  501    0  0.00000000000E+00 -0.00000000000E+00 -0.22428191264E+04  0.22428191264E+04  0.00000000000E+00 0. -1.
         23    2    1    2    0    0 -0.13055759946E+02 -0.15428838208E+02  0.26039498515E+03  0.27841180608E+03  0.96431755974E+02 0.  0.
        254    2    1    2    0    0  0.13055759946E+02  0.15428838208E+02 -0.21440050540E+04  0.23236163779E+04  0.89555954473E+03 0.  0.
        -24    2    4    4    0    0 -0.65972585930E+02 -0.20068260927E+03 -0.71052194009E+02  0.23654700084E+03  0.79247571426E+02 0.  0.
         24    2    4    4    0    0  0.79028345876E+02  0.21611144748E+03 -0.20729528600E+04  0.20870693771E+04  0.75995971716E+02 0.  0.
         13    1    3    3    0    0  0.90530291755E+01  0.32420908284E+02  0.42412941999E+02  0.54147301690E+02  0.00000000000E+00 0. -1.
        -13    1    3    3    0    0 -0.22108789121E+02 -0.47849746492E+02  0.21798204315E+03  0.22426450439E+03  0.00000000000E+00 0.  1.
          4    1    6    6  502    0  0.35589386932E+02  0.65649670964E+02 -0.99520460897E+03  0.99800235344E+03  0.00000000000E+00 0. -1.
          1    1    5    5  503    0 -0.56660793191E+02 -0.67557649576E+02 -0.68009230266E+01  0.88434914232E+02  0.00000000000E+00 0. -1.
         -2    1    5    5    0  503 -0.93117927392E+01 -0.13312495969E+03 -0.64251270982E+02  0.14811208661E+03  0.00000000000E+00 0.  1.
         -3    1    6    6    0  502  0.43438958943E+02  0.15046177651E+03 -0.10777482511E+04  0.10890670236E+04  0.00000000000E+00 0.  1.
<mgrwt>
<rscale>  0 0.17951501E+04</rscale>
<asrwt>0</asrwt>
<pdfrwt beam="1">  1        2 0.34504910E+00 0.17951501E+04</pdfrwt>
<pdfrwt beam="2">  1       -2 0.55262932E-01 0.17951501E+04</pdfrwt>
<totfact> 0.14206042E+01</totfact>
</mgrwt>
</event>
<event>
12    1  0.1495204E-007  0.2707712E+04  0.7818608E-02  0.8332507E-01
         -2   -1    0    0    0  501 -0.00000000000E+00  0.00000000000E+00  0.10941808508E+04  0.10941808508E+04  0.00000000000E+00 0.  1.
          2   -1    0    0  501    0  0.00000000000E+00 -0.00000000000E+00 -0.16751576462E+04  0.16751576462E+04  0.00000000000E+00 0. -1.
         23    2    1    2    0    0  0.13935098140E+03 -0.95323769363E+03  0.48000056593E+03  0.10799967265E+04  0.88947115182E+02 0.  0.
        254    2    1    2    0    0 -0.13935098140E+03  0.95323769363E+03 -0.10609773614E+04  0.16893417705E+04  0.89449531010E+03 0.  0.
        -24    2    4    4    0    0 -0.13269749351E+02  0.89149138632E+03 -0.11857715594E+04  0.14857779567E+04  0.80925690706E+02 0.  0.
         24    2    4    4    0    0 -0.12608123205E+03  0.61746307312E+02  0.12479419809E+03  0.20356381379E+03  0.78457318768E+02 0.  0.
         11    1    3    3    0    0 -0.49449843484E+01 -0.24024838927E+02  0.69412892176E+00  0.24538287850E+02  0.00000000000E+00 0. -1.
        -11    1    3    3    0    0  0.14429596575E+03 -0.92921285470E+03  0.47930643701E+03  0.10554584386E+04  0.00000000000E+00 0.  1.
          4    1    6    6  502    0 -0.98248187591E+02  0.73149956036E+01  0.88716031546E+02  0.13257733509E+03  0.00000000000E+00 0. -1.
          1    1    5    5  503    0 -0.16121494124E+02  0.63336595550E+03 -0.78059119894E+03  0.10053531499E+04  0.00000000000E+00 0. -1.
         -2    1    5    5    0  503  0.28517447733E+01  0.25812543082E+03 -0.40518036051E+03  0.48042480684E+03  0.00000000000E+00 0.  1.
         -3    1    6    6    0  502 -0.27833044457E+02  0.54431311709E+02  0.36078166542E+02  0.70986478706E+02  0.00000000000E+00 0.  1.
<mgrwt>
<rscale>  0 0.27077115E+04</rscale>
<asrwt>0</asrwt>
<pdfrwt beam="1">  1        2 0.25771656E+00 0.27077115E+04</pdfrwt>
<pdfrwt beam="2">  1       -2 0.16833552E+00 0.27077115E+04</pdfrwt>
<totfact> 0.19447045E+00</totfact>
</mgrwt>
</event>
<event>
12    1  0.1495204E-007  0.1048516E+04  0.7818608E-02  0.9256877E-01
          1   -1    0    0  501    0  0.00000000000E+00  0.00000000000E+00  0.35333704796E+04  0.35333704796E+04  0.00000000000E+00 0. -1.
         -1   -1    0    0    0  501 -0.00000000000E+00 -0.00000000000E+00 -0.77785944581E+02  0.77785944581E+02  0.00000000000E+00 0.  1.
         23    2    1    2    0    0 -0.54663167475E+02 -0.57966834171E+02  0.58210605468E+03  0.59226185647E+03  0.74688901437E+02 0.  0.
        254    2    1    2    0    0  0.54663167475E+02  0.57966834171E+02  0.28734784803E+04  0.30188945677E+04  0.92222427761E+03 0.  0.
        -24    2    4    4    0    0  0.31241256668E+03  0.32470653455E+03  0.21929675416E+04  0.22401858723E+04  0.79310520849E+02 0.  0.
         24    2    4    4    0    0 -0.25774939920E+03 -0.26673970038E+03  0.68051093872E+03  0.77870869534E+03  0.75546501878E+02 0.  0.
         11    1    3    3    0    0 -0.36774240662E+02 -0.48984234542E+02  0.55600445863E+03  0.55936817752E+03  0.00000000000E+00 0. -1.
        -11    1    3    3    0    0 -0.17888926813E+02 -0.89825996292E+01  0.26101596053E+02  0.32893678954E+02  0.00000000000E+00 0.  1.
          2    1    6    6  502    0  0.26272971903E+01 -0.12812511779E+02  0.12414917159E+02  0.18033117220E+02  0.00000000000E+00 0. -1.
          3    1    5    5  503    0  0.65916828992E+02  0.28091056535E+02  0.32020000416E+03  0.32811915285E+03  0.00000000000E+00 0. -1.
         -4    1    5    5    0  503  0.24649573769E+03  0.29661547801E+03  0.18727675374E+04  0.19120667195E+04  0.00000000000E+00 0.  1.
         -1    1    6    6    0  502 -0.26037669639E+03 -0.25392718860E+03  0.66809602156E+03  0.76067557812E+03  0.00000000000E+00 0.  1.
<mgrwt>
<rscale>  0 0.10485162E+04</rscale>
<asrwt>0</asrwt>
<pdfrwt beam="1">  1        1 0.54359533E+00 0.10485162E+04</pdfrwt>
<pdfrwt beam="2">  1       -1 0.11967071E-01 0.10485162E+04</pdfrwt>
<totfact> 0.11511370E+01</totfact>
</mgrwt>
</event>
<event>
12    1  0.1495204E-007  0.2130246E+04  0.7818608E-02  0.8548035E-01
          2   -1    0    0  501    0  0.00000000000E+00  0.00000000000E+00  0.12512246561E+04  0.12512246561E+04  0.00000000000E+00 0. -1.
         -2   -1    0    0    0  501 -0.00000000000E+00 -0.00000000000E+00 -0.90670154363E+03  0.90670154363E+03  0.00000000000E+00 0.  1.
         23    2    1    2    0    0 -0.28587186273E+03  0.47159924863E+03 -0.54570203338E+03  0.78114780826E+03  0.90953921911E+02 0.  0.
        254    2    1    2    0    0  0.28587186273E+03 -0.47159924863E+03  0.89022514590E+03  0.13767783915E+04  0.89380610634E+03 0.  0.
        -24    2    4    4    0    0  0.53668560181E+03 -0.46057647201E+02  0.53670119562E+03  0.76397552438E+03  0.73876155937E+02 0.  0.
         24    2    4    4    0    0 -0.25081373907E+03 -0.42554160142E+03  0.35352395027E+03  0.61280286713E+03  0.80962857518E+02 0.  0.
         13    1    3    3    0    0 -0.22283374187E+03  0.38681879221E+03 -0.38877127370E+03  0.59196854458E+03  0.00000000000E+00 0.  1.
        -13    1    3    3    0    0 -0.63038120869E+02  0.84780456414E+02 -0.15693075968E+03  0.18917926368E+03  0.00000000000E+00 0. -1.
          2    1    6    6  502    0 -0.51276647033E+02 -0.38051856523E+02  0.33699362853E+02  0.72200314214E+02  0.00000000000E+00 0. -1.
          3    1    5    5  503    0  0.47476680066E+03 -0.39481300692E+02  0.50444551288E+03  0.69384981342E+03  0.00000000000E+00 0. -1.
         -4    1    5    5    0  503  0.61918801147E+02 -0.65763465099E+01  0.32255682742E+02  0.70125710963E+02  0.00000000000E+00 0.  1.
         -1    1    6    6    0  502 -0.19953709204E+03 -0.38748974490E+03  0.31982458742E+03  0.54060255292E+03  0.00000000000E+00 0.  1.
<mgrwt>
<rscale>  0 0.21302463E+04</rscale>
<asrwt>0</asrwt>
<pdfrwt beam="1">  1        2 0.19249610E+00 0.21302463E+04</pdfrwt>
<pdfrwt beam="2">  1       -2 0.13949254E+00 0.21302463E+04</pdfrwt>
<totfact> 0.58863059E+00</totfact>
</mgrwt>
</event>
<event>
12    1  0.1495204E-007  0.2146895E+04  0.7818608E-02  0.8540863E-01
         -1   -1    0    0    0  501 -0.00000000000E+00  0.00000000000E+00  0.82775531694E+03  0.82775531694E+03  0.00000000000E+00 0.  1.
          1   -1    0    0  501    0  0.00000000000E+00 -0.00000000000E+00 -0.13920650885E+04  0.13920650885E+04  0.00000000000E+00 0. -1.
         23    2    1    2    0    0  0.82813233534E+02 -0.69152267425E+02 -0.11398341048E+04  0.11484632849E+04  0.90033673789E+02 0.  0.
        254    2    1    2    0    0 -0.82813233534E+02  0.69152267425E+02  0.57552433330E+03  0.10713571205E+04  0.89718323311E+03 0.  0.
        -24    2    4    4    0    0 -0.37673875097E+03  0.10091541050E+03  0.64414704474E+03  0.75726936573E+03  0.80096632041E+02 0.  0.
         24    2    4    4    0    0  0.29392551743E+03 -0.31763143071E+02 -0.68622711446E+02  0.31408775481E+03  0.80876041806E+02 0.  0.
         13    1    3    3    0    0  0.95204680833E+02 -0.79748178094E+02 -0.10005096799E+04  0.10081881385E+04  0.00000000000E+00 0. -1.
        -13    1    3    3    0    0 -0.12391447300E+02  0.10595910669E+02 -0.13932442495E+03  0.14027514633E+03  0.00000000000E+00 0.  1.
          4    1    6    6  502    0  0.26754227096E+03 -0.64745208997E+01 -0.47275747730E+02  0.27176420385E+03  0.00000000000E+00 0. -1.
          3    1    5    5  503    0 -0.26711654364E+03  0.87757801364E+02  0.39594684450E+03  0.48561979290E+03  0.00000000000E+00 0. -1.
         -4    1    5    5    0  503 -0.10962220733E+03  0.13157609132E+02  0.24820020025E+03  0.27164957283E+03  0.00000000000E+00 0.  1.
         -3    1    6    6    0  502  0.26383246474E+02 -0.25288622171E+02 -0.21346963716E+02  0.42323550958E+02  0.00000000000E+00 0.  1.
<mgrwt>
<rscale>  0 0.21468948E+04</rscale>
<asrwt>0</asrwt>
<pdfrwt beam="1">  1        1 0.21416386E+00 0.21468948E+04</pdfrwt>
<pdfrwt beam="2">  1       -1 0.12734697E+00 0.21468948E+04</pdfrwt>
<totfact> 0.38079158E+00</totfact>
</mgrwt>
</event>
<event>
12    1  0.1495204E-007  0.1970596E+04  0.7818608E-02  0.8620493E-01
          1   -1    0    0  501    0  0.00000000000E+00  0.00000000000E+00  0.57565732627E+03  0.57565732627E+03  0.00000000000E+00 0. -1.
         -1   -1    0    0    0  501 -0.00000000000E+00 -0.00000000000E+00 -0.16864414365E+04  0.16864414365E+04  0.00000000000E+00 0.  1.
         23    2    1    2    0    0 -0.34201812185E+02 -0.82675298520E+02 -0.13324406312E+04  0.13385283662E+04  0.90858035003E+02 0.  0.
        254    2    1    2    0    0  0.34201812185E+02  0.82675298520E+02  0.22165652103E+03  0.92357039650E+03  0.89210184118E+03 0.  0.
        -24    2    4    4    0    0 -0.19346665178E+01 -0.30871234911E+03  0.37658188244E+03  0.49370883233E+03  0.81409087366E+02 0.  0.
         24    2    4    4    0    0  0.36136478703E+02  0.39138764763E+03 -0.15492536141E+03  0.42986156418E+03  0.79302969283E+02 0.  0.
         11    1    3    3    0    0 -0.36870258762E+02 -0.74896557364E+02 -0.13243954830E+04  0.13270238527E+04  0.00000000000E+00 0.  1.
        -11    1    3    3    0    0  0.26684465767E+01 -0.77787411564E+01 -0.80451482027E+01  0.11504513493E+02  0.00000000000E+00 0. -1.
          4    1    6    6  502    0  0.13010672375E+02  0.86539254180E+02 -0.71370453494E+02  0.11292502708E+03  0.00000000000E+00 0. -1.
          3    1    5    5  503    0 -0.13627900769E+02 -0.12334751775E+02  0.66419525941E+01  0.19544342275E+02  0.00000000000E+00 0. -1.
         -4    1    5    5    0  503  0.11693234251E+02 -0.29637759734E+03  0.36993992985E+03  0.47416449005E+03  0.00000000000E+00 0.  1.
         -3    1    6    6    0  502  0.23125806328E+02  0.30484839345E+03 -0.83554907914E+02  0.31693653710E+03  0.00000000000E+00 0.  1.
<mgrwt>
<rscale>  0 0.19705962E+04</rscale>
<asrwt>0</asrwt>
<pdfrwt beam="1">  1        1 0.88562664E-01 0.19705962E+04</pdfrwt>
<pdfrwt beam="2">  1       -1 0.25945253E+00 0.19705962E+04</pdfrwt>
<totfact> 0.20454644E+00</totfact>
</mgrwt>
</event>
<event>
12    1  0.1495204E-007  0.1761737E+04  0.7818608E-02  0.8726916E-01
          2   -1    0    0  501    0  0.00000000000E+00  0.00000000000E+00  0.24365126862E+04  0.24365126862E+04  0.00000000000E+00 0. -1.
         -2   -1    0    0    0  501 -0.00000000000E+00 -0.00000000000E+00 -0.31845889495E+03  0.31845889495E+03  0.00000000000E+00 0.  1.
         23    2    1    2    0    0 -0.35726900044E+03 -0.26950568071E+03  0.50256706248E+02  0.45928390340E+03  0.90230354014E+02 0.  0.
        254    2    1    2    0    0  0.35726900044E+03  0.26950568071E+03  0.20677970850E+04  0.22956876778E+04  0.89113561170E+03 0.  0.
        -24    2    4    4    0    0  0.20266049504E+03  0.28135312378E+03  0.20901158627E+04  0.21201809950E+04  0.79701165699E+02 0.  0.
         24    2    4    4    0    0  0.15460850540E+03 -0.11847443077E+02 -0.22318777666E+02  0.17550668272E+03  0.79122158665E+02 0.  0.
         13    1    3    3    0    0 -0.31800362447E+03 -0.23704264610E+03  0.73335807469E+02  0.40335302392E+03  0.00000000000E+00 0.  1.
        -13    1    3    3    0    0 -0.39265375977E+02 -0.32463034606E+02 -0.23079101221E+02  0.55930879481E+02  0.00000000000E+00 0. -1.
          2    1    6    6  502    0  0.33906053485E+02  0.29609527809E+02  0.40184246177E+01  0.45193941368E+02  0.00000000000E+00 0. -1.
          1    1    5    5  503    0  0.35483126338E+02  0.99806446326E+02  0.76233877770E+03  0.76966277743E+03  0.00000000000E+00 0. -1.
         -2    1    5    5    0  503  0.16717736870E+03  0.18154667746E+03  0.13277770850E+04  0.13505182176E+04  0.00000000000E+00 0.  1.
         -1    1    6    6    0  502  0.12070245192E+03 -0.41456970886E+02 -0.26337202284E+02  0.13031274135E+03  0.00000000000E+00 0.  1.
<mgrwt>
<rscale>  0 0.17617368E+04</rscale>
<asrwt>0</asrwt>
<pdfrwt beam="1">  1        2 0.37484809E+00 0.17617368E+04</pdfrwt>
<pdfrwt beam="2">  1       -2 0.48993678E-01 0.17617368E+04</pdfrwt>
<totfact> 0.14164274E+01</totfact>
</mgrwt>
</event>
<event>
12    1  0.1495204E-007  0.2132966E+04  0.7818608E-02  0.8546859E-01
         -2   -1    0    0    0  501 -0.00000000000E+00  0.00000000000E+00  0.77954074367E+03  0.77954074367E+03  0.00000000000E+00 0.  1.
          2   -1    0    0  501    0  0.00000000000E+00 -0.00000000000E+00 -0.14590461887E+04  0.14590461887E+04  0.00000000000E+00 0. -1.
         23    2    1    2    0    0  0.61570908863E+03 -0.56992354740E+03 -0.54188598235E+03  0.10028898238E+04  0.90758190354E+02 0.  0.
        254    2    1    2    0    0 -0.61570908863E+03  0.56992354740E+03 -0.13761946266E+03  0.12356971085E+04  0.89671494683E+03 0.  0.
        -24    2    4    4    0    0 -0.54275148227E+03  0.61420637890E+03  0.22621499132E+03  0.85401345133E+03  0.79605938060E+02 0.  0.
         24    2    4    4    0    0 -0.72957606358E+02 -0.44282831504E+02 -0.36383445398E+03  0.38168365721E+03  0.77608780346E+02 0.  0.
         13    1    3    3    0    0  0.55294403056E+03 -0.52604162372E+03 -0.51905194394E+03  0.92297443698E+03  0.00000000000E+00 0. -1.
        -13    1    3    3    0    0  0.62765058064E+02 -0.43881923681E+02 -0.22834038409E+02  0.79915386815E+02  0.00000000000E+00 0.  1.
          4    1    6    6  502    0  0.12010843552E-01 -0.49399174996E+01 -0.17947552808E+03  0.17954349922E+03  0.00000000000E+00 0. -1.
          3    1    5    5  503    0 -0.74436883298E+02  0.48947832616E+02  0.16652695810E+02  0.90631408411E+02  0.00000000000E+00 0. -1.
         -4    1    5    5    0  503 -0.46831459897E+03  0.56525854629E+03  0.20956229551E+03  0.76338204292E+03  0.00000000000E+00 0.  1.
         -3    1    6    6    0  502 -0.72969617202E+02 -0.39342914004E+02 -0.18435892590E+03  0.20214015800E+03  0.00000000000E+00 0.  1.
<mgrwt>
<rscale>  0 0.21329660E+04</rscale>
<asrwt>0</asrwt>
<pdfrwt beam="1">  1        2 0.22446864E+00 0.21329660E+04</pdfrwt>
<pdfrwt beam="2">  1       -2 0.11992935E+00 0.21329660E+04</pdfrwt>
<totfact> 0.65457213E+00</totfact>
</mgrwt>
</event>
<event>
12    1  0.1495204E-007  0.1447902E+04  0.7818608E-02  0.8919856E-01
          4   -1    0    0  501    0  0.00000000000E+00  0.00000000000E+00  0.81162185479E+03  0.81162185479E+03  0.00000000000E+00 0. -1.
         -4   -1    0    0    0  501 -0.00000000000E+00 -0.00000000000E+00 -0.64575022617E+03  0.64575022617E+03  0.00000000000E+00 0.  1.
         23    2    1    2    0    0 -0.42919711300E+03  0.11639535743E+03  0.11645343083E+03  0.46879267560E+03  0.91908270045E+02 0.  0.
        254    2    1    2    0    0  0.42919711300E+03 -0.11639535743E+03  0.49418197796E+02  0.98857940537E+03  0.88152654039E+03 0.  0.
        -24    2    4    4    0    0 -0.13441344196E+03 -0.30076780096E+03  0.16861195209E+03  0.37838895449E+03  0.78866767514E+02 0.  0.
         24    2    4    4    0    0  0.56361055496E+03  0.18437244353E+03 -0.11919375429E+03  0.61019045088E+03  0.80468501194E+02 0.  0.
         13    1    3    3    0    0 -0.33005120023E+03  0.67991456416E+02  0.51872267988E+02  0.34095067840E+03  0.00000000000E+00 0. -1.
        -13    1    3    3    0    0 -0.99145912774E+02  0.48403901009E+02  0.64581162841E+02  0.12784199719E+03  0.00000000000E+00 0.  1.
          4    1    6    6  502    0  0.57573869944E+02  0.43963900479E+02 -0.40033304551E+01  0.72550683666E+02  0.00000000000E+00 0. -1.
          3    1    5    5  503    0 -0.21889243634E+02 -0.27997845899E+02 -0.52246942468E+01  0.35920965909E+02  0.00000000000E+00 0. -1.
         -4    1    5    5    0  503 -0.11252419833E+03 -0.27276995506E+03  0.17383664634E+03  0.34246798858E+03  0.00000000000E+00 0.  1.
         -3    1    6    6    0  502  0.50603668502E+03  0.14040854305E+03 -0.11519042384E+03  0.53763976721E+03  0.00000000000E+00 0.  1.
<mgrwt>
<rscale>  0 0.14479019E+04</rscale>
<asrwt>0</asrwt>
<pdfrwt beam="1">  1        4 0.12486490E+00 0.14479019E+04</pdfrwt>
<pdfrwt beam="2">  1       -4 0.99346189E-01 0.14479019E+04</pdfrwt>
<totfact> 0.77904217E-01</totfact>
</mgrwt>
</event>
<event>
12    1  0.1495204E-007  0.2973297E+04  0.7818608E-02  0.8251397E-01
         -2   -1    0    0    0  501 -0.00000000000E+00  0.00000000000E+00  0.10159086160E+04  0.10159086160E+04  0.00000000000E+00 0.  1.
          2   -1    0    0  501    0  0.00000000000E+00 -0.00000000000E+00 -0.21755148255E+04  0.21755148255E+04  0.00000000000E+00 0. -1.
         23    2    1    2    0    0  0.94261318523E+03  0.92828853697E+03 -0.76636580619E+03  0.15311336012E+04  0.82548962011E+02 0.  0.
        254    2    1    2    0    0 -0.94261318523E+03 -0.92828853697E+03 -0.39324040322E+03  0.16602898402E+04  0.92286787465E+03 0.  0.
        -24    2    4    4    0    0 -0.29928766283E+03 -0.32677365784E+03  0.29637013329E+03  0.53897627775E+03  0.79410600604E+02 0.  0.
         24    2    4    4    0    0 -0.64332552239E+03 -0.60151487913E+03 -0.68961053652E+03  0.11213135625E+04  0.78061102875E+02 0.  0.
         11    1    3    3    0    0  0.45570466248E+03  0.49653216507E+03 -0.36290481649E+03  0.76544812769E+03  0.00000000000E+00 0.  1.
        -11    1    3    3    0    0  0.48690852275E+03  0.43175637190E+03 -0.40346098970E+03  0.76568547355E+03  0.00000000000E+00 0. -1.
          4    1    6    6  502    0 -0.53396101023E+03 -0.48211800564E+03 -0.59647523644E+03  0.93452385710E+03  0.00000000000E+00 0. -1.
          1    1    5    5  503    0 -0.11479156588E+03 -0.18299037600E+03  0.15137513280E+03  0.26377454793E+03  0.00000000000E+00 0. -1.
         -2    1    5    5    0  503 -0.18449609695E+03 -0.14378328183E+03  0.14499500049E+03  0.27520172982E+03  0.00000000000E+00 0.  1.
         -3    1    6    6    0  502 -0.10936451216E+03 -0.11939687349E+03 -0.93135300078E+02  0.18678970539E+03  0.00000000000E+00 0.  1.
<mgrwt>
<rscale>  0 0.29732973E+04</rscale>
<asrwt>0</asrwt>
<pdfrwt beam="1">  1        2 0.33469458E+00 0.29732973E+04</pdfrwt>
<pdfrwt beam="2">  1       -2 0.15629364E+00 0.29732973E+04</pdfrwt>
<totfact> 0.12274871E+00</totfact>
</mgrwt>
</event>
<event>
12    1  0.1495204E-007  0.2117290E+04  0.7818608E-02  0.8553665E-01
         -2   -1    0    0    0  501 -0.00000000000E+00  0.00000000000E+00  0.45791847531E+03  0.45791847531E+03  0.00000000000E+00 0.  1.
          2   -1    0    0  501    0  0.00000000000E+00 -0.00000000000E+00 -0.24474421577E+04  0.24474421577E+04  0.00000000000E+00 0. -1.
         23    2    1    2    0    0  0.31699657729E+03  0.46072718948E+03  0.90052913261E+02  0.57479882127E+03  0.97610371439E+02 0.  0.
        254    2    1    2    0    0 -0.31699657729E+03 -0.46072718948E+03 -0.20795765956E+04  0.23305618117E+04  0.89113588636E+03 0.  0.
        -24    2    4    4    0    0 -0.11846185543E+03 -0.28230149948E+02 -0.17251321272E+04  0.17313170393E+04  0.80917745015E+02 0.  0.
         24    2    4    4    0    0 -0.19853472186E+03 -0.43249703953E+03 -0.35444446838E+03  0.59924477243E+03  0.83628291470E+02 0.  0.
         13    1    3    3    0    0  0.28042400178E+03  0.33658107270E+03  0.63295046296E+02  0.44264060157E+03  0.00000000000E+00 0.  1.
        -13    1    3    3    0    0  0.36572575514E+02  0.12414611678E+03  0.26757866965E+02  0.13215821970E+03  0.00000000000E+00 0. -1.
          2    1    6    6  502    0 -0.16411565630E+03 -0.35891786883E+03 -0.25098705203E+03  0.46770769236E+03  0.00000000000E+00 0. -1.
          3    1    5    5  503    0 -0.88687688520E+02 -0.64806669336E+01 -0.15390614421E+04  0.15416282391E+04  0.00000000000E+00 0. -1.
         -4    1    5    5    0  503 -0.29774166911E+02 -0.21749483014E+02 -0.18607068513E+03  0.18968880012E+03  0.00000000000E+00 0.  1.
         -1    1    6    6    0  502 -0.34419065560E+02 -0.73579170699E+02 -0.10345741635E+03  0.13153708007E+03  0.00000000000E+00 0.  1.
<mgrwt>
<rscale>  0 0.21172898E+04</rscale>
<asrwt>0</asrwt>
<pdfrwt beam="1">  1        2 0.37652956E+00 0.21172898E+04</pdfrwt>
<pdfrwt beam="2">  1       -2 0.70448997E-01 0.21172898E+04</pdfrwt>
<totfact> 0.62991528E+00</totfact>
</mgrwt>
</event>
<event>
12    1  0.1495204E-007  0.3301262E+04  0.7818608E-02  0.8162574E-01
         -1   -1    0    0    0  501 -0.00000000000E+00  0.00000000000E+00  0.10912782940E+04  0.10912782940E+04  0.00000000000E+00 0. -1.
          1   -1    0    0  501    0  0.00000000000E+00 -0.00000000000E+00 -0.24966884970E+04  0.24966884970E+04  0.00000000000E+00 0.  1.
         23    2    1    2    0    0  0.90709003701E+03 -0.15177820214E+03 -0.19711811078E+04  0.21770676782E+04  0.90662879880E+02 0.  0.
        254    2    1    2    0    0 -0.90709003701E+03  0.15177820214E+03  0.56577090487E+03  0.14108991128E+04  0.90812478868E+03 0.  0.
        -24    2    4    4    0    0  0.71133596276E+02  0.20948971149E+03  0.32038709687E+03  0.39753687335E+03  0.80260488987E+02 0.  0.
         24    2    4    4    0    0 -0.97822363328E+03 -0.57711509352E+02  0.24538380800E+03  0.10133622394E+04  0.80235404197E+02 0.  0.
         13    1    3    3    0    0  0.36173883021E+03 -0.40857417039E+02 -0.68720550609E+03  0.77767327163E+03  0.00000000000E+00 0. -1.
        -13    1    3    3    0    0  0.54535120680E+03 -0.11092078510E+03 -0.12839756017E+04  0.13993944066E+04  0.00000000000E+00 0.  1.
          2    1    6    6  502    0 -0.27471593124E+03 -0.13702048505E+01  0.35174985901E+02  0.27696209122E+03  0.00000000000E+00 0. -1.
          1    1    5    5  503    0  0.11537905632E+01  0.13204725761E+02  0.72473211837E+02  0.73675385639E+02  0.00000000000E+00 0. -1.
         -2    1    5    5    0  503  0.69979805712E+02  0.19628498573E+03  0.24791388503E+03  0.32386148771E+03  0.00000000000E+00 0.  1.
         -1    1    6    6    0  502 -0.70350770205E+03 -0.56341304502E+02  0.21020882210E+03  0.73640014823E+03  0.00000000000E+00 0.  1.
<mgrwt>
<rscale>  0 0.33012616E+04</rscale>
<asrwt>0</asrwt>
<pdfrwt beam="1">  1        1 0.38410592E+00 0.33012616E+04</pdfrwt>
<pdfrwt beam="2">  1       -1 0.16788897E+00 0.33012616E+04</pdfrwt>
<totfact> 0.28807191E-01</totfact>
</mgrwt>
</event>
<event>
12    1  0.1495204E-007  0.4182325E+04  0.7818608E-02  0.7968743E-01
          2   -1    0    0  501    0  0.00000000000E+00  0.00000000000E+00  0.39623862855E+04  0.39623862855E+04  0.00000000000E+00 0. -1.
         -2   -1    0    0    0  501 -0.00000000000E+00 -0.00000000000E+00 -0.11036178206E+04  0.11036178206E+04  0.00000000000E+00 0.  1.
         23    2    1    2    0    0 -0.15214413014E+04  0.17123620718E+03  0.29163356261E+04  0.32951327406E+04  0.93706039489E+02 0.  0.
        254    2    1    2    0    0  0.15214413014E+04 -0.17123620718E+03 -0.57567161262E+02  0.17708713655E+04  0.88801235507E+03 0.  0.
        -24    2    4    4    0    0  0.12405133542E+04 -0.56762747406E+02 -0.39955125654E+03  0.13068753181E+04  0.78654300489E+02 0.  0.
         24    2    4    4    0    0  0.28092794718E+03 -0.11447345977E+03  0.34198409528E+03  0.46399604737E+03  0.79463992198E+02 0.  0.
         11    1    3    3    0    0 -0.17586342792E+03  0.29079749996E+02  0.28166828166E+03  0.33333256371E+03  0.00000000000E+00 0.  1.
        -11    1    3    3    0    0 -0.13455778735E+04  0.14215645718E+03  0.26346673445E+04  0.29618001769E+04  0.00000000000E+00 0. -1.
          4    1    6    6  502    0  0.27940004132E+03 -0.11372890332E+03  0.34635619486E+03  0.45930519294E+03  0.00000000000E+00 0. -1.
          1    1    5    5  503    0  0.10439778989E+04 -0.39215255526E+02 -0.30670065444E+03  0.10888034630E+04  0.00000000000E+00 0. -1.
         -2    1    5    5    0  503  0.19653545530E+03 -0.17547491880E+02 -0.92850602102E+02  0.21807185507E+03  0.00000000000E+00 0.  1.
         -3    1    6    6    0  502  0.15279058565E+01 -0.74455645212E+00 -0.43720995796E+01  0.46908544372E+01  0.00000000000E+00 0.  1.
<mgrwt>
<rscale>  0 0.41823248E+04</rscale>
<asrwt>0</asrwt>
<pdfrwt beam="1">  1        2 0.60959788E+00 0.41823248E+04</pdfrwt>
<pdfrwt beam="2">  1       -2 0.16978736E+00 0.41823248E+04</pdfrwt>
<totfact> 0.60766397E-02</totfact>
</mgrwt>
</event>
<event>
12    1  0.1495204E-007  0.1832636E+04  0.7818608E-02  0.8689134E-01
          2   -1    0    0  501    0  0.00000000000E+00  0.00000000000E+00  0.29597702567E+04  0.29597702567E+04  0.00000000000E+00 0. -1.
         -2   -1    0    0    0  501 -0.00000000000E+00 -0.00000000000E+00 -0.28368378381E+03  0.28368378381E+03  0.00000000000E+00 0.  1.
         23    2    1    2    0    0 -0.40946775550E+03 -0.48100315333E+02  0.38929888035E+02  0.42433973177E+03  0.92580714245E+02 0.  0.
        254    2    1    2    0    0  0.40946775550E+03  0.48100315333E+02  0.26371565848E+04  0.28191143087E+04  0.90710151004E+03 0.  0.
        -24    2    4    4    0    0  0.58743870055E+03 -0.16841049758E+03  0.11620234280E+04  0.13153937993E+04  0.80722224216E+02 0.  0.
         24    2    4    4    0    0 -0.17797094505E+03  0.21651081291E+03  0.14751331569E+04  0.15037205094E+04  0.81283150514E+02 0.  0.
         11    1    3    3    0    0 -0.16552485382E+03 -0.27495088614E+02  0.60996147594E+02  0.17853567473E+03  0.00000000000E+00 0. -1.
        -11    1    3    3    0    0 -0.24394290168E+03 -0.20605226719E+02 -0.22066259559E+02  0.24580405704E+03  0.00000000000E+00 0.  1.
          2    1    6    6  502    0 -0.90398695248E+02  0.13128411584E+03  0.63264708334E+03  0.65241840504E+03  0.00000000000E+00 0. -1.
          3    1    5    5  503    0  0.29759847477E+03 -0.12597942834E+03  0.63053503403E+03  0.70852670923E+03  0.00000000000E+00 0. -1.
         -4    1    5    5    0  503  0.28984022577E+03 -0.42431069233E+02  0.53148839393E+03  0.60686709006E+03  0.00000000000E+00 0.  1.
         -1    1    6    6    0  502 -0.87572249801E+02  0.85226697073E+02  0.84248607354E+03  0.85130210439E+03  0.00000000000E+00 0.  1.
<mgrwt>
<rscale>  0 0.18326362E+04</rscale>
<asrwt>0</asrwt>
<pdfrwt beam="1">  1        2 0.45534925E+00 0.18326362E+04</pdfrwt>
<pdfrwt beam="2">  1       -2 0.43643661E-01 0.18326362E+04</pdfrwt>
<totfact> 0.86770756E+00</totfact>
</mgrwt>
</event>
<event>
12    1  0.1495204E-007  0.3115612E+04  0.7818608E-02  0.8211466E-01
          2   -1    0    0  501    0  0.00000000000E+00  0.00000000000E+00  0.38859057791E+04  0.38859057791E+04  0.00000000000E+00 0. -1.
         -2   -1    0    0    0  501 -0.00000000000E+00 -0.00000000000E+00 -0.62450301750E+03  0.62450301750E+03  0.00000000000E+00 0.  1.
         23    2    1    2    0    0  0.11740924670E+04 -0.79576903641E+03  0.16673088796E+04  0.21908862833E+04  0.91226783750E+02 0.  0.
        254    2    1    2    0    0 -0.11740924670E+04  0.79576903641E+03  0.15940938821E+04  0.23195225134E+04  0.90956467869E+03 0.  0.
        -24    2    4    4    0    0  0.13856377441E+03  0.79105021505E+02  0.24476977076E+03  0.30364195088E+03  0.82635764963E+02 0.  0.
         24    2    4    4    0    0 -0.13126562414E+04  0.71666401491E+03  0.13493241113E+04  0.20158805625E+04  0.80157135953E+02 0.  0.
         13    1    3    3    0    0  0.38090208161E+03 -0.24527586546E+03  0.47016730488E+03  0.65291955134E+03  0.00000000000E+00 0.  1.
        -13    1    3    3    0    0  0.79319038538E+03 -0.55049317095E+03  0.11971415747E+04  0.15379667319E+04  0.00000000000E+00 0. -1.
          2    1    6    6  502    0 -0.25294603334E+02  0.88216850266E+01  0.12476380487E+02  0.29551635396E+02  0.00000000000E+00 0. -1.
          3    1    5    5  503    0  0.40682015665E+02  0.37172846926E+01  0.16451732995E+02  0.44039801573E+02  0.00000000000E+00 0. -1.
         -4    1    5    5    0  503  0.97881758741E+02  0.75387736812E+02  0.22831803776E+03  0.25960214931E+03  0.00000000000E+00 0.  1.
         -1    1    6    6    0  502 -0.12873616381E+04  0.70784232988E+03  0.13368477308E+04  0.19863289271E+04  0.00000000000E+00 0.  1.
<mgrwt>
<rscale>  0 0.31156122E+04</rscale>
<asrwt>0</asrwt>
<pdfrwt beam="1">  1        2 0.59783164E+00 0.31156122E+04</pdfrwt>
<pdfrwt beam="2">  1       -2 0.96077390E-01 0.31156122E+04</pdfrwt>
<totfact> 0.32413679E-01</totfact>
</mgrwt>
</event>
<event>
12    1  0.1495204E-007  0.1438811E+04  0.7818608E-02  0.8926195E-01
         -2   -1    0    0    0  501 -0.00000000000E+00  0.00000000000E+00  0.20866243634E+03  0.20866243634E+03  0.00000000000E+00 0.  1.
          2   -1    0    0  501    0  0.00000000000E+00 -0.00000000000E+00 -0.24802934407E+04  0.24802934407E+04  0.00000000000E+00 0. -1.
         23    2    1    2    0    0  0.42943066605E+03  0.83127563278E+01 -0.77678944505E+03  0.89234701224E+03  0.91659966465E+02 0.  0.
        254    2    1    2    0    0 -0.42943066605E+03 -0.83127563278E+01 -0.14948415593E+04  0.17966088648E+04  0.89931770066E+03 0.  0.
        -24    2    4    4    0    0  0.18056303189E+03  0.25241488650E+03 -0.59377525555E+03  0.67480946098E+03  0.80513794541E+02 0.  0.
         24    2    4    4    0    0 -0.60999369794E+03 -0.26072764283E+03 -0.90106630373E+03  0.11217994038E+04  0.80263337541E+02 0.  0.
         13    1    3    3    0    0  0.96298508320E+02 -0.20747442286E+02 -0.11936258023E+03  0.15476202579E+03  0.00000000000E+00 0.  1.
        -13    1    3    3    0    0  0.33313215773E+03  0.29060198614E+02 -0.65742686482E+03  0.73758498646E+03  0.00000000000E+00 0. -1.
          4    1    6    6  502    0 -0.46845777684E+03 -0.18182027076E+03 -0.72930859628E+03  0.88566490737E+03  0.00000000000E+00 0. -1.
          3    1    5    5  503    0  0.17534910334E+03  0.19938285987E+03 -0.46542611672E+03  0.53583794470E+03  0.00000000000E+00 0. -1.
         -4    1    5    5    0  503  0.52139285502E+01  0.53032026631E+02 -0.12834913883E+03  0.13897151628E+03  0.00000000000E+00 0.  1.
         -3    1    6    6    0  502 -0.14153592110E+03 -0.78907372067E+02 -0.17175770746E+03  0.23613449642E+03  0.00000000000E+00 0.  1.
<mgrwt>
<rscale>  0 0.14388107E+04</rscale>
<asrwt>0</asrwt>
<pdfrwt beam="1">  1        2 0.38158362E+00 0.14388107E+04</pdfrwt>
<pdfrwt beam="2">  1       -2 0.32101912E-01 0.14388107E+04</pdfrwt>
<totfact> 0.31420223E+01</totfact>
</mgrwt>
</event>
<event>
12    1  0.1495204E-007  0.1431710E+04  0.7818608E-02  0.8931180E-01
          1   -1    0    0  501    0  0.00000000000E+00  0.00000000000E+00  0.94143152387E+03  0.94143152387E+03  0.00000000000E+00 0. -1.
         -1   -1    0    0    0  501 -0.00000000000E+00 -0.00000000000E+00 -0.54432863318E+03  0.54432863318E+03  0.00000000000E+00 0.  1.
         23    2    1    2    0    0 -0.15816419078E+03  0.30666373194E+03  0.39095036883E+03  0.53044210440E+03  0.97304056971E+02 0.  0.
        254    2    1    2    0    0  0.15816419078E+03 -0.30666373194E+03  0.61525218529E+01  0.95531805264E+03  0.89080647306E+03 0.  0.
        -24    2    4    4    0    0 -0.23499507634E+03 -0.17284476821E+02  0.29270618483E+03  0.38362056581E+03  0.77242403033E+02 0.  0.
         24    2    4    4    0    0  0.39315926713E+03 -0.28937925512E+03 -0.28655366298E+03  0.57169748683E+03  0.80065298751E+02 0.  0.
         11    1    3    3    0    0 -0.10349499835E+03  0.23205552555E+03  0.34120529353E+03  0.42541983258E+03  0.00000000000E+00 0.  1.
        -11    1    3    3    0    0 -0.54669192434E+02  0.74608206390E+02  0.49745075303E+02  0.10502227182E+03  0.00000000000E+00 0. -1.
          4    1    6    6  502    0  0.31566938851E+03 -0.19568649395E+03 -0.19489479830E+03  0.41943336677E+03  0.00000000000E+00 0. -1.
          1    1    5    5  503    0 -0.24047830419E+03 -0.12958357863E+02  0.28654510651E+03  0.37430713577E+03  0.00000000000E+00 0. -1.
         -2    1    5    5    0  503  0.54832278503E+01 -0.43261189582E+01  0.61610783289E+01  0.93134300381E+01  0.00000000000E+00 0.  1.
         -3    1    6    6    0  502  0.77489878612E+02 -0.93692761170E+02 -0.91658864681E+02  0.15226412006E+03  0.00000000000E+00 0.  1.
<mgrwt>
<rscale>  0 0.14317097E+04</rscale>
<asrwt>0</asrwt>
<pdfrwt beam="1">  1        1 0.14483562E+00 0.14317097E+04</pdfrwt>
<pdfrwt beam="2">  1       -1 0.83742867E-01 0.14317097E+04</pdfrwt>
<totfact> 0.23166274E+01</totfact>
</mgrwt>
</event>
<event>
12    1  0.1495204E-007  0.2759043E+04  0.7818608E-02  0.8316098E-01
         -2   -1    0    0    0  501 -0.00000000000E+00  0.00000000000E+00  0.99342319007E+03  0.99342319007E+03  0.00000000000E+00 0.  1.
          2   -1    0    0  501    0  0.00000000000E+00 -0.00000000000E+00 -0.19156786103E+04  0.19156786103E+04  0.00000000000E+00 0. -1.
         23    2    1    2    0    0  0.94164512199E+03 -0.63814902774E+03 -0.91413317700E+03  0.14621761730E+04  0.91596824192E+02 0.  0.
        254    2    1    2    0    0 -0.94164512199E+03  0.63814902774E+03 -0.81222432225E+01  0.14469256274E+04  0.89420248430E+03 0.  0.
        -24    2    4    4    0    0 -0.78204139913E+03  0.74365516574E+02  0.20852101410E+03  0.81710778761E+03  0.84054406428E+02 0.  0.
         24    2    4    4    0    0 -0.15960372286E+03  0.56378351116E+03 -0.21664325732E+03  0.62981783976E+03  0.80068811195E+02 0.  0.
         11    1    3    3    0    0  0.46073202374E+03 -0.33199702185E+03 -0.40137626241E+03  0.69541277256E+03  0.00000000000E+00 0.  1.
        -11    1    3    3    0    0  0.48091309825E+03 -0.30615200588E+03 -0.51275691459E+03  0.76676340043E+03  0.00000000000E+00 0. -1.
          4    1    6    6  502    0 -0.21980409171E+02  0.19365873095E+03 -0.93575761262E+02  0.21620190924E+03  0.00000000000E+00 0. -1.
          1    1    5    5  503    0 -0.14800789863E+03  0.37689654802E+02  0.65070593605E+02  0.16601515078E+03  0.00000000000E+00 0. -1.
         -2    1    5    5    0  503 -0.63403350050E+03  0.36675861772E+02  0.14345042050E+03  0.65109263683E+03  0.00000000000E+00 0.  1.
         -3    1    6    6    0  502 -0.13762331369E+03  0.37012478021E+03 -0.12306749606E+03  0.41361593052E+03  0.00000000000E+00 0.  1.
<mgrwt>
<rscale>  0 0.27590430E+04</rscale>
<asrwt>0</asrwt>
<pdfrwt beam="1">  1        2 0.29471978E+00 0.27590430E+04</pdfrwt>
<pdfrwt beam="2">  1       -2 0.15283434E+00 0.27590430E+04</pdfrwt>
<totfact> 0.18525133E+00</totfact>
</mgrwt>
</event>
<event>
12    1  0.1495204E-007  0.1891023E+04  0.7818608E-02  0.8659338E-01
         -4   -1    0    0    0  501 -0.00000000000E+00  0.00000000000E+00  0.12943851981E+04  0.12943851981E+04  0.00000000000E+00 0.  1.
          4   -1    0    0  501    0  0.00000000000E+00 -0.00000000000E+00 -0.69066944575E+03  0.69066944575E+03  0.00000000000E+00 0. -1.
         23    2    1    2    0    0 -0.47970247989E+03 -0.19234760722E+03 -0.29899700296E+03  0.60405493214E+03  0.91493617570E+02 0.  0.
        254    2    1    2    0    0  0.47970247989E+03  0.19234760722E+03  0.90271275534E+03  0.13809997117E+04  0.90838197580E+03 0.  0.
        -24    2    4    4    0    0  0.38380566254E+02  0.15908608095E+03 -0.15014935241E+03  0.23602472546E+03  0.79883627734E+02 0.  0.
         24    2    4    4    0    0  0.44132191363E+03  0.33261526269E+02  0.10528621078E+04  0.11449749863E+04  0.81103271746E+02 0.  0.
         13    1    3    3    0    0 -0.10459377824E+03 -0.18952289012E+02 -0.97754877270E+02  0.14441282400E+03  0.00000000000E+00 0.  1.
        -13    1    3    3    0    0 -0.37510870165E+03 -0.17339531820E+03 -0.20124212569E+03  0.45964210815E+03  0.00000000000E+00 0. -1.
          4    1    6    6  502    0  0.64239849151E+02 -0.12519365929E+02  0.10369067084E+03  0.12261830190E+03  0.00000000000E+00 0. -1.
          1    1    5    5  503    0 -0.15353064496E+02  0.53775780377E+02 -0.18094325134E+02  0.58778871600E+02  0.00000000000E+00 0. -1.
         -2    1    5    5    0  503  0.53733630750E+02  0.10531030057E+03 -0.13205502728E+03  0.17724585386E+03  0.00000000000E+00 0.  1.
         -3    1    6    6    0  502  0.37708206448E+03  0.45780892197E+02  0.94917143691E+03  0.10223566844E+04  0.00000000000E+00 0.  1.
<mgrwt>
<rscale>  0 0.18910233E+04</rscale>
<asrwt>0</asrwt>
<pdfrwt beam="1">  1        4 0.10625684E+00 0.18910233E+04</pdfrwt>
<pdfrwt beam="2">  1       -4 0.19913618E+00 0.18910233E+04</pdfrwt>
<totfact> 0.17833300E-01</totfact>
</mgrwt>
</event>
<event>
12    1  0.1495204E-007  0.1474426E+04  0.7818608E-02  0.8901640E-01
         -1   -1    0    0    0  501 -0.00000000000E+00  0.00000000000E+00  0.33115687648E+03  0.33115687648E+03  0.00000000000E+00 0.  1.
          1   -1    0    0  501    0  0.00000000000E+00 -0.00000000000E+00 -0.16411644875E+04  0.16411644875E+04  0.00000000000E+00 0. -1.
         23    2    1    2    0    0 -0.30365944235E+03  0.25455589952E+03 -0.12296205705E+03  0.42484211617E+03  0.91451589873E+02 0.  0.
        254    2    1    2    0    0  0.30365944235E+03 -0.25455589952E+03 -0.11870455540E+04  0.15474792478E+04  0.91027859048E+03 0.  0.
        -24    2    4    4    0    0  0.28348797355E+03 -0.52764053835E+03 -0.43969021567E+03  0.74752990950E+03  0.81874971598E+02 0.  0.
         24    2    4    4    0    0  0.20171468803E+02  0.27308463883E+03 -0.74735533831E+03  0.79994933832E+03  0.79980210407E+02 0.  0.
         13    1    3    3    0    0 -0.92992365538E+02  0.98161687133E+02 -0.31025909251E+00  0.13521609789E+03  0.00000000000E+00 0.  1.
        -13    1    3    3    0    0 -0.21066707681E+03  0.15639421239E+03 -0.12265179796E+03  0.28962601828E+03  0.00000000000E+00 0. -1.
          2    1    6    6  502    0  0.25212081464E+01  0.32420162733E+02 -0.34736306853E+02  0.47581871085E+02  0.00000000000E+00 0. -1.
          1    1    5    5  503    0  0.12021559723E+03 -0.21488518973E+03 -0.23099533266E+03  0.33761853962E+03  0.00000000000E+00 0. -1.
         -2    1    5    5    0  503  0.16327237632E+03 -0.31275534862E+03 -0.20869488301E+03  0.40991136988E+03  0.00000000000E+00 0.  1.
         -1    1    6    6    0  502  0.17650260656E+02  0.24066447610E+03 -0.71261903146E+03  0.75236746723E+03  0.00000000000E+00 0.  1.
<mgrwt>
<rscale>  0 0.14744259E+04</rscale>
<asrwt>0</asrwt>
<pdfrwt beam="1">  1        1 0.25248684E+00 0.14744259E+04</pdfrwt>
<pdfrwt beam="2">  1       -1 0.50947212E-01 0.14744259E+04</pdfrwt>
<totfact> 0.19627986E+01</totfact>
</mgrwt>
</event>
<event>
12    1  0.1495204E-007  0.2605850E+04  0.7818608E-02  0.8366217E-01
          2   -1    0    0  501    0  0.00000000000E+00  0.00000000000E+00  0.16338000074E+04  0.16338000074E+04  0.00000000000E+00 0. -1.
         -2   -1    0    0    0  501 -0.00000000000E+00 -0.00000000000E+00 -0.10390581744E+04  0.10390581744E+04  0.00000000000E+00 0.  1.
         23    2    1    2    0    0  0.28940167973E+03 -0.10972938465E+04  0.45228730309E+03  0.12252196640E+04  0.93767279338E+02 0.  0.
        254    2    1    2    0    0 -0.28940167973E+03  0.10972938465E+04  0.14245452986E+03  0.14476385178E+04  0.88744400809E+03 0.  0.
        -24    2    4    4    0    0  0.45558725211E+02  0.89740357072E+03 -0.19874209515E+03  0.92338613710E+03  0.75728274851E+02 0.  0.
         24    2    4    4    0    0 -0.33496040494E+03  0.19989027575E+03  0.34119662501E+03  0.52425238073E+03  0.79188550731E+02 0.  0.
         11    1    3    3    0    0  0.18934641451E+02 -0.27589574871E+02  0.25965203572E+02  0.42354422260E+02  0.00000000000E+00 0.  1.
        -11    1    3    3    0    0  0.27046703828E+03 -0.10697042716E+04  0.42632209952E+03  0.11828652417E+04  0.00000000000E+00 0. -1.
          2    1    6    6  502    0 -0.30113874767E+03  0.19095364897E+03  0.33392545453E+03  0.48852231329E+03  0.00000000000E+00 0. -1.
          1    1    5    5  503    0  0.51615463245E+02  0.78229006228E+03 -0.19582013884E+03  0.80807637286E+03  0.00000000000E+00 0. -1.
         -2    1    5    5    0  503 -0.60567380342E+01  0.11511350844E+03 -0.29219563096E+01  0.11530976424E+03  0.00000000000E+00 0.  1.
         -3    1    6    6    0  502 -0.33821657274E+02  0.89366267837E+01  0.72711704757E+01  0.35730067438E+02  0.00000000000E+00 0.  1.
<mgrwt>
<rscale>  0 0.26058498E+04</rscale>
<asrwt>0</asrwt>
<pdfrwt beam="1">  1        2 0.25135385E+00 0.26058498E+04</pdfrwt>
<pdfrwt beam="2">  1       -2 0.15985510E+00 0.26058498E+04</pdfrwt>
<totfact> 0.23840931E+00</totfact>
</mgrwt>
</event>
<event>
12    1  0.1495204E-007  0.2580320E+04  0.7818608E-02  0.8374917E-01
          2   -1    0    0  501    0  0.00000000000E+00  0.00000000000E+00  0.32578676376E+04  0.32578676376E+04  0.00000000000E+00 0. -1.
         -2   -1    0    0    0  501 -0.00000000000E+00 -0.00000000000E+00 -0.51092084075E+03  0.51092084075E+03  0.00000000000E+00 0.  1.
         23    2    1    2    0    0  0.36559361957E+02  0.10648989005E+04  0.17611965901E+04  0.20607155252E+04  0.96895776736E+02 0.  0.
        254    2    1    2    0    0 -0.36559361957E+02 -0.10648989005E+04  0.98575020670E+03  0.17080729531E+04  0.90025745639E+03 0.  0.
        -24    2    4    4    0    0 -0.23162064949E+03  0.51492424187E+02  0.11080620808E+03  0.27379561105E+03  0.79915116597E+02 0.  0.
         24    2    4    4    0    0  0.19506128754E+03 -0.11163913247E+04  0.87494399863E+03  0.14342773420E+04  0.85123424449E+02 0.  0.
         11    1    3    3    0    0  0.10340672157E+01  0.87925354082E+03  0.14040506029E+04  0.16566369409E+04  0.00000000000E+00 0. -1.
        -11    1    3    3    0    0  0.35525294741E+02  0.18564535971E+03  0.35714598722E+03  0.40407858435E+03  0.00000000000E+00 0.  1.
          4    1    6    6  502    0  0.41158775843E+02 -0.21938660788E+03  0.21644956077E+03  0.31092594118E+03  0.00000000000E+00 0. -1.
          1    1    5    5  503    0 -0.77890446496E+02  0.48353307085E+02  0.15744455992E+02  0.93020706597E+02  0.00000000000E+00 0. -1.
         -2    1    5    5    0  503 -0.15373020300E+03  0.31391171014E+01  0.95061752085E+02  0.18077490445E+03  0.00000000000E+00 0.  1.
         -3    1    6    6    0  502  0.15390251169E+03 -0.89700471683E+03  0.65849443786E+03  0.11233514009E+04  0.00000000000E+00 0.  1.
<mgrwt>
<rscale>  0 0.25803197E+04</rscale>
<asrwt>0</asrwt>
<pdfrwt beam="1">  1        2 0.50121039E+00 0.25803197E+04</pdfrwt>
<pdfrwt beam="2">  1       -2 0.78603208E-01 0.25803197E+04</pdfrwt>
<totfact> 0.15141981E+00</totfact>
</mgrwt>
</event>
<event>
12    1  0.1495204E-007  0.1540519E+04  0.7818608E-02  0.8857947E-01
          1   -1    0    0  501    0  0.00000000000E+00  0.00000000000E+00  0.91042307701E+03  0.91042307701E+03  0.00000000000E+00 0. -1.
         -1   -1    0    0    0  501 -0.00000000000E+00 -0.00000000000E+00 -0.65167442827E+03  0.65167442827E+03  0.00000000000E+00 0.  1.
         23    2    1    2    0    0  0.10938635185E+03  0.42474105452E+03 -0.12154312084E+03  0.46419945863E+03  0.91313031960E+02 0.  0.
        254    2    1    2    0    0 -0.10938635185E+03 -0.42474105452E+03  0.38029176958E+03  0.10978980467E+04  0.93187335699E+03 0.  0.
        -24    2    4    4    0    0 -0.38449241059E+03  0.96118760396E+02  0.28829800426E+03  0.49643481437E+03  0.79111034374E+02 0.  0.
         24    2    4    4    0    0  0.27510605874E+03 -0.52085981492E+03  0.91993765317E+02  0.60146323228E+03  0.79478780635E+02 0.  0.
         11    1    3    3    0    0  0.34297760528E+02  0.45256965053E+02  0.54509580495E+01  0.57045965735E+02  0.00000000000E+00 0. -1.
        -11    1    3    3    0    0  0.75088591317E+02  0.37948408947E+03 -0.12699407889E+03  0.40715349290E+03  0.00000000000E+00 0.  1.
          4    1    6    6  502    0  0.26862738450E+03 -0.52023124038E+03  0.96709255671E+02  0.59342556003E+03  0.00000000000E+00 0. -1.
          3    1    5    5  503    0 -0.16263521637E+03  0.60507434248E+02  0.84176185162E+02  0.19286522069E+03  0.00000000000E+00 0. -1.
         -4    1    5    5    0  503 -0.22185719421E+03  0.35611326148E+02  0.20412181910E+03  0.30356959368E+03  0.00000000000E+00 0.  1.
         -3    1    6    6    0  502  0.64786742405E+01 -0.62857454433E+00 -0.47154903538E+01  0.80376722469E+01  0.00000000000E+00 0.  1.
<mgrwt>
<rscale>  0 0.15405187E+04</rscale>
<asrwt>0</asrwt>
<pdfrwt beam="1">  1        1 0.14006509E+00 0.15405187E+04</pdfrwt>
<pdfrwt beam="2">  1       -1 0.10025760E+00 0.15405187E+04</pdfrwt>
<totfact> 0.16305314E+01</totfact>
</mgrwt>
</event>
<event>
12    1  0.1495204E-007  0.2666022E+04  0.7818608E-02  0.8346115E-01
          2   -1    0    0  501    0  0.00000000000E+00  0.00000000000E+00  0.26879486370E+04  0.26879486370E+04  0.00000000000E+00 0. -1.
         -2   -1    0    0    0  501 -0.00000000000E+00 -0.00000000000E+00 -0.66106860538E+03  0.66106860538E+03  0.00000000000E+00 0.  1.
         23    2    1    2    0    0 -0.50366110737E+03 -0.32207599404E+03  0.21883668782E+04  0.22704596931E+04  0.92898695425E+02 0.  0.
        254    2    1    2    0    0  0.50366110737E+03  0.32207599404E+03 -0.16148684658E+03  0.10785575492E+04  0.88306337731E+03 0.  0.
        -24    2    4    4    0    0  0.67720033204E+03  0.20615604350E+03 -0.34192890786E+03  0.79025936288E+03  0.80584605217E+02 0.  0.
         24    2    4    4    0    0 -0.17353922467E+03  0.11591995054E+03  0.18044206128E+03  0.28829818634E+03  0.83685179899E+02 0.  0.
         11    1    3    3    0    0 -0.83965598810E+02 -0.81249215989E+02  0.54233509410E+03  0.55477834418E+03  0.00000000000E+00 0. -1.
        -11    1    3    3    0    0 -0.41969550856E+03 -0.24082677805E+03  0.16460317841E+04  0.17156813490E+04  0.00000000000E+00 0.  1.
          4    1    6    6  502    0 -0.38754733451E+01 -0.44381728273E+01 -0.63920402985E+01  0.86933797151E+01  0.00000000000E+00 0. -1.
          3    1    5    5  503    0  0.33870030414E+03  0.10006502092E+03 -0.12601629744E+03  0.37498134842E+03  0.00000000000E+00 0. -1.
         -4    1    5    5    0  503  0.33850002790E+03  0.10609102259E+03 -0.21591261042E+03  0.41527801447E+03  0.00000000000E+00 0.  1.
         -3    1    6    6    0  502 -0.16966375133E+03  0.12035812336E+03  0.18683410158E+03  0.27960480662E+03  0.00000000000E+00 0.  1.
<mgrwt>
<rscale>  0 0.26660221E+04</rscale>
<asrwt>0</asrwt>
<pdfrwt beam="1">  1        2 0.41353055E+00 0.26660221E+04</pdfrwt>
<pdfrwt beam="2">  1       -2 0.10170286E+00 0.26660221E+04</pdfrwt>
<totfact> 0.18840106E+00</totfact>
</mgrwt>
</event>
<event>
12    1  0.1495204E-007  0.1479707E+04  0.7818608E-02  0.8898061E-01
          2   -1    0    0  501    0  0.00000000000E+00  0.00000000000E+00  0.48331751294E+04  0.48331751294E+04  0.00000000000E+00 0.  1.
         -2   -1    0    0    0  501 -0.00000000000E+00 -0.00000000000E+00 -0.11325536165E+03  0.11325536165E+03  0.00000000000E+00 0. -1.
         23    2    1    2    0    0  0.12716178671E+03  0.25134292541E+03  0.27138974878E+04  0.27299365751E+04  0.89279021249E+02 0.  0.
        254    2    1    2    0    0 -0.12716178671E+03 -0.25134292541E+03  0.20060222800E+04  0.22164939160E+04  0.89965354754E+03 0.  0.
        -24    2    4    4    0    0 -0.45532859979E+03 -0.30287910317E+03  0.87498292882E+03  0.10349259195E+04  0.80103983770E+02 0.  0.
         24    2    4    4    0    0  0.32816681308E+03  0.51536177754E+02  0.11310393512E+04  0.11815679965E+04  0.80644166407E+02 0.  0.
         13    1    3    3    0    0  0.48789299835E+02  0.10059971526E+03  0.15066065090E+04  0.15107494404E+04  0.00000000000E+00 0. -1.
        -13    1    3    3    0    0  0.78372486876E+02  0.15074321015E+03  0.12072909788E+04  0.12191871347E+04  0.00000000000E+00 0.  1.
          4    1    6    6  502    0  0.28881858585E+03  0.53736203261E+02  0.10639165657E+04  0.11037310423E+04  0.00000000000E+00 0. -1.
          1    1    5    5  503    0 -0.45323704214E+03 -0.29982682131E+03  0.87619082912E+03  0.10310336116E+04  0.00000000000E+00 0. -1.
         -2    1    5    5    0  503 -0.20915576515E+01 -0.30522818574E+01 -0.12079003023E+01  0.38923079383E+01  0.00000000000E+00 0.  1.
         -1    1    6    6    0  502  0.39348227230E+02 -0.22000255069E+01  0.67122785464E+02  0.77836954121E+02  0.00000000000E+00 0.  1.
<mgrwt>
<rscale>  0 0.14797067E+04</rscale>
<asrwt>0</asrwt>
<pdfrwt beam="1">  1        2 0.74356524E+00 0.14797067E+04</pdfrwt>
<pdfrwt beam="2">  1       -2 0.17423906E-01 0.14797067E+04</pdfrwt>
<totfact> 0.15043171E+00</totfact>
</mgrwt>
</event>
<event>
12    1  0.1495204E-007  0.1734484E+04  0.7818608E-02  0.8741938E-01
         -1   -1    0    0    0  501 -0.00000000000E+00  0.00000000000E+00  0.46314407694E+03  0.46314407694E+03  0.00000000000E+00 0.  1.
          1   -1    0    0  501    0  0.00000000000E+00 -0.00000000000E+00 -0.16239185789E+04  0.16239185789E+04  0.00000000000E+00 0. -1.
         23    2    1    2    0    0 -0.25577944647E+03  0.36438622549E+03 -0.89881059390E+03  0.10071669406E+04  0.91237689605E+02 0.  0.
        254    2    1    2    0    0  0.25577944647E+03 -0.36438622549E+03 -0.26196390808E+03  0.10798957152E+04  0.94834024490E+03 0.  0.
        -24    2    4    4    0    0  0.27436263954E+03 -0.64110298114E+02  0.31130600623E+03  0.42741932119E+03  0.79942844037E+02 0.  0.
         24    2    4    4    0    0 -0.18583193071E+02 -0.30027592738E+03 -0.57326991431E+03  0.65247639405E+03  0.81093048516E+02 0.  0.
         11    1    3    3    0    0 -0.11746337325E+03  0.21891109715E+03 -0.57215257001E+03  0.62376139339E+03  0.00000000000E+00 0. -1.
        -11    1    3    3    0    0 -0.13831607322E+03  0.14547512834E+03 -0.32665802389E+03  0.38340554723E+03  0.00000000000E+00 0.  1.
          4    1    6    6  502    0 -0.81469091146E+01 -0.87042333493E+02 -0.97209821042E+02  0.13073824710E+03  0.00000000000E+00 0. -1.
          1    1    5    5  503    0  0.96868821816E+02  0.20071855977E+01  0.64856693555E+02  0.11659325938E+03  0.00000000000E+00 0. -1.
         -2    1    5    5    0  503  0.17749381772E+03 -0.66117483712E+02  0.24644931267E+03  0.31082606181E+03  0.00000000000E+00 0.  1.
         -3    1    6    6    0  502 -0.10436283956E+02 -0.21323359388E+03 -0.47606009326E+03  0.52173814695E+03  0.00000000000E+00 0.  1.
<mgrwt>
<rscale>  0 0.17344835E+04</rscale>
<asrwt>0</asrwt>
<pdfrwt beam="1">  1        1 0.24983362E+00 0.17344835E+04</pdfrwt>
<pdfrwt beam="2">  1       -1 0.71252936E-01 0.17344835E+04</pdfrwt>
<totfact> 0.10140471E+01</totfact>
</mgrwt>
</event>
<event>
12    1  0.1495204E-007  0.1695170E+04  0.7818608E-02  0.8764124E-01
         -2   -1    0    0    0  501 -0.00000000000E+00  0.00000000000E+00  0.57880624690E+03  0.57880624690E+03  0.00000000000E+00 0. -1.
          2   -1    0    0  501    0  0.00000000000E+00 -0.00000000000E+00 -0.12411762539E+04  0.12411762539E+04  0.00000000000E+00 0.  1.
         23    2    1    2    0    0 -0.12693890699E+02 -0.62614145812E+03 -0.43772013628E+03  0.76949313774E+03  0.91140061961E+02 0.  0.
        254    2    1    2    0    0  0.12693890699E+02  0.62614145812E+03 -0.22464987068E+03  0.10504893630E+04  0.81292439807E+03 0.  0.
        -24    2    4    4    0    0  0.29031489495E+03  0.97898101813E+01  0.68753058782E+02  0.30929781883E+03  0.80991228102E+02 0.  0.
         24    2    4    4    0    0 -0.27762100425E+03  0.61635164794E+03 -0.29340292946E+03  0.74119154419E+03  0.79478615027E+02 0.  0.
         11    1    3    3    0    0 -0.47096582147E+02 -0.26418638052E+03 -0.16536919242E+03  0.31521342214E+03  0.00000000000E+00 0.  1.
        -11    1    3    3    0    0  0.34402691448E+02 -0.36195507760E+03 -0.27235094386E+03  0.45427971560E+03  0.00000000000E+00 0. -1.
          4    1    6    6  502    0 -0.21851304872E+03  0.52852248897E+03 -0.22196009715E+03  0.61347392654E+03  0.00000000000E+00 0. -1.
          1    1    5    5  503    0  0.25670932159E+03  0.24779500808E+02  0.36705172262E+02  0.26050138027E+03  0.00000000000E+00 0. -1.
         -4    1    5    5    0  503  0.33605573356E+02 -0.14989690627E+02  0.32047886519E+02  0.48796438559E+02  0.00000000000E+00 0.  1.
         -3    1    6    6    0  502 -0.59107955522E+02  0.87829158966E+02 -0.71442832308E+02  0.12771761765E+03  0.00000000000E+00 0.  1.
<mgrwt>
<rscale>  0 0.16951703E+04</rscale>
<asrwt>0</asrwt>
<pdfrwt beam="1">  1        2 0.19095019E+00 0.16951703E+04</pdfrwt>
<pdfrwt beam="2">  1       -2 0.89047116E-01 0.16951703E+04</pdfrwt>
<totfact> 0.18458935E+01</totfact>
</mgrwt>
</event>
<event>
12    1  0.1495204E-007  0.1945286E+04  0.7818608E-02  0.8632637E-01
          2   -1    0    0  501    0  0.00000000000E+00  0.00000000000E+00  0.56620809667E+03  0.56620809667E+03  0.00000000000E+00 0.  1.
         -2   -1    0    0    0  501 -0.00000000000E+00 -0.00000000000E+00 -0.16708246957E+04  0.16708246957E+04  0.00000000000E+00 0. -1.
         23    2    1    2    0    0  0.74322345232E+03 -0.18584166130E+02 -0.60105349419E+03  0.95982647000E+03  0.85294069739E+02 0.  0.
        254    2    1    2    0    0 -0.74322345232E+03  0.18584166130E+02 -0.50356310489E+03  0.12772063224E+04  0.90826962853E+03 0.  0.
        -24    2    4    4    0    0 -0.53660446167E+03 -0.41680940929E+03 -0.31993147369E+03  0.75527211855E+03  0.80033700686E+02 0.  0.
         24    2    4    4    0    0 -0.20661899064E+03  0.43539357542E+03 -0.18363163119E+03  0.52193420386E+03  0.80223215968E+02 0.  0.
         11    1    3    3    0    0  0.14760472116E+03 -0.16047551329E+02 -0.81092813400E+02  0.16917660003E+03  0.00000000000E+00 0.  1.
        -11    1    3    3    0    0  0.59561873116E+03 -0.25366148016E+01 -0.51996068079E+03  0.79064986998E+03  0.00000000000E+00 0. -1.
          4    1    6    6  502    0 -0.45149229098E+02  0.75386276943E+02 -0.66986200457E+02  0.11049296218E+03  0.00000000000E+00 0. -1.
          1    1    5    5  503    0 -0.24630088583E+03 -0.16958924197E+03 -0.18039156937E+03  0.34923595985E+03  0.00000000000E+00 0. -1.
         -2    1    5    5    0  503 -0.29030357584E+03 -0.24722016732E+03 -0.13953990433E+03  0.40603615870E+03  0.00000000000E+00 0.  1.
         -3    1    6    6    0  502 -0.16146976155E+03  0.36000729847E+03 -0.11664543073E+03  0.41144124168E+03  0.00000000000E+00 0.  1.
<mgrwt>
<rscale>  0 0.19452861E+04</rscale>
<asrwt>0</asrwt>
<pdfrwt beam="1">  1        2 0.87108939E-01 0.19452861E+04</pdfrwt>
<pdfrwt beam="2">  1       -2 0.25704995E+00 0.19452861E+04</pdfrwt>
<totfact> 0.28863415E+00</totfact>
</mgrwt>
</event>
<event>
12    1  0.1495204E-007  0.2061431E+04  0.7818608E-02  0.8578426E-01
         -2   -1    0    0    0  501 -0.00000000000E+00  0.00000000000E+00  0.77752499715E+03  0.77752499715E+03  0.00000000000E+00 0.  1.
          2   -1    0    0  501    0  0.00000000000E+00 -0.00000000000E+00 -0.13663538715E+04  0.13663538715E+04  0.00000000000E+00 0. -1.
         23    2    1    2    0    0 -0.35142777818E+02 -0.78280629409E+03  0.95504789011E+02  0.79462185285E+03  0.91005578964E+02 0.  0.
        254    2    1    2    0    0  0.35142777818E+02  0.78280629409E+03 -0.68433366340E+03  0.13492570158E+04  0.85916309456E+03 0.  0.
        -24    2    4    4    0    0 -0.53141662722E+02  0.28341987309E+02 -0.56866081667E+03  0.57725489696E+03  0.78871966361E+02 0.  0.
         24    2    4    4    0    0  0.88284440539E+02  0.75446430678E+03 -0.11567284673E+03  0.77200211889E+03  0.74809968962E+02 0.  0.
         13    1    3    3    0    0 -0.17864258873E+02 -0.43714607434E+03  0.77576736225E+01  0.43757971109E+03  0.00000000000E+00 0. -1.
        -13    1    3    3    0    0 -0.17278518945E+02 -0.34566021974E+03  0.87747115389E+02  0.35704214176E+03  0.00000000000E+00 0.  1.
          4    1    6    6  502    0  0.39853892234E+02  0.51405114805E+03 -0.49353707365E+02  0.51795048409E+03  0.00000000000E+00 0. -1.
          3    1    5    5  503    0 -0.39318666988E+02  0.55820590312E+02 -0.37465677011E+03  0.38082750854E+03  0.00000000000E+00 0. -1.
         -4    1    5    5    0  503 -0.13822995734E+02 -0.27478603004E+02 -0.19400404657E+03  0.19642738841E+03  0.00000000000E+00 0.  1.
         -1    1    6    6    0  502  0.48430548305E+02  0.24041315873E+03 -0.66319139362E+02  0.25405163480E+03  0.00000000000E+00 0.  1.
<mgrwt>
<rscale>  0 0.20614309E+04</rscale>
<asrwt>0</asrwt>
<pdfrwt beam="1">  1        2 0.21020829E+00 0.20614309E+04</pdfrwt>
<pdfrwt beam="2">  1       -2 0.11961923E+00 0.20614309E+04</pdfrwt>
<totfact> 0.74870658E+00</totfact>
</mgrwt>
</event>
<event>
12    1  0.1495204E-007  0.1091087E+04  0.7818608E-02  0.9213923E-01
         -2   -1    0    0    0  501 -0.00000000000E+00  0.00000000000E+00  0.47892440463E+03  0.47892440463E+03  0.00000000000E+00 0.  1.
          2   -1    0    0  501    0  0.00000000000E+00 -0.00000000000E+00 -0.62142926973E+03  0.62142926973E+03  0.00000000000E+00 0. -1.
         23    2    1    2    0    0  0.77667604239E+02  0.60761381934E+02  0.10938159841E+03  0.17293806960E+03  0.90658918824E+02 0.  0.
        254    2    1    2    0    0 -0.77667604239E+02 -0.60761381934E+02 -0.25188646351E+03  0.92741560476E+03  0.88709002428E+03 0.  0.
        -24    2    4    4    0    0  0.29279387767E+03 -0.26724909095E+03 -0.28394974494E+03  0.49463869902E+03  0.83003936647E+02 0.  0.
         24    2    4    4    0    0 -0.37046148191E+03  0.20648770902E+03  0.32063281435E+02  0.43277690574E+03  0.79930673572E+02 0.  0.
         11    1    3    3    0    0  0.57768470027E+02  0.18563094738E+02  0.11072836064E+03  0.12626382881E+03  0.00000000000E+00 0.  1.
        -11    1    3    3    0    0  0.19899134212E+02  0.42198287196E+02 -0.13467622284E+01  0.46674240788E+02  0.00000000000E+00 0. -1.
          4    1    6    6  502    0 -0.80721558300E+02  0.29382262155E+02 -0.22595185386E+02  0.88824713376E+02  0.00000000000E+00 0. -1.
          1    1    5    5  503    0  0.85109582745E+02 -0.43786028282E+02 -0.38817973345E+02  0.10328452160E+03  0.00000000000E+00 0. -1.
         -2    1    5    5    0  503  0.20768429492E+03 -0.22346306267E+03 -0.24513177160E+03  0.39135417742E+03  0.00000000000E+00 0.  1.
         -3    1    6    6    0  502 -0.28973992361E+03  0.17710544686E+03  0.54658466821E+02  0.34395219237E+03  0.00000000000E+00 0.  1.
<mgrwt>
<rscale>  0 0.10910869E+04</rscale>
<asrwt>0</asrwt>
<pdfrwt beam="1">  1        2 0.95604503E-01 0.10910869E+04</pdfrwt>
<pdfrwt beam="2">  1       -2 0.73680678E-01 0.10910869E+04</pdfrwt>
<totfact> 0.78454612E+01</totfact>
</mgrwt>
</event>
<event>
12    1  0.1495204E-007  0.1550257E+04  0.7818608E-02  0.8851703E-01
          2   -1    0    0  501    0  0.00000000000E+00  0.00000000000E+00  0.43272084997E+03  0.43272084997E+03  0.00000000000E+00 0. -1.
         -2   -1    0    0    0  501 -0.00000000000E+00 -0.00000000000E+00 -0.13884803260E+04  0.13884803260E+04  0.00000000000E+00 0.  1.
         23    2    1    2    0    0 -0.37660831077E+03  0.33652771715E+03 -0.29044843380E+03  0.58981006018E+03  0.91819879367E+02 0.  0.
        254    2    1    2    0    0  0.37660831077E+03 -0.33652771715E+03 -0.66531104221E+03  0.12313911158E+04  0.90476547952E+03 0.  0.
        -24    2    4    4    0    0 -0.79119300190E+02  0.14049146120E+03  0.10806928230E+03  0.21166386461E+03  0.84409167000E+02 0.  0.
         24    2    4    4    0    0  0.45572761096E+03 -0.47701917835E+03 -0.77338032451E+03  0.10197272511E+04  0.80570394572E+02 0.  0.
         11    1    3    3    0    0 -0.22807835459E+03  0.16347244218E+03 -0.12047520737E+03  0.30538050163E+03  0.00000000000E+00 0. -1.
        -11    1    3    3    0    0 -0.14852995618E+03  0.17305527497E+03 -0.16997322642E+03  0.28442955855E+03  0.00000000000E+00 0.  1.
          2    1    6    6  502    0  0.27508889625E+03 -0.25209372631E+03 -0.48382565342E+03  0.61099297098E+03  0.00000000000E+00 0. -1.
          3    1    5    5  503    0 -0.75006239414E+02  0.10160045412E+03  0.38793809524E+02  0.13211187640E+03  0.00000000000E+00 0. -1.
         -4    1    5    5    0  503 -0.41130607766E+01  0.38891007086E+02  0.69275472778E+02  0.79551988219E+02  0.00000000000E+00 0.  1.
         -1    1    6    6    0  502  0.18063871471E+03 -0.22492545204E+03 -0.28955467109E+03  0.40873428016E+03  0.00000000000E+00 0.  1.
<mgrwt>
<rscale>  0 0.15502573E+04</rscale>
<asrwt>0</asrwt>
<pdfrwt beam="1">  1        2 0.66572438E-01 0.15502573E+04</pdfrwt>
<pdfrwt beam="2">  1       -2 0.21361236E+00 0.15502573E+04</pdfrwt>
<totfact> 0.75931188E+00</totfact>
</mgrwt>
</event>
<event>
12    1  0.1495204E-007  0.2511561E+04  0.7818608E-02  0.8398878E-01
         -2   -1    0    0    0  501 -0.00000000000E+00  0.00000000000E+00  0.61213430507E+03  0.61213430507E+03  0.00000000000E+00 0. -1.
          2   -1    0    0  501    0  0.00000000000E+00 -0.00000000000E+00 -0.25762078960E+04  0.25762078960E+04  0.00000000000E+00 0.  1.
         23    2    1    2    0    0 -0.38229645083E+02  0.57053556267E+03  0.33355735626E+03  0.66838214167E+03  0.92205441042E+02 0.  0.
        254    2    1    2    0    0  0.38229645083E+02 -0.57053556267E+03 -0.22976309472E+04  0.25199600594E+04  0.86262297522E+03 0.  0.
        -24    2    4    4    0    0  0.33832985033E+03 -0.29399121453E+03 -0.50761517605E+03  0.68191868422E+03  0.80262089933E+02 0.  0.
         24    2    4    4    0    0 -0.30010020525E+03 -0.27654434814E+03 -0.17900157711E+04  0.18380413752E+04  0.87765176608E+02 0.  0.
         13    1    3    3    0    0 -0.17786420919E+02  0.65840453268E+02  0.11038910763E+02  0.69088201644E+02  0.00000000000E+00 0.  1.
        -13    1    3    3    0    0 -0.20443224164E+02  0.50469510940E+03  0.32251844550E+03  0.59929394003E+03  0.00000000000E+00 0. -1.
          4    1    6    6  502    0 -0.54213771754E+02 -0.98791920443E+02 -0.55241441875E+03  0.56379133253E+03  0.00000000000E+00 0. -1.
          3    1    5    5  503    0  0.20965203158E+02 -0.17354397147E+02 -0.75849178395E+01  0.28253244458E+02  0.00000000000E+00 0. -1.
         -4    1    5    5    0  503  0.31736464718E+03 -0.27663681738E+03 -0.50003025821E+03  0.65366543976E+03  0.00000000000E+00 0.  1.
         -3    1    6    6    0  502 -0.24588643350E+03 -0.17775242770E+03 -0.12376013524E+04  0.12742500426E+04  0.00000000000E+00 0.  1.
<mgrwt>
<rscale>  0 0.25115615E+04</rscale>
<asrwt>0</asrwt>
<pdfrwt beam="1">  1        2 0.39633968E+00 0.25115615E+04</pdfrwt>
<pdfrwt beam="2">  1       -2 0.94174507E-01 0.25115615E+04</pdfrwt>
<totfact> 0.26631202E+00</totfact>
</mgrwt>
</event>
<event>
12    1  0.1495204E-007  0.1354223E+04  0.7818608E-02  0.8987637E-01
          1   -1    0    0  501    0  0.00000000000E+00  0.00000000000E+00  0.15252353184E+04  0.15252353184E+04  0.00000000000E+00 0. -1.
         -1   -1    0    0    0  501 -0.00000000000E+00 -0.00000000000E+00 -0.30059637618E+03  0.30059637618E+03  0.00000000000E+00 0.  1.
         23    2    1    2    0    0 -0.15784892535E+03 -0.70770727069E+02 -0.98436757047E+02  0.21634518278E+03  0.84797782596E+02 0.  0.
        254    2    1    2    0    0  0.15784892535E+03  0.70770727069E+02  0.13230756992E+04  0.16094865118E+04  0.89999597032E+03 0.  0.
        -24    2    4    4    0    0  0.24546404764E+01  0.37865958077E+03  0.11546761946E+04  0.12179141237E+04  0.81538917350E+02 0.  0.
         24    2    4    4    0    0  0.15539428487E+03 -0.30788885370E+03  0.16839950463E+03  0.39157238803E+03  0.77637696410E+02 0.  0.
         11    1    3    3    0    0 -0.19908150673E+02  0.19213152062E+02 -0.10090051576E+02  0.29449767676E+02  0.00000000000E+00 0. -1.
        -11    1    3    3    0    0 -0.13794077467E+03 -0.89983879131E+02 -0.88346705471E+02  0.18689541511E+03  0.00000000000E+00 0.  1.
          2    1    6    6  502    0  0.98762843324E+02 -0.19243297327E+03  0.62956738663E+02  0.22527338805E+03  0.00000000000E+00 0. -1.
          3    1    5    5  503    0 -0.23728673449E+02  0.73173173567E+02  0.30703268751E+03  0.31652240754E+03  0.00000000000E+00 0. -1.
         -4    1    5    5    0  503  0.26183313925E+02  0.30548640720E+03  0.84764350708E+03  0.90139171619E+03  0.00000000000E+00 0.  1.
         -1    1    6    6    0  502  0.56631441546E+02 -0.11545588043E+03  0.10544276597E+03  0.16629899997E+03  0.00000000000E+00 0.  1.
<mgrwt>
<rscale>  0 0.13542233E+04</rscale>
<asrwt>0</asrwt>
<pdfrwt beam="1">  1        1 0.23465158E+00 0.13542233E+04</pdfrwt>
<pdfrwt beam="2">  1       -1 0.46245597E-01 0.13542233E+04</pdfrwt>
<totfact> 0.28606579E+01</totfact>
</mgrwt>
</event>
<event>
12    1  0.1495204E-007  0.1148979E+04  0.7818608E-02  0.9158726E-01
         -2   -1    0    0    0  501 -0.00000000000E+00  0.00000000000E+00  0.18900196788E+03  0.18900196788E+03  0.00000000000E+00 0.  1.
          2   -1    0    0  501    0  0.00000000000E+00 -0.00000000000E+00 -0.17462154423E+04  0.17462154423E+04  0.00000000000E+00 0. -1.
         23    2    1    2    0    0 -0.77651942394E+02 -0.18762815255E+03 -0.37776266601E+03  0.43856238391E+03  0.91641611510E+02 0.  0.
        254    2    1    2    0    0  0.77651942394E+02  0.18762815255E+03 -0.11794508084E+04  0.14966550263E+04  0.89868676993E+03 0.  0.
        -24    2    4    4    0    0  0.32090238143E+03  0.37918284771E+03 -0.10227870598E+04  0.11399272438E+04  0.81134339544E+02 0.  0.
         24    2    4    4    0    0 -0.24325043903E+03 -0.19155469517E+03 -0.15666374855E+03  0.35672778243E+03  0.82747829682E+02 0.  0.
         13    1    3    3    0    0 -0.70823258820E+02 -0.62747555319E+02 -0.12734624930E+03  0.15865136904E+03  0.00000000000E+00 0.  1.
        -13    1    3    3    0    0 -0.68286835740E+01 -0.12488059723E+03 -0.25041641672E+03  0.27991101487E+03  0.00000000000E+00 0. -1.
          2    1    6    6  502    0 -0.24280342771E+03 -0.16518510220E+03 -0.13837777677E+03  0.32463522853E+03  0.00000000000E+00 0. -1.
          3    1    5    5  503    0  0.14285339043E+03  0.23128527130E+03 -0.54721367451E+03  0.61101781762E+03  0.00000000000E+00 0. -1.
         -4    1    5    5    0  503  0.17804899100E+03  0.14789757641E+03 -0.47557338533E+03  0.52890942621E+03  0.00000000000E+00 0.  1.
         -1    1    6    6    0  502 -0.44701132575E+00 -0.26369592961E+02 -0.18285971775E+02  0.32092553900E+02  0.00000000000E+00 0.  1.
<mgrwt>
<rscale>  0 0.11489789E+04</rscale>
<asrwt>0</asrwt>
<pdfrwt beam="1">  1        2 0.26864853E+00 0.11489789E+04</pdfrwt>
<pdfrwt beam="2">  1       -2 0.29077226E-01 0.11489789E+04</pdfrwt>
<totfact> 0.99465270E+01</totfact>
</mgrwt>
</event>
<event>
12    1  0.1495204E-007  0.1487361E+04  0.7818608E-02  0.8892901E-01
          2   -1    0    0  501    0  0.00000000000E+00  0.00000000000E+00  0.18171992723E+04  0.18171992723E+04  0.00000000000E+00 0. -1.
         -2   -1    0    0    0  501 -0.00000000000E+00 -0.00000000000E+00 -0.30434797131E+03  0.30434797131E+03  0.00000000000E+00 0.  1.
         23    2    1    2    0    0 -0.82522593268E+02  0.41728026522E+03  0.20750869725E+03  0.48237910965E+03  0.93257427858E+02 0.  0.
        254    2    1    2    0    0  0.82522593268E+02 -0.41728026522E+03  0.13053426037E+04  0.16391681340E+04  0.89555572696E+03 0.  0.
        -24    2    4    4    0    0 -0.30845294943E+03  0.26492281216E+02  0.78339146205E+03  0.84612101803E+03  0.79834399598E+02 0.  0.
         24    2    4    4    0    0  0.39097554270E+03 -0.44377254644E+03  0.52195114170E+03  0.79304711593E+03  0.81821670784E+02 0.  0.
         13    1    3    3    0    0 -0.53114518728E+02  0.11891492457E+03  0.98781859261E+02  0.16346182155E+03  0.00000000000E+00 0. -1.
        -13    1    3    3    0    0 -0.29408074540E+02  0.29836534066E+03  0.10872683798E+03  0.31891728810E+03  0.00000000000E+00 0.  1.
          2    1    6    6  502    0  0.50966642109E+02 -0.10289044820E+03  0.11695760826E+03  0.16389974090E+03  0.00000000000E+00 0. -1.
          1    1    5    5  503    0 -0.48162401734E+01 -0.11676129511E+02  0.19762880452E+02  0.23454202470E+02  0.00000000000E+00 0. -1.
         -2    1    5    5    0  503 -0.30363670925E+03  0.38168410727E+02  0.76362858160E+03  0.82266681556E+03  0.00000000000E+00 0.  1.
         -1    1    6    6    0  502  0.34000890059E+03 -0.34088209824E+03  0.40499353344E+03  0.62914737503E+03  0.00000000000E+00 0.  1.
<mgrwt>
<rscale>  0 0.14873613E+04</rscale>
<asrwt>0</asrwt>
<pdfrwt beam="1">  1        2 0.27956911E+00 0.14873613E+04</pdfrwt>
<pdfrwt beam="2">  1       -2 0.46822766E-01 0.14873613E+04</pdfrwt>
<totfact> 0.35298112E+01</totfact>
</mgrwt>
</event>
<event>
12    1  0.1495204E-007  0.1227654E+04  0.7818608E-02  0.9088990E-01
          1   -1    0    0  501    0  0.00000000000E+00  0.00000000000E+00  0.60973985950E+03  0.60973985950E+03  0.00000000000E+00 0. -1.
         -1   -1    0    0    0  501 -0.00000000000E+00 -0.00000000000E+00 -0.61794124509E+03  0.61794124509E+03  0.00000000000E+00 0.  1.
         23    2    1    2    0    0 -0.21159120436E+03  0.11822453110E+03 -0.14870546430E+03  0.29914155511E+03  0.92868064288E+02 0.  0.
        254    2    1    2    0    0  0.21159120436E+03 -0.11822453110E+03  0.14050407871E+03  0.92853954948E+03  0.88526629965E+03 0.  0.
        -24    2    4    4    0    0  0.26846693485E+03 -0.13494235386E+03  0.48097703965E+03  0.57333033758E+03  0.84171428310E+02 0.  0.
         24    2    4    4    0    0 -0.56875730495E+02  0.16717822763E+02 -0.34047296095E+03  0.35520921189E+03  0.82081744385E+02 0.  0.
         11    1    3    3    0    0 -0.25671816541E+02  0.54852808539E+02 -0.17910921990E+02  0.63155949012E+02  0.00000000000E+00 0. -1.
        -11    1    3    3    0    0 -0.18591938782E+03  0.63371722560E+02 -0.13079454231E+03  0.23598560610E+03  0.00000000000E+00 0.  1.
          2    1    6    6  502    0 -0.29102146673E+02 -0.31770133781E+02 -0.11197297233E+03  0.11997592622E+03  0.00000000000E+00 0. -1.
          1    1    5    5  503    0  0.12294819493E+03 -0.17954156292E+02  0.21579748536E+03  0.24901237931E+03  0.00000000000E+00 0. -1.
         -2    1    5    5    0  503  0.14551873992E+03 -0.11698819757E+03  0.26517955430E+03  0.32431795827E+03  0.00000000000E+00 0.  1.
         -1    1    6    6    0  502 -0.27773583822E+02  0.48487956545E+02 -0.22849998862E+03  0.23523328567E+03  0.00000000000E+00 0.  1.
<mgrwt>
<rscale>  0 0.12276537E+04</rscale>
<asrwt>0</asrwt>
<pdfrwt beam="1">  1        1 0.93806132E-01 0.12276537E+04</pdfrwt>
<pdfrwt beam="2">  1       -1 0.95067884E-01 0.12276537E+04</pdfrwt>
<totfact> 0.35348873E+01</totfact>
</mgrwt>
</event>
<event>
12    1  0.1495204E-007  0.1202111E+04  0.7818608E-02  0.9111011E-01
          2   -1    0    0  501    0  0.00000000000E+00  0.00000000000E+00  0.17356672628E+03  0.17356672628E+03  0.00000000000E+00 0.  1.
         -2   -1    0    0    0  501 -0.00000000000E+00 -0.00000000000E+00 -0.20814346590E+04  0.20814346590E+04  0.00000000000E+00 0. -1.
         23    2    1    2    0    0  0.15386812082E+03  0.20706749923E+03 -0.64958925194E+03  0.70563304421E+03  0.96950755535E+02 0.  0.
        254    2    1    2    0    0 -0.15386812082E+03 -0.20706749923E+03 -0.12582786807E+04  0.15493683410E+04  0.86644369115E+03 0.  0.
        -24    2    4    4    0    0 -0.27126180324E+03 -0.78751072499E+02 -0.13163846739E+04  0.13486078054E+04  0.78036566488E+02 0.  0.
         24    2    4    4    0    0  0.11739368242E+03 -0.12831642673E+03  0.58105993145E+02  0.20076053567E+03  0.81744138645E+02 0.  0.
         13    1    3    3    0    0  0.63933732792E+02  0.16368886352E+03 -0.41746697581E+03  0.45294618016E+03  0.00000000000E+00 0. -1.
        -13    1    3    3    0    0  0.89934388029E+02  0.43378635708E+02 -0.23212227613E+03  0.25268686405E+03  0.00000000000E+00 0.  1.
          2    1    6    6  502    0  0.71954662891E+02 -0.36877643512E+02 -0.45160476761E+01  0.80980422260E+02  0.00000000000E+00 0. -1.
          3    1    5    5  503    0  0.26856802963E+01 -0.70647133481E+01 -0.72766442345E+02  0.73157898992E+02  0.00000000000E+00 0. -1.
         -4    1    5    5    0  503 -0.27394748354E+03 -0.71686359151E+02 -0.12436182315E+04  0.12754499064E+04  0.00000000000E+00 0.  1.
         -1    1    6    6    0  502  0.45439019527E+02 -0.91438783220E+02  0.62622040821E+02  0.11978011341E+03  0.00000000000E+00 0.  1.
<mgrwt>
<rscale>  0 0.12021111E+04</rscale>
<asrwt>0</asrwt>
<pdfrwt beam="1">  1        2 0.26702573E-01 0.12021111E+04</pdfrwt>
<pdfrwt beam="2">  1       -2 0.32022072E+00 0.12021111E+04</pdfrwt>
<totfact> 0.48415534E+00</totfact>
</mgrwt>
</event>
<event>
12    1  0.2368515E-007  0.1549596E+04  0.7818608E-02  0.8852126E-01
          2   -1    0    0  501    0  0.00000000000E+00  0.00000000000E+00  0.10892180759E+04  0.10892180759E+04  0.00000000000E+00 0. -1.
         -2   -1    0    0    0  501 -0.00000000000E+00 -0.00000000000E+00 -0.55114034750E+03  0.55114034750E+03  0.00000000000E+00 0.  1.
         23    2    1    2    0    0 -0.29195261394E+03  0.24038685177E+03  0.52996067218E+03  0.65762695779E+03  0.92697002437E+02 0.  0.
        254    2    1    2    0    0  0.29195261394E+03 -0.24038685177E+03  0.81170562645E+01  0.98273146565E+03  0.90701327427E+03 0.  0.
        -24    2    4    4    0    0  0.16651984829E+03 -0.14435775726E+03  0.44964488565E+03  0.50716296801E+03  0.80409769154E+02 0.  0.
         24    2    4    4    0    0  0.12543276565E+03 -0.96029094504E+02 -0.44152782938E+03  0.47556849764E+03  0.79142947517E+02 0.  0.
         13    1    3    3    0    0 -0.25098397940E+01  0.95992440328E+01 -0.14082664393E+01  0.10021376959E+02  0.00000000000E+00 0.  1.
        -13    1    3    3    0    0 -0.28944277414E+03  0.23078760774E+03  0.53136893862E+03  0.64760558083E+03  0.00000000000E+00 0. -1.
          2    1    6    6  502    0  0.13531241781E+03 -0.94604988035E+02 -0.42811876785E+03  0.45885208244E+03  0.00000000000E+00 0. -1.
          1    1    5    5  503    0  0.87500571518E+02 -0.62212388136E+02  0.30281367539E+03  0.32128313565E+03  0.00000000000E+00 0. -1.
         -2    1    5    5    0  503  0.79019276768E+02 -0.82145369129E+02  0.14683121026E+03  0.18587983236E+03  0.00000000000E+00 0.  1.
         -1    1    6    6    0  502 -0.98796521610E+01 -0.14241064695E+01 -0.13409061536E+02  0.16716415206E+02  0.00000000000E+00 0.  1.
<mgrwt>
<rscale>  0 0.15495961E+04</rscale>
<asrwt>0</asrwt>
<pdfrwt beam="1">  1        2 0.16757201E+00 0.15495961E+04</pdfrwt>
<pdfrwt beam="2">  1       -2 0.84790823E-01 0.15495961E+04</pdfrwt>
<totfact> 0.25809793E+01</totfact>
</mgrwt>
</event>
<event>
12    1  0.1495204E-007  0.1854365E+04  0.7818608E-02  0.8677912E-01
          1   -1    0    0  501    0  0.00000000000E+00  0.00000000000E+00  0.64968153700E+03  0.64968153700E+03  0.00000000000E+00 0. -1.
         -1   -1    0    0    0  501 -0.00000000000E+00 -0.00000000000E+00 -0.13232129518E+04  0.13232129518E+04  0.00000000000E+00 0.  1.
         23    2    1    2    0    0  0.59778777434E+03  0.28062044034E+03 -0.51543268161E+03  0.84258880306E+03  0.90481971041E+02 0.  0.
        254    2    1    2    0    0 -0.59778777434E+03 -0.28062044034E+03 -0.15809873319E+03  0.11303056857E+04  0.90360261126E+03 0.  0.
        -24    2    4    4    0    0 -0.50437158415E+03 -0.59344849236E+03 -0.10877236786E+03  0.79042768494E+03  0.79829124547E+02 0.  0.
         24    2    4    4    0    0 -0.93416190193E+02  0.31282805203E+03 -0.49326365327E+02  0.33987800079E+03  0.80597707022E+02 0.  0.
         13    1    3    3    0    0  0.47324194922E+03  0.23055822011E+03 -0.36278953694E+03  0.63932095498E+03  0.00000000000E+00 0.  1.
        -13    1    3    3    0    0  0.12454582512E+03  0.50062220226E+02 -0.15264314466E+03  0.20326784808E+03  0.00000000000E+00 0. -1.
          4    1    6    6  502    0 -0.14826248282E+02  0.48040569088E+02  0.21588469847E+02  0.54715408678E+02  0.00000000000E+00 0. -1.
          3    1    5    5  503    0 -0.65254366777E+02 -0.76468827933E+02  0.12733804703E+02  0.10132997489E+03  0.00000000000E+00 0. -1.
         -4    1    5    5    0  503 -0.43911721737E+03 -0.51697966443E+03 -0.12150617256E+03  0.68909771005E+03  0.00000000000E+00 0.  1.
         -1    1    6    6    0  502 -0.78589941911E+02  0.26478748294E+03 -0.70914835174E+02  0.28516259211E+03  0.00000000000E+00 0.  1.
<mgrwt>
<rscale>  0 0.18543646E+04</rscale>
<asrwt>0</asrwt>
<pdfrwt beam="1">  1        1 0.99951005E-01 0.18543646E+04</pdfrwt>
<pdfrwt beam="2">  1       -1 0.20357122E+00 0.18543646E+04</pdfrwt>
<totfact> 0.40707365E+00</totfact>
</mgrwt>
</event>
<event>
12    1  0.1495204E-007  0.1558585E+04  0.7818608E-02  0.8846403E-01
         -2   -1    0    0    0  501 -0.00000000000E+00  0.00000000000E+00  0.46704882030E+03  0.46704882030E+03  0.00000000000E+00 0.  1.
          2   -1    0    0  501    0  0.00000000000E+00 -0.00000000000E+00 -0.13002853723E+04  0.13002853723E+04  0.00000000000E+00 0. -1.
         23    2    1    2    0    0 -0.48657073323E+03 -0.91978644954E+01 -0.91884759070E+02  0.50374880742E+03  0.92110655657E+02 0.  0.
        254    2    1    2    0    0  0.48657073323E+03  0.91978644954E+01 -0.74135179293E+03  0.12635853852E+04  0.90011658445E+03 0.  0.
        -24    2    4    4    0    0  0.62785920076E+02 -0.40620765039E+03 -0.36521972824E+03  0.55638506422E+03  0.85042123638E+02 0.  0.
         24    2    4    4    0    0  0.42378481315E+03  0.41540551488E+03 -0.37613206469E+03  0.70720032096E+03  0.80632835919E+02 0.  0.
         11    1    3    3    0    0 -0.36609797358E+03 -0.38661808105E+02 -0.93083331561E+02  0.37971959164E+03  0.00000000000E+00 0.  1.
        -11    1    3    3    0    0 -0.12047275965E+03  0.29463943610E+02  0.11985724913E+01  0.12402921578E+03  0.00000000000E+00 0. -1.
          4    1    6    6  502    0  0.37533325744E+03  0.32684230391E+03 -0.32000557211E+03  0.59169630043E+03  0.00000000000E+00 0. -1.
          1    1    5    5  503    0  0.82963679653E+02 -0.29546104482E+03 -0.25810421944E+03  0.40099624592E+03  0.00000000000E+00 0. -1.
         -2    1    5    5    0  503 -0.20177759577E+02 -0.11074660557E+03 -0.10711550880E+03  0.15538881830E+03  0.00000000000E+00 0.  1.
         -3    1    6    6    0  502  0.48451555710E+02  0.88563210975E+02 -0.56126492580E+02  0.11550402053E+03  0.00000000000E+00 0.  1.
<mgrwt>
<rscale>  0 0.15585849E+04</rscale>
<asrwt>0</asrwt>
<pdfrwt beam="1">  1        2 0.20004390E+00 0.15585849E+04</pdfrwt>
<pdfrwt beam="2">  1       -2 0.71853665E-01 0.15585849E+04</pdfrwt>
<totfact> 0.27905038E+01</totfact>
</mgrwt>
</event>
<event>
12    1  0.1495204E-007  0.1806879E+04  0.7818608E-02  0.8702650E-01
         -2   -1    0    0    0  501 -0.00000000000E+00  0.00000000000E+00  0.26880490732E+03  0.26880490732E+03  0.00000000000E+00 0.  1.
          2   -1    0    0  501    0  0.00000000000E+00 -0.00000000000E+00 -0.30364135532E+04  0.30364135532E+04  0.00000000000E+00 0. -1.
         23    2    1    2    0    0 -0.36322417332E+03 -0.54510465541E+03 -0.11647715107E+04  0.13394453971E+04  0.91380601665E+02 0.  0.
        254    2    1    2    0    0  0.36322417332E+03  0.54510465541E+03 -0.16028371352E+04  0.19657730634E+04  0.93064814477E+03 0.  0.
        -24    2    4    4    0    0  0.26836087982E+03  0.77706070209E+03 -0.93588255195E+03  0.12482906572E+04  0.80700169432E+02 0.  0.
         24    2    4    4    0    0  0.94863293501E+02 -0.23195604669E+03 -0.66695458325E+03  0.71748240616E+03  0.84557288162E+02 0.  0.
         13    1    3    3    0    0 -0.10779034204E+03 -0.94379904195E+02 -0.25809128188E+03  0.29519050448E+03  0.00000000000E+00 0. -1.
        -13    1    3    3    0    0 -0.25543383128E+03 -0.45072475121E+03 -0.90668022877E+03  0.10442548926E+04  0.00000000000E+00 0.  1.
          4    1    6    6  502    0  0.10989915923E+03 -0.21513120797E+03 -0.59899815288E+03  0.64587773533E+03  0.00000000000E+00 0. -1.
          1    1    5    5  503    0  0.23199111637E+03  0.66650307042E+03 -0.75755275167E+03  0.10353416791E+04  0.00000000000E+00 0. -1.
         -2    1    5    5    0  503  0.36369763448E+02  0.11055763168E+03 -0.17832980028E+03  0.21294897812E+03  0.00000000000E+00 0.  1.
         -3    1    6    6    0  502 -0.15035865725E+02 -0.16824838717E+02 -0.67956430369E+02  0.71604670828E+02  0.00000000000E+00 0.  1.
<mgrwt>
<rscale>  0 0.18068789E+04</rscale>
<asrwt>0</asrwt>
<pdfrwt beam="1">  1        2 0.46714055E+00 0.18068789E+04</pdfrwt>
<pdfrwt beam="2">  1       -2 0.41354601E-01 0.18068789E+04</pdfrwt>
<totfact> 0.86675950E+00</totfact>
</mgrwt>
</event>
<event>
12    1  0.1495204E-007  0.1525985E+04  0.7818608E-02  0.8867355E-01
          2   -1    0    0  501    0  0.00000000000E+00  0.00000000000E+00  0.53806573536E+03  0.53806573536E+03  0.00000000000E+00 0. -1.
         -2   -1    0    0    0  501 -0.00000000000E+00 -0.00000000000E+00 -0.10819444456E+04  0.10819444456E+04  0.00000000000E+00 0.  1.
         23    2    1    2    0    0 -0.32051140804E+03 -0.27033988848E+03 -0.47853521281E+03  0.64256941628E+03  0.89934903428E+02 0.  0.
        254    2    1    2    0    0  0.32051140804E+03  0.27033988848E+03 -0.65343497476E+02  0.97744076472E+03  0.88051658581E+03 0.  0.
        -24    2    4    4    0    0  0.36831740476E+03  0.51878691963E+03 -0.21025822014E+03  0.67463955873E+03  0.78309874505E+02 0.  0.
         24    2    4    4    0    0 -0.47805996724E+02 -0.24844703114E+03  0.14491472266E+03  0.30280120599E+03  0.81712623856E+02 0.  0.
         11    1    3    3    0    0 -0.26234581158E+03 -0.19755990380E+03 -0.41750362820E+03  0.53119160385E+03  0.00000000000E+00 0.  1.
        -11    1    3    3    0    0 -0.58165596465E+02 -0.72779984684E+02 -0.61031584614E+02  0.11137781244E+03  0.00000000000E+00 0. -1.
          2    1    6    6  502    0 -0.11199725215E+02 -0.20424859884E+03  0.13356606668E+03  0.24430067159E+03  0.00000000000E+00 0. -1.
          1    1    5    5  503    0  0.19890737710E+03  0.30414870367E+03 -0.15788141084E+03  0.39622861898E+03  0.00000000000E+00 0. -1.
         -2    1    5    5    0  503  0.16941002767E+03  0.21463821595E+03 -0.52376809292E+02  0.27841093975E+03  0.00000000000E+00 0.  1.
         -1    1    6    6    0  502 -0.36606271509E+02 -0.44198432302E+02  0.11348655982E+02  0.58500534393E+02  0.00000000000E+00 0.  1.
<mgrwt>
<rscale>  0 0.15259846E+04</rscale>
<asrwt>0</asrwt>
<pdfrwt beam="1">  1        2 0.82779345E-01 0.15259846E+04</pdfrwt>
<pdfrwt beam="2">  1       -2 0.16645299E+00 0.15259846E+04</pdfrwt>
<totfact> 0.12300355E+01</totfact>
</mgrwt>
</event>
<event>
12    1  0.1495204E-007  0.1072945E+04  0.7818608E-02  0.9231970E-01
         -2   -1    0    0    0  501 -0.00000000000E+00  0.00000000000E+00  0.14128286700E+03  0.14128286700E+03  0.00000000000E+00 0. -1.
          2   -1    0    0  501    0  0.00000000000E+00 -0.00000000000E+00 -0.20370669930E+04  0.20370669930E+04  0.00000000000E+00 0.  1.
         23    2    1    2    0    0 -0.66908301857E+01  0.10080215729E+03 -0.51809365254E+03  0.53552921036E+03  0.90358509431E+02 0.  0.
        254    2    1    2    0    0  0.66908301857E+01 -0.10080215729E+03 -0.13776904734E+04  0.16428206496E+04  0.88916972739E+03 0.  0.
        -24    2    4    4    0    0  0.18233940631E+03  0.26848199555E+03 -0.10802043301E+04  0.11307331606E+04  0.79911479503E+02 0.  0.
         24    2    4    4    0    0 -0.17564857613E+03 -0.36928415284E+03 -0.29748614331E+03  0.51208748905E+03  0.80699337961E+02 0.  0.
         11    1    3    3    0    0  0.31428445303E+02  0.66213340145E+02 -0.40068112234E+03  0.40732949241E+03  0.00000000000E+00 0.  1.
        -11    1    3    3    0    0 -0.38119275489E+02  0.34588817145E+02 -0.11741253020E+03  0.12819971796E+03  0.00000000000E+00 0. -1.
          4    1    6    6  502    0 -0.18372076949E+03 -0.35923353760E+03 -0.28388798273E+03  0.49335022288E+03  0.00000000000E+00 0. -1.
          1    1    5    5  503    0  0.17599404559E+03  0.21222564665E+03 -0.84639420375E+03  0.89016671322E+03  0.00000000000E+00 0. -1.
         -2    1    5    5    0  503  0.63453607166E+01  0.56256348903E+02 -0.23381012639E+03  0.24056644736E+03  0.00000000000E+00 0.  1.
         -3    1    6    6    0  502  0.80721933633E+01 -0.10050615243E+02 -0.13598160578E+02  0.18737266171E+02  0.00000000000E+00 0.  1.
<mgrwt>
<rscale>  0 0.10729449E+04</rscale>
<asrwt>0</asrwt>
<pdfrwt beam="1">  1        2 0.31339492E+00 0.10729449E+04</pdfrwt>
<pdfrwt beam="2">  1       -2 0.21735826E-01 0.10729449E+04</pdfrwt>
<totfact> 0.11721726E+02</totfact>
</mgrwt>
</event>
<event>
12    1  0.1495204E-007  0.1651266E+04  0.7818608E-02  0.8789658E-01
          1   -1    0    0  501    0  0.00000000000E+00  0.00000000000E+00  0.67993386271E+03  0.67993386271E+03  0.00000000000E+00 0. -1.
         -1   -1    0    0    0  501 -0.00000000000E+00 -0.00000000000E+00 -0.10025531670E+04  0.10025531670E+04  0.00000000000E+00 0.  1.
         23    2    1    2    0    0 -0.25208670551E+03  0.25724320770E+03  0.34354886016E+03  0.50595323506E+03  0.90780403936E+02 0.  0.
        254    2    1    2    0    0  0.25208670551E+03 -0.25724320770E+03 -0.66616816444E+03  0.11765337947E+04  0.90040544847E+03 0.  0.
        -24    2    4    4    0    0 -0.69983828773E+02 -0.21863130937E+03  0.15567787393E+03  0.28896110014E+03  0.81027965788E+02 0.  0.
         24    2    4    4    0    0  0.32207053429E+03 -0.38611898335E+02 -0.82184603837E+03  0.88757269451E+03  0.84463421137E+02 0.  0.
         11    1    3    3    0    0 -0.13888206426E+03  0.15605073508E+03  0.13785836267E+03  0.25028980773E+03  0.00000000000E+00 0. -1.
        -11    1    3    3    0    0 -0.11320464125E+03  0.10119247262E+03  0.20569049749E+03  0.25566342733E+03  0.00000000000E+00 0.  1.
          2    1    6    6  502    0  0.22222855813E+03 -0.64871498399E+02 -0.54666859824E+03  0.59366690968E+03  0.00000000000E+00 0. -1.
          3    1    5    5  503    0 -0.70924597608E+02 -0.17710117879E+03  0.15748714313E+03  0.24738093363E+03  0.00000000000E+00 0. -1.
         -4    1    5    5    0  503  0.94076883489E+00 -0.41530130584E+02 -0.18092692007E+01  0.41580166515E+02  0.00000000000E+00 0.  1.
         -1    1    6    6    0  502  0.99841976158E+02  0.26259600064E+02 -0.27517744013E+03  0.29390578483E+03  0.00000000000E+00 0.  1.
<mgrwt>
<rscale>  0 0.16512660E+04</rscale>
<asrwt>0</asrwt>
<pdfrwt beam="1">  1        1 0.10460521E+00 0.16512660E+04</pdfrwt>
<pdfrwt beam="2">  1       -1 0.15423895E+00 0.16512660E+04</pdfrwt>
<totfact> 0.87998433E+00</totfact>
</mgrwt>
</event>
<event>
12    1  0.1495204E-007  0.1642230E+04  0.7818608E-02  0.8795017E-01
          3   -1    0    0  501    0  0.00000000000E+00  0.00000000000E+00  0.14237489550E+04  0.14237489550E+04  0.00000000000E+00 0. -1.
         -3   -1    0    0    0  501 -0.00000000000E+00 -0.00000000000E+00 -0.47355924994E+03  0.47355924994E+03  0.00000000000E+00 0.  1.
         23    2    1    2    0    0 -0.51949291602E+03 -0.22219490455E+03  0.23489817334E+03  0.61758487691E+03  0.83608988418E+02 0.  0.
        254    2    1    2    0    0  0.51949291602E+03  0.22219490455E+03  0.71529153168E+03  0.12797233280E+04  0.89822400077E+03 0.  0.
        -24    2    4    4    0    0  0.32410674572E+03 -0.32801808471E+03  0.36527220556E+03  0.59341953697E+03  0.77986641077E+02 0.  0.
         24    2    4    4    0    0  0.19538617030E+03  0.55021298926E+03  0.35001932612E+03  0.68630379104E+03  0.87116449922E+02 0.  0.
         11    1    3    3    0    0 -0.11293647692E+03 -0.52910473736E+02  0.90614258838E+02  0.15415936544E+03  0.00000000000E+00 0. -1.
        -11    1    3    3    0    0 -0.40655643910E+03 -0.16928443081E+03  0.14428391451E+03  0.46342551146E+03  0.00000000000E+00 0.  1.
          2    1    6    6  502    0  0.83202543897E+02  0.13577822920E+03  0.71726328667E+02  0.17465124409E+03  0.00000000000E+00 0. -1.
          3    1    5    5  503    0  0.36187063615E+02 -0.10330350142E+02  0.18205340811E+02  0.41804953548E+02  0.00000000000E+00 0. -1.
         -4    1    5    5    0  503  0.28791968210E+03 -0.31768773456E+03  0.34706686475E+03  0.55161458342E+03  0.00000000000E+00 0.  1.
         -1    1    6    6    0  502  0.11218362640E+03  0.41443476005E+03  0.27829299746E+03  0.51165254696E+03  0.00000000000E+00 0.  1.
<mgrwt>
<rscale>  0 0.16422296E+04</rscale>
<asrwt>0</asrwt>
<pdfrwt beam="1">  1        3 0.21903830E+00 0.16422296E+04</pdfrwt>
<pdfrwt beam="2">  1       -3 0.72855270E-01 0.16422296E+04</pdfrwt>
<totfact> 0.50318100E-01</totfact>
</mgrwt>
</event>
<event>
12    1  0.1495204E-007  0.1273487E+04  0.7818608E-02  0.9050858E-01
         -1   -1    0    0    0  501 -0.00000000000E+00  0.00000000000E+00  0.13542296673E+04  0.13542296673E+04  0.00000000000E+00 0.  1.
          1   -1    0    0  501    0  0.00000000000E+00 -0.00000000000E+00 -0.29938983211E+03  0.29938983211E+03  0.00000000000E+00 0. -1.
         23    2    1    2    0    0 -0.19384248558E+03  0.73496466268E+02  0.56241188008E+03  0.60566554461E+03  0.86873409627E+02 0.  0.
        254    2    1    2    0    0  0.19384248558E+03 -0.73496466268E+02  0.49242795507E+03  0.10479539548E+04  0.90152402110E+03 0.  0.
        -24    2    4    4    0    0 -0.25749681170E+03 -0.29516083229E+03  0.30924101498E+03  0.50549713658E+03  0.80453867509E+02 0.  0.
         24    2    4    4    0    0  0.45133929728E+03  0.22166436602E+03  0.18318694010E+03  0.54245681820E+03  0.88654904860E+02 0.  0.
         11    1    3    3    0    0 -0.17052386041E+03  0.75450268401E+02  0.54631900501E+03  0.57726561062E+03  0.00000000000E+00 0.  1.
        -11    1    3    3    0    0 -0.23318625166E+02 -0.19538021328E+01  0.16092875072E+02  0.28399933988E+02  0.00000000000E+00 0. -1.
          2    1    6    6  502    0  0.25043271813E+03  0.82729147183E+02  0.12227672064E+03  0.29070991472E+03  0.00000000000E+00 0. -1.
          3    1    5    5  503    0 -0.19792461512E+03 -0.18363419592E+03  0.24052666215E+03  0.36159196118E+03  0.00000000000E+00 0. -1.
         -4    1    5    5    0  503 -0.59572196576E+02 -0.11152663636E+03  0.68714352828E+02  0.14390517540E+03  0.00000000000E+00 0.  1.
         -1    1    6    6    0  502  0.20090657914E+03  0.13893521884E+03  0.60910219461E+02  0.25174690348E+03  0.00000000000E+00 0.  1.
<mgrwt>
<rscale>  0 0.12734875E+04</rscale>
<asrwt>0</asrwt>
<pdfrwt beam="1">  1        1 0.46059975E-01 0.12734875E+04</pdfrwt>
<pdfrwt beam="2">  1       -1 0.20834302E+00 0.12734875E+04</pdfrwt>
<totfact> 0.11420983E+01</totfact>
</mgrwt>
</event>
<event>
12    1  0.1495204E-007  0.1253463E+04  0.7818608E-02  0.9067306E-01
         -2   -1    0    0    0  501 -0.00000000000E+00  0.00000000000E+00  0.15457359573E+03  0.15457359573E+03  0.00000000000E+00 0.  1.
          2   -1    0    0  501    0  0.00000000000E+00 -0.00000000000E+00 -0.25411368588E+04  0.25411368588E+04  0.00000000000E+00 0. -1.
         23    2    1    2    0    0  0.32040661542E+03  0.62588969743E+02 -0.84170542084E+03  0.90750810539E+03  0.92331833849E+02 0.  0.
        254    2    1    2    0    0 -0.32040661542E+03 -0.62588969743E+02 -0.15448578422E+04  0.17882023491E+04  0.83934743130E+03 0.  0.
        -24    2    4    4    0    0  0.85166618509E+00  0.17730549061E+03 -0.37233266263E+01  0.19370815328E+03  0.77916770654E+02 0.  0.
         24    2    4    4    0    0 -0.32125828160E+03 -0.23989446036E+03 -0.15411345156E+04  0.15944941958E+04  0.80993270418E+02 0.  0.
         11    1    3    3    0    0  0.30634522460E+03  0.59499338935E+02 -0.71693815828E+03  0.78191296880E+03  0.00000000000E+00 0. -1.
        -11    1    3    3    0    0  0.14061390815E+02  0.30896308086E+01 -0.12476726255E+03  0.12559513659E+03  0.00000000000E+00 0.  1.
          4    1    6    6  502    0 -0.25719778787E+03 -0.15842112342E+03 -0.12300886311E+04  0.12666356993E+04  0.00000000000E+00 0. -1.
          1    1    5    5  503    0  0.12671856369E+02  0.72310173911E+02  0.34804018550E+02  0.81244426898E+02  0.00000000000E+00 0. -1.
         -2    1    5    5    0  503 -0.11820190183E+02  0.10499531670E+03 -0.38527345176E+02  0.11246372638E+03  0.00000000000E+00 0.  1.
         -3    1    6    6    0  502 -0.64060493736E+02 -0.81473336937E+02 -0.31104588444E+03  0.32785849648E+03  0.00000000000E+00 0.  1.
<mgrwt>
<rscale>  0 0.12534635E+04</rscale>
<asrwt>0</asrwt>
<pdfrwt beam="1">  1        2 0.39094415E+00 0.12534635E+04</pdfrwt>
<pdfrwt beam="2">  1       -2 0.23780552E-01 0.12534635E+04</pdfrwt>
<totfact> 0.51176085E+01</totfact>
</mgrwt>
</event>
<event>
12    1  0.1495204E-007  0.2931933E+04  0.7818608E-02  0.8263439E-01
         -4   -1    0    0    0  501 -0.00000000000E+00  0.00000000000E+00  0.20495980488E+04  0.20495980488E+04  0.00000000000E+00 0.  1.
          4   -1    0    0  501    0  0.00000000000E+00 -0.00000000000E+00 -0.10485263191E+04  0.10485263191E+04  0.00000000000E+00 0. -1.
         23    2    1    2    0    0 -0.94715221167E+03 -0.23992916502E+03  0.13928298434E+04  0.17038429534E+04  0.91883190978E+02 0.  0.
        254    2    1    2    0    0  0.94715221167E+03  0.23992916502E+03 -0.39175811367E+03  0.13942814146E+04  0.91426633269E+03 0.  0.
        -24    2    4    4    0    0  0.68497423497E+02 -0.22503051888E+03  0.11784105147E+03  0.27435989444E+03  0.77821634611E+02 0.  0.
         24    2    4    4    0    0  0.87865478818E+03  0.46495968390E+03 -0.50959916514E+03  0.11199215201E+04  0.79442795216E+02 0.  0.
         13    1    3    3    0    0 -0.13694926273E+03 -0.19653840518E+02  0.15084198787E+03  0.20468189787E+03  0.00000000000E+00 0. -1.
        -13    1    3    3    0    0 -0.81020294894E+03 -0.22027532450E+03  0.12419878555E+04  0.14991610555E+04  0.00000000000E+00 0.  1.
          2    1    6    6  502    0  0.41967356646E+03  0.21252287000E+03 -0.28471746311E+03  0.54986899027E+03  0.00000000000E+00 0. -1.
          3    1    5    5  503    0 -0.17148498548E+01 -0.51907665228E+02 -0.27369586525E+01  0.52008050935E+02  0.00000000000E+00 0. -1.
         -4    1    5    5    0  503  0.70212273351E+02 -0.17312285365E+03  0.12057801012E+03  0.22235184350E+03  0.00000000000E+00 0.  1.
         -1    1    6    6    0  502  0.45898122172E+03  0.25243681390E+03 -0.22488170203E+03  0.57005252987E+03  0.00000000000E+00 0.  1.
<mgrwt>
<rscale>  0 0.29319328E+04</rscale>
<asrwt>0</asrwt>
<pdfrwt beam="1">  1        4 0.16131174E+00 0.29319328E+04</pdfrwt>
<pdfrwt beam="2">  1       -4 0.31532278E+00 0.29319328E+04</pdfrwt>
<totfact> 0.10352744E-02</totfact>
</mgrwt>
</event>
<event>
12    1  0.1495204E-007  0.1235820E+04  0.7818608E-02  0.9082069E-01
          2   -1    0    0  501    0  0.00000000000E+00  0.00000000000E+00  0.25764458292E+04  0.25764458292E+04  0.00000000000E+00 0. -1.
         -2   -1    0    0    0  501 -0.00000000000E+00 -0.00000000000E+00 -0.14819350585E+03  0.14819350585E+03  0.00000000000E+00 0.  1.
         23    2    1    2    0    0  0.95061710517E+02 -0.10459086609E+03  0.54129709812E+02  0.17594820367E+03  0.89731637766E+02 0.  0.
        254    2    1    2    0    0 -0.95061710517E+02  0.10459086609E+03  0.23741226135E+04  0.25486911313E+04  0.91618356293E+03 0.  0.
        -24    2    4    4    0    0 -0.34765520477E+03 -0.21592767692E+03  0.17484316876E+04  0.17975049803E+04  0.80758187672E+02 0.  0.
         24    2    4    4    0    0  0.25259349426E+03  0.32051854301E+03  0.62569092590E+03  0.75118615106E+03  0.79094178307E+02 0.  0.
         13    1    3    3    0    0  0.83818964554E+02 -0.79373652338E+02  0.28543153119E+00  0.11543776235E+03  0.00000000000E+00 0.  1.
        -13    1    3    3    0    0  0.11242745963E+02 -0.25217213752E+02  0.53844278280E+02  0.60510441328E+02  0.00000000000E+00 0. -1.
          4    1    6    6  502    0  0.22974134772E+03  0.27726096995E+03  0.49877670784E+03  0.61516903092E+03  0.00000000000E+00 0. -1.
          1    1    5    5  503    0 -0.32016361246E+03 -0.18946453845E+03  0.14641747602E+04  0.15106982751E+04  0.00000000000E+00 0. -1.
         -2    1    5    5    0  503 -0.27491592308E+02 -0.26463138465E+02  0.28425692744E+03  0.28680670519E+03  0.00000000000E+00 0.  1.
         -3    1    6    6    0  502  0.22852146537E+02  0.43257573053E+02  0.12691421806E+03  0.13601712015E+03  0.00000000000E+00 0.  1.
<mgrwt>
<rscale>  0 0.12358196E+04</rscale>
<asrwt>0</asrwt>
<pdfrwt beam="1">  1        2 0.39637625E+00 0.12358196E+04</pdfrwt>
<pdfrwt beam="2">  1       -2 0.22799003E-01 0.12358196E+04</pdfrwt>
<totfact> 0.52744316E+01</totfact>
</mgrwt>
</event>
<event>
12    1  0.1495204E-007  0.1471036E+04  0.7818608E-02  0.8903945E-01
         -2   -1    0    0    0  501 -0.00000000000E+00  0.00000000000E+00  0.31262116535E+03  0.31262116535E+03  0.00000000000E+00 0.  1.
          2   -1    0    0  501    0  0.00000000000E+00 -0.00000000000E+00 -0.17304866874E+04  0.17304866874E+04  0.00000000000E+00 0. -1.
         23    2    1    2    0    0 -0.33314211003E+03  0.27983416714E+03 -0.26404793654E+03  0.51738227560E+03  0.93125075795E+02 0.  0.
        254    2    1    2    0    0  0.33314211003E+03 -0.27983416714E+03 -0.11538175855E+04  0.15257255772E+04  0.89847242002E+03 0.  0.
        -24    2    4    4    0    0 -0.46858283739E+02 -0.47102603331E+03 -0.29389655275E+03  0.56300595053E+03  0.80865900155E+02 0.  0.
         24    2    4    4    0    0  0.38000039377E+03  0.19119186617E+03 -0.85992103279E+03  0.96271962663E+03  0.80064148722E+02 0.  0.
         11    1    3    3    0    0 -0.34056550829E+01  0.31893229271E+02 -0.14262106061E+02  0.35102481809E+02  0.00000000000E+00 0.  1.
        -11    1    3    3    0    0 -0.32973645495E+03  0.24794093787E+03 -0.24978583048E+03  0.48227979380E+03  0.00000000000E+00 0. -1.
          4    1    6    6  502    0  0.35399321928E+03  0.15233337205E+03 -0.78303824768E+03  0.87273452599E+03  0.00000000000E+00 0. -1.
          3    1    5    5  503    0 -0.22415189604E+02 -0.32004007664E+03 -0.15460491510E+03  0.35613308068E+03  0.00000000000E+00 0. -1.
         -4    1    5    5    0  503 -0.24443094134E+02 -0.15098595666E+03 -0.13929163765E+03  0.20687286985E+03  0.00000000000E+00 0.  1.
         -3    1    6    6    0  502  0.26007174494E+02  0.38858494115E+02 -0.76882785110E+02  0.89985100635E+02  0.00000000000E+00 0.  1.
<mgrwt>
<rscale>  0 0.14710360E+04</rscale>
<asrwt>0</asrwt>
<pdfrwt beam="1">  1        2 0.26622872E+00 0.14710360E+04</pdfrwt>
<pdfrwt beam="2">  1       -2 0.48095563E-01 0.14710360E+04</pdfrwt>
<totfact> 0.37397107E+01</totfact>
</mgrwt>
</event>
<event>
12    1  0.1495204E-007  0.1755147E+04  0.7818608E-02  0.8730522E-01
         -2   -1    0    0    0  501 -0.00000000000E+00  0.00000000000E+00  0.24624613330E+03  0.24624613330E+03  0.00000000000E+00 0. -1.
          2   -1    0    0  501    0  0.00000000000E+00 -0.00000000000E+00 -0.31275012758E+04  0.31275012758E+04  0.00000000000E+00 0.  1.
         23    2    1    2    0    0 -0.60483455056E+03 -0.23317732552E+03 -0.11203456973E+04  0.12974005991E+04  0.88754348187E+02 0.  0.
        254    2    1    2    0    0  0.60483455056E+03  0.23317732552E+03 -0.17609094452E+04  0.20763468100E+04  0.88894178809E+03 0.  0.
        -24    2    4    4    0    0  0.65574373053E+03  0.49082368469E+02 -0.59086558976E+03  0.88813137571E+03  0.85125062849E+02 0.  0.
         24    2    4    4    0    0 -0.50909179973E+02  0.18409495705E+03 -0.11700438554E+04  0.11882154343E+04  0.79816018940E+02 0.  0.
         11    1    3    3    0    0 -0.35935086013E+03 -0.11013629826E+03 -0.71560855483E+03  0.80830603649E+03  0.00000000000E+00 0.  1.
        -11    1    3    3    0    0 -0.24548369043E+03 -0.12304102726E+03 -0.40473714247E+03  0.48909456259E+03  0.00000000000E+00 0. -1.
          2    1    6    6  502    0 -0.66481457726E+02  0.17212590750E+03 -0.11039757288E+04  0.11192897400E+04  0.00000000000E+00 0. -1.
          1    1    5    5  503    0  0.30540031468E+03 -0.19430859812E+02 -0.27904056918E+03  0.41413832203E+03  0.00000000000E+00 0. -1.
         -2    1    5    5    0  503  0.35034341585E+03  0.68513228281E+02 -0.31182502057E+03  0.47399305368E+03  0.00000000000E+00 0.  1.
         -1    1    6    6    0  502  0.15572277753E+02  0.11969049548E+02 -0.66068126633E+02  0.68925694326E+02  0.00000000000E+00 0.  1.
<mgrwt>
<rscale>  0 0.17551468E+04</rscale>
<asrwt>0</asrwt>
<pdfrwt beam="1">  1        2 0.48115401E+00 0.17551468E+04</pdfrwt>
<pdfrwt beam="2">  1       -2 0.37884023E-01 0.17551468E+04</pdfrwt>
<totfact> 0.90502306E+00</totfact>
</mgrwt>
</event>
<event>
12    1  0.1495204E-007  0.1157279E+04  0.7818608E-02  0.9151094E-01
          2   -1    0    0  501    0  0.00000000000E+00  0.00000000000E+00  0.72218121536E+03  0.72218121536E+03  0.00000000000E+00 0. -1.
         -2   -1    0    0    0  501 -0.00000000000E+00 -0.00000000000E+00 -0.46362842300E+03  0.46362842300E+03  0.00000000000E+00 0.  1.
         23    2    1    2    0    0  0.37159570884E+02 -0.38913129814E+02 -0.13650247980E+03  0.17274633441E+03  0.91177319986E+02 0.  0.
        254    2    1    2    0    0 -0.37159570884E+02  0.38913129814E+02  0.39505527217E+03  0.10130633040E+04  0.93130742742E+03 0.  0.
        -24    2    4    4    0    0  0.10456535769E+02  0.28627939575E+03  0.60565013110E+03  0.67468463495E+03  0.79511280734E+02 0.  0.
         24    2    4    4    0    0 -0.47616106653E+02 -0.24736626593E+03 -0.21059485893E+03  0.33837866901E+03  0.81808104090E+02 0.  0.
         13    1    3    3    0    0  0.48694295220E+02 -0.14963312917E+01 -0.12134708088E+03  0.13076118473E+03  0.00000000000E+00 0.  1.
        -13    1    3    3    0    0 -0.11534724335E+02 -0.37416798522E+02 -0.15155398925E+02  0.41985149681E+02  0.00000000000E+00 0. -1.
          4    1    6    6  502    0 -0.31641826986E+02 -0.24087897368E+03 -0.20999681487E+03  0.32112699580E+03  0.00000000000E+00 0. -1.
          1    1    5    5  503    0  0.25281772428E+02  0.20499006820E+03  0.49679728252E+03  0.53802196609E+03  0.00000000000E+00 0. -1.
         -2    1    5    5    0  503 -0.14825236659E+02  0.81289327547E+02  0.10885284858E+03  0.13666266886E+03  0.00000000000E+00 0.  1.
         -3    1    6    6    0  502 -0.15974279667E+02 -0.64872922571E+01 -0.59804405894E+00  0.17251673206E+02  0.00000000000E+00 0.  1.
<mgrwt>
<rscale>  0 0.11572791E+04</rscale>
<asrwt>0</asrwt>
<pdfrwt beam="1">  1        2 0.11110480E+00 0.11572791E+04</pdfrwt>
<pdfrwt beam="2">  1       -2 0.71327450E-01 0.11572791E+04</pdfrwt>
<totfact> 0.69537446E+01</totfact>
</mgrwt>
</event>
<event>
12    1  0.1495204E-007  0.1496146E+04  0.7818608E-02  0.8887020E-01
         -3   -1    0    0    0  501 -0.00000000000E+00  0.00000000000E+00  0.22441723091E+03  0.22441723091E+03  0.00000000000E+00 0.  1.
          3   -1    0    0  501    0  0.00000000000E+00 -0.00000000000E+00 -0.24936283622E+04  0.24936283622E+04  0.00000000000E+00 0. -1.
         23    2    1    2    0    0  0.43713951465E+03 -0.37987850755E+02 -0.10395556787E+04  0.11320693162E+04  0.91492598125E+02 0.  0.
        254    2    1    2    0    0 -0.43713951465E+03  0.37987850755E+02 -0.12296554526E+04  0.15859762769E+04  0.90040778913E+03 0.  0.
        -24    2    4    4    0    0  0.97166643147E+02  0.72756597228E+02 -0.97819819560E+03  0.98885110219E+03  0.78866427906E+02 0.  0.
         24    2    4    4    0    0 -0.53430615780E+03 -0.34768746473E+02 -0.25145725700E+03  0.59712517471E+03  0.81460335073E+02 0.  0.
         13    1    3    3    0    0  0.41813244691E+03 -0.23883540101E+02 -0.92950458016E+03  0.10195018054E+04  0.00000000000E+00 0. -1.
        -13    1    3    3    0    0  0.19007067738E+02 -0.14104310654E+02 -0.11005109853E+03  0.11256751082E+03  0.00000000000E+00 0.  1.
          4    1    6    6  502    0 -0.19728107301E+03 -0.37002019549E+02 -0.12867372341E+03  0.23842377884E+03  0.00000000000E+00 0. -1.
          3    1    5    5  503    0 -0.23603974154E+01 -0.12923110959E+02 -0.10877395114E+03  0.10956436793E+03  0.00000000000E+00 0. -1.
         -4    1    5    5    0  503  0.99527040563E+02  0.85679708187E+02 -0.86942424446E+03  0.87928673426E+03  0.00000000000E+00 0.  1.
         -3    1    6    6    0  502 -0.33702508479E+03  0.22332730763E+01 -0.12278353359E+03  0.35870139588E+03  0.00000000000E+00 0.  1.
<mgrwt>
<rscale>  0 0.14961459E+04</rscale>
<asrwt>0</asrwt>
<pdfrwt beam="1">  1        3 0.38363514E+00 0.14961459E+04</pdfrwt>
<pdfrwt beam="2">  1       -3 0.34525727E-01 0.14961459E+04</pdfrwt>
<totfact> 0.28806076E-01</totfact>
</mgrwt>
</event>
<event>
12    1  0.1495204E-007  0.1704329E+04  0.7818608E-02  0.8758899E-01
         -1   -1    0    0    0  501 -0.00000000000E+00  0.00000000000E+00  0.44160906471E+03  0.44160906471E+03  0.00000000000E+00 0. -1.
          1   -1    0    0  501    0  0.00000000000E+00 -0.00000000000E+00 -0.16444063317E+04  0.16444063317E+04  0.00000000000E+00 0.  1.
         23    2    1    2    0    0 -0.39811766481E+03  0.36887058903E+03 -0.77248975805E+03  0.94872843153E+03  0.93712453910E+02 0.  0.
        254    2    1    2    0    0  0.39811766481E+03 -0.36887058903E+03 -0.43030750893E+03  0.11372869649E+04  0.90204983329E+03 0.  0.
        -24    2    4    4    0    0  0.37950615473E+03 -0.42527943674E+03  0.11166034455E+03  0.58621085817E+03  0.79294494786E+02 0.  0.
         24    2    4    4    0    0  0.18611510088E+02  0.56408847712E+02 -0.54196785348E+03  0.55107610670E+03  0.80170909680E+02 0.  0.
         11    1    3    3    0    0 -0.11506777429E+01  0.15965975526E+02 -0.46520861187E+02  0.49197834905E+02  0.00000000000E+00 0. -1.
        -11    1    3    3    0    0 -0.39696698707E+03  0.35290461351E+03 -0.72596889686E+03  0.89953059663E+03  0.00000000000E+00 0.  1.
          2    1    6    6  502    0  0.16363109551E+02  0.62281139787E+02 -0.54087378425E+03  0.54469362233E+03  0.00000000000E+00 0. -1.
          3    1    5    5  503    0  0.29501469896E+03 -0.29102081300E+03  0.10472389901E+03  0.42742704784E+03  0.00000000000E+00 0. -1.
         -4    1    5    5    0  503  0.84491455764E+02 -0.13425862374E+03  0.69364455391E+01  0.15878381033E+03  0.00000000000E+00 0.  1.
         -1    1    6    6    0  502  0.22484005370E+01 -0.58722920747E+01 -0.10940692373E+01  0.63824843660E+01  0.00000000000E+00 0.  1.
<mgrwt>
<rscale>  0 0.17043295E+04</rscale>
<asrwt>0</asrwt>
<pdfrwt beam="1">  1        1 0.25298559E+00 0.17043295E+04</pdfrwt>
<pdfrwt beam="2">  1       -1 0.67939857E-01 0.17043295E+04</pdfrwt>
<totfact> 0.10854171E+01</totfact>
</mgrwt>
</event>
<event>
12    1  0.1495204E-007  0.2548414E+04  0.7818608E-02  0.8385938E-01
          2   -1    0    0  501    0  0.00000000000E+00  0.00000000000E+00  0.25753597302E+04  0.25753597302E+04  0.00000000000E+00 0. -1.
         -2   -1    0    0    0  501 -0.00000000000E+00 -0.00000000000E+00 -0.63043733562E+03  0.63043733562E+03  0.00000000000E+00 0.  1.
         23    2    1    2    0    0 -0.11196592480E+04 -0.68634396481E+02  0.92761624245E+03  0.14584350138E+04  0.90627172357E+02 0.  0.
        254    2    1    2    0    0  0.11196592480E+04  0.68634396481E+02  0.10173061521E+04  0.17473620520E+04  0.87178828947E+03 0.  0.
        -24    2    4    4    0    0  0.91608626021E+03  0.41380414297E+03  0.66479922429E+03  0.12078289848E+04  0.80280402377E+02 0.  0.
         24    2    4    4    0    0  0.20357298776E+03 -0.34516974649E+03  0.35250692785E+03  0.53953306721E+03  0.79061249631E+02 0.  0.
         13    1    3    3    0    0 -0.46282203572E+03 -0.49458938912E+02  0.43605077576E+03  0.63780146004E+03  0.00000000000E+00 0. -1.
        -13    1    3    3    0    0 -0.65683721225E+03 -0.19175457569E+02  0.49156546669E+03  0.82063355379E+03  0.00000000000E+00 0.  1.
          2    1    6    6  502    0  0.18237847138E+03 -0.31424636145E+03  0.34552638537E+03  0.50139920771E+03  0.00000000000E+00 0. -1.
          3    1    5    5  503    0  0.85924107987E+03  0.39168884866E+03  0.59980719633E+03  0.11186974838E+04  0.00000000000E+00 0. -1.
         -4    1    5    5    0  503  0.56845180336E+02  0.22115294309E+02  0.64992027954E+02  0.89131500982E+02  0.00000000000E+00 0.  1.
         -1    1    6    6    0  502  0.21194516380E+02 -0.30923385045E+02  0.69805424820E+01  0.38133859502E+02  0.00000000000E+00 0.  1.
<mgrwt>
<rscale>  0 0.25484136E+04</rscale>
<asrwt>0</asrwt>
<pdfrwt beam="1">  1        2 0.39620918E+00 0.25484136E+04</pdfrwt>
<pdfrwt beam="2">  1       -2 0.96990361E-01 0.25484136E+04</pdfrwt>
<totfact> 0.24807666E+00</totfact>
</mgrwt>
</event>
<event>
12    1  0.1495204E-007  0.1672596E+04  0.7818608E-02  0.8777150E-01
          2   -1    0    0  501    0  0.00000000000E+00  0.00000000000E+00  0.29146858908E+04  0.29146858908E+04  0.00000000000E+00 0.  1.
         -2   -1    0    0    0  501 -0.00000000000E+00 -0.00000000000E+00 -0.23995523231E+03  0.23995523231E+03  0.00000000000E+00 0. -1.
         23    2    1    2    0    0  0.35967548256E+03 -0.14783729119E+03  0.17994110664E+04  0.18431385454E+04  0.89761873905E+02 0.  0.
        254    2    1    2    0    0 -0.35967548256E+03  0.14783729119E+03  0.87531959212E+03  0.13115025778E+04  0.89589748622E+03 0.  0.
        -24    2    4    4    0    0 -0.39552378888E+03 -0.26711741804E+03  0.22182304746E+03  0.53248410004E+03  0.80889244154E+02 0.  0.
         24    2    4    4    0    0  0.35848306318E+02  0.41495470923E+03  0.65349654466E+03  0.77901847777E+03  0.79621247412E+02 0.  0.
         13    1    3    3    0    0  0.79204915595E+02 -0.72559019019E+02  0.55419964350E+03  0.56451348501E+03  0.00000000000E+00 0. -1.
        -13    1    3    3    0    0  0.28047056696E+03 -0.75278272169E+02  0.12452114229E+04  0.12786250603E+04  0.00000000000E+00 0.  1.
          2    1    6    6  502    0  0.54811616129E+02  0.17811436969E+03  0.27944413926E+03  0.33588401111E+03  0.00000000000E+00 0. -1.
          1    1    5    5  503    0 -0.59983899189E+02 -0.11181373949E+02  0.16673111760E+02  0.63254121929E+02  0.00000000000E+00 0. -1.
         -4    1    5    5    0  503 -0.33553988969E+03 -0.25593604410E+03  0.20514993570E+03  0.46922997811E+03  0.00000000000E+00 0.  1.
         -1    1    6    6    0  502 -0.18963309810E+02  0.23684033954E+03  0.37405240540E+03  0.44313446665E+03  0.00000000000E+00 0.  1.
<mgrwt>
<rscale>  0 0.16725957E+04</rscale>
<asrwt>0</asrwt>
<pdfrwt beam="1">  1        2 0.44841319E+00 0.16725957E+04</pdfrwt>
<pdfrwt beam="2">  1       -2 0.36916192E-01 0.16725957E+04</pdfrwt>
<totfact> 0.13030140E+01</totfact>
</mgrwt>
</event>
<event>
12    1  0.2008845E-007  0.2230951E+04  0.7818608E-02  0.8505655E-01
          2   -1    0    0  501    0  0.00000000000E+00  0.00000000000E+00  0.14812466899E+04  0.14812466899E+04  0.00000000000E+00 0.  1.
         -2   -1    0    0    0  501 -0.00000000000E+00 -0.00000000000E+00 -0.84002584034E+03  0.84002584034E+03  0.00000000000E+00 0. -1.
         23    2    1    2    0    0  0.55810292008E+03  0.68399495541E+03  0.17510718940E+02  0.88766697536E+03  0.91203428844E+02 0.  0.
        254    2    1    2    0    0 -0.55810292008E+03 -0.68399495541E+03  0.62371013065E+03  0.14336055549E+04  0.94174444069E+03 0.  0.
        -24    2    4    4    0    0 -0.43341384640E+03 -0.71043300614E+03  0.46708751930E+02  0.83721980741E+03  0.78693582632E+02 0.  0.
         24    2    4    4    0    0 -0.12468907368E+03  0.26438050736E+02  0.57700137872E+03  0.59638574750E+03  0.80616581099E+02 0.  0.
         13    1    3    3    0    0  0.43619536137E+02  0.26664476345E+02  0.13696508178E+02  0.52926860552E+02  0.00000000000E+00 0.  1.
        -13    1    3    3    0    0  0.51448338394E+03  0.65733047906E+03  0.38142107625E+01  0.83474011480E+03  0.00000000000E+00 0. -1.
          2    1    6    6  502    0 -0.91034299776E+01  0.71958831432E+01  0.52249296006E+01  0.12726077986E+02  0.00000000000E+00 0. -1.
          3    1    5    5  503    0 -0.36912035071E+02 -0.93896828153E+02  0.24652087042E+02  0.10385970376E+03  0.00000000000E+00 0. -1.
         -4    1    5    5    0  503 -0.39650181133E+03 -0.61653617799E+03  0.22056664888E+02  0.73336010365E+03  0.00000000000E+00 0.  1.
         -1    1    6    6    0  502 -0.11558564371E+03  0.19242167593E+02  0.57177644912E+03  0.58365966951E+03  0.00000000000E+00 0.  1.
<mgrwt>
<rscale>  0 0.22309509E+04</rscale>
<asrwt>0</asrwt>
<pdfrwt beam="1">  1        2 0.22788411E+00 0.22309509E+04</pdfrwt>
<pdfrwt beam="2">  1       -2 0.12923474E+00 0.22309509E+04</pdfrwt>
<totfact> 0.52291650E+00</totfact>
</mgrwt>
</event>
<event>
12    1  0.1495204E-007  0.1396387E+04  0.7818608E-02  0.8956438E-01
         -2   -1    0    0    0  501 -0.00000000000E+00  0.00000000000E+00  0.87878220801E+03  0.87878220801E+03  0.00000000000E+00 0.  1.
          2   -1    0    0  501    0  0.00000000000E+00 -0.00000000000E+00 -0.55471592603E+03  0.55471592603E+03  0.00000000000E+00 0. -1.
         23    2    1    2    0    0  0.42118473431E+02  0.17467094568E+03  0.45366144628E+03  0.49657733283E+03  0.92176106280E+02 0.  0.
        254    2    1    2    0    0 -0.42118473431E+02 -0.17467094568E+03 -0.12959516430E+03  0.93692080121E+03  0.91035255592E+03 0.  0.
        -24    2    4    4    0    0  0.19758797093E+03 -0.13200887640E+02 -0.45005842276E+03  0.49798387437E+03  0.78867518913E+02 0.  0.
         24    2    4    4    0    0 -0.23970644436E+03 -0.16147005804E+03  0.32046325846E+03  0.43893692685E+03  0.80231955059E+02 0.  0.
         13    1    3    3    0    0  0.34108085752E+02  0.64062729315E+02  0.85880664755E+02  0.11244057711E+03  0.00000000000E+00 0. -1.
        -13    1    3    3    0    0  0.80103876789E+01  0.11060821636E+03  0.36778078152E+03  0.38413675572E+03  0.00000000000E+00 0.  1.
          2    1    6    6  502    0 -0.47819759337E+01 -0.30310558530E+02  0.28061533005E+02  0.41581809566E+02  0.00000000000E+00 0. -1.
          3    1    5    5  503    0  0.12280363863E+02 -0.53365967921E+01 -0.26433178555E+01  0.13648213481E+02  0.00000000000E+00 0. -1.
         -4    1    5    5    0  503  0.18530760706E+03 -0.78642908479E+01 -0.44741510491E+03  0.48433566088E+03  0.00000000000E+00 0.  1.
         -1    1    6    6    0  502 -0.23492446842E+03 -0.13115949951E+03  0.29240172546E+03  0.39735511728E+03  0.00000000000E+00 0.  1.
<mgrwt>
<rscale>  0 0.13963875E+04</rscale>
<asrwt>0</asrwt>
<pdfrwt beam="1">  1        2 0.85340912E-01 0.13963875E+04</pdfrwt>
<pdfrwt beam="2">  1       -2 0.13519726E+00 0.13963875E+04</pdfrwt>
<totfact> 0.20841004E+01</totfact>
</mgrwt>
</event>
<event>
12    1  0.1495204E-007  0.2467191E+04  0.7818608E-02  0.8414768E-01
         -2   -1    0    0    0  501 -0.00000000000E+00  0.00000000000E+00  0.49018006571E+03  0.49018006571E+03  0.00000000000E+00 0. -1.
          2   -1    0    0  501    0  0.00000000000E+00 -0.00000000000E+00 -0.31044868978E+04  0.31044868978E+04  0.00000000000E+00 0.  1.
         23    2    1    2    0    0 -0.44285412331E+03 -0.10130612201E+03 -0.25324528990E+04  0.25746054221E+04  0.94301054493E+02 0.  0.
        254    2    1    2    0    0  0.44285412331E+03  0.10130612201E+03 -0.81853933071E+02  0.10200615414E+04  0.90963881679E+03 0.  0.
        -24    2    4    4    0    0  0.31663582044E+02  0.17178525760E+03 -0.42990510499E+03  0.47080573082E+03  0.79541685412E+02 0.  0.
         24    2    4    4    0    0  0.41119054127E+03 -0.70479135590E+02  0.34805117192E+03  0.54925581059E+03  0.80606187165E+02 0.  0.
         11    1    3    3    0    0 -0.37468675330E+03 -0.62391618576E+02 -0.22307852334E+04  0.22628932000E+04  0.00000000000E+00 0.  1.
        -11    1    3    3    0    0 -0.68167370011E+02 -0.38914503431E+02 -0.30166766558E+03  0.31171222204E+03  0.00000000000E+00 0. -1.
          2    1    6    6  502    0  0.17556396029E+03  0.81341754234E+01  0.16045752217E+03  0.23798211147E+03  0.00000000000E+00 0. -1.
          3    1    5    5  503    0  0.30459602794E+01  0.13389307256E+03 -0.37509380137E+03  0.39828631985E+03  0.00000000000E+00 0. -1.
         -4    1    5    5    0  503  0.28617621765E+02  0.37892185042E+02 -0.54811303622E+02  0.72519410970E+02  0.00000000000E+00 0.  1.
         -1    1    6    6    0  502  0.23562658098E+03 -0.78613311014E+02  0.18759364975E+03  0.31127369912E+03  0.00000000000E+00 0.  1.
<mgrwt>
<rscale>  0 0.24671908E+04</rscale>
<asrwt>0</asrwt>
<pdfrwt beam="1">  1        2 0.47761336E+00 0.24671908E+04</pdfrwt>
<pdfrwt beam="2">  1       -2 0.75412318E-01 0.24671908E+04</pdfrwt>
<totfact> 0.21098769E+00</totfact>
</mgrwt>
</event>
<event>
12    1  0.1495204E-007  0.2158067E+04  0.7818608E-02  0.8536087E-01
          2   -1    0    0  501    0  0.00000000000E+00  0.00000000000E+00  0.53935171308E+03  0.53935171308E+03  0.00000000000E+00 0. -1.
         -2   -1    0    0    0  501 -0.00000000000E+00 -0.00000000000E+00 -0.21587267762E+04  0.21587267762E+04  0.00000000000E+00 0.  1.
         23    2    1    2    0    0  0.49671183413E+03  0.67385150706E+03 -0.10460243335E+04  0.13428086541E+04  0.90386258299E+02 0.  0.
        254    2    1    2    0    0 -0.49671183413E+03 -0.67385150706E+03 -0.57335072964E+03  0.13552698351E+04  0.89845799407E+03 0.  0.
        -24    2    4    4    0    0 -0.31702548255E+03 -0.41389765828E+03 -0.79999800537E+03  0.95827667778E+03  0.80504375439E+02 0.  0.
         24    2    4    4    0    0 -0.17968635158E+03 -0.25995384877E+03  0.22664727574E+03  0.39699315735E+03  0.79820993124E+02 0.  0.
         11    1    3    3    0    0  0.44201170365E+03  0.60650398138E+03 -0.97681484060E+03  0.12318233065E+04  0.00000000000E+00 0.  1.
        -11    1    3    3    0    0  0.54700130487E+02  0.67347525673E+02 -0.69209492869E+02  0.11098534765E+03  0.00000000000E+00 0. -1.
          4    1    6    6  502    0 -0.10823665935E+03 -0.87634837971E+02  0.10234708229E+03  0.17282929296E+03  0.00000000000E+00 0. -1.
          1    1    5    5  503    0 -0.31553601319E+03 -0.38375832749E+03 -0.76357011057E+03  0.91097351404E+03  0.00000000000E+00 0. -1.
         -2    1    5    5    0  503 -0.14894693571E+01 -0.30139330798E+02 -0.36427894806E+02  0.47303163741E+02  0.00000000000E+00 0.  1.
         -1    1    6    6    0  502 -0.71449692239E+02 -0.17231901080E+03  0.12430019345E+03  0.22416386438E+03  0.00000000000E+00 0.  1.
<mgrwt>
<rscale>  0 0.21580667E+04</rscale>
<asrwt>0</asrwt>
<pdfrwt beam="1">  1        2 0.82977186E-01 0.21580667E+04</pdfrwt>
<pdfrwt beam="2">  1       -2 0.33211181E+00 0.21580667E+04</pdfrwt>
<totfact> 0.10420984E+00</totfact>
</mgrwt>
</event>
<event>
12    1  0.1495204E-007  0.1204148E+04  0.7818608E-02  0.9109233E-01
          2   -1    0    0  501    0  0.00000000000E+00  0.00000000000E+00  0.24747903693E+04  0.24747903693E+04  0.00000000000E+00 0. -1.
         -2   -1    0    0    0  501 -0.00000000000E+00 -0.00000000000E+00 -0.14647437785E+03  0.14647437785E+03  0.00000000000E+00 0.  1.
         23    2    1    2    0    0  0.20431584508E+03 -0.10695385470E+03  0.29383586222E+03  0.38404835473E+03  0.89272242401E+02 0.  0.
        254    2    1    2    0    0 -0.20431584508E+03  0.10695385470E+03  0.20344801292E+04  0.22372163924E+04  0.90157844842E+03 0.  0.
        -24    2    4    4    0    0 -0.35408559892E+03 -0.23911981684E+03  0.15922152681E+04  0.16505864837E+04  0.82045000370E+02 0.  0.
         24    2    4    4    0    0  0.14976975385E+03  0.34607367154E+03  0.44226486113E+03  0.58662990870E+03  0.79614553210E+02 0.  0.
         13    1    3    3    0    0  0.12067474383E+03 -0.32058398860E+02  0.99685335912E+02  0.15977265389E+03  0.00000000000E+00 0.  1.
        -13    1    3    3    0    0  0.83641101249E+02 -0.74895455837E+02  0.19415052631E+03  0.22427570084E+03  0.00000000000E+00 0. -1.
          2    1    6    6  502    0  0.32237146555E+02  0.70186864258E+02  0.46746540109E+02  0.90281053077E+02  0.00000000000E+00 0. -1.
          3    1    5    5  503    0 -0.28264219952E+03 -0.20200368239E+03  0.13941592330E+04  0.14367922841E+04  0.00000000000E+00 0. -1.
         -4    1    5    5    0  503 -0.71443399403E+02 -0.37116134455E+02  0.19805603502E+03  0.21379419955E+03  0.00000000000E+00 0.  1.
         -1    1    6    6    0  502  0.11753260729E+03  0.27588680728E+03  0.39551832102E+03  0.49634885562E+03  0.00000000000E+00 0.  1.
<mgrwt>
<rscale>  0 0.12041485E+04</rscale>
<asrwt>0</asrwt>
<pdfrwt beam="1">  1        2 0.38073695E+00 0.12041485E+04</pdfrwt>
<pdfrwt beam="2">  1       -2 0.22534521E-01 0.12041485E+04</pdfrwt>
<totfact> 0.61802795E+01</totfact>
</mgrwt>
</event>
<event>
12    1  0.1495204E-007  0.1535423E+04  0.7818608E-02  0.8861233E-01
          2   -1    0    0  501    0  0.00000000000E+00  0.00000000000E+00  0.56123472922E+03  0.56123472922E+03  0.00000000000E+00 0. -1.
         -2   -1    0    0    0  501 -0.00000000000E+00 -0.00000000000E+00 -0.10501503298E+04  0.10501503298E+04  0.00000000000E+00 0.  1.
         23    2    1    2    0    0  0.15952116573E+03 -0.16263346930E+03 -0.68033863930E+03  0.72320876968E+03  0.90959401737E+02 0.  0.
        254    2    1    2    0    0 -0.15952116573E+03  0.16263346930E+03  0.19142303871E+03  0.88817628934E+03  0.83684986321E+03 0.  0.
        -24    2    4    4    0    0  0.20936932388E+03  0.35988764952E+03  0.18431604324E+03  0.46240365690E+03  0.80561182132E+02 0.  0.
         24    2    4    4    0    0 -0.36889048961E+03 -0.19725418021E+03  0.71069954747E+01  0.42577263244E+03  0.79008988181E+02 0.  0.
         13    1    3    3    0    0  0.11540919738E+03 -0.56318008233E+02 -0.31513575957E+03  0.34029626483E+03  0.00000000000E+00 0. -1.
        -13    1    3    3    0    0  0.44111968347E+02 -0.10631546107E+03 -0.36520287973E+03  0.38291250486E+03  0.00000000000E+00 0.  1.
          2    1    6    6  502    0 -0.23613486236E+03 -0.82246083883E+02  0.21005812134E+01  0.25005700146E+03  0.00000000000E+00 0. -1.
          1    1    5    5  503    0  0.20973810452E+03  0.36348538807E+03  0.18516086304E+03  0.45868970452E+03  0.00000000000E+00 0. -1.
         -2    1    5    5    0  503 -0.36878064269E+00 -0.35977385519E+01 -0.84481979875E+00  0.37139523883E+01  0.00000000000E+00 0.  1.
         -1    1    6    6    0  502 -0.13275562725E+03 -0.11500809633E+03  0.50064142613E+01  0.17571563098E+03  0.00000000000E+00 0.  1.
<mgrwt>
<rscale>  0 0.15354229E+04</rscale>
<asrwt>0</asrwt>
<pdfrwt beam="1">  1        2 0.86343805E-01 0.15354229E+04</pdfrwt>
<pdfrwt beam="2">  1       -2 0.16156159E+00 0.15354229E+04</pdfrwt>
<totfact> 0.12692049E+01</totfact>
</mgrwt>
</event>
<event>
12    1  0.1495204E-007  0.2307383E+04  0.7818608E-02  0.8475016E-01
          2   -1    0    0  501    0  0.00000000000E+00  0.00000000000E+00  0.82733401146E+03  0.82733401146E+03  0.00000000000E+00 0. -1.
         -2   -1    0    0    0  501 -0.00000000000E+00 -0.00000000000E+00 -0.16087872943E+04  0.16087872943E+04  0.00000000000E+00 0.  1.
         23    2    1    2    0    0  0.54176956164E+03  0.39184642853E+03  0.41897902836E+03  0.79408088520E+03  0.89236453112E+02 0.  0.
        254    2    1    2    0    0 -0.54176956164E+03 -0.39184642853E+03 -0.12004323112E+04  0.16420404206E+04  0.89900007093E+03 0.  0.
        -24    2    4    4    0    0  0.52367352177E+02 -0.16542690705E+02  0.11402473014E+03  0.14949195602E+03  0.79562589463E+02 0.  0.
         24    2    4    4    0    0 -0.59413691382E+03 -0.37530373783E+03 -0.13144570413E+04  0.14925484646E+04  0.77794842393E+02 0.  0.
         11    1    3    3    0    0  0.11334841762E+03  0.55974105744E+02  0.47584500592E+02  0.13507497543E+03  0.00000000000E+00 0.  1.
        -11    1    3    3    0    0  0.42842114402E+03  0.33587232279E+03  0.37139452777E+03  0.65900590977E+03  0.00000000000E+00 0. -1.
          4    1    6    6  502    0 -0.42088194761E+03 -0.28220830261E+03 -0.87619996605E+03  0.10121805770E+04  0.00000000000E+00 0. -1.
          1    1    5    5  503    0  0.31847203852E+02 -0.44636085709E+02  0.95387986028E+02  0.11002496271E+03  0.00000000000E+00 0. -1.
         -2    1    5    5    0  503  0.20520148325E+02  0.28093395004E+02  0.18636744111E+02  0.39466993313E+02  0.00000000000E+00 0.  1.
         -3    1    6    6    0  502 -0.17325496621E+03 -0.93095435219E+02 -0.43825707530E+03  0.48036788759E+03  0.00000000000E+00 0.  1.
<mgrwt>
<rscale>  0 0.23073833E+04</rscale>
<asrwt>0</asrwt>
<pdfrwt beam="1">  1        2 0.12728216E+00 0.23073833E+04</pdfrwt>
<pdfrwt beam="2">  1       -2 0.24750574E+00 0.23073833E+04</pdfrwt>
<totfact> 0.19858543E+00</totfact>
</mgrwt>
</event>
<event>
12    1  0.1495204E-007  0.1358227E+04  0.7818608E-02  0.8984624E-01
          1   -1    0    0  501    0  0.00000000000E+00  0.00000000000E+00  0.14619583819E+04  0.14619583819E+04  0.00000000000E+00 0. -1.
         -1   -1    0    0    0  501 -0.00000000000E+00 -0.00000000000E+00 -0.31546397671E+03  0.31546397671E+03  0.00000000000E+00 0.  1.
         23    2    1    2    0    0  0.20256908400E+03  0.39204768172E+02 -0.83977645812E+02  0.24072142509E+03  0.91232186551E+02 0.  0.
        254    2    1    2    0    0 -0.20256908400E+03 -0.39204768172E+02  0.12304720510E+04  0.15367009335E+04  0.89711595857E+03 0.  0.
        -24    2    4    4    0    0  0.17834014368E+03 -0.33828784050E+03  0.77208860856E+03  0.86521198800E+03  0.78911943544E+02 0.  0.
         24    2    4    4    0    0 -0.38090922768E+03  0.29908307233E+03  0.45838344243E+03  0.67148894550E+03  0.78990504190E+02 0.  0.
         11    1    3    3    0    0  0.11476046824E+03  0.14425649348E+02 -0.93852261343E+02  0.14895070120E+03  0.00000000000E+00 0.  1.
        -11    1    3    3    0    0  0.87808615762E+02  0.24779118824E+02  0.98746155311E+01  0.91770723892E+02  0.00000000000E+00 0. -1.
          4    1    6    6  502    0 -0.78687306319E+02  0.28581385890E+02  0.98269900260E+02  0.12909516293E+03  0.00000000000E+00 0. -1.
          1    1    5    5  503    0  0.43325119042E+02 -0.45753607583E+02  0.18627850947E+03  0.19664725179E+03  0.00000000000E+00 0. -1.
         -2    1    5    5    0  503  0.13501502464E+03 -0.29253423292E+03  0.58581009909E+03  0.66856473621E+03  0.00000000000E+00 0.  1.
         -3    1    6    6    0  502 -0.30222192136E+03  0.27050168644E+03  0.36011354217E+03  0.54239378257E+03  0.00000000000E+00 0.  1.
<mgrwt>
<rscale>  0 0.13582271E+04</rscale>
<asrwt>0</asrwt>
<pdfrwt beam="1">  1        1 0.22491667E+00 0.13582271E+04</pdfrwt>
<pdfrwt beam="2">  1       -1 0.48532920E-01 0.13582271E+04</pdfrwt>
<totfact> 0.28885798E+01</totfact>
</mgrwt>
</event>
<event>
12    1  0.1495204E-007  0.2845908E+04  0.7818608E-02  0.8289156E-01
          2   -1    0    0  501    0  0.00000000000E+00  0.00000000000E+00  0.18503223145E+04  0.18503223145E+04  0.00000000000E+00 0.  1.
         -2   -1    0    0    0  501 -0.00000000000E+00 -0.00000000000E+00 -0.10942945086E+04  0.10942945086E+04  0.00000000000E+00 0. -1.
         23    2    1    2    0    0 -0.62011021767E+03 -0.82024284969E+03  0.10974527830E+04  0.15064973770E+04  0.88299045971E+02 0.  0.
        254    2    1    2    0    0  0.62011021767E+03  0.82024284969E+03 -0.34142497706E+03  0.14381194461E+04  0.94566458736E+03 0.  0.
        -24    2    4    4    0    0  0.85060847246E+03  0.63676111697E+03 -0.38317190643E+03  0.11317311484E+04  0.70676649481E+02 0.  0.
         24    2    4    4    0    0 -0.23049825478E+03  0.18348173272E+03  0.41746929378E+02  0.30638829775E+03  0.73047869139E+02 0.  0.
         11    1    3    3    0    0 -0.62134607979E+03 -0.80687278833E+03  0.10792530464E+04  0.14838806507E+04  0.00000000000E+00 0.  1.
        -11    1    3    3    0    0  0.12358621231E+01 -0.13370061359E+02  0.18199736623E+02  0.22616726312E+02  0.00000000000E+00 0. -1.
          2    1    6    6  502    0 -0.14430685131E+03  0.13268659127E+03  0.59312322980E+02  0.20481247641E+03  0.00000000000E+00 0. -1.
          1    1    5    5  503    0  0.80341492871E+03  0.61649155800E+03 -0.35472807881E+03  0.10730188249E+04  0.00000000000E+00 0. -1.
         -2    1    5    5    0  503  0.47193543741E+02  0.20269558967E+02 -0.28443827624E+02  0.58712323420E+02  0.00000000000E+00 0.  1.
         -1    1    6    6    0  502 -0.86191403472E+02  0.50795141449E+02 -0.17565393602E+02  0.10157582133E+03  0.00000000000E+00 0.  1.
<mgrwt>
<rscale>  0 0.28459076E+04</rscale>
<asrwt>0</asrwt>
<pdfrwt beam="1">  1        2 0.28466497E+00 0.28459076E+04</pdfrwt>
<pdfrwt beam="2">  1       -2 0.16835300E+00 0.28459076E+04</pdfrwt>
<totfact> 0.15362167E+00</totfact>
</mgrwt>
</event>
<event>
12    1  0.1495204E-007  0.1677374E+04  0.7818608E-02  0.8774375E-01
         -1   -1    0    0    0  501 -0.00000000000E+00  0.00000000000E+00  0.46890703475E+03  0.46890703475E+03  0.00000000000E+00 0.  1.
          1   -1    0    0  501    0  0.00000000000E+00 -0.00000000000E+00 -0.15000761204E+04  0.15000761204E+04  0.00000000000E+00 0. -1.
         23    2    1    2    0    0 -0.80295440959E+02 -0.50669454774E+03 -0.72399349657E+03  0.89191083728E+03  0.90286411152E+02 0.  0.
        254    2    1    2    0    0  0.80295440959E+02  0.50669454774E+03 -0.30717558913E+03  0.10770723179E+04  0.89584664588E+03 0.  0.
        -24    2    4    4    0    0 -0.23021981676E+03 -0.13892283445E+03 -0.20779879764E+03  0.34936654956E+03  0.81092093885E+02 0.  0.
         24    2    4    4    0    0  0.31051525772E+03  0.64561738219E+03 -0.99376791487E+02  0.72770576836E+03  0.80239698101E+02 0.  0.
         13    1    3    3    0    0 -0.48293130782E+02 -0.33018492903E+03 -0.39411434584E+03  0.51641110700E+03  0.00000000000E+00 0. -1.
        -13    1    3    3    0    0 -0.32002310176E+02 -0.17650961871E+03 -0.32987915073E+03  0.37549973028E+03  0.00000000000E+00 0.  1.
          2    1    6    6  502    0  0.12848528303E+03  0.25359905669E+03 -0.36248609071E+00  0.28429048684E+03  0.00000000000E+00 0. -1.
          3    1    5    5  503    0 -0.12290269104E+03 -0.10246573196E+03 -0.16023632484E+03  0.22645082797E+03  0.00000000000E+00 0. -1.
         -4    1    5    5    0  503 -0.10731712573E+03 -0.36457102496E+02 -0.47562472803E+02  0.12291572160E+03  0.00000000000E+00 0.  1.
         -1    1    6    6    0  502  0.18202997469E+03  0.39201832550E+03 -0.99014305396E+02  0.44341528152E+03  0.00000000000E+00 0.  1.
<mgrwt>
<rscale>  0 0.16773744E+04</rscale>
<asrwt>0</asrwt>
<pdfrwt beam="1">  1        1 0.23078094E+00 0.16773744E+04</pdfrwt>
<pdfrwt beam="2">  1       -1 0.72139545E-01 0.16773744E+04</pdfrwt>
<totfact> 0.12090396E+01</totfact>
</mgrwt>
</event>
<event>
12    1  0.1495204E-007  0.1730420E+04  0.7818608E-02  0.8744202E-01
          2   -1    0    0  501    0  0.00000000000E+00  0.00000000000E+00  0.13096949103E+04  0.13096949103E+04  0.00000000000E+00 0. -1.
         -2   -1    0    0    0  501 -0.00000000000E+00 -0.00000000000E+00 -0.57157462181E+03  0.57157462181E+03  0.00000000000E+00 0.  1.
         23    2    1    2    0    0 -0.12624631544E+03  0.31951502207E+03 -0.30032065395E+03  0.46549790571E+03  0.92020777788E+02 0.  0.
        254    2    1    2    0    0  0.12624631544E+03 -0.31951502207E+03  0.10384409424E+04  0.14157716264E+04  0.89890028684E+03 0.  0.
        -24    2    4    4    0    0  0.32039901082E+02  0.84316131420E+02  0.98233263285E+03  0.98964596676E+03  0.79284126289E+02 0.  0.
         24    2    4    4    0    0  0.94206414357E+02 -0.40383115349E+03  0.56108309577E+02  0.42612565963E+03  0.80501468025E+02 0.  0.
         11    1    3    3    0    0 -0.80900360196E+01 -0.68818366612E+00 -0.27134684455E+02  0.28323371622E+02  0.00000000000E+00 0. -1.
        -11    1    3    3    0    0 -0.11815627942E+03  0.32020320573E+03 -0.27318596950E+03  0.43717453409E+03  0.00000000000E+00 0.  1.
          2    1    6    6  502    0  0.74173850635E+01 -0.16549495605E+03 -0.29793916580E+01  0.16568788385E+03  0.00000000000E+00 0. -1.
          3    1    5    5  503    0  0.76172312439E+00  0.15761218277E+02  0.26460707943E+02  0.30808526231E+02  0.00000000000E+00 0. -1.
         -4    1    5    5    0  503  0.31278177958E+02  0.68554913143E+02  0.95587192491E+03  0.95883744053E+03  0.00000000000E+00 0.  1.
         -1    1    6    6    0  502  0.86789029293E+02 -0.23833619743E+03  0.59087701235E+02  0.26043777578E+03  0.00000000000E+00 0.  1.
<mgrwt>
<rscale>  0 0.17304200E+04</rscale>
<asrwt>0</asrwt>
<pdfrwt beam="1">  1        2 0.20149152E+00 0.17304200E+04</pdfrwt>
<pdfrwt beam="2">  1       -2 0.87934557E-01 0.17304200E+04</pdfrwt>
<totfact> 0.17271132E+01</totfact>
</mgrwt>
</event>
<event>
12    1  0.1495204E-007  0.2517506E+04  0.7818608E-02  0.8396775E-01
          2   -1    0    0  501    0  0.00000000000E+00  0.00000000000E+00  0.14368377920E+04  0.14368377920E+04  0.00000000000E+00 0. -1.
         -2   -1    0    0    0  501 -0.00000000000E+00 -0.00000000000E+00 -0.11027402353E+04  0.11027402353E+04  0.00000000000E+00 0.  1.
         23    2    1    2    0    0  0.82829152910E+03 -0.65807432715E+03  0.14982143220E+03  0.10733798546E+04  0.10280648557E+03 0.  0.
        254    2    1    2    0    0 -0.82829152910E+03  0.65807432715E+03  0.18427612443E+03  0.14661981727E+04  0.99832395260E+03 0.  0.
        -24    2    4    4    0    0 -0.87652281355E+03  0.56960217999E+03  0.47288388811E+03  0.11499514892E+04  0.77655454798E+02 0.  0.
         24    2    4    4    0    0  0.48231284446E+02  0.88472147154E+02 -0.28860776369E+03  0.31624668353E+03  0.81018182930E+02 0.  0.
         13    1    3    3    0    0  0.52257676961E+03 -0.46339524671E+03  0.12970574030E+03  0.71038384967E+03  0.00000000000E+00 0. -1.
        -13    1    3    3    0    0  0.30571475949E+03 -0.19467908044E+03  0.20115691908E+02  0.36299600492E+03  0.00000000000E+00 0.  1.
          2    1    6    6  502    0 -0.10635873995E+01 -0.10747550863E+02 -0.73448963408E+02  0.74238745230E+02  0.00000000000E+00 0. -1.
          1    1    5    5  503    0 -0.19100103289E+03  0.16350806157E+03  0.11623939652E+03  0.27699797484E+03  0.00000000000E+00 0. -1.
         -2    1    5    5    0  503 -0.68552178066E+03  0.40609411842E+03  0.35664449159E+03  0.87295351431E+03  0.00000000000E+00 0.  1.
         -1    1    6    6    0  502  0.49294871845E+02  0.99219698017E+02 -0.21515880028E+03  0.24200793830E+03  0.00000000000E+00 0.  1.
<mgrwt>
<rscale>  0 0.25175058E+04</rscale>
<asrwt>0</asrwt>
<pdfrwt beam="1">  1        2 0.22105197E+00 0.25175058E+04</pdfrwt>
<pdfrwt beam="2">  1       -2 0.16965234E+00 0.25175058E+04</pdfrwt>
<totfact> 0.26321194E+00</totfact>
</mgrwt>
</event>
<event>
12    1  0.1495204E-007  0.1528279E+04  0.7818608E-02  0.8865862E-01
         -2   -1    0    0    0  501 -0.00000000000E+00  0.00000000000E+00  0.21953951736E+03  0.21953951736E+03  0.00000000000E+00 0.  1.
          2   -1    0    0  501    0  0.00000000000E+00 -0.00000000000E+00 -0.26597010177E+04  0.26597010177E+04  0.00000000000E+00 0. -1.
         23    2    1    2    0    0  0.24230143741E+03 -0.32210980629E+02  0.58615272680E+01  0.26249541148E+03  0.95508898567E+02 0.  0.
        254    2    1    2    0    0 -0.24230143741E+03  0.32210980629E+02 -0.24460230276E+04  0.26167451236E+04  0.89698319738E+03 0.  0.
        -24    2    4    4    0    0 -0.15942551663E+03  0.21831546344E+03 -0.23675263237E+04  0.23841984975E+04  0.78380132580E+02 0.  0.
         24    2    4    4    0    0 -0.82875920774E+02 -0.18610448281E+03 -0.78496703894E+02  0.23254662606E+03  0.80080609413E+02 0.  0.
         11    1    3    3    0    0  0.34944054009E+01 -0.15744322796E+01 -0.19983764022E+02  0.20347985910E+02  0.00000000000E+00 0. -1.
        -11    1    3    3    0    0  0.23880703201E+03 -0.30636548350E+02  0.25845291290E+02  0.24214742557E+03  0.00000000000E+00 0.  1.
          2    1    6    6  502    0  0.13996879184E+02 -0.12260098622E+02  0.13975746191E-01  0.18607064261E+02  0.00000000000E+00 0. -1.
          3    1    5    5  503    0 -0.36127069873E+02  0.71917212781E+01 -0.33590934467E+03  0.33792302950E+03  0.00000000000E+00 0. -1.
         -4    1    5    5    0  503 -0.12329844676E+03  0.21112374216E+03 -0.20316169790E+04  0.20462754680E+04  0.00000000000E+00 0.  1.
         -1    1    6    6    0  502 -0.96872799957E+02 -0.17384438419E+03 -0.78510679640E+02  0.21393956180E+03  0.00000000000E+00 0.  1.
<mgrwt>
<rscale>  0 0.15282794E+04</rscale>
<asrwt>0</asrwt>
<pdfrwt beam="1">  1        2 0.40918477E+00 0.15282794E+04</pdfrwt>
<pdfrwt beam="2">  1       -2 0.33775311E-01 0.15282794E+04</pdfrwt>
<totfact> 0.22268157E+01</totfact>
</mgrwt>
</event>
<event>
12    1  0.1495204E-007  0.1361602E+04  0.7818608E-02  0.8982092E-01
          1   -1    0    0  501    0  0.00000000000E+00  0.00000000000E+00  0.15720631534E+03  0.15720631534E+03  0.00000000000E+00 0. -1.
         -1   -1    0    0    0  501 -0.00000000000E+00 -0.00000000000E+00 -0.29482899682E+04  0.29482899682E+04  0.00000000000E+00 0.  1.
         23    2    1    2    0    0 -0.20692844322E+03 -0.12994565070E+02 -0.78007472477E+02  0.23941760418E+03  0.90815109396E+02 0.  0.
        254    2    1    2    0    0  0.20692844322E+03  0.12994565070E+02 -0.27130761804E+04  0.28660786794E+04  0.90035348411E+03 0.  0.
        -24    2    4    4    0    0  0.22998668114E+03  0.38613571621E+03 -0.85599547722E+03  0.97007306465E+03  0.79491061756E+02 0.  0.
         24    2    4    4    0    0 -0.23058237917E+02 -0.37314115114E+03 -0.18570807032E+04  0.18960056147E+04  0.79514476133E+02 0.  0.
         11    1    3    3    0    0 -0.16276477166E+03 -0.46471706457E+02 -0.45947768696E+02  0.17539437802E+03  0.00000000000E+00 0. -1.
        -11    1    3    3    0    0 -0.44163671567E+02  0.33477141387E+02 -0.32059703780E+02  0.64023226162E+02  0.00000000000E+00 0.  1.
          4    1    6    6  502    0  0.40238023595E+01 -0.18740850235E+01 -0.42340755609E+01  0.61343765746E+01  0.00000000000E+00 0. -1.
          1    1    5    5  503    0  0.10761936777E+02  0.58702057991E+02 -0.15206898865E+03  0.16336073030E+03  0.00000000000E+00 0. -1.
         -2    1    5    5    0  503  0.21922474436E+03  0.32743365822E+03 -0.70392648857E+03  0.80671233435E+03  0.00000000000E+00 0.  1.
         -3    1    6    6    0  502 -0.27082040276E+02 -0.37126706612E+03 -0.18528466276E+04  0.18898712381E+04  0.00000000000E+00 0.  1.
<mgrwt>
<rscale>  0 0.13616017E+04</rscale>
<asrwt>0</asrwt>
<pdfrwt beam="1">  1        1 0.24185587E-01 0.13616017E+04</pdfrwt>
<pdfrwt beam="2">  1       -1 0.45358307E+00 0.13616017E+04</pdfrwt>
<totfact> 0.61596359E-01</totfact>
</mgrwt>
</event>
<event>
12    1  0.1495204E-007  0.1718986E+04  0.7818608E-02  0.8750610E-01
         -1   -1    0    0    0  501 -0.00000000000E+00  0.00000000000E+00  0.59216529598E+03  0.59216529598E+03  0.00000000000E+00 0.  1.
          1   -1    0    0  501    0  0.00000000000E+00 -0.00000000000E+00 -0.12475031336E+04  0.12475031336E+04  0.00000000000E+00 0. -1.
         23    2    1    2    0    0  0.16005662085E+03 -0.54717451983E+03 -0.72822521063E+02  0.58182294323E+03  0.90535852893E+02 0.  0.
        254    2    1    2    0    0 -0.16005662085E+03  0.54717451983E+03 -0.58251531660E+03  0.12578454864E+04  0.95803606224E+03 0.  0.
        -24    2    4    4    0    0  0.51697903312E+01  0.73275712014E+03 -0.65558315945E+03  0.98668121616E+03  0.82406428853E+02 0.  0.
         24    2    4    4    0    0 -0.16522641118E+03 -0.18558260031E+03  0.73067842856E+02  0.27116427024E+03  0.80314900895E+02 0.  0.
         11    1    3    3    0    0  0.14513617408E+03 -0.47507447469E+03 -0.93222706765E+02  0.50542134757E+03  0.00000000000E+00 0.  1.
        -11    1    3    3    0    0  0.14920446775E+02 -0.72100045146E+02  0.20400185703E+02  0.76401595656E+02  0.00000000000E+00 0. -1.
          4    1    6    6  502    0 -0.11517552822E+03 -0.79558971263E+02  0.62948302421E+02  0.15348459527E+03  0.00000000000E+00 0. -1.
          1    1    5    5  503    0  0.24878535512E+01  0.17039542024E+02 -0.36509338083E+02  0.40366659200E+02  0.00000000000E+00 0. -1.
         -2    1    5    5    0  503  0.26819367800E+01  0.71571757812E+03 -0.61907382137E+03  0.94631455696E+03  0.00000000000E+00 0.  1.
         -3    1    6    6    0  502 -0.50050882965E+02 -0.10602362905E+03  0.10119540435E+02  0.11767967497E+03  0.00000000000E+00 0.  1.
<mgrwt>
<rscale>  0 0.17189858E+04</rscale>
<asrwt>0</asrwt>
<pdfrwt beam="1">  1        1 0.19192356E+00 0.17189858E+04</pdfrwt>
<pdfrwt beam="2">  1       -1 0.91102354E-01 0.17189858E+04</pdfrwt>
<totfact> 0.11024540E+01</totfact>
</mgrwt>
</event>
<event>
12    1  0.1495204E-007  0.2011643E+04  0.7818608E-02  0.8601197E-01
          1   -1    0    0  501    0  0.00000000000E+00  0.00000000000E+00  0.67453156331E+03  0.67453156331E+03  0.00000000000E+00 0. -1.
         -1   -1    0    0    0  501 -0.00000000000E+00 -0.00000000000E+00 -0.14998212700E+04  0.14998212700E+04  0.00000000000E+00 0.  1.
         23    2    1    2    0    0  0.42594789029E+03 -0.62575468745E+03 -0.58998628281E+03  0.96402712417E+03  0.90906260130E+02 0.  0.
        254    2    1    2    0    0 -0.42594789029E+03  0.62575468745E+03 -0.23530342391E+03  0.12103257092E+04  0.91461472045E+03 0.  0.
        -24    2    4    4    0    0 -0.66501406175E+03  0.25189106556E+03 -0.33894474324E+02  0.71639043412E+03  0.79834876361E+02 0.  0.
         24    2    4    4    0    0  0.23906617146E+03  0.37386362189E+03 -0.20140894959E+03  0.49393527505E+03  0.80497508380E+02 0.  0.
         13    1    3    3    0    0  0.40253687211E+03 -0.61581617221E+03 -0.57945080337E+03  0.93649811793E+03  0.00000000000E+00 0. -1.
        -13    1    3    3    0    0  0.23411018183E+02 -0.99385152343E+01 -0.10535479433E+02  0.27529006235E+02  0.00000000000E+00 0.  1.
          4    1    6    6  502    0  0.81439914281E+02  0.19758385802E+03 -0.11050655946E+03  0.24058998373E+03  0.00000000000E+00 0. -1.
          1    1    5    5  503    0 -0.18297569636E+03  0.38770064393E+02 -0.29310118968E+02  0.18932064448E+03  0.00000000000E+00 0. -1.
         -2    1    5    5    0  503 -0.48203836539E+03  0.21312100116E+03 -0.45843553562E+01  0.52706978964E+03  0.00000000000E+00 0.  1.
         -3    1    6    6    0  502  0.15762625718E+03  0.17627976386E+03 -0.90902390129E+02  0.25334529131E+03  0.00000000000E+00 0.  1.
<mgrwt>
<rscale>  0 0.20116429E+04</rscale>
<asrwt>0</asrwt>
<pdfrwt beam="1">  1        1 0.10377409E+00 0.20116429E+04</pdfrwt>
<pdfrwt beam="2">  1       -1 0.23074173E+00 0.20116429E+04</pdfrwt>
<totfact> 0.24920041E+00</totfact>
</mgrwt>
</event>
<event>
12    1  0.1495204E-007  0.1590831E+04  0.7818608E-02  0.8826201E-01
          2   -1    0    0  501    0  0.00000000000E+00  0.00000000000E+00  0.47411776068E+03  0.47411776068E+03  0.00000000000E+00 0. -1.
         -2   -1    0    0    0  501 -0.00000000000E+00 -0.00000000000E+00 -0.13344483894E+04  0.13344483894E+04  0.00000000000E+00 0.  1.
         23    2    1    2    0    0  0.33905904933E+03  0.18611375941E+03  0.12202866638E+03  0.41496205422E+03  0.87767537538E+02 0.  0.
        254    2    1    2    0    0 -0.33905904933E+03 -0.18611375941E+03 -0.98235929505E+03  0.13936040958E+04  0.90967204031E+03 0.  0.
        -24    2    4    4    0    0 -0.61166245869E+03  0.40796066426E+02 -0.53935041128E+03  0.82051433324E+03  0.80929738048E+02 0.  0.
         24    2    4    4    0    0  0.27260340936E+03 -0.22690982583E+03 -0.44300888377E+03  0.57308976257E+03  0.79839319990E+02 0.  0.
         11    1    3    3    0    0  0.27984017228E+03  0.16520029573E+03  0.67745324495E+02  0.33195043112E+03  0.00000000000E+00 0. -1.
        -11    1    3    3    0    0  0.59218877053E+02  0.20913463680E+02  0.54283341889E+02  0.83011623097E+02  0.00000000000E+00 0.  1.
          4    1    6    6  502    0  0.18105244092E+03 -0.17449672697E+03 -0.25899225613E+03  0.36097933850E+03  0.00000000000E+00 0. -1.
          1    1    5    5  503    0 -0.43390064805E+03  0.11147646603E+01 -0.34676909170E+03  0.55544560313E+03  0.00000000000E+00 0. -1.
         -2    1    5    5    0  503 -0.17776181064E+03  0.39681301766E+02 -0.19258131958E+03  0.26506873011E+03  0.00000000000E+00 0.  1.
         -3    1    6    6    0  502  0.91550968436E+02 -0.52413098859E+02 -0.18401662764E+03  0.21211042408E+03  0.00000000000E+00 0.  1.
<mgrwt>
<rscale>  0 0.15908308E+04</rscale>
<asrwt>0</asrwt>
<pdfrwt beam="1">  1        2 0.72941195E-01 0.15908308E+04</pdfrwt>
<pdfrwt beam="2">  1       -2 0.20529975E+00 0.15908308E+04</pdfrwt>
<totfact> 0.77111677E+00</totfact>
</mgrwt>
</event>
<event>
12    1  0.1495204E-007  0.3845103E+04  0.7818608E-02  0.8036545E-01
         -2   -1    0    0    0  501 -0.00000000000E+00  0.00000000000E+00  0.14381882439E+04  0.14381882439E+04  0.00000000000E+00 0.  1.
          2   -1    0    0  501    0  0.00000000000E+00 -0.00000000000E+00 -0.25700420534E+04  0.25700420534E+04  0.00000000000E+00 0. -1.
         23    2    1    2    0    0 -0.50122126564E+03  0.83994353712E+03  0.10602484352E+04  0.14454502976E+04  0.92043009425E+02 0.  0.
        254    2    1    2    0    0  0.50122126564E+03 -0.83994353712E+03 -0.21921022447E+04  0.25627799997E+04  0.89766428742E+03 0.  0.
        -24    2    4    4    0    0  0.72572752908E+03 -0.72971012573E+03 -0.14847319334E+04  0.18082437258E+04  0.78480213752E+02 0.  0.
         24    2    4    4    0    0 -0.22450626344E+03 -0.11023341139E+03 -0.70737031132E+03  0.75453627386E+03  0.79986023286E+02 0.  0.
         11    1    3    3    0    0 -0.99579170853E+02  0.21185077585E+03  0.30172739864E+03  0.38188504237E+03  0.00000000000E+00 0. -1.
        -11    1    3    3    0    0 -0.40164209478E+03  0.62809276127E+03  0.75852103660E+03  0.10635652552E+04  0.00000000000E+00 0.  1.
          4    1    6    6  502    0 -0.80253773332E+01  0.53429724501E+01 -0.84794444666E+02  0.85340798462E+02  0.00000000000E+00 0. -1.
          1    1    5    5  503    0  0.45997594671E+02 -0.74394269436E+02 -0.14213692025E+03  0.16689275041E+03  0.00000000000E+00 0. -1.
         -2    1    5    5    0  503  0.67972993441E+03 -0.65531585630E+03 -0.13425950132E+04  0.16413509754E+04  0.00000000000E+00 0.  1.
         -3    1    6    6    0  502 -0.21648088611E+03 -0.11557638384E+03 -0.62257586666E+03  0.66919547540E+03  0.00000000000E+00 0.  1.
<mgrwt>
<rscale>  0 0.38451030E+04</rscale>
<asrwt>0</asrwt>
<pdfrwt beam="1">  1        2 0.39539108E+00 0.38451030E+04</pdfrwt>
<pdfrwt beam="2">  1       -2 0.22125973E+00 0.38451030E+04</pdfrwt>
<totfact> 0.24562689E-01</totfact>
</mgrwt>
</event>
<event>
12    1  0.1495204E-007  0.2097396E+04  0.7818608E-02  0.8562391E-01
          1   -1    0    0  501    0  0.00000000000E+00  0.00000000000E+00  0.96111206232E+03  0.96111206232E+03  0.00000000000E+00 0. -1.
         -1   -1    0    0    0  501 -0.00000000000E+00 -0.00000000000E+00 -0.11442658687E+04  0.11442658687E+04  0.00000000000E+00 0.  1.
         23    2    1    2    0    0 -0.68021808758E+03 -0.11994446539E+02  0.46906358844E+03  0.83142396646E+03  0.91676870525E+02 0.  0.
        254    2    1    2    0    0  0.68021808758E+03  0.11994446539E+02 -0.65221739481E+03  0.12739539645E+04  0.85716431346E+03 0.  0.
        -24    2    4    4    0    0  0.40364096151E+03  0.13413410676E+03  0.11283250972E+03  0.44748120133E+03  0.81180452616E+02 0.  0.
         24    2    4    4    0    0  0.27657712607E+03 -0.12213966022E+03 -0.76504990453E+03  0.82647276321E+03  0.79642128559E+02 0.  0.
         13    1    3    3    0    0 -0.15974022517E+03 -0.40542362957E+02  0.10057507727E+03  0.19306985497E+03  0.00000000000E+00 0.  1.
        -13    1    3    3    0    0 -0.52047786242E+03  0.28547916418E+02  0.36848851117E+03  0.63835411150E+03  0.00000000000E+00 0. -1.
          2    1    6    6  502    0  0.62660473725E+02 -0.16901573816E+02 -0.26008205806E+03  0.26805722353E+03  0.00000000000E+00 0. -1.
          1    1    5    5  503    0  0.30809202972E+03  0.66843925313E+02  0.95002782580E+02  0.32926332597E+03  0.00000000000E+00 0. -1.
         -2    1    5    5    0  503  0.95548931791E+02  0.67290181445E+02  0.17829727145E+02  0.11821787536E+03  0.00000000000E+00 0.  1.
         -1    1    6    6    0  502  0.21391665235E+03 -0.10523808640E+03 -0.50496784647E+03  0.55841553968E+03  0.00000000000E+00 0.  1.
<mgrwt>
<rscale>  0 0.20973962E+04</rscale>
<asrwt>0</asrwt>
<pdfrwt beam="1">  1        1 0.14786339E+00 0.20973962E+04</pdfrwt>
<pdfrwt beam="2">  1       -1 0.17604090E+00 0.20973962E+04</pdfrwt>
<totfact> 0.33205527E+00</totfact>
</mgrwt>
</event>
<event>
12    1  0.1495204E-007  0.1940248E+04  0.7818608E-02  0.8635078E-01
         -2   -1    0    0    0  501 -0.00000000000E+00  0.00000000000E+00  0.81528686309E+03  0.81528686309E+03  0.00000000000E+00 0.  1.
          2   -1    0    0  501    0  0.00000000000E+00 -0.00000000000E+00 -0.11543674497E+04  0.11543674497E+04  0.00000000000E+00 0. -1.
         23    2    1    2    0    0  0.66089029539E+03  0.92904572830E+02 -0.49938814614E+03  0.83831099015E+03  0.89272355738E+02 0.  0.
        254    2    1    2    0    0 -0.66089029539E+03 -0.92904572830E+02  0.16030755952E+03  0.11313433227E+04  0.89935085361E+03 0.  0.
        -24    2    4    4    0    0 -0.57988551414E+03  0.56112646126E+02 -0.28112149755E+03  0.65172791593E+03  0.79398623719E+02 0.  0.
         24    2    4    4    0    0 -0.81004781253E+02 -0.14901721896E+03  0.44142905706E+03  0.47961540673E+03  0.80021371023E+02 0.  0.
         13    1    3    3    0    0  0.25107827050E+03  0.65413791590E+02 -0.23325755629E+03  0.34889590082E+03  0.00000000000E+00 0. -1.
        -13    1    3    3    0    0  0.40981202490E+03  0.27490781241E+02 -0.26613058985E+03  0.48941508933E+03  0.00000000000E+00 0.  1.
          4    1    6    6  502    0 -0.27395700044E+02 -0.12151262466E+03  0.33355870747E+03  0.35605793582E+03  0.00000000000E+00 0. -1.
          3    1    5    5  503    0 -0.53796321200E+03  0.64610286736E+02 -0.24074157810E+03  0.59290421996E+03  0.00000000000E+00 0. -1.
         -4    1    5    5    0  503 -0.41922302141E+02 -0.84976406093E+01 -0.40379919451E+02  0.58823695970E+02  0.00000000000E+00 0.  1.
         -3    1    6    6    0  502 -0.53609081209E+02 -0.27504594296E+02  0.10787034959E+03  0.12355747091E+03  0.00000000000E+00 0.  1.
<mgrwt>
<rscale>  0 0.19402480E+04</rscale>
<asrwt>0</asrwt>
<pdfrwt beam="1">  1        2 0.17759499E+00 0.19402480E+04</pdfrwt>
<pdfrwt beam="2">  1       -2 0.12542875E+00 0.19402480E+04</pdfrwt>
<totfact> 0.89561748E+00</totfact>
</mgrwt>
</event>
<event>
12    1  0.1495204E-007  0.1476662E+04  0.7818608E-02  0.8900123E-01
          2   -1    0    0  501    0  0.00000000000E+00  0.00000000000E+00  0.96097382035E+03  0.96097382035E+03  0.00000000000E+00 0. -1.
         -2   -1    0    0    0  501 -0.00000000000E+00 -0.00000000000E+00 -0.56727079991E+03  0.56727079991E+03  0.00000000000E+00 0.  1.
         23    2    1    2    0    0  0.44529990784E+03  0.87597532289E+02  0.81775953414E+02  0.46972116104E+03  0.89360656840E+02 0.  0.
        254    2    1    2    0    0 -0.44529990784E+03 -0.87597532289E+02  0.31192706703E+03  0.10585234592E+04  0.90399562111E+03 0.  0.
        -24    2    4    4    0    0 -0.27635157983E+02 -0.44578053322E+03  0.10753438128E+03  0.46644039848E+03  0.80740426192E+02 0.  0.
         24    2    4    4    0    0 -0.41766474985E+03  0.35818300093E+03  0.20439268575E+03  0.59208306074E+03  0.77762943601E+02 0.  0.
         11    1    3    3    0    0  0.11466028102E+03  0.53088668140E+02 -0.39298422651E+01  0.12641530915E+03  0.00000000000E+00 0.  1.
        -11    1    3    3    0    0  0.33063962682E+03  0.34508864149E+02  0.85705795679E+02  0.34330585189E+03  0.00000000000E+00 0. -1.
          2    1    6    6  502    0 -0.19505732692E+03  0.15327824607E+03  0.13191090244E+03  0.28096631059E+03  0.00000000000E+00 0. -1.
          3    1    5    5  503    0 -0.16603447192E+02 -0.41847032198E+03  0.11812560830E+03  0.43513991333E+03  0.00000000000E+00 0. -1.
         -2    1    5    5    0  503 -0.11031710791E+02 -0.27310211241E+02 -0.10591227016E+02  0.31300485152E+02  0.00000000000E+00 0.  1.
         -1    1    6    6    0  502 -0.22260742293E+03  0.20490475486E+03  0.72481783301E+02  0.31111675015E+03  0.00000000000E+00 0.  1.
<mgrwt>
<rscale>  0 0.14766616E+04</rscale>
<asrwt>0</asrwt>
<pdfrwt beam="1">  1        2 0.14784213E+00 0.14766616E+04</pdfrwt>
<pdfrwt beam="2">  1       -2 0.87272431E-01 0.14766616E+04</pdfrwt>
<totfact> 0.29325264E+01</totfact>
</mgrwt>
</event>
<event>
12    1  0.1495204E-007  0.1765724E+04  0.7818608E-02  0.8724742E-01
          1   -1    0    0  501    0  0.00000000000E+00  0.00000000000E+00  0.17164273662E+04  0.17164273662E+04  0.00000000000E+00 0. -1.
         -1   -1    0    0    0  501 -0.00000000000E+00 -0.00000000000E+00 -0.45410934784E+03  0.45410934784E+03  0.00000000000E+00 0.  1.
         23    2    1    2    0    0 -0.19984894447E+03 -0.59467968859E+03  0.27153359306E+03  0.68975938681E+03  0.91945564876E+02 0.  0.
        254    2    1    2    0    0  0.19984894447E+03  0.59467968859E+03  0.99078442534E+03  0.14807773273E+04  0.90413725883E+03 0.  0.
        -24    2    4    4    0    0  0.16829653832E+03 -0.83286084756E+02 -0.72397879368E+02  0.21688953212E+03  0.80866058901E+02 0.  0.
         24    2    4    4    0    0  0.31552406158E+02  0.67796577335E+03  0.10631823047E+04  0.12638877951E+04  0.80141134917E+02 0.  0.
         13    1    3    3    0    0 -0.71844731381E+02 -0.32446718209E+03  0.17485584637E+03  0.37551988588E+03  0.00000000000E+00 0. -1.
        -13    1    3    3    0    0 -0.12800421309E+03 -0.27021250650E+03  0.96677746686E+02  0.31423950092E+03  0.00000000000E+00 0.  1.
          4    1    6    6  502    0 -0.89622239582E+01  0.51874968929E+03  0.79130180397E+03  0.94622413125E+03  0.00000000000E+00 0. -1.
          3    1    5    5  503    0  0.85778476861E+02 -0.64379151986E+02 -0.77124167937E+02  0.13210132317E+03  0.00000000000E+00 0. -1.
         -4    1    5    5    0  503  0.82518061456E+02 -0.18906932770E+02  0.47262885691E+01  0.84788208949E+02  0.00000000000E+00 0.  1.
         -3    1    6    6    0  502  0.40514630117E+02  0.15921608405E+03  0.27188050073E+03  0.31766366389E+03  0.00000000000E+00 0.  1.
<mgrwt>
<rscale>  0 0.17657245E+04</rscale>
<asrwt>0</asrwt>
<pdfrwt beam="1">  1        1 0.26406575E+00 0.17657245E+04</pdfrwt>
<pdfrwt beam="2">  1       -1 0.69862977E-01 0.17657245E+04</pdfrwt>
<totfact> 0.91048902E+00</totfact>
</mgrwt>
</event>
<event>
12    1  0.1495204E-007  0.1335873E+04  0.7818608E-02  0.9001592E-01
         -2   -1    0    0    0  501 -0.00000000000E+00  0.00000000000E+00  0.27187202578E+03  0.27187202578E+03  0.00000000000E+00 0.  1.
          2   -1    0    0  501    0  0.00000000000E+00 -0.00000000000E+00 -0.16409894246E+04  0.16409894246E+04  0.00000000000E+00 0. -1.
         23    2    1    2    0    0  0.60750068561E+02  0.34274439594E+03 -0.39397639807E+03  0.53376083353E+03  0.92298068233E+02 0.  0.
        254    2    1    2    0    0 -0.60750068561E+02 -0.34274439594E+03 -0.97514100079E+03  0.13791006169E+04  0.91096336277E+03 0.  0.
        -24    2    4    4    0    0  0.40969340301E+03 -0.66475606349E+02 -0.44807652710E+03  0.61614238481E+03  0.81186042562E+02 0.  0.
         24    2    4    4    0    0 -0.47044347157E+03 -0.27626878959E+03 -0.52706447369E+03  0.76295823208E+03  0.81650477222E+02 0.  0.
         13    1    3    3    0    0  0.48380387628E+02  0.29295524286E+03 -0.27717391372E+03  0.40618815181E+03  0.00000000000E+00 0.  1.
        -13    1    3    3    0    0  0.12369680934E+02  0.49789153077E+02 -0.11680248435E+03  0.12757268172E+03  0.00000000000E+00 0. -1.
          4    1    6    6  502    0 -0.46688461739E+02 -0.59414305102E+02 -0.68418899406E+02  0.10193634242E+03  0.00000000000E+00 0. -1.
          1    1    5    5  503    0  0.11469544103E+03  0.11933068661E+02 -0.15303962456E+03  0.19162089919E+03  0.00000000000E+00 0. -1.
         -2    1    5    5    0  503  0.29499796198E+03 -0.78408675010E+02 -0.29503690254E+03  0.42452148562E+03  0.00000000000E+00 0.  1.
         -3    1    6    6    0  502 -0.42375500983E+03 -0.21685448448E+03 -0.45864557428E+03  0.66102188966E+03  0.00000000000E+00 0.  1.
<mgrwt>
<rscale>  0 0.13358729E+04</rscale>
<asrwt>0</asrwt>
<pdfrwt beam="1">  1        2 0.25245992E+00 0.13358729E+04</pdfrwt>
<pdfrwt beam="2">  1       -2 0.41826465E-01 0.13358729E+04</pdfrwt>
<totfact> 0.56012814E+01</totfact>
</mgrwt>
</event>
<event>
12    1  0.1495204E-007  0.1068931E+04  0.7818608E-02  0.9236014E-01
         -4   -1    0    0    0  501 -0.00000000000E+00  0.00000000000E+00  0.57656624537E+03  0.57656624537E+03  0.00000000000E+00 0.  1.
          4   -1    0    0  501    0  0.00000000000E+00 -0.00000000000E+00 -0.49543919807E+03  0.49543919807E+03  0.00000000000E+00 0. -1.
         23    2    1    2    0    0 -0.55394740005E+02 -0.92540889666E+02  0.81874991124E+02  0.16295845916E+03  0.90661743637E+02 0.  0.
        254    2    1    2    0    0  0.55394740005E+02  0.92540889666E+02 -0.74794382043E+00  0.90904698429E+03  0.90262587307E+03 0.  0.
        -24    2    4    4    0    0  0.44977579424E+03  0.97419725446E+02 -0.13160925905E+03  0.48582800851E+03  0.83180459211E+02 0.  0.
         24    2    4    4    0    0 -0.39438105423E+03 -0.48788357799E+01  0.13086131523E+03  0.42321897578E+03  0.80183531112E+02 0.  0.
         13    1    3    3    0    0 -0.30891912835E+02 -0.72869263751E+01 -0.11879988377E+02  0.33890171119E+02  0.00000000000E+00 0. -1.
        -13    1    3    3    0    0 -0.24502827170E+02 -0.85253963291E+02  0.93754979501E+02  0.12906828804E+03  0.00000000000E+00 0.  1.
          2    1    6    6  502    0 -0.38359713892E+03  0.92584804544E+01  0.13094832699E+03  0.40543797156E+03  0.00000000000E+00 0. -1.
          1    1    5    5  503    0  0.44333334101E+03  0.87899643585E+02 -0.11630576109E+03  0.46668814926E+03  0.00000000000E+00 0. -1.
         -2    1    5    5    0  503  0.64424532257E+01  0.95200818607E+01 -0.15303497964E+02  0.19139859250E+02  0.00000000000E+00 0.  1.
         -1    1    6    6    0  502 -0.10783915316E+02 -0.14137316234E+02 -0.87011763936E-01  0.17781004215E+02  0.00000000000E+00 0.  1.
<mgrwt>
<rscale>  0 0.10689313E+04</rscale>
<asrwt>0</asrwt>
<pdfrwt beam="1">  1        4 0.76221415E-01 0.10689313E+04</pdfrwt>
<pdfrwt beam="2">  1       -4 0.88702499E-01 0.10689313E+04</pdfrwt>
<totfact> 0.33543321E+00</totfact>
</mgrwt>
</event>
<event>
12    1  0.1495204E-007  0.1892907E+04  0.7818608E-02  0.8658395E-01
          2   -1    0    0  501    0  0.00000000000E+00  0.00000000000E+00  0.11681324769E+04  0.11681324769E+04  0.00000000000E+00 0. -1.
         -2   -1    0    0    0  501 -0.00000000000E+00 -0.00000000000E+00 -0.76684316610E+03  0.76684316610E+03  0.00000000000E+00 0.  1.
         23    2    1    2    0    0 -0.59288133715E+03 -0.22666486695E+03  0.51914022693E+03  0.82512411929E+03  0.91858560696E+02 0.  0.
        254    2    1    2    0    0  0.59288133715E+03  0.22666486695E+03 -0.11785091614E+03  0.11098515237E+04  0.90277146853E+03 0.  0.
        -24    2    4    4    0    0 -0.16414851400E+03  0.12717787128E+03 -0.24607449010E+03  0.33154429352E+03  0.79057057210E+02 0.  0.
         24    2    4    4    0    0  0.75702985114E+03  0.99486995666E+02  0.12822357396E+03  0.77830723019E+03  0.79555023892E+02 0.  0.
         11    1    3    3    0    0 -0.58127584465E+03 -0.20477634760E+03  0.49416947112E+03  0.78994836939E+03  0.00000000000E+00 0. -1.
        -11    1    3    3    0    0 -0.11605492492E+02 -0.21888519352E+02  0.24970755814E+02  0.35175749904E+02  0.00000000000E+00 0.  1.
          2    1    6    6  502    0  0.54153123157E+03  0.10165605723E+03  0.11142715313E+03  0.56214414450E+03  0.00000000000E+00 0. -1.
          1    1    5    5  503    0 -0.10187593948E+03  0.40618666780E+02 -0.16257251858E+03  0.19610815112E+03  0.00000000000E+00 0. -1.
         -2    1    5    5    0  503 -0.62272574514E+02  0.86559204503E+02 -0.83501971515E+02  0.13543614240E+03  0.00000000000E+00 0.  1.
         -3    1    6    6    0  502  0.21549861957E+03 -0.21690615628E+01  0.16796420827E+02  0.21616308569E+03  0.00000000000E+00 0.  1.
<mgrwt>
<rscale>  0 0.18929072E+04</rscale>
<asrwt>0</asrwt>
<pdfrwt beam="1">  1        2 0.17971269E+00 0.18929072E+04</pdfrwt>
<pdfrwt beam="2">  1       -2 0.11797587E+00 0.18929072E+04</pdfrwt>
<totfact> 0.10275924E+01</totfact>
</mgrwt>
</event>
<event>
12    1  0.1495204E-007  0.1475348E+04  0.7818608E-02  0.8901014E-01
          2   -1    0    0  501    0  0.00000000000E+00  0.00000000000E+00  0.10695095885E+04  0.10695095885E+04  0.00000000000E+00 0. -1.
         -2   -1    0    0    0  501 -0.00000000000E+00 -0.00000000000E+00 -0.50879683209E+03  0.50879683209E+03  0.00000000000E+00 0.  1.
         23    2    1    2    0    0  0.12602986100E+03  0.40600147539E+02 -0.28335687818E+03  0.32599511762E+03  0.91922785286E+02 0.  0.
        254    2    1    2    0    0 -0.12602986100E+03 -0.40600147539E+02  0.84406963457E+03  0.12523113029E+04  0.91558623495E+03 0.  0.
        -24    2    4    4    0    0  0.35807237752E+03 -0.18743387345E+03  0.34640438114E+03  0.53811007066E+03  0.78861704369E+02 0.  0.
         24    2    4    4    0    0 -0.48410223852E+03  0.14683372591E+03  0.49766525343E+03  0.71420123228E+03  0.80607538826E+02 0.  0.
         11    1    3    3    0    0  0.56293899215E+02 -0.20919329840E+02 -0.16425300796E+03  0.17488759840E+03  0.00000000000E+00 0.  1.
        -11    1    3    3    0    0  0.69735961783E+02  0.61519477379E+02 -0.11910387022E+03  0.15110751922E+03  0.00000000000E+00 0. -1.
          4    1    6    6  502    0 -0.16926167132E+03  0.89922413462E+02  0.20406761228E+03  0.27996275503E+03  0.00000000000E+00 0. -1.
          3    1    5    5  503    0  0.19159100840E+03 -0.14397204311E+03  0.20642965348E+03  0.31630407132E+03  0.00000000000E+00 0. -1.
         -4    1    5    5    0  503  0.16648136913E+03 -0.43461830337E+02  0.13997472766E+03  0.22180599935E+03  0.00000000000E+00 0.  1.
         -3    1    6    6    0  502 -0.31484056720E+03  0.56911312449E+02  0.29359764116E+03  0.43423847726E+03  0.00000000000E+00 0.  1.
<mgrwt>
<rscale>  0 0.14753482E+04</rscale>
<asrwt>0</asrwt>
<pdfrwt beam="1">  1        2 0.16453994E+00 0.14753482E+04</pdfrwt>
<pdfrwt beam="2">  1       -2 0.78276436E-01 0.14753482E+04</pdfrwt>
<totfact> 0.31983384E+01</totfact>
</mgrwt>
</event>
<event>
12    1  0.1937157E-007  0.2248714E+04  0.7818608E-02  0.8498421E-01
          2   -1    0    0  501    0  0.00000000000E+00  0.00000000000E+00  0.11429422512E+04  0.11429422512E+04  0.00000000000E+00 0. -1.
         -2   -1    0    0    0  501 -0.00000000000E+00 -0.00000000000E+00 -0.11060739273E+04  0.11060739273E+04  0.00000000000E+00 0.  1.
         23    2    1    2    0    0 -0.70940349867E+03  0.33744838736E+03 -0.49092979950E+03  0.93085408525E+03  0.91392132822E+02 0.  0.
        254    2    1    2    0    0  0.70940349867E+03 -0.33744838736E+03  0.52779812334E+03  0.13181620933E+04  0.91752695167E+03 0.  0.
        -24    2    4    4    0    0  0.57446763377E+03 -0.22375936926E+03  0.78190203322E+03  0.99864671463E+03  0.76440522658E+02 0.  0.
         24    2    4    4    0    0  0.13493586489E+03 -0.11368901810E+03 -0.25410390988E+03  0.31951537863E+03  0.79927465205E+02 0.  0.
         13    1    3    3    0    0 -0.66584895810E+03  0.29121293593E+03 -0.44123337002E+03  0.85020391429E+03  0.00000000000E+00 0.  1.
        -13    1    3    3    0    0 -0.43554540560E+02  0.46235451428E+02 -0.49696429483E+02  0.80650170958E+02  0.00000000000E+00 0. -1.
          2    1    6    6  502    0  0.13244366226E+03 -0.11821804354E+03 -0.25790397519E+03  0.31309948884E+03  0.00000000000E+00 0. -1.
          1    1    5    5  503    0  0.55733226532E+03 -0.22540323277E+03  0.74055412527E+03  0.95385862881E+03  0.00000000000E+00 0. -1.
         -2    1    5    5    0  503  0.17135368458E+02  0.16438635116E+01  0.41347907949E+02  0.44788085817E+02  0.00000000000E+00 0.  1.
         -3    1    6    6    0  502  0.24922026288E+01  0.45290254415E+01  0.38000653131E+01  0.64158897884E+01  0.00000000000E+00 0.  1.
<mgrwt>
<rscale>  0 0.22487140E+04</rscale>
<asrwt>0</asrwt>
<pdfrwt beam="1">  1        2 0.17583727E+00 0.22487140E+04</pdfrwt>
<pdfrwt beam="2">  1       -2 0.17016522E+00 0.22487140E+04</pdfrwt>
<totfact> 0.39677433E+00</totfact>
</mgrwt>
</event>
<event>
12    1  0.1495204E-007  0.1870016E+04  0.7818608E-02  0.8669927E-01
          2   -1    0    0  501    0  0.00000000000E+00  0.00000000000E+00  0.14425552653E+04  0.14425552653E+04  0.00000000000E+00 0. -1.
         -2   -1    0    0    0  501 -0.00000000000E+00 -0.00000000000E+00 -0.60603553658E+03  0.60603553658E+03  0.00000000000E+00 0.  1.
         23    2    1    2    0    0  0.35824449902E+03 -0.51488028971E+03 -0.48315827591E+02  0.63684415001E+03  0.98970795700E+02 0.  0.
        254    2    1    2    0    0 -0.35824449902E+03  0.51488028971E+03  0.88483555635E+03  0.14117466519E+04  0.90368900268E+03 0.  0.
        -24    2    4    4    0    0 -0.39311231616E+03  0.18012365435E+03 -0.22997150559E+02  0.44024045359E+03  0.79378612133E+02 0.  0.
         24    2    4    4    0    0  0.34867817141E+02  0.33475663535E+03  0.90783270691E+03  0.97150619832E+03  0.79914329446E+02 0.  0.
         11    1    3    3    0    0  0.69097794927E+02 -0.62473131785E+02 -0.35764217309E+02  0.99782146191E+02  0.00000000000E+00 0. -1.
        -11    1    3    3    0    0  0.28914670409E+03 -0.45240715792E+03 -0.12551610282E+02  0.53706200382E+03  0.00000000000E+00 0.  1.
          2    1    6    6  502    0 -0.19716984179E+02  0.40624982171E+02  0.15400312113E+03  0.16048710216E+03  0.00000000000E+00 0. -1.
          1    1    5    5  503    0 -0.14629097819E+02 -0.83287489215E+01 -0.72100644819E+00  0.16849285204E+02  0.00000000000E+00 0. -1.
         -2    1    5    5    0  503 -0.37848321834E+03  0.18845240328E+03 -0.22276144110E+02  0.42339116838E+03  0.00000000000E+00 0.  1.
         -1    1    6    6    0  502  0.54584801320E+02  0.29413165318E+03  0.75382958578E+03  0.81101909616E+03  0.00000000000E+00 0.  1.
<mgrwt>
<rscale>  0 0.18700158E+04</rscale>
<asrwt>0</asrwt>
<pdfrwt beam="1">  1        2 0.22193158E+00 0.18700158E+04</pdfrwt>
<pdfrwt beam="2">  1       -2 0.93236237E-01 0.18700158E+04</pdfrwt>
<totfact> 0.12508679E+01</totfact>
</mgrwt>
</event>
<event>
12    1  0.1495204E-007  0.1061670E+04  0.7818608E-02  0.9243378E-01
         -4   -1    0    0    0  501 -0.00000000000E+00  0.00000000000E+00  0.78465519756E+03  0.78465519756E+03  0.00000000000E+00 0.  1.
          4   -1    0    0  501    0  0.00000000000E+00 -0.00000000000E+00 -0.35912033666E+03  0.35912033666E+03  0.00000000000E+00 0. -1.
         23    2    1    2    0    0 -0.11431925330E+03 -0.37995672845E+02  0.20799246089E+01  0.14481838612E+03  0.80345977136E+02 0.  0.
        254    2    1    2    0    0  0.11431925330E+03  0.37995672845E+02  0.42345493629E+03  0.99895714810E+03  0.89670995190E+03 0.  0.
        -24    2    4    4    0    0 -0.16894874083E+03 -0.30526612948E+02  0.61346417016E+03  0.64194388532E+03  0.79234542359E+02 0.  0.
         24    2    4    4    0    0  0.28326799413E+03  0.68522285793E+02 -0.19000923387E+03  0.35701326278E+03  0.80118042255E+02 0.  0.
         13    1    3    3    0    0 -0.72097558182E+02 -0.30542249705E+02  0.39690626111E+02  0.87785150874E+02  0.00000000000E+00 0.  1.
        -13    1    3    3    0    0 -0.42221695123E+02 -0.74534231405E+01 -0.37610701502E+02  0.57033235250E+02  0.00000000000E+00 0. -1.
          2    1    6    6  502    0  0.12928516405E+03 -0.70458324572E+01 -0.97880111118E+02  0.16231085470E+03  0.00000000000E+00 0. -1.
          1    1    5    5  503    0  0.64626016484E+01  0.66755775362E+01  0.41652986287E+02  0.42676689447E+02  0.00000000000E+00 0. -1.
         -2    1    5    5    0  503 -0.17541134248E+03 -0.37202190484E+02  0.57181118387E+03  0.59926719587E+03  0.00000000000E+00 0.  1.
         -1    1    6    6    0  502  0.15398283008E+03  0.75568118250E+02 -0.92129122753E+02  0.19470240809E+03  0.00000000000E+00 0.  1.
<mgrwt>
<rscale>  0 0.10616697E+04</rscale>
<asrwt>0</asrwt>
<pdfrwt beam="1">  1        4 0.55249283E-01 0.10616697E+04</pdfrwt>
<pdfrwt beam="2">  1       -4 0.12071618E+00 0.10616697E+04</pdfrwt>
<totfact> 0.32299734E+00</totfact>
</mgrwt>
</event>
<event>
12    1  0.1495204E-007  0.2848045E+04  0.7818608E-02  0.8288506E-01
         -1   -1    0    0    0  501 -0.00000000000E+00  0.00000000000E+00  0.88136303897E+03  0.88136303897E+03  0.00000000000E+00 0.  1.
          1   -1    0    0  501    0  0.00000000000E+00 -0.00000000000E+00 -0.23008004667E+04  0.23008004667E+04  0.00000000000E+00 0. -1.
         23    2    1    2    0    0  0.11150904414E+03  0.53437836311E+03  0.65315834570E+03  0.85612462090E+03  0.91318344663E+02 0.  0.
        254    2    1    2    0    0 -0.11150904414E+03 -0.53437836311E+03 -0.20725957734E+04  0.23260388848E+04  0.90377494519E+03 0.  0.
        -24    2    4    4    0    0 -0.32891449336E+03 -0.21274728525E+03 -0.18033661028E+04  0.18472171434E+04  0.81459944605E+02 0.  0.
         24    2    4    4    0    0  0.21740544921E+03 -0.32163107786E+03 -0.26922967059E+03  0.47882174140E+03  0.77935646023E+02 0.  0.
         11    1    3    3    0    0  0.58064955436E+02  0.42823937881E+03  0.54400202575E+03  0.69476521835E+03  0.00000000000E+00 0.  1.
        -11    1    3    3    0    0  0.53444088707E+02  0.10613898430E+03  0.10915631995E+03  0.16135940254E+03  0.00000000000E+00 0. -1.
          4    1    6    6  502    0  0.76345942555E+02 -0.80433573515E+02 -0.41682691827E+02  0.11847239970E+03  0.00000000000E+00 0. -1.
          1    1    5    5  503    0 -0.63798946251E+02 -0.12906777418E+02 -0.22041908556E+03  0.22982920556E+03  0.00000000000E+00 0. -1.
         -2    1    5    5    0  503 -0.26511554711E+03 -0.19984050783E+03 -0.15829470173E+04  0.16173879378E+04  0.00000000000E+00 0.  1.
         -3    1    6    6    0  502  0.14105950666E+03 -0.24119750434E+03 -0.22754697876E+03  0.36034934170E+03  0.00000000000E+00 0.  1.
<mgrwt>
<rscale>  0 0.28480453E+04</rscale>
<asrwt>0</asrwt>
<pdfrwt beam="1">  1        1 0.35396930E+00 0.28480453E+04</pdfrwt>
<pdfrwt beam="2">  1       -1 0.13559431E+00 0.28480453E+04</pdfrwt>
<totfact> 0.72974122E-01</totfact>
</mgrwt>
</event>
<event>
12    1  0.1495204E-007  0.1391524E+04  0.7818608E-02  0.8959977E-01
         -1   -1    0    0    0  501 -0.00000000000E+00  0.00000000000E+00  0.54474258497E+03  0.54474258497E+03  0.00000000000E+00 0.  1.
          1   -1    0    0  501    0  0.00000000000E+00 -0.00000000000E+00 -0.88864911990E+03  0.88864911990E+03  0.00000000000E+00 0. -1.
         23    2    1    2    0    0 -0.23440613384E+03 -0.23022504187E+03 -0.34207192104E+03  0.48306092925E+03  0.91568863214E+02 0.  0.
        254    2    1    2    0    0  0.23440613384E+03  0.23022504187E+03 -0.18346138851E+01  0.95033077562E+03  0.89172608563E+03 0.  0.
        -24    2    4    4    0    0  0.30486259107E+03  0.48227398848E+03 -0.20304451807E+03  0.61087116595E+03  0.80044398192E+02 0.  0.
         24    2    4    4    0    0 -0.70456457225E+02 -0.25204894661E+03  0.20120990418E+03  0.33945960967E+03  0.79086137877E+02 0.  0.
         11    1    3    3    0    0 -0.19474761210E+01 -0.11075336007E+02 -0.46462770017E+02  0.47804233375E+02  0.00000000000E+00 0.  1.
        -11    1    3    3    0    0 -0.23245865772E+03 -0.21914970586E+03 -0.29560915103E+03  0.43525669587E+03  0.00000000000E+00 0. -1.
          4    1    6    6  502    0  0.11893475350E+01 -0.13534551621E+03  0.84756785239E+02  0.15969826533E+03  0.00000000000E+00 0. -1.
          1    1    5    5  503    0  0.23188155456E+03  0.37388755936E+03 -0.11992491052E+03  0.45600761677E+03  0.00000000000E+00 0. -1.
         -2    1    5    5    0  503  0.72981036508E+02  0.10838642912E+03 -0.83119607550E+02  0.15486354918E+03  0.00000000000E+00 0.  1.
         -3    1    6    6    0  502 -0.71645804760E+02 -0.11670343040E+03  0.11645311894E+03  0.17976134434E+03  0.00000000000E+00 0.  1.
<mgrwt>
<rscale>  0 0.13915244E+04</rscale>
<asrwt>0</asrwt>
<pdfrwt beam="1">  1        1 0.13671525E+00 0.13915244E+04</pdfrwt>
<pdfrwt beam="2">  1       -1 0.83806552E-01 0.13915244E+04</pdfrwt>
<totfact> 0.25618257E+01</totfact>
</mgrwt>
</event>
<event>
12    1  0.1495204E-007  0.1217742E+04  0.7818608E-02  0.9097468E-01
         -2   -1    0    0    0  501 -0.00000000000E+00  0.00000000000E+00  0.13568714013E+03  0.13568714013E+03  0.00000000000E+00 0. -1.
          2   -1    0    0  501    0  0.00000000000E+00 -0.00000000000E+00 -0.27321943348E+04  0.27321943348E+04  0.00000000000E+00 0.  1.
         23    2    1    2    0    0 -0.21914776109E+03 -0.12910399643E+03 -0.84016217297E+03  0.88243370728E+03  0.90128728861E+02 0.  0.
        254    2    1    2    0    0  0.21914776109E+03  0.12910399643E+03 -0.17563450217E+04  0.19854477676E+04  0.89025918682E+03 0.  0.
        -24    2    4    4    0    0  0.21018217290E+03 -0.31288394421E+03 -0.39442517028E+03  0.55138856438E+03  0.79907606809E+02 0.  0.
         24    2    4    4    0    0  0.89655881861E+01  0.44198794064E+03 -0.13619198514E+04  0.14340592033E+04  0.79160566963E+02 0.  0.
         13    1    3    3    0    0 -0.18178896064E+03 -0.97501390331E+02 -0.76817103083E+03  0.79538700010E+03  0.00000000000E+00 0.  1.
        -13    1    3    3    0    0 -0.37358800451E+02 -0.31602606100E+02 -0.71991142142E+02  0.87046707177E+02  0.00000000000E+00 0. -1.
          2    1    6    6  502    0 -0.30926739921E+02  0.30102345154E+03 -0.91962859022E+03  0.96813652218E+03  0.00000000000E+00 0. -1.
          1    1    5    5  503    0  0.12699610450E+03 -0.17815187780E+03 -0.17169785058E+03  0.27811194512E+03  0.00000000000E+00 0. -1.
         -2    1    5    5    0  503  0.83186068398E+02 -0.13473206641E+03 -0.22272731970E+03  0.27327661926E+03  0.00000000000E+00 0.  1.
         -1    1    6    6    0  502  0.39892328108E+02  0.14096448910E+03 -0.44229126117E+03  0.46592268107E+03  0.00000000000E+00 0.  1.
<mgrwt>
<rscale>  0 0.12177416E+04</rscale>
<asrwt>0</asrwt>
<pdfrwt beam="1">  1        2 0.42033759E+00 0.12177416E+04</pdfrwt>
<pdfrwt beam="2">  1       -2 0.20874945E-01 0.12177416E+04</pdfrwt>
<totfact> 0.50091625E+01</totfact>
</mgrwt>
</event>
<event>
12    1  0.1495204E-007  0.2047521E+04  0.7818608E-02  0.8584720E-01
         -2   -1    0    0    0  501 -0.00000000000E+00  0.00000000000E+00  0.96555086060E+03  0.96555086060E+03  0.00000000000E+00 0.  1.
          2   -1    0    0  501    0  0.00000000000E+00 -0.00000000000E+00 -0.10854789406E+04  0.10854789406E+04  0.00000000000E+00 0. -1.
         23    2    1    2    0    0 -0.11774184198E+03 -0.81301684569E+03 -0.16772321186E+03  0.84375735842E+03  0.94529738023E+02 0.  0.
        254    2    1    2    0    0  0.11774184198E+03  0.81301684569E+03  0.47795131820E+02  0.12072724428E+04  0.88338148261E+03 0.  0.
        -24    2    4    4    0    0  0.32211828885E+03  0.21512799379E+03 -0.28619433112E+03  0.48812519284E+03  0.79490647236E+02 0.  0.
         24    2    4    4    0    0 -0.20437644686E+03  0.59788885189E+03  0.33398946294E+03  0.71914724997E+03  0.79893645173E+02 0.  0.
         13    1    3    3    0    0 -0.21163652779E+01 -0.26341615721E+02  0.11275011717E+02  0.28731265374E+02  0.00000000000E+00 0. -1.
        -13    1    3    3    0    0 -0.11562547670E+03 -0.78667522997E+03 -0.17899822357E+03  0.81502609305E+03  0.00000000000E+00 0.  1.
          4    1    6    6  502    0 -0.21151147541E+02  0.14533833912E+03  0.55047412307E+02  0.15684649012E+03  0.00000000000E+00 0. -1.
          1    1    5    5  503    0  0.40313152065E+02  0.40525312321E+02 -0.13174149821E+02  0.58660117555E+02  0.00000000000E+00 0. -1.
         -2    1    5    5    0  503  0.28180513678E+03  0.17460268147E+03 -0.27302018130E+03  0.42946507528E+03  0.00000000000E+00 0.  1.
         -3    1    6    6    0  502 -0.18322529932E+03  0.45255051277E+03  0.27894205063E+03  0.56230075985E+03  0.00000000000E+00 0.  1.
<mgrwt>
<rscale>  0 0.20475206E+04</rscale>
<asrwt>0</asrwt>
<pdfrwt beam="1">  1        2 0.16699676E+00 0.20475206E+04</pdfrwt>
<pdfrwt beam="2">  1       -2 0.14854629E+00 0.20475206E+04</pdfrwt>
<totfact> 0.63288294E+00</totfact>
</mgrwt>
</event>
<event>
12    1  0.1495204E-007  0.1136177E+04  0.7818608E-02  0.9170631E-01
         -2   -1    0    0    0  501 -0.00000000000E+00  0.00000000000E+00  0.44410162081E+03  0.44410162081E+03  0.00000000000E+00 0. -1.
          2   -1    0    0  501    0  0.00000000000E+00 -0.00000000000E+00 -0.72669121844E+03  0.72669121844E+03  0.00000000000E+00 0.  1.
         23    2    1    2    0    0 -0.33992296437E+02  0.19135321251E+03 -0.20117026439E+01  0.21527216676E+03  0.92555554576E+02 0.  0.
        254    2    1    2    0    0  0.33992296437E+02 -0.19135321251E+03 -0.28057789499E+03  0.95552067249E+03  0.89248208512E+03 0.  0.
        -24    2    4    4    0    0 -0.28362760873E+03 -0.14280393804E+03 -0.47122983774E+03  0.57353738672E+03  0.77781674160E+02 0.  0.
         24    2    4    4    0    0  0.31761990516E+03 -0.48549274462E+02  0.19065194276E+03  0.38198328577E+03  0.79521262079E+02 0.  0.
         11    1    3    3    0    0  0.23353206995E+02  0.11801591428E+02  0.50693481645E+01  0.26652356894E+02  0.00000000000E+00 0.  1.
        -11    1    3    3    0    0 -0.57345503431E+02  0.17955162108E+03 -0.70810508085E+01  0.18861980987E+03  0.00000000000E+00 0. -1.
          2    1    6    6  502    0  0.25696652429E+03 -0.64912589140E+02  0.13222297753E+03  0.29618972741E+03  0.00000000000E+00 0. -1.
          3    1    5    5  503    0 -0.22034316557E+03 -0.95961679580E+02 -0.29490464331E+03  0.38043199551E+03  0.00000000000E+00 0. -1.
         -4    1    5    5    0  503 -0.63284443159E+02 -0.46842258462E+02 -0.17632519443E+03  0.19310539121E+03  0.00000000000E+00 0.  1.
         -1    1    6    6    0  502  0.60653380873E+02  0.16363314677E+02  0.58428965233E+02  0.85793558363E+02  0.00000000000E+00 0.  1.
<mgrwt>
<rscale>  0 0.11361774E+04</rscale>
<asrwt>0</asrwt>
<pdfrwt beam="1">  1        2 0.11179865E+00 0.11361774E+04</pdfrwt>
<pdfrwt beam="2">  1       -2 0.68323328E-01 0.11361774E+04</pdfrwt>
<totfact> 0.75883930E+01</totfact>
</mgrwt>
</event>
<event>
12    1  0.1495204E-007  0.1291400E+04  0.7818608E-02  0.9036413E-01
          1   -1    0    0  501    0  0.00000000000E+00  0.00000000000E+00  0.81980912882E+03  0.81980912882E+03  0.00000000000E+00 0. -1.
         -1   -1    0    0    0  501 -0.00000000000E+00 -0.00000000000E+00 -0.50856804885E+03  0.50856804885E+03  0.00000000000E+00 0.  1.
         23    2    1    2    0    0 -0.28583855040E+01  0.28565954204E+03  0.25015365973E+03  0.39078947749E+03  0.92358096097E+02 0.  0.
        254    2    1    2    0    0  0.28583855040E+01 -0.28565954204E+03  0.61087420237E+02  0.93758770017E+03  0.89091496692E+03 0.  0.
        -24    2    4    4    0    0  0.19412337072E+03  0.22288243832E+02  0.38891014003E+03  0.44227730272E+03  0.78596861342E+02 0.  0.
         24    2    4    4    0    0 -0.19126498522E+03 -0.30794778587E+03 -0.32782271979E+03  0.49531039745E+03  0.80315134409E+02 0.  0.
         11    1    3    3    0    0 -0.64338036713E+01  0.13730904675E+03  0.18044560211E+03  0.22683867278E+03  0.00000000000E+00 0.  1.
        -11    1    3    3    0    0  0.35754181673E+01  0.14835049529E+03  0.69708057626E+02  0.16395080471E+03  0.00000000000E+00 0. -1.
          4    1    6    6  502    0 -0.52456900945E+02 -0.31947305184E+02 -0.41780986358E+02  0.74283292781E+02  0.00000000000E+00 0. -1.
          3    1    5    5  503    0  0.13098139449E+03  0.19311984130E+02  0.17635860248E+03  0.22052536158E+03  0.00000000000E+00 0. -1.
         -2    1    5    5    0  503  0.63141976236E+02  0.29762597019E+01  0.21255153755E+03  0.22175194114E+03  0.00000000000E+00 0.  1.
         -3    1    6    6    0  502 -0.13880808427E+03 -0.27600048068E+03 -0.28604173344E+03  0.42102710467E+03  0.00000000000E+00 0.  1.
<mgrwt>
<rscale>  0 0.12914004E+04</rscale>
<asrwt>0</asrwt>
<pdfrwt beam="1">  1        1 0.12612448E+00 0.12914004E+04</pdfrwt>
<pdfrwt beam="2">  1       -1 0.78241238E-01 0.12914004E+04</pdfrwt>
<totfact> 0.34182640E+01</totfact>
</mgrwt>
</event>
<event>
12    1  0.1495204E-007  0.1095854E+04  0.7818608E-02  0.9209243E-01
         -1   -1    0    0    0  501 -0.00000000000E+00  0.00000000000E+00  0.37566551509E+03  0.37566551509E+03  0.00000000000E+00 0.  1.
          1   -1    0    0  501    0  0.00000000000E+00 -0.00000000000E+00 -0.79917863237E+03  0.79917863237E+03  0.00000000000E+00 0. -1.
         23    2    1    2    0    0  0.10235801792E+03 -0.11968209520E+03  0.44694261773E+02  0.18715796253E+03  0.90716912207E+02 0.  0.
        254    2    1    2    0    0 -0.10235801792E+03  0.11968209520E+03 -0.46820737906E+03  0.98768618493E+03  0.85528058691E+03 0.  0.
        -24    2    4    4    0    0 -0.19234548964E+03 -0.32231621779E+03 -0.33702812944E+03  0.51083999217E+03  0.80529534562E+02 0.  0.
         24    2    4    4    0    0  0.89987471725E+02  0.44199831299E+03 -0.13117924962E+03  0.47684619276E+03  0.81939259608E+02 0.  0.
         11    1    3    3    0    0  0.11891898666E+02 -0.98232983411E+01 -0.24471684693E+02  0.28927111779E+02  0.00000000000E+00 0. -1.
        -11    1    3    3    0    0  0.90466119250E+02 -0.10985879686E+03  0.69165946465E+02  0.15823085075E+03  0.00000000000E+00 0.  1.
          4    1    6    6  502    0  0.93265523409E+02  0.27052922447E+03 -0.68396457827E+02  0.29421521815E+03  0.00000000000E+00 0. -1.
          1    1    5    5  503    0 -0.17529356469E+03 -0.26497520020E+03 -0.31412737897E+03  0.44678372929E+03  0.00000000000E+00 0. -1.
         -2    1    5    5    0  503 -0.17051924953E+02 -0.57341017583E+02 -0.22900750473E+02  0.64056262881E+02  0.00000000000E+00 0.  1.
         -3    1    6    6    0  502 -0.32780516841E+01  0.17146908852E+03 -0.62782791793E+02  0.18263097461E+03  0.00000000000E+00 0.  1.
<mgrwt>
<rscale>  0 0.10958537E+04</rscale>
<asrwt>0</asrwt>
<pdfrwt beam="1">  1        1 0.12295056E+00 0.10958537E+04</pdfrwt>
<pdfrwt beam="2">  1       -1 0.57794695E-01 0.10958537E+04</pdfrwt>
<totfact> 0.66943088E+01</totfact>
</mgrwt>
</event>
<event>
12    1  0.1495204E-007  0.2285084E+04  0.7818608E-02  0.8483826E-01
         -1   -1    0    0    0  501 -0.00000000000E+00  0.00000000000E+00  0.58745045357E+03  0.58745045357E+03  0.00000000000E+00 0.  1.
          1   -1    0    0  501    0  0.00000000000E+00 -0.00000000000E+00 -0.22221483684E+04  0.22221483684E+04  0.00000000000E+00 0. -1.
         23    2    1    2    0    0 -0.24306622545E+03  0.48176995407E+03 -0.16708887679E+04  0.17582784835E+04  0.92143758586E+02 0.  0.
        254    2    1    2    0    0  0.24306622545E+03 -0.48176995407E+03  0.36190853029E+02  0.10513203385E+04  0.90154378581E+03 0.  0.
        -24    2    4    4    0    0  0.36961941581E+03 -0.48343241210E+03 -0.30025633429E+03  0.68306625712E+03  0.78104005841E+02 0.  0.
         24    2    4    4    0    0 -0.12655319036E+03  0.16624580287E+01  0.33644718732E+03  0.36825408139E+03  0.79974276177E+02 0.  0.
         11    1    3    3    0    0 -0.15100852669E+03  0.33723637698E+03 -0.10077025900E+04  0.10733109796E+04  0.00000000000E+00 0.  1.
        -11    1    3    3    0    0 -0.92057698760E+02  0.14453357709E+03 -0.66318617788E+03  0.68496750386E+03  0.00000000000E+00 0. -1.
          4    1    6    6  502    0 -0.89640160823E+02 -0.30284977387E+02  0.26775985378E+03  0.28398569961E+03  0.00000000000E+00 0. -1.
          3    1    5    5  503    0  0.16734773440E+03 -0.15680079506E+03 -0.10982459426E+03  0.25426992556E+03  0.00000000000E+00 0. -1.
         -4    1    5    5    0  503  0.20227168140E+03 -0.32663161705E+03 -0.19043174003E+03  0.42879633157E+03  0.00000000000E+00 0.  1.
         -3    1    6    6    0  502 -0.36913029534E+02  0.31947435415E+02  0.68687333539E+02  0.84268381779E+02  0.00000000000E+00 0.  1.
<mgrwt>
<rscale>  0 0.22850839E+04</rscale>
<asrwt>0</asrwt>
<pdfrwt beam="1">  1        1 0.34186897E+00 0.22850839E+04</pdfrwt>
<pdfrwt beam="2">  1       -1 0.90376994E-01 0.22850839E+04</pdfrwt>
<totfact> 0.22785652E+00</totfact>
</mgrwt>
</event>
<event>
12    1  0.1495204E-007  0.1548080E+04  0.7818608E-02  0.8853095E-01
         -2   -1    0    0    0  501 -0.00000000000E+00  0.00000000000E+00  0.19417386478E+03  0.19417386478E+03  0.00000000000E+00 0.  1.
          2   -1    0    0  501    0  0.00000000000E+00 -0.00000000000E+00 -0.30855734332E+04  0.30855734332E+04  0.00000000000E+00 0. -1.
         23    2    1    2    0    0  0.40799590348E+03  0.91939966613E+02 -0.34886739093E+03  0.55193325932E+03  0.89488834923E+02 0.  0.
        254    2    1    2    0    0 -0.40799590348E+03 -0.91939966613E+02 -0.25425321775E+04  0.27278140386E+04  0.89531332014E+03 0.  0.
        -24    2    4    4    0    0 -0.17444140459E+03  0.18692883471E+03 -0.22174766279E+04  0.22335987009E+04  0.79927269938E+02 0.  0.
         24    2    4    4    0    0 -0.23355449890E+03 -0.27886880132E+03 -0.32505554959E+03  0.49421533776E+03  0.79197079867E+02 0.  0.
         11    1    3    3    0    0  0.32530411727E+03  0.94342560923E+02 -0.23962430501E+03  0.41490130762E+03  0.00000000000E+00 0. -1.
        -11    1    3    3    0    0  0.82691786209E+02 -0.24025943093E+01 -0.10924308592E+03  0.13703195170E+03  0.00000000000E+00 0.  1.
          4    1    6    6  502    0 -0.96874299656E+02 -0.16174878013E+03 -0.13130106205E+03  0.22975479691E+03  0.00000000000E+00 0. -1.
          1    1    5    5  503    0 -0.16956873003E+03  0.15010585175E+03 -0.17392125989E+04  0.17538944624E+04  0.00000000000E+00 0. -1.
         -2    1    5    5    0  503 -0.48726745578E+01  0.36822982954E+02 -0.47826402897E+03  0.47970423851E+03  0.00000000000E+00 0.  1.
         -3    1    6    6    0  502 -0.13668019924E+03 -0.11712002119E+03 -0.19375448754E+03  0.26446054085E+03  0.00000000000E+00 0.  1.
<mgrwt>
<rscale>  0 0.15480797E+04</rscale>
<asrwt>0</asrwt>
<pdfrwt beam="1">  1        2 0.47470359E+00 0.15480797E+04</pdfrwt>
<pdfrwt beam="2">  1       -2 0.29872903E-01 0.15480797E+04</pdfrwt>
<totfact> 0.15411508E+01</totfact>
</mgrwt>
</event>
<event>
12    1  0.1495204E-007  0.1596523E+04  0.7818608E-02  0.8822687E-01
          2   -1    0    0  501    0  0.00000000000E+00  0.00000000000E+00  0.16348908440E+04  0.16348908440E+04  0.00000000000E+00 0. -1.
         -2   -1    0    0    0  501 -0.00000000000E+00 -0.00000000000E+00 -0.38976371982E+03  0.38976371982E+03  0.00000000000E+00 0.  1.
         23    2    1    2    0    0 -0.49010716489E+03 -0.66949393377E+02  0.69473768015E+03  0.85839668518E+03  0.97453427589E+02 0.  0.
        254    2    1    2    0    0  0.49010716489E+03  0.66949393377E+02  0.55038944406E+03  0.11662578787E+04  0.90141091911E+03 0.  0.
        -24    2    4    4    0    0 -0.21553513926E+03 -0.15938506197E+03  0.10529186724E+03  0.29824884779E+03  0.77504862213E+02 0.  0.
         24    2    4    4    0    0  0.70564230415E+03  0.22633445535E+03  0.44509757681E+03  0.86800903088E+03  0.78546022934E+02 0.  0.
         13    1    3    3    0    0 -0.47547274940E+02  0.19951072868E+02  0.52222437589E+02  0.73389179383E+02  0.00000000000E+00 0.  1.
        -13    1    3    3    0    0 -0.44255988995E+03 -0.86900466245E+02  0.64251524256E+03  0.78500750579E+03  0.00000000000E+00 0. -1.
          4    1    6    6  502    0  0.99812991209E+02  0.95233235343E+01  0.41932293708E+02  0.10868138829E+03  0.00000000000E+00 0. -1.
          1    1    5    5  503    0 -0.13352033346E+02 -0.41852630350E+02  0.27306366803E+02  0.51725787860E+02  0.00000000000E+00 0. -1.
         -2    1    5    5    0  503 -0.20218310592E+03 -0.11753243162E+03  0.77985500440E+02  0.24652305994E+03  0.00000000000E+00 0.  1.
         -3    1    6    6    0  502  0.60582931294E+03  0.21681113182E+03  0.40316528311E+03  0.75932764259E+03  0.00000000000E+00 0.  1.
<mgrwt>
<rscale>  0 0.15965226E+04</rscale>
<asrwt>0</asrwt>
<pdfrwt beam="1">  1        2 0.25152166E+00 0.15965226E+04</pdfrwt>
<pdfrwt beam="2">  1       -2 0.59963650E-01 0.15965226E+04</pdfrwt>
<totfact> 0.26517399E+01</totfact>
</mgrwt>
</event>
<event>
12    1  0.1495204E-007  0.1526139E+04  0.7818608E-02  0.8867255E-01
         -3   -1    0    0    0  501 -0.00000000000E+00  0.00000000000E+00  0.21393047062E+04  0.21393047062E+04  0.00000000000E+00 0.  1.
          3   -1    0    0  501    0  0.00000000000E+00 -0.00000000000E+00 -0.27217946408E+03  0.27217946408E+03  0.00000000000E+00 0. -1.
         23    2    1    2    0    0 -0.11411338715E+03  0.38934104336E+03  0.10474724829E+04  0.11272098432E+04  0.93782274089E+02 0.  0.
        254    2    1    2    0    0  0.11411338715E+03 -0.38934104336E+03  0.81965275916E+03  0.12842743271E+04  0.90162164368E+03 0.  0.
        -24    2    4    4    0    0  0.64972715406E+02 -0.19222652896E+03  0.98640960715E+03  0.10100631370E+04  0.77789045284E+02 0.  0.
         24    2    4    4    0    0  0.49140671748E+02 -0.19711451441E+03 -0.16675684799E+03  0.27421119000E+03  0.78198420470E+02 0.  0.
         11    1    3    3    0    0 -0.10768117439E+03  0.29767253231E+03  0.70846370657E+03  0.77596713548E+03  0.00000000000E+00 0. -1.
        -11    1    3    3    0    0 -0.64322127593E+01  0.91668511053E+02  0.33900877636E+03  0.35124270772E+03  0.00000000000E+00 0.  1.
          2    1    6    6  502    0 -0.15987426006E+02 -0.87759714501E+01 -0.11170907435E+02  0.21387020319E+02  0.00000000000E+00 0. -1.
          3    1    5    5  503    0  0.91969496058E+01 -0.12904466003E+03  0.50354217084E+03  0.51989597611E+03  0.00000000000E+00 0. -1.
         -4    1    5    5    0  503  0.55775765800E+02 -0.63181868927E+02  0.48286743631E+03  0.49016716094E+03  0.00000000000E+00 0.  1.
         -1    1    6    6    0  502  0.65128097754E+02 -0.18833854296E+03 -0.15558594055E+03  0.25282416969E+03  0.00000000000E+00 0.  1.
<mgrwt>
<rscale>  0 0.15261387E+04</rscale>
<asrwt>0</asrwt>
<pdfrwt beam="1">  1        3 0.41873765E-01 0.15261387E+04</pdfrwt>
<pdfrwt beam="2">  1       -3 0.32912379E+00 0.15261387E+04</pdfrwt>
<totfact> 0.37696804E-01</totfact>
</mgrwt>
</event>
<event>
12    1  0.1495204E-007  0.1692313E+04  0.7818608E-02  0.8765761E-01
          1   -1    0    0  501    0  0.00000000000E+00  0.00000000000E+00  0.95023347623E+03  0.95023347623E+03  0.00000000000E+00 0. -1.
         -1   -1    0    0    0  501 -0.00000000000E+00 -0.00000000000E+00 -0.75347862356E+03  0.75347862356E+03  0.00000000000E+00 0.  1.
         23    2    1    2    0    0  0.20529839108E+03 -0.32905568548E+03 -0.39473082920E+03  0.56142029840E+03  0.94632184808E+02 0.  0.
        254    2    1    2    0    0 -0.20529839108E+03  0.32905568548E+03  0.59148568188E+03  0.11422918014E+04  0.89696720905E+03 0.  0.
        -24    2    4    4    0    0 -0.28370636464E+03 -0.24987208792E+03  0.20506482186E+03  0.43782317970E+03  0.81927979712E+02 0.  0.
         24    2    4    4    0    0  0.78407973554E+02  0.57892777341E+03  0.38642086002E+03  0.70446862168E+03  0.75165023372E+02 0.  0.
         13    1    3    3    0    0  0.78329039875E+02 -0.11539767487E+03 -0.81402033388E+02  0.16148793420E+03  0.00000000000E+00 0. -1.
        -13    1    3    3    0    0  0.12696935121E+03 -0.21365801061E+03 -0.31332879582E+03  0.39993236420E+03  0.00000000000E+00 0.  1.
          4    1    6    6  502    0  0.90354214233E+02  0.50137703852E+03  0.31958240964E+03  0.60139482484E+03  0.00000000000E+00 0. -1.
          1    1    5    5  503    0 -0.19303762154E+03 -0.20617302097E+03  0.12343522479E+03  0.30823220569E+03  0.00000000000E+00 0. -1.
         -2    1    5    5    0  503 -0.90668743097E+02 -0.43699066955E+02  0.81629597065E+02  0.12959097401E+03  0.00000000000E+00 0.  1.
         -3    1    6    6    0  502 -0.11946240679E+02  0.77550734883E+02  0.66838450377E+02  0.10307379685E+03  0.00000000000E+00 0.  1.
<mgrwt>
<rscale>  0 0.16923128E+04</rscale>
<asrwt>0</asrwt>
<pdfrwt beam="1">  1        1 0.14618977E+00 0.16923128E+04</pdfrwt>
<pdfrwt beam="2">  1       -1 0.11591979E+00 0.16923128E+04</pdfrwt>
<totfact> 0.10625479E+01</totfact>
</mgrwt>
</event>
<event>
12    1  0.1495204E-007  0.1331236E+04  0.7818608E-02  0.9005155E-01
         -1   -1    0    0    0  501 -0.00000000000E+00  0.00000000000E+00  0.36337861543E+03  0.36337861543E+03  0.00000000000E+00 0.  1.
          1   -1    0    0  501    0  0.00000000000E+00 -0.00000000000E+00 -0.12192440293E+04  0.12192440293E+04  0.00000000000E+00 0. -1.
         23    2    1    2    0    0  0.22182860264E+03  0.21149228464E+03 -0.14990529704E+02  0.32021519133E+03  0.91521239983E+02 0.  0.
        254    2    1    2    0    0 -0.22182860264E+03 -0.21149228464E+03 -0.84087488421E+03  0.12624074534E+04  0.89031741094E+03 0.  0.
        -24    2    4    4    0    0 -0.20827219690E+03  0.32384426711E+03 -0.42596401734E+03  0.58026135795E+03  0.83698758195E+02 0.  0.
         24    2    4    4    0    0 -0.13556405740E+02 -0.53533655174E+03 -0.41491086686E+03  0.68214609549E+03  0.80020424811E+02 0.  0.
         13    1    3    3    0    0  0.16709773861E+03  0.16323385846E+03 -0.50613130980E+02  0.23901597399E+03  0.00000000000E+00 0.  1.
        -13    1    3    3    0    0  0.54730864030E+02  0.48258426174E+02  0.35622601276E+02  0.81199217336E+02  0.00000000000E+00 0. -1.
          4    1    6    6  502    0  0.27271535638E+01 -0.11857397342E+02  0.25036907574E+01  0.12421904270E+02  0.00000000000E+00 0. -1.
          3    1    5    5  503    0 -0.14554158503E+03  0.23812339321E+03 -0.35891298587E+03  0.45464671426E+03  0.00000000000E+00 0. -1.
         -4    1    5    5    0  503 -0.62730611865E+02  0.85720873901E+02 -0.67051031475E+02  0.12561464369E+03  0.00000000000E+00 0.  1.
         -3    1    6    6    0  502 -0.16283559304E+02 -0.52347915440E+03 -0.41741455762E+03  0.66972419122E+03  0.00000000000E+00 0.  1.
<mgrwt>
<rscale>  0 0.13312358E+04</rscale>
<asrwt>0</asrwt>
<pdfrwt beam="1">  1        1 0.18757600E+00 0.13312358E+04</pdfrwt>
<pdfrwt beam="2">  1       -1 0.55904403E-01 0.13312358E+04</pdfrwt>
<totfact> 0.32818433E+01</totfact>
</mgrwt>
</event>
<event>
12    1  0.1495204E-007  0.1192272E+04  0.7818608E-02  0.9119648E-01
          2   -1    0    0  501    0  0.00000000000E+00  0.00000000000E+00  0.29291918928E+04  0.29291918928E+04  0.00000000000E+00 0. -1.
         -2   -1    0    0    0  501 -0.00000000000E+00 -0.00000000000E+00 -0.12132297394E+03  0.12132297394E+03  0.00000000000E+00 0.  1.
         23    2    1    2    0    0 -0.12706913524E+03 -0.11560165731E+03  0.14608987543E+03  0.24359247649E+03  0.92112619116E+02 0.  0.
        254    2    1    2    0    0  0.12706913524E+03  0.11560165731E+03  0.26617790434E+04  0.28069223902E+04  0.87420553676E+03 0.  0.
        -24    2    4    4    0    0  0.30053379536E+03  0.42309903312E+03  0.14417171333E+04  0.15344303505E+04  0.81208707736E+02 0.  0.
         24    2    4    4    0    0 -0.17346466013E+03 -0.30749737581E+03  0.12200619102E+04  0.12724920397E+04  0.77719380613E+02 0.  0.
         11    1    3    3    0    0 -0.53310944772E+02 -0.12668258046E+02  0.65916757259E+01  0.55190504467E+02  0.00000000000E+00 0. -1.
        -11    1    3    3    0    0 -0.73758190463E+02 -0.10293339926E+03  0.13949819970E+03  0.18840197203E+03  0.00000000000E+00 0.  1.
          4    1    6    6  502    0 -0.53896036222E+02 -0.84681147720E+02  0.23600262981E+03  0.25646231843E+03  0.00000000000E+00 0. -1.
          1    1    5    5  503    0  0.75546936130E+02  0.53621875749E+02  0.26309359219E+03  0.27892809713E+03  0.00000000000E+00 0. -1.
         -2    1    5    5    0  503  0.22498685923E+03  0.36947715737E+03  0.11786235411E+04  0.12555022534E+04  0.00000000000E+00 0.  1.
         -3    1    6    6    0  502 -0.11956862390E+03 -0.22281622809E+03  0.98405928035E+03  0.10160297213E+04  0.00000000000E+00 0.  1.
<mgrwt>
<rscale>  0 0.11922722E+04</rscale>
<asrwt>0</asrwt>
<pdfrwt beam="1">  1        2 0.45064485E+00 0.11922722E+04</pdfrwt>
<pdfrwt beam="2">  1       -2 0.18665075E-01 0.11922722E+04</pdfrwt>
<totfact> 0.46523233E+01</totfact>
</mgrwt>
</event>
<event>
12    1  0.1495204E-007  0.1686221E+04  0.7818608E-02  0.8769262E-01
         -1   -1    0    0    0  501 -0.00000000000E+00  0.00000000000E+00  0.10921777853E+04  0.10921777853E+04  0.00000000000E+00 0.  1.
          1   -1    0    0  501    0  0.00000000000E+00 -0.00000000000E+00 -0.65084230100E+03  0.65084230100E+03  0.00000000000E+00 0. -1.
         23    2    1    2    0    0 -0.30606523422E+03  0.39388786820E+03  0.49866599972E+03  0.71123751321E+03  0.91473715350E+02 0.  0.
        254    2    1    2    0    0  0.30606523422E+03 -0.39388786820E+03 -0.57330515373E+02  0.10317825731E+04  0.90136835419E+03 0.  0.
        -24    2    4    4    0    0 -0.95364208915E+02  0.13226749965E+03  0.24097250974E+03  0.30153827571E+03  0.79174222188E+02 0.  0.
         24    2    4    4    0    0  0.40142944314E+03 -0.52615536785E+03 -0.29830302512E+03  0.73024429743E+03  0.79290416841E+02 0.  0.
         11    1    3    3    0    0 -0.11068572612E+03  0.13576018970E+03  0.11641872305E+03  0.21032231967E+03  0.00000000000E+00 0.  1.
        -11    1    3    3    0    0 -0.19537950810E+03  0.25812767850E+03  0.38224727668E+03  0.50091519354E+03  0.00000000000E+00 0. -1.
          4    1    6    6  502    0  0.25006905477E+03 -0.34486821344E+03 -0.23140223092E+03  0.48478408520E+03  0.00000000000E+00 0. -1.
          3    1    5    5  503    0 -0.35940929369E+02  0.85894914046E+01  0.91266638932E+02  0.98463846911E+02  0.00000000000E+00 0. -1.
         -4    1    5    5    0  503 -0.59423279546E+02  0.12367800825E+03  0.14970587081E+03  0.20307442880E+03  0.00000000000E+00 0.  1.
         -3    1    6    6    0  502  0.15136038837E+03 -0.18128715441E+03 -0.66900794194E+02  0.24546021223E+03  0.00000000000E+00 0.  1.
<mgrwt>
<rscale>  0 0.16862212E+04</rscale>
<asrwt>0</asrwt>
<pdfrwt beam="1">  1        1 0.10012958E+00 0.16862212E+04</pdfrwt>
<pdfrwt beam="2">  1       -1 0.16802735E+00 0.16862212E+04</pdfrwt>
<totfact> 0.73686709E+00</totfact>
</mgrwt>
</event>
<event>
12    1  0.1495204E-007  0.1829698E+04  0.7818608E-02  0.8690664E-01
         -1   -1    0    0    0  501 -0.00000000000E+00  0.00000000000E+00  0.23694157365E+03  0.23694157365E+03  0.00000000000E+00 0.  1.
          1   -1    0    0  501    0  0.00000000000E+00 -0.00000000000E+00 -0.35322984959E+04  0.35322984959E+04  0.00000000000E+00 0. -1.
         23    2    1    2    0    0  0.16245369629E+03 -0.56470411113E+03 -0.20308638874E+04  0.21161178288E+04  0.90909843502E+02 0.  0.
        254    2    1    2    0    0 -0.16245369629E+03  0.56470411113E+03 -0.12644930348E+04  0.16531222407E+04  0.88802509597E+03 0.  0.
        -24    2    4    4    0    0  0.12695816012E+03  0.52868484801E+03 -0.12325262226E+04  0.13492934627E+04  0.76458591635E+02 0.  0.
         24    2    4    4    0    0 -0.28941185641E+03  0.36019263127E+02 -0.31966812223E+02  0.30382877799E+03  0.78952132988E+02 0.  0.
         13    1    3    3    0    0  0.91286320855E+02 -0.16567874060E+03 -0.62716708583E+03  0.65507342414E+03  0.00000000000E+00 0.  1.
        -13    1    3    3    0    0  0.71167375432E+02 -0.39902537053E+03 -0.14036968016E+04  0.14610444047E+04  0.00000000000E+00 0. -1.
          4    1    6    6  502    0 -0.15110826115E+03  0.17115695216E+02 -0.56247544426E+02  0.16214326956E+03  0.00000000000E+00 0. -1.
          3    1    5    5  503    0  0.11932355632E+03  0.36502544858E+03 -0.90360277233E+03  0.98182465815E+03  0.00000000000E+00 0. -1.
         -4    1    5    5    0  503  0.76346038020E+01  0.16365939943E+03 -0.32892345026E+03  0.36746880456E+03  0.00000000000E+00 0.  1.
         -1    1    6    6    0  502 -0.13830359526E+03  0.18903567911E+02  0.24280732203E+02  0.14168550843E+03  0.00000000000E+00 0.  1.
<mgrwt>
<rscale>  0 0.18296976E+04</rscale>
<asrwt>0</asrwt>
<pdfrwt beam="1">  1        1 0.54343049E+00 0.18296976E+04</pdfrwt>
<pdfrwt beam="2">  1       -1 0.36452553E-01 0.18296976E+04</pdfrwt>
<totfact> 0.16096697E+00</totfact>
</mgrwt>
</event>
<event>
12    1  0.1495204E-007  0.9829021E+03  0.7818608E-02  0.9327499E-01
          2   -1    0    0  501    0  0.00000000000E+00  0.00000000000E+00  0.43039573392E+04  0.43039573392E+04  0.00000000000E+00 0. -1.
         -2   -1    0    0    0  501 -0.00000000000E+00 -0.00000000000E+00 -0.56116753262E+02  0.56116753262E+02  0.00000000000E+00 0.  1.
         23    2    1    2    0    0  0.73613750336E+02 -0.10122873301E+03  0.78042562967E+03  0.79549549574E+03  0.89903724530E+02 0.  0.
        254    2    1    2    0    0 -0.73613750336E+02  0.10122873301E+03  0.34674149562E+04  0.35645785967E+04  0.81706049505E+03 0.  0.
        -24    2    4    4    0    0  0.24136023234E+03  0.84642815661E+02  0.41164420345E+03  0.49155323992E+03  0.82185579252E+02 0.  0.
         24    2    4    4    0    0 -0.31497398267E+03  0.16585917347E+02  0.30557707528E+04  0.30730253568E+04  0.79159632129E+02 0.  0.
         11    1    3    3    0    0  0.40184270306E+02 -0.94368034730E+02  0.70848705097E+03  0.71587289581E+03  0.00000000000E+00 0. -1.
        -11    1    3    3    0    0  0.33429480030E+02 -0.68606982773E+01  0.71938578696E+02  0.79622599937E+02  0.00000000000E+00 0.  1.
          2    1    6    6  502    0 -0.17387330627E+02 -0.11846381169E+02  0.38538462201E+03  0.38595849893E+03  0.00000000000E+00 0. -1.
          3    1    5    5  503    0  0.14698229115E+02  0.30624032121E+02  0.35887776881E+02  0.49414591083E+02  0.00000000000E+00 0. -1.
         -4    1    5    5    0  503  0.22666200322E+03  0.54018783540E+02  0.37575642657E+03  0.44213864883E+03  0.00000000000E+00 0.  1.
         -1    1    6    6    0  502 -0.29758665205E+03  0.28432298516E+02  0.26703861308E+04  0.26870668578E+04  0.00000000000E+00 0.  1.
<mgrwt>
<rscale>  0 0.98290205E+03</rscale>
<asrwt>0</asrwt>
<pdfrwt beam="1">  1        2 0.66214702E+00 0.98290205E+03</pdfrwt>
<pdfrwt beam="2">  1       -2 0.86333500E-02 0.98290205E+03</pdfrwt>
<totfact> 0.17627103E+01</totfact>
</mgrwt>
</event>
<event>
12    1  0.1495204E-007  0.1812050E+04  0.7818608E-02  0.8699918E-01
          2   -1    0    0  501    0  0.00000000000E+00  0.00000000000E+00  0.13203921532E+04  0.13203921532E+04  0.00000000000E+00 0. -1.
         -2   -1    0    0    0  501 -0.00000000000E+00 -0.00000000000E+00 -0.62169484102E+03  0.62169484102E+03  0.00000000000E+00 0.  1.
         23    2    1    2    0    0 -0.14066045990E+01 -0.66686650113E+03  0.13540224218E+03  0.68663565058E+03  0.91770586804E+02 0.  0.
        254    2    1    2    0    0  0.14066045990E+01  0.66686650113E+03  0.56329507002E+03  0.12554513437E+04  0.90229919181E+03 0.  0.
        -24    2    4    4    0    0 -0.31434609449E+03  0.12947865397E+02 -0.13068357263E+02  0.32503203148E+03  0.80584894298E+02 0.  0.
         24    2    4    4    0    0  0.31575269909E+03  0.65391863573E+03  0.57636342728E+03  0.93041931218E+03  0.78587193861E+02 0.  0.
         13    1    3    3    0    0 -0.24761031160E+02 -0.35949536315E+03  0.11262888714E+03  0.37753846296E+03  0.00000000000E+00 0.  1.
        -13    1    3    3    0    0  0.23354426561E+02 -0.30737113798E+03  0.22773355041E+02  0.30909718763E+03  0.00000000000E+00 0. -1.
          4    1    6    6  502    0  0.25839657263E+03  0.59230351827E+03  0.50856394780E+03  0.82233176729E+03  0.00000000000E+00 0. -1.
          1    1    5    5  503    0 -0.23178313204E+03 -0.88152628349E+00 -0.43742035128E+02  0.23587616036E+03  0.00000000000E+00 0. -1.
         -2    1    5    5    0  503 -0.82562962443E+02  0.13829391681E+02  0.30673677864E+02  0.89155871121E+02  0.00000000000E+00 0.  1.
         -3    1    6    6    0  502  0.57356126459E+02  0.61615117465E+02  0.67799479478E+02  0.10808754489E+03  0.00000000000E+00 0.  1.
<mgrwt>
<rscale>  0 0.18120497E+04</rscale>
<asrwt>0</asrwt>
<pdfrwt beam="1">  1        2 0.20313725E+00 0.18120497E+04</pdfrwt>
<pdfrwt beam="2">  1       -2 0.95645360E-01 0.18120497E+04</pdfrwt>
<totfact> 0.13919092E+01</totfact>
</mgrwt>
</event>
<event>
12    1  0.1495204E-007  0.1953848E+04  0.7818608E-02  0.8628508E-01
         -2   -1    0    0    0  501 -0.00000000000E+00  0.00000000000E+00  0.55571654116E+03  0.55571654116E+03  0.00000000000E+00 0.  1.
          2   -1    0    0  501    0  0.00000000000E+00 -0.00000000000E+00 -0.17173865029E+04  0.17173865029E+04  0.00000000000E+00 0. -1.
         23    2    1    2    0    0  0.69389201078E+03  0.28279838989E+03 -0.27097311940E+03  0.80194100816E+03  0.90674677764E+02 0.  0.
        254    2    1    2    0    0 -0.69389201078E+03 -0.28279838989E+03 -0.89069684237E+03  0.14711620359E+04  0.89973097036E+03 0.  0.
        -24    2    4    4    0    0 -0.63808776976E+03 -0.56663493931E+03 -0.55903186338E+03  0.10232514326E+04  0.79345533043E+02 0.  0.
         24    2    4    4    0    0 -0.55804241027E+02  0.28383654942E+03 -0.33166497899E+03  0.44791060337E+03  0.83336367930E+02 0.  0.
         11    1    3    3    0    0  0.18993138473E+03  0.10440768882E+03 -0.11334087251E+03  0.24458342089E+03  0.00000000000E+00 0. -1.
        -11    1    3    3    0    0  0.50396062605E+03  0.17839070106E+03 -0.15763224689E+03  0.55735758728E+03  0.00000000000E+00 0.  1.
          2    1    6    6  502    0  0.13302130878E+02  0.26351268994E+02 -0.12517778917E+02  0.32062920212E+02  0.00000000000E+00 0. -1.
          3    1    5    5  503    0 -0.16460307467E+03 -0.18908152711E+03 -0.14415816179E+03  0.28918432132E+03  0.00000000000E+00 0. -1.
         -4    1    5    5    0  503 -0.47348469509E+03 -0.37755341220E+03 -0.41487370159E+03  0.73406711125E+03  0.00000000000E+00 0.  1.
         -3    1    6    6    0  502 -0.69106371904E+02  0.25748528043E+03 -0.31914720007E+03  0.41584768316E+03  0.00000000000E+00 0.  1.
<mgrwt>
<rscale>  0 0.19538476E+04</rscale>
<asrwt>0</asrwt>
<pdfrwt beam="1">  1        2 0.26421331E+00 0.19538476E+04</pdfrwt>
<pdfrwt beam="2">  1       -2 0.85494852E-01 0.19538476E+04</pdfrwt>
<totfact> 0.10634185E+01</totfact>
</mgrwt>
</event>
<event>
12    1  0.1495204E-007  0.1726492E+04  0.7818608E-02  0.8746398E-01
          2   -1    0    0  501    0  0.00000000000E+00  0.00000000000E+00  0.32106271400E+04  0.32106271400E+04  0.00000000000E+00 0. -1.
         -2   -1    0    0    0  501 -0.00000000000E+00 -0.00000000000E+00 -0.23210218919E+03  0.23210218919E+03  0.00000000000E+00 0.  1.
         23    2    1    2    0    0  0.12989582482E+03  0.45850642436E+03  0.18993613571E+04  0.19605278451E+04  0.94840920377E+02 0.  0.
        254    2    1    2    0    0 -0.12989582482E+03 -0.45850642436E+03  0.10791635937E+04  0.14822014841E+04  0.89734392005E+03 0.  0.
        -24    2    4    4    0    0  0.18119911300E+03 -0.64739113625E+02 -0.75704249333E+02  0.22049690259E+03  0.76573358950E+02 0.  0.
         24    2    4    4    0    0 -0.31109493782E+03 -0.39376731074E+03  0.11548678430E+04  0.12617045815E+04  0.79661538053E+02 0.  0.
         13    1    3    3    0    0  0.62378152084E+02  0.18619879963E+03  0.60349042625E+03  0.63463510888E+03  0.00000000000E+00 0.  1.
        -13    1    3    3    0    0  0.67517672736E+02  0.27230762473E+03  0.12958709308E+04  0.13258927362E+04  0.00000000000E+00 0. -1.
          2    1    6    6  502    0  0.95044169616E+00 -0.22015585258E+02  0.65426192886E+02  0.69037497414E+02  0.00000000000E+00 0. -1.
          1    1    5    5  503    0  0.25501382661E+02 -0.38047109788E+02 -0.34211575597E+02  0.57169353553E+02  0.00000000000E+00 0. -1.
         -2    1    5    5    0  503  0.15569773034E+03 -0.26692003838E+02 -0.41492673736E+02  0.16332754904E+03  0.00000000000E+00 0.  1.
         -1    1    6    6    0  502 -0.31204537952E+03 -0.37175172548E+03  0.10894416502E+04  0.11926670841E+04  0.00000000000E+00 0.  1.
<mgrwt>
<rscale>  0 0.17264919E+04</rscale>
<asrwt>0</asrwt>
<pdfrwt beam="1">  1        2 0.49394260E+00 0.17264919E+04</pdfrwt>
<pdfrwt beam="2">  1       -2 0.35708031E-01 0.17264919E+04</pdfrwt>
<totfact> 0.89909801E+00</totfact>
</mgrwt>
</event>
<event>
12    1  0.1495204E-007  0.2176139E+04  0.7818608E-02  0.8528426E-01
         -2   -1    0    0    0  501 -0.00000000000E+00  0.00000000000E+00  0.10172653099E+04  0.10172653099E+04  0.00000000000E+00 0.  1.
          2   -1    0    0  501    0  0.00000000000E+00 -0.00000000000E+00 -0.11638014112E+04  0.11638014112E+04  0.00000000000E+00 0. -1.
         23    2    1    2    0    0  0.33819244247E+03  0.41237211549E+03 -0.78620297078E+03  0.95426653828E+03  0.89914542999E+02 0.  0.
        254    2    1    2    0    0 -0.33819244247E+03 -0.41237211549E+03  0.63966686942E+03  0.12268001829E+04  0.90079969751E+03 0.  0.
        -24    2    4    4    0    0 -0.27113663530E+03  0.18941058220E+03  0.49230052568E+03  0.59848336757E+03  0.80194077162E+02 0.  0.
         24    2    4    4    0    0 -0.67055807161E+02 -0.60178269769E+03  0.14736634374E+03  0.62831681528E+03  0.80164110351E+02 0.  0.
         11    1    3    3    0    0  0.30624508821E+03  0.32069579982E+03 -0.65741344097E+03  0.79298441501E+03  0.00000000000E+00 0. -1.
        -11    1    3    3    0    0  0.31947354252E+02  0.91676315669E+02 -0.12878952981E+03  0.16128212327E+03  0.00000000000E+00 0.  1.
          4    1    6    6  502    0 -0.31983072547E+02 -0.18514297840E+03  0.82506377883E+02  0.20520268461E+03  0.00000000000E+00 0. -1.
          3    1    5    5  503    0 -0.44882597752E+02  0.19541490380E+02  0.33001682764E+02  0.59037517669E+02  0.00000000000E+00 0. -1.
         -4    1    5    5    0  503 -0.22625403755E+03  0.16986909182E+03  0.45929884292E+03  0.53944584990E+03  0.00000000000E+00 0.  1.
         -3    1    6    6    0  502 -0.35072734614E+02 -0.41663971929E+03  0.64859965853E+02  0.42311413068E+03  0.00000000000E+00 0.  1.
<mgrwt>
<rscale>  0 0.21761386E+04</rscale>
<asrwt>0</asrwt>
<pdfrwt beam="1">  1        2 0.17904637E+00 0.21761386E+04</pdfrwt>
<pdfrwt beam="2">  1       -2 0.15650236E+00 0.21761386E+04</pdfrwt>
<totfact> 0.48785113E+00</totfact>
</mgrwt>
</event>
<event>
12    1  0.1495204E-007  0.3504415E+04  0.7818608E-02  0.8112744E-01
         -2   -1    0    0    0  501 -0.00000000000E+00  0.00000000000E+00  0.20251604497E+04  0.20251604497E+04  0.00000000000E+00 0.  1.
          2   -1    0    0  501    0  0.00000000000E+00 -0.00000000000E+00 -0.15160432884E+04  0.15160432884E+04  0.00000000000E+00 0. -1.
         23    2    1    2    0    0 -0.41214520255E+02  0.10574832968E+04  0.14950135966E+04  0.18339854922E+04  0.92019410078E+02 0.  0.
        254    2    1    2    0    0  0.41214520255E+02 -0.10574832968E+04 -0.98589643528E+03  0.17072182459E+04  0.90699106852E+03 0.  0.
        -24    2    4    4    0    0  0.42311190946E+03 -0.25555553499E+03 -0.33082755729E+03  0.60037396573E+03  0.81668272111E+02 0.  0.
         24    2    4    4    0    0 -0.38189738921E+03 -0.80192776178E+03 -0.65506887799E+03  0.11068442802E+04  0.83995682125E+02 0.  0.
         13    1    3    3    0    0 -0.18539253833E+02  0.63877557935E+03  0.82461410501E+03  0.10432479892E+04  0.00000000000E+00 0. -1.
        -13    1    3    3    0    0 -0.22675266422E+02  0.41870771742E+03  0.67039949161E+03  0.79073750302E+03  0.00000000000E+00 0.  1.
          2    1    6    6  502    0 -0.38247169474E+03 -0.77837534666E+03 -0.62688831406E+03  0.10701129547E+04  0.00000000000E+00 0. -1.
          1    1    5    5  503    0  0.32659286394E+03 -0.21798935484E+03 -0.22620642594E+03  0.45315737304E+03  0.00000000000E+00 0. -1.
         -2    1    5    5    0  503  0.96519045523E+02 -0.37566180153E+02 -0.10462113135E+03  0.14721659269E+03  0.00000000000E+00 0.  1.
         -1    1    6    6    0  502  0.57430553487E+00 -0.23552415124E+02 -0.28180563926E+02  0.36731325435E+02  0.00000000000E+00 0.  1.
<mgrwt>
<rscale>  0 0.35044149E+04</rscale>
<asrwt>0</asrwt>
<pdfrwt beam="1">  1        2 0.23323743E+00 0.35044149E+04</pdfrwt>
<pdfrwt beam="2">  1       -2 0.31156315E+00 0.35044149E+04</pdfrwt>
<totfact> 0.27557801E-01</totfact>
</mgrwt>
</event>
<event>
12    1  0.1827895E-007  0.2277110E+04  0.7818608E-02  0.8487001E-01
          2   -1    0    0  501    0  0.00000000000E+00  0.00000000000E+00  0.15295270629E+04  0.15295270629E+04  0.00000000000E+00 0.  1.
         -2   -1    0    0    0  501 -0.00000000000E+00 -0.00000000000E+00 -0.84752182818E+03  0.84752182818E+03  0.00000000000E+00 0. -1.
         23    2    1    2    0    0 -0.56365500702E+03 -0.17107309927E+03  0.10739702932E+04  0.12282499524E+04  0.90624404699E+02 0.  0.
        254    2    1    2    0    0  0.56365500702E+03  0.17107309927E+03 -0.39196505846E+03  0.11487989387E+04  0.90505768998E+03 0.  0.
        -24    2    4    4    0    0 -0.21196409905E+03 -0.11942411272E+02 -0.24617454986E+03  0.33474190161E+03  0.79867585580E+02 0.  0.
         24    2    4    4    0    0  0.77561910606E+03  0.18301551054E+03 -0.14579050861E+03  0.81405703705E+03  0.79713940941E+02 0.  0.
         13    1    3    3    0    0 -0.58182708726E+02 -0.43628110607E+02  0.16691527682E+03  0.18206962752E+03  0.00000000000E+00 0. -1.
        -13    1    3    3    0    0 -0.50547229829E+03 -0.12744498866E+03  0.90705501635E+03  0.10461803249E+04  0.00000000000E+00 0.  1.
          4    1    6    6  502    0  0.76731195633E+03  0.18345324132E+03 -0.15228832388E+03  0.80350137751E+03  0.00000000000E+00 0. -1.
          3    1    5    5  503    0 -0.20133400650E+03 -0.32006192292E+02 -0.22608657990E+03  0.30442555762E+03  0.00000000000E+00 0. -1.
         -4    1    5    5    0  503 -0.10630092547E+02  0.20063781020E+02 -0.20087969953E+02  0.30316343995E+02  0.00000000000E+00 0.  1.
         -3    1    6    6    0  502  0.83071497359E+01 -0.43773078108E+00  0.64978152705E+01  0.10555659537E+02  0.00000000000E+00 0.  1.
<mgrwt>
<rscale>  0 0.22771101E+04</rscale>
<asrwt>0</asrwt>
<pdfrwt beam="1">  1        2 0.23531186E+00 0.22771101E+04</pdfrwt>
<pdfrwt beam="2">  1       -2 0.13038797E+00 0.22771101E+04</pdfrwt>
<totfact> 0.47835071E+00</totfact>
</mgrwt>
</event>
<event>
12    1  0.1495204E-007  0.1664850E+04  0.7818608E-02  0.8781670E-01
         -2   -1    0    0    0  501 -0.00000000000E+00  0.00000000000E+00  0.64403192113E+03  0.64403192113E+03  0.00000000000E+00 0.  1.
          2   -1    0    0  501    0  0.00000000000E+00 -0.00000000000E+00 -0.10759266209E+04  0.10759266209E+04  0.00000000000E+00 0. -1.
         23    2    1    2    0    0  0.57480479455E+02  0.20516141647E+03 -0.71783960976E+03  0.75438831286E+03  0.91721365645E+02 0.  0.
        254    2    1    2    0    0 -0.57480479455E+02 -0.20516141647E+03  0.28594490996E+03  0.96557022920E+03  0.89731051686E+03 0.  0.
        -24    2    4    4    0    0  0.26729276459E+02 -0.44242692064E+03 -0.13347460119E+03  0.46984331800E+03  0.80506148665E+02 0.  0.
         24    2    4    4    0    0 -0.84209755915E+02  0.23726550418E+03  0.41941951115E+03  0.49572691121E+03  0.80288490416E+02 0.  0.
         11    1    3    3    0    0  0.41317952548E+02  0.78390145145E+02 -0.16850495869E+03  0.19038410953E+03  0.00000000000E+00 0.  1.
        -11    1    3    3    0    0  0.16162526907E+02  0.12677127132E+03 -0.54933465107E+03  0.56400420333E+03  0.00000000000E+00 0. -1.
          2    1    6    6  502    0 -0.30186538761E+02  0.17079830367E+03  0.23204488856E+03  0.28970350009E+03  0.00000000000E+00 0. -1.
          1    1    5    5  503    0 -0.20856937010E+02 -0.44457127454E+02 -0.72903413034E+01  0.49644708471E+02  0.00000000000E+00 0. -1.
         -2    1    5    5    0  503  0.47586213469E+02 -0.39796979319E+03 -0.12618425989E+03  0.42019860952E+03  0.00000000000E+00 0.  1.
         -1    1    6    6    0  502 -0.54023217154E+02  0.66467200510E+02  0.18737462259E+03  0.20602341112E+03  0.00000000000E+00 0.  1.
<mgrwt>
<rscale>  0 0.16648496E+04</rscale>
<asrwt>0</asrwt>
<pdfrwt beam="1">  1        2 0.16552717E+00 0.16648496E+04</pdfrwt>
<pdfrwt beam="2">  1       -2 0.99081836E-01 0.16648496E+04</pdfrwt>
<totfact> 0.18167324E+01</totfact>
</mgrwt>
</event>
<event>
12    1  0.1495204E-007  0.3203469E+04  0.7818608E-02  0.8187902E-01
         -2   -1    0    0    0  501 -0.00000000000E+00  0.00000000000E+00  0.27349734265E+04  0.27349734265E+04  0.00000000000E+00 0.  1.
          2   -1    0    0  501    0  0.00000000000E+00 -0.00000000000E+00 -0.93805402706E+03  0.93805402706E+03  0.00000000000E+00 0. -1.
         23    2    1    2    0    0  0.45774502557E+03 -0.35567833880E+03  0.23836274872E+04  0.24547135443E+04  0.88887555936E+02 0.  0.
        254    2    1    2    0    0 -0.45774502557E+03  0.35567833880E+03 -0.58670808776E+03  0.12183139093E+04  0.89667430664E+03 0.  0.
        -24    2    4    4    0    0 -0.27551397639E+03  0.34908017407E+02  0.19579651095E+03  0.34999537897E+03  0.83868770902E+02 0.  0.
         24    2    4    4    0    0 -0.18223104918E+03  0.32077032140E+03 -0.78250459872E+03  0.86831853032E+03  0.74577937162E+02 0.  0.
         11    1    3    3    0    0  0.30084122376E+03 -0.18168337036E+03  0.13698558853E+04  0.14142204338E+04  0.00000000000E+00 0.  1.
        -11    1    3    3    0    0  0.15690380181E+03 -0.17399496844E+03  0.10137716019E+04  0.10404931105E+04  0.00000000000E+00 0. -1.
          2    1    6    6  502    0 -0.60375486479E+02  0.48776662631E+02 -0.14075566980E+03  0.16073742802E+03  0.00000000000E+00 0. -1.
          1    1    5    5  503    0 -0.16959081518E+02 -0.19489107356E+02  0.15540478530E+02  0.30148668700E+02  0.00000000000E+00 0. -1.
         -2    1    5    5    0  503 -0.25855489487E+03  0.54397124763E+02  0.18025603242E+03  0.31984671027E+03  0.00000000000E+00 0.  1.
         -1    1    6    6    0  502 -0.12185556270E+03  0.27199365877E+03 -0.64174892892E+03  0.70758110230E+03  0.00000000000E+00 0.  1.
<mgrwt>
<rscale>  0 0.32034686E+04</rscale>
<asrwt>0</asrwt>
<pdfrwt beam="1">  1        2 0.14431601E+00 0.32034686E+04</pdfrwt>
<pdfrwt beam="2">  1       -2 0.42076514E+00 0.32034686E+04</pdfrwt>
<totfact> 0.12599901E-01</totfact>
</mgrwt>
</event>
<event>
12    1  0.1495204E-007  0.1818572E+04  0.7818608E-02  0.8696485E-01
         -2   -1    0    0    0  501 -0.00000000000E+00  0.00000000000E+00  0.11263452721E+04  0.11263452721E+04  0.00000000000E+00 0.  1.
          2   -1    0    0  501    0  0.00000000000E+00 -0.00000000000E+00 -0.73405611623E+03  0.73405611623E+03  0.00000000000E+00 0. -1.
         23    2    1    2    0    0  0.40048186463E+03  0.30816604056E+03  0.65541805310E+03  0.83232122304E+03  0.88508539332E+02 0.  0.
        254    2    1    2    0    0 -0.40048186463E+03 -0.30816604056E+03 -0.26312889725E+03  0.10280801653E+04  0.85578033232E+03 0.  0.
        -24    2    4    4    0    0  0.12966761500E+03 -0.41899423918E+03 -0.13098281149E+03  0.46469877535E+03  0.80116116118E+02 0.  0.
         24    2    4    4    0    0 -0.53014947963E+03  0.11082819861E+03 -0.13214608576E+03  0.56338138991E+03  0.81207402072E+02 0.  0.
         13    1    3    3    0    0  0.24993228728E+03  0.16735569226E+03  0.45028731323E+03  0.54150968635E+03  0.00000000000E+00 0.  1.
        -13    1    3    3    0    0  0.15054957735E+03  0.14081034831E+03  0.20513073987E+03  0.29081153668E+03  0.00000000000E+00 0. -1.
          2    1    6    6  502    0 -0.52600309277E+03  0.11429204456E+03 -0.13772318800E+03  0.55561641586E+03  0.00000000000E+00 0. -1.
          1    1    5    5  503    0  0.87514254033E+02 -0.34904308858E+03 -0.80682281581E+02  0.36878103653E+03  0.00000000000E+00 0. -1.
         -2    1    5    5    0  503  0.42153360970E+02 -0.69951150596E+02 -0.50300529906E+02  0.95917738816E+02  0.00000000000E+00 0.  1.
         -1    1    6    6    0  502 -0.41463868607E+01 -0.34638459481E+01  0.55771022330E+01  0.77649740546E+01  0.00000000000E+00 0.  1.
<mgrwt>
<rscale>  0 0.18185716E+04</rscale>
<asrwt>0</asrwt>
<pdfrwt beam="1">  1        2 0.11293171E+00 0.18185716E+04</pdfrwt>
<pdfrwt beam="2">  1       -2 0.17328389E+00 0.18185716E+04</pdfrwt>
<totfact> 0.73383221E+00</totfact>
</mgrwt>
</event>
<event>
12    1  0.1495204E-007  0.1924882E+04  0.7818608E-02  0.8642569E-01
          1   -1    0    0  501    0  0.00000000000E+00  0.00000000000E+00  0.53795001886E+03  0.53795001886E+03  0.00000000000E+00 0. -1.
         -1   -1    0    0    0  501 -0.00000000000E+00 -0.00000000000E+00 -0.17218935339E+04  0.17218935339E+04  0.00000000000E+00 0.  1.
         23    2    1    2    0    0 -0.11491102186E+03  0.86699291244E+02 -0.13302083766E+04  0.13410167124E+04  0.90278390916E+02 0.  0.
        254    2    1    2    0    0  0.11491102186E+03 -0.86699291244E+02  0.14626486158E+03  0.91882684029E+03  0.89561601296E+03 0.  0.
        -24    2    4    4    0    0 -0.93211029676E+02 -0.43737767524E+03 -0.54128558254E+02  0.45743403495E+03  0.79551672882E+02 0.  0.
         24    2    4    4    0    0  0.20812205153E+03  0.35067838400E+03  0.20039341983E+03  0.46139280534E+03  0.80222694872E+02 0.  0.
         11    1    3    3    0    0  0.10495961550E+02 -0.75640268815E+01 -0.11387824639E+03  0.11461079667E+03  0.00000000000E+00 0. -1.
        -11    1    3    3    0    0 -0.12540698341E+03  0.94263318125E+02 -0.12163301302E+04  0.12264059158E+04  0.00000000000E+00 0.  1.
          2    1    6    6  502    0  0.16265228050E+03  0.27427146807E+03  0.19168732648E+03  0.37205461115E+03  0.00000000000E+00 0. -1.
          3    1    5    5  503    0 -0.29544665199E+02 -0.13752855680E+03  0.19956254724E+02  0.14207478059E+03  0.00000000000E+00 0. -1.
         -4    1    5    5    0  503 -0.63666364477E+02 -0.29984911844E+03 -0.74084812978E+02  0.31535925436E+03  0.00000000000E+00 0.  1.
         -3    1    6    6    0  502  0.45469771031E+02  0.76406915930E+02  0.87060933553E+01  0.89338194189E+02  0.00000000000E+00 0.  1.
<mgrwt>
<rscale>  0 0.19248820E+04</rscale>
<asrwt>0</asrwt>
<pdfrwt beam="1">  1        1 0.82761539E-01 0.19248820E+04</pdfrwt>
<pdfrwt beam="2">  1       -1 0.26490670E+00 0.19248820E+04</pdfrwt>
<totfact> 0.20838595E+00</totfact>
</mgrwt>
</event>
<event>
12    1  0.1495204E-007  0.1847393E+04  0.7818608E-02  0.8681494E-01
          1   -1    0    0  501    0  0.00000000000E+00  0.00000000000E+00  0.18900874809E+04  0.18900874809E+04  0.00000000000E+00 0. -1.
         -1   -1    0    0    0  501 -0.00000000000E+00 -0.00000000000E+00 -0.45141588863E+03  0.45141588863E+03  0.00000000000E+00 0.  1.
         23    2    1    2    0    0 -0.13349219011E+03  0.48998911773E+02  0.14142279767E+04  0.14242957940E+04  0.91414881776E+02 0.  0.
        254    2    1    2    0    0  0.13349219011E+03 -0.48998911773E+02  0.24443615567E+02  0.91720757551E+03  0.90578760648E+03 0.  0.
        -24    2    4    4    0    0  0.29977506253E+03  0.18146614572E+03 -0.30692347647E+03  0.47261701552E+03  0.79810856336E+02 0.  0.
         24    2    4    4    0    0 -0.16628287243E+03 -0.23046505750E+03  0.33136709204E+03  0.44459055999E+03  0.84216862662E+02 0.  0.
         11    1    3    3    0    0 -0.10759980892E+03  0.61448699685E+02  0.81364471813E+03  0.82302575228E+03  0.00000000000E+00 0. -1.
        -11    1    3    3    0    0 -0.25892381188E+02 -0.12449787912E+02  0.60058325855E+03  0.60127004173E+03  0.00000000000E+00 0.  1.
          2    1    6    6  502    0 -0.32902061531E+02 -0.47780897115E+02  0.12751530361E+03  0.14009180003E+03  0.00000000000E+00 0. -1.
          3    1    5    5  503    0  0.56345313173E+01  0.62780662831E+01 -0.33290086304E+02  0.34342275777E+02  0.00000000000E+00 0. -1.
         -4    1    5    5    0  503  0.29414053122E+03  0.17518807944E+03 -0.27363339017E+03  0.43827473974E+03  0.00000000000E+00 0.  1.
         -1    1    6    6    0  502 -0.13338081090E+03 -0.18268416038E+03  0.20385178843E+03  0.30449875996E+03  0.00000000000E+00 0.  1.
<mgrwt>
<rscale>  0 0.18473933E+04</rscale>
<asrwt>0</asrwt>
<pdfrwt beam="1">  1        1 0.29078268E+00 0.18473933E+04</pdfrwt>
<pdfrwt beam="2">  1       -1 0.69448599E-01 0.18473933E+04</pdfrwt>
<totfact> 0.69734925E+00</totfact>
</mgrwt>
</event>
<event>
12    1  0.1495204E-007  0.2565381E+04  0.7818608E-02  0.8380057E-01
         -2   -1    0    0    0  501 -0.00000000000E+00  0.00000000000E+00  0.57833650906E+03  0.57833650906E+03  0.00000000000E+00 0.  1.
          2   -1    0    0  501    0  0.00000000000E+00 -0.00000000000E+00 -0.28448737056E+04  0.28448737056E+04  0.00000000000E+00 0. -1.
         23    2    1    2    0    0  0.16962177428E+03  0.24857038957E+03 -0.24452132422E+04  0.24653167038E+04  0.90331974603E+02 0.  0.
        254    2    1    2    0    0 -0.16962177428E+03 -0.24857038957E+03  0.17867604563E+03  0.95789351082E+03  0.89167037851E+03 0.  0.
        -24    2    4    4    0    0 -0.19675274882E+03  0.18337145524E+03  0.38155725549E+03  0.47353609582E+03  0.79459172298E+02 0.  0.
         24    2    4    4    0    0  0.27130974540E+02 -0.43194184481E+03 -0.20288120986E+03  0.48435741500E+03  0.78303723205E+02 0.  0.
         11    1    3    3    0    0  0.67721301128E+01  0.76518296215E+02 -0.65906586791E+03  0.66352748974E+03  0.00000000000E+00 0.  1.
        -11    1    3    3    0    0  0.16284964417E+03  0.17205209336E+03 -0.17861473742E+04  0.18017892141E+04  0.00000000000E+00 0. -1.
          2    1    6    6  502    0  0.43717006112E+02 -0.20197306446E+03 -0.12222924367E+03  0.24009223936E+03  0.00000000000E+00 0. -1.
          1    1    5    5  503    0 -0.18290038569E+03  0.17506795660E+03  0.38090452241E+03  0.45737249120E+03  0.00000000000E+00 0. -1.
         -2    1    5    5    0  503 -0.13852363131E+02  0.83034986444E+01  0.65273308513E+00  0.16163604627E+02  0.00000000000E+00 0.  1.
         -1    1    6    6    0  502 -0.16586031572E+02 -0.22996878035E+03 -0.80651966188E+02  0.24426517564E+03  0.00000000000E+00 0.  1.
<mgrwt>
<rscale>  0 0.25653805E+04</rscale>
<asrwt>0</asrwt>
<pdfrwt beam="1">  1        2 0.43767288E+00 0.25653805E+04</pdfrwt>
<pdfrwt beam="2">  1       -2 0.88974847E-01 0.25653805E+04</pdfrwt>
<totfact> 0.20901332E+00</totfact>
</mgrwt>
</event>
<event>
12    1  0.1495204E-007  0.2881721E+04  0.7818608E-02  0.8278337E-01
          2   -1    0    0  501    0  0.00000000000E+00  0.00000000000E+00  0.17404922273E+04  0.17404922273E+04  0.00000000000E+00 0.  1.
         -2   -1    0    0    0  501 -0.00000000000E+00 -0.00000000000E+00 -0.11928115028E+04  0.11928115028E+04  0.00000000000E+00 0. -1.
         23    2    1    2    0    0  0.19817172701E+03 -0.38066352777E+03 -0.99891932379E+03  0.10909940006E+04  0.90836882567E+02 0.  0.
        254    2    1    2    0    0 -0.19817172701E+03  0.38066352777E+03  0.15466000483E+04  0.18423097294E+04  0.90440957266E+03 0.  0.
        -24    2    4    4    0    0 -0.11563949808E+03  0.55411712862E+03  0.15303761796E+04  0.16336281961E+04  0.79193094655E+02 0.  0.
         24    2    4    4    0    0 -0.82532228923E+02 -0.17345360086E+03  0.16223868676E+02  0.20868153335E+03  0.79919008897E+02 0.  0.
         13    1    3    3    0    0  0.51432411957E+02 -0.18122213269E+03 -0.49208900566E+03  0.52691398147E+03  0.00000000000E+00 0. -1.
        -13    1    3    3    0    0  0.14673931505E+03 -0.19944139508E+03 -0.50683031812E+03  0.56408001917E+03  0.00000000000E+00 0.  1.
          2    1    6    6  502    0 -0.94222609601E+02 -0.15531988444E+03  0.28455588304E+02  0.18388008910E+03  0.00000000000E+00 0. -1.
          3    1    5    5  503    0 -0.99214482274E+02  0.32617035734E+03  0.98374808823E+03  0.10411488446E+04  0.00000000000E+00 0. -1.
         -4    1    5    5    0  503 -0.16425015809E+02  0.22794677128E+03  0.54662809138E+03  0.59247935151E+03  0.00000000000E+00 0.  1.
         -1    1    6    6    0  502  0.11690380678E+02 -0.18133716423E+02 -0.12231719628E+02  0.24801444248E+02  0.00000000000E+00 0.  1.
<mgrwt>
<rscale>  0 0.28817211E+04</rscale>
<asrwt>0</asrwt>
<pdfrwt beam="1">  1        2 0.26776803E+00 0.28817211E+04</pdfrwt>
<pdfrwt beam="2">  1       -2 0.18350946E+00 0.28817211E+04</pdfrwt>
<totfact> 0.13806530E+00</totfact>
</mgrwt>
</event>
<event>
12    1  0.1495204E-007  0.1129513E+04  0.7818608E-02  0.9176894E-01
          1   -1    0    0  501    0  0.00000000000E+00  0.00000000000E+00  0.27272484820E+04  0.27272484820E+04  0.00000000000E+00 0. -1.
         -1   -1    0    0    0  501 -0.00000000000E+00 -0.00000000000E+00 -0.11694934617E+03  0.11694934617E+03  0.00000000000E+00 0.  1.
         23    2    1    2    0    0 -0.10917796305E+03 -0.95451423707E+02  0.78345902056E+03  0.80213234216E+03  0.92614553562E+02 0.  0.
        254    2    1    2    0    0  0.10917796305E+03  0.95451423707E+02  0.18268401153E+04  0.20420654861E+04  0.90091944176E+03 0.  0.
        -24    2    4    4    0    0  0.11831302726E+03 -0.18925439739E+03  0.53062646117E+02  0.24380966702E+03  0.82536718917E+02 0.  0.
         24    2    4    4    0    0 -0.91350642056E+01  0.28470582110E+03  0.17737774692E+04  0.17982558190E+04  0.79351285554E+02 0.  0.
         13    1    3    3    0    0 -0.43144894133E+02 -0.34176651209E+02  0.11347534635E+03  0.12611970348E+03  0.00000000000E+00 0.  1.
        -13    1    3    3    0    0 -0.66033068918E+02 -0.61274772498E+02  0.66998367421E+03  0.67601263868E+03  0.00000000000E+00 0. -1.
          2    1    6    6  502    0 -0.16035766801E+02  0.27375033404E+03  0.17483225896E+04  0.17696972251E+04  0.00000000000E+00 0. -1.
          3    1    5    5  503    0  0.92130582388E+02 -0.10309103435E+03 -0.19660106552E+01  0.13827389765E+03  0.00000000000E+00 0. -1.
         -4    1    5    5    0  503  0.26182444869E+02 -0.86163363040E+02  0.55028656772E+02  0.10553576937E+03  0.00000000000E+00 0.  1.
         -1    1    6    6    0  502  0.69007025950E+01  0.10955487060E+02  0.25454879621E+02  0.28558593970E+02  0.00000000000E+00 0.  1.
<mgrwt>
<rscale>  0 0.11295130E+04</rscale>
<asrwt>0</asrwt>
<pdfrwt beam="1">  1        1 0.41957664E+00 0.11295130E+04</pdfrwt>
<pdfrwt beam="2">  1       -1 0.17992209E-01 0.11295130E+04</pdfrwt>
<totfact> 0.23041502E+01</totfact>
</mgrwt>
</event>
<event>
12    1  0.1495204E-007  0.1810111E+04  0.7818608E-02  0.8700941E-01
          2   -1    0    0  501    0  0.00000000000E+00  0.00000000000E+00  0.12599457110E+04  0.12599457110E+04  0.00000000000E+00 0. -1.
         -2   -1    0    0    0  501 -0.00000000000E+00 -0.00000000000E+00 -0.65012775789E+03  0.65012775789E+03  0.00000000000E+00 0.  1.
         23    2    1    2    0    0 -0.23032756364E+02  0.38276782014E+03  0.82335096150E+03  0.91280668886E+03  0.90925977729E+02 0.  0.
        254    2    1    2    0    0  0.23032756364E+02 -0.38276782014E+03 -0.21353300836E+03  0.99726678005E+03  0.89549035335E+03 0.  0.
        -24    2    4    4    0    0  0.13399045853E+03  0.23260657523E+03  0.93878962519E+02  0.29570525142E+03  0.81049825990E+02 0.  0.
         24    2    4    4    0    0 -0.11095770217E+03 -0.61537439537E+03 -0.30741197088E+03  0.70156152863E+03  0.81787532467E+02 0.  0.
         13    1    3    3    0    0  0.20441715158E+02  0.22294563300E+03  0.40318164427E+03  0.46117031265E+03  0.00000000000E+00 0.  1.
        -13    1    3    3    0    0 -0.43474471522E+02  0.15982218714E+03  0.42016931723E+03  0.45163637622E+03  0.00000000000E+00 0. -1.
          2    1    6    6  502    0  0.53120303208E+01 -0.35290297717E+02 -0.35871821920E+02  0.50600497892E+02  0.00000000000E+00 0. -1.
          3    1    5    5  503    0  0.59503287065E+01  0.43643894721E+02  0.43598790782E+02  0.61976209273E+02  0.00000000000E+00 0. -1.
         -4    1    5    5    0  503  0.12804012983E+03  0.18896268051E+03  0.50280171737E+02  0.23372904215E+03  0.00000000000E+00 0.  1.
         -1    1    6    6    0  502 -0.11626973249E+03 -0.58008409766E+03 -0.27154014896E+03  0.65096103074E+03  0.00000000000E+00 0.  1.
<mgrwt>
<rscale>  0 0.18101112E+04</rscale>
<asrwt>0</asrwt>
<pdfrwt beam="1">  1        2 0.19383780E+00 0.18101112E+04</pdfrwt>
<pdfrwt beam="2">  1       -2 0.10001966E+00 0.18101112E+04</pdfrwt>
<totfact> 0.13593013E+01</totfact>
</mgrwt>
</event>
<event>
12    1  0.1495204E-007  0.2553590E+04  0.7818608E-02  0.8384139E-01
         -2   -1    0    0    0  501 -0.00000000000E+00  0.00000000000E+00  0.17322154005E+04  0.17322154005E+04  0.00000000000E+00 0.  1.
          2   -1    0    0  501    0  0.00000000000E+00 -0.00000000000E+00 -0.94111018081E+03  0.94111018081E+03  0.00000000000E+00 0. -1.
         23    2    1    2    0    0 -0.87165423147E+03  0.80102656122E+02  0.10695368842E+04  0.13850868763E+04  0.91427422646E+02 0.  0.
        254    2    1    2    0    0  0.87165423147E+03 -0.80102656122E+02 -0.27843166443E+03  0.12882387050E+04  0.90323708662E+03 0.  0.
        -24    2    4    4    0    0  0.90469117883E+03 -0.34081370818E+03 -0.13639284486E+03  0.97957607262E+03  0.79662796828E+02 0.  0.
         24    2    4    4    0    0 -0.33036947356E+02  0.26071105205E+03 -0.14203881956E+03  0.30866263241E+03  0.77691066614E+02 0.  0.
         13    1    3    3    0    0 -0.41228391256E+03  0.69932595228E+02  0.45833220486E+03  0.62043291535E+03  0.00000000000E+00 0. -1.
        -13    1    3    3    0    0 -0.45937031891E+03  0.10170060894E+02  0.61120467929E+03  0.76465396097E+03  0.00000000000E+00 0.  1.
          2    1    6    6  502    0 -0.52837892764E+01  0.20279390704E+03 -0.76239027865E+02  0.21671565825E+03  0.00000000000E+00 0. -1.
          1    1    5    5  503    0  0.60347718856E+03 -0.23349635211E+03 -0.12854604074E+03  0.65971914338E+03  0.00000000000E+00 0. -1.
         -2    1    5    5    0  503  0.30121399027E+03 -0.10731735607E+03 -0.78468041210E+01  0.31985692924E+03  0.00000000000E+00 0.  1.
         -1    1    6    6    0  502 -0.27753158080E+02  0.57917145016E+02 -0.65799791700E+02  0.91946974165E+02  0.00000000000E+00 0.  1.
<mgrwt>
<rscale>  0 0.25535901E+04</rscale>
<asrwt>0</asrwt>
<pdfrwt beam="1">  1        2 0.14478618E+00 0.25535901E+04</pdfrwt>
<pdfrwt beam="2">  1       -2 0.26649468E+00 0.25535901E+04</pdfrwt>
<totfact> 0.12441619E+00</totfact>
</mgrwt>
</event>
<event>
12    1  0.1495204E-007  0.2295069E+04  0.7818608E-02  0.8479868E-01
         -2   -1    0    0    0  501 -0.00000000000E+00  0.00000000000E+00  0.79681956439E+03  0.79681956439E+03  0.00000000000E+00 0.  1.
          2   -1    0    0  501    0  0.00000000000E+00 -0.00000000000E+00 -0.16526146231E+04  0.16526146231E+04  0.00000000000E+00 0. -1.
         23    2    1    2    0    0 -0.54084498682E+02  0.77187524000E+03 -0.98665065594E+03  0.12573044193E+04  0.92835159144E+02 0.  0.
        254    2    1    2    0    0  0.54084498682E+02 -0.77187524000E+03  0.13085559719E+03  0.11921297682E+04  0.89740385440E+03 0.  0.
        -24    2    4    4    0    0 -0.39319176405E+03 -0.29779202688E+03 -0.71073080170E+02  0.50517778578E+03  0.82905717134E+02 0.  0.
         24    2    4    4    0    0  0.44727626273E+03 -0.47408321312E+03  0.20192867736E+03  0.68695198247E+03  0.79478848205E+02 0.  0.
         11    1    3    3    0    0 -0.36655897028E+02  0.14306920069E+03 -0.14943516868E+03  0.21010311900E+03  0.00000000000E+00 0.  1.
        -11    1    3    3    0    0 -0.17428601654E+02  0.62880603931E+03 -0.83721548726E+03  0.10472013003E+04  0.00000000000E+00 0. -1.
          2    1    6    6  502    0  0.10613042744E+03 -0.13407285588E+03  0.20309338186E+02  0.17219659558E+03  0.00000000000E+00 0. -1.
          3    1    5    5  503    0 -0.13273862725E+03 -0.14117428493E+03 -0.33441246250E+01  0.19380635970E+03  0.00000000000E+00 0. -1.
         -4    1    5    5    0  503 -0.26045313680E+03 -0.15661774195E+03 -0.67728955545E+02  0.31137142608E+03  0.00000000000E+00 0.  1.
         -3    1    6    6    0  502  0.34114583528E+03 -0.34001035724E+03  0.18161933918E+03  0.51475538688E+03  0.00000000000E+00 0.  1.
<mgrwt>
<rscale>  0 0.22950692E+04</rscale>
<asrwt>0</asrwt>
<pdfrwt beam="1">  1        2 0.25424840E+00 0.22950692E+04</pdfrwt>
<pdfrwt beam="2">  1       -2 0.12258763E+00 0.22950692E+04</pdfrwt>
<totfact> 0.47597179E+00</totfact>
</mgrwt>
</event>
<event>
12    1  0.1495204E-007  0.3246681E+04  0.7818608E-02  0.8176597E-01
          2   -1    0    0  501    0  0.00000000000E+00  0.00000000000E+00  0.16112690921E+04  0.16112690921E+04  0.00000000000E+00 0. -1.
         -2   -1    0    0    0  501 -0.00000000000E+00 -0.00000000000E+00 -0.16355021883E+04  0.16355021883E+04  0.00000000000E+00 0.  1.
         23    2    1    2    0    0  0.52896216292E+02 -0.11593277094E+04 -0.95660914415E+03  0.15067040504E+04  0.90649287863E+02 0.  0.
        254    2    1    2    0    0 -0.52896216292E+02  0.11593277094E+04  0.93237604790E+03  0.17400672299E+04  0.90092736802E+03 0.  0.
        -24    2    4    4    0    0 -0.26106336250E+03  0.96775952776E+03  0.10208693080E+04  0.14328469833E+04  0.78509558163E+02 0.  0.
         24    2    4    4    0    0  0.20816714621E+03  0.19156818168E+03 -0.88493260139E+02  0.30722024661E+03  0.80754528338E+02 0.  0.
         11    1    3    3    0    0  0.88537938326E+01 -0.44500201660E+02 -0.60899577013E+02  0.75943505933E+02  0.00000000000E+00 0. -1.
        -11    1    3    3    0    0  0.44042422459E+02 -0.11148275078E+04 -0.89570956713E+03  0.14307605445E+04  0.00000000000E+00 0.  1.
          4    1    6    6  502    0  0.41973196673E+02  0.65107504277E+02  0.66148139939E+01  0.77746331851E+02  0.00000000000E+00 0. -1.
          3    1    5    5  503    0 -0.15664396573E+03  0.69798947995E+03  0.70070872405E+03  0.10013587579E+04  0.00000000000E+00 0. -1.
         -4    1    5    5    0  503 -0.10441939677E+03  0.26977004781E+03  0.32016058399E+03  0.43148822539E+03  0.00000000000E+00 0.  1.
         -3    1    6    6    0  502  0.16619394953E+03  0.12646067740E+03 -0.95108074133E+02  0.22947391476E+03  0.00000000000E+00 0.  1.
<mgrwt>
<rscale>  0 0.32466808E+04</rscale>
<asrwt>0</asrwt>
<pdfrwt beam="1">  1        2 0.24788755E+00 0.32466808E+04</pdfrwt>
<pdfrwt beam="2">  1       -2 0.25161572E+00 0.32466808E+04</pdfrwt>
<totfact> 0.57908861E-01</totfact>
</mgrwt>
</event>
<event>
12    1  0.1495204E-007  0.3313686E+04  0.7818608E-02  0.8159422E-01
         -2   -1    0    0    0  501 -0.00000000000E+00  0.00000000000E+00  0.14617549540E+04  0.14617549540E+04  0.00000000000E+00 0.  1.
          2   -1    0    0  501    0  0.00000000000E+00 -0.00000000000E+00 -0.18779679553E+04  0.18779679553E+04  0.00000000000E+00 0. -1.
         23    2    1    2    0    0 -0.12959295393E+04 -0.63684417738E+03 -0.71128521727E+03  0.16122558951E+04  0.91861492726E+02 0.  0.
        254    2    1    2    0    0  0.12959295393E+04  0.63684417738E+03  0.29507221594E+03  0.17274670142E+04  0.90114970761E+03 0.  0.
        -24    2    4    4    0    0  0.81672398591E+03  0.13207455649E+03 -0.21674336558E+03  0.85975945285E+03  0.87902631428E+02 0.  0.
         24    2    4    4    0    0  0.47920555336E+03  0.50476962088E+03  0.51181558152E+03  0.86770756135E+03  0.80813922074E+02 0.  0.
         13    1    3    3    0    0 -0.12946290310E+04 -0.62985575213E+03 -0.70683974321E+03  0.16038718836E+04  0.00000000000E+00 0. -1.
        -13    1    3    3    0    0 -0.13005083156E+01 -0.69884252491E+01 -0.44454740553E+01  0.83840115051E+01  0.00000000000E+00 0.  1.
          4    1    6    6  502    0  0.19388758902E+02  0.40528321844E+02  0.51996311276E+02  0.68717430318E+02  0.00000000000E+00 0. -1.
          1    1    5    5  503    0  0.32479658400E+03  0.43234265185E+02 -0.12947009510E+03  0.35231311101E+03  0.00000000000E+00 0. -1.
         -2    1    5    5    0  503  0.49192740191E+03  0.88840291306E+02 -0.87273270483E+02  0.50744634184E+03  0.00000000000E+00 0.  1.
         -3    1    6    6    0  502  0.45981679446E+03  0.46424129904E+03  0.45981927024E+03  0.79899013103E+03  0.00000000000E+00 0.  1.
<mgrwt>
<rscale>  0 0.33136861E+04</rscale>
<asrwt>0</asrwt>
<pdfrwt beam="1">  1        2 0.28891815E+00 0.33136861E+04</pdfrwt>
<pdfrwt beam="2">  1       -2 0.22488538E+00 0.33136861E+04</pdfrwt>
<totfact> 0.59988833E-01</totfact>
</mgrwt>
</event>
<event>
12    1  0.1495204E-007  0.1512255E+04  0.7818608E-02  0.8876344E-01
          1   -1    0    0  501    0  0.00000000000E+00  0.00000000000E+00  0.98366815932E+03  0.98366815932E+03  0.00000000000E+00 0. -1.
         -1   -1    0    0    0  501 -0.00000000000E+00 -0.00000000000E+00 -0.58122141269E+03  0.58122141269E+03  0.00000000000E+00 0.  1.
         23    2    1    2    0    0  0.22203144594E+03  0.99643582688E+02 -0.27682016014E+03  0.37996274734E+03  0.92279367985E+02 0.  0.
        254    2    1    2    0    0 -0.22203144594E+03 -0.99643582688E+02  0.67926690677E+03  0.11849268247E+04  0.93990491148E+03 0.  0.
        -24    2    4    4    0    0  0.11069231063E+03 -0.15403572675E+03  0.79377116814E+03  0.82006730349E+03  0.80361197939E+02 0.  0.
         24    2    4    4    0    0 -0.33272375656E+03  0.54392144062E+02 -0.11450426137E+03  0.36485952118E+03  0.79672082958E+02 0.  0.
         13    1    3    3    0    0  0.24919796185E+02  0.48579785679E+02 -0.40247777438E+02  0.67829753111E+02  0.00000000000E+00 0. -1.
        -13    1    3    3    0    0  0.19711164975E+03  0.51063797010E+02 -0.23657238270E+03  0.31213299423E+03  0.00000000000E+00 0.  1.
          4    1    6    6  502    0 -0.24134942514E+03  0.59508086136E+02 -0.51788649740E+02  0.25391498887E+03  0.00000000000E+00 0. -1.
          3    1    5    5  503    0  0.87197859113E+02 -0.13890583454E+03  0.52938060759E+03  0.55420404653E+03  0.00000000000E+00 0. -1.
         -4    1    5    5    0  503  0.23494451516E+02 -0.15129892207E+02  0.26439056055E+03  0.26586325695E+03  0.00000000000E+00 0.  1.
         -3    1    6    6    0  502 -0.91374331425E+02 -0.51159420736E+01 -0.62715611629E+02  0.11094453231E+03  0.00000000000E+00 0.  1.
<mgrwt>
<rscale>  0 0.15122553E+04</rscale>
<asrwt>0</asrwt>
<pdfrwt beam="1">  1        1 0.15133356E+00 0.15122553E+04</pdfrwt>
<pdfrwt beam="2">  1       -1 0.89418679E-01 0.15122553E+04</pdfrwt>
<totfact> 0.18459729E+01</totfact>
</mgrwt>
</event>
<event>
12    1  0.1495204E-007  0.1856449E+04  0.7818608E-02  0.8676844E-01
         -2   -1    0    0    0  501 -0.00000000000E+00  0.00000000000E+00  0.57423256041E+03  0.57423256041E+03  0.00000000000E+00 0.  1.
          2   -1    0    0  501    0  0.00000000000E+00 -0.00000000000E+00 -0.15004378546E+04  0.15004378546E+04  0.00000000000E+00 0. -1.
         23    2    1    2    0    0  0.39482571640E+03  0.50509533126E+02 -0.10471501318E+04  0.11237616472E+04  0.88759686477E+02 0.  0.
        254    2    1    2    0    0 -0.39482571640E+03 -0.50509533126E+02  0.12094483759E+03  0.95090876782E+03  0.85507968735E+03 0.  0.
        -24    2    4    4    0    0 -0.27560314315E+03 -0.43317148659E+03  0.14811121247E+03  0.54074875333E+03  0.82931620412E+02 0.  0.
         24    2    4    4    0    0 -0.11922257325E+03  0.38266195346E+03 -0.27166374883E+02  0.41016001449E+03  0.82758884505E+02 0.  0.
         11    1    3    3    0    0  0.20961453466E+03 -0.16680875963E+02 -0.56892777982E+03  0.60654375227E+03  0.00000000000E+00 0. -1.
        -11    1    3    3    0    0  0.18521118173E+03  0.67190409090E+02 -0.47822235194E+03  0.51721789490E+03  0.00000000000E+00 0.  1.
          4    1    6    6  502    0 -0.15191877299E+02  0.17299317534E+03 -0.29176546538E+02  0.17609288094E+03  0.00000000000E+00 0. -1.
          1    1    5    5  503    0 -0.27348522101E+03 -0.43651429939E+03  0.14979386461E+03  0.53644860104E+03  0.00000000000E+00 0. -1.
         -2    1    5    5    0  503 -0.21179221370E+01  0.33428127984E+01 -0.16826521301E+01  0.43001522966E+01  0.00000000000E+00 0.  1.
         -3    1    6    6    0  502 -0.10403069595E+03  0.20966877812E+03  0.20101716549E+01  0.23406713355E+03  0.00000000000E+00 0.  1.
<mgrwt>
<rscale>  0 0.18564485E+04</rscale>
<asrwt>0</asrwt>
<pdfrwt beam="1">  1        2 0.23083660E+00 0.18564485E+04</pdfrwt>
<pdfrwt beam="2">  1       -2 0.88343470E-01 0.18564485E+04</pdfrwt>
<totfact> 0.13152238E+01</totfact>
</mgrwt>
</event>
<event>
12    1  0.1495204E-007  0.1932707E+04  0.7818608E-02  0.8638745E-01
         -1   -1    0    0    0  501 -0.00000000000E+00  0.00000000000E+00  0.69744347416E+03  0.69744347416E+03  0.00000000000E+00 0.  1.
          1   -1    0    0  501    0  0.00000000000E+00 -0.00000000000E+00 -0.13389460061E+04  0.13389460061E+04  0.00000000000E+00 0. -1.
         23    2    1    2    0    0 -0.28341737517E+03 -0.62145246006E+03 -0.64074743417E+03  0.94064973403E+03  0.87954983217E+02 0.  0.
        254    2    1    2    0    0  0.28341737517E+03  0.62145246006E+03 -0.75509773180E+00  0.10957397462E+04  0.85680595967E+03 0.  0.
        -24    2    4    4    0    0  0.13875009000E+03 -0.20016324414E+03  0.25436172843E+02  0.25731052525E+03  0.79024020014E+02 0.  0.
         24    2    4    4    0    0  0.14466728517E+03  0.82161570420E+03 -0.26191270575E+02  0.83842922093E+03  0.79351036988E+02 0.  0.
         13    1    3    3    0    0 -0.13803688312E+03 -0.27207745897E+03 -0.34367185423E+03  0.45955485872E+03  0.00000000000E+00 0.  1.
        -13    1    3    3    0    0 -0.14538049204E+03 -0.34937500109E+03 -0.29707557994E+03  0.48109487532E+03  0.00000000000E+00 0. -1.
          2    1    6    6  502    0  0.17226872951E+02  0.69812945074E+02  0.19592303807E+02  0.74528322268E+02  0.00000000000E+00 0. -1.
          1    1    5    5  503    0  0.63488362431E+01  0.56062152795E+01  0.85620867564E+01  0.12043533577E+02  0.00000000000E+00 0. -1.
         -2    1    5    5    0  503  0.13240125376E+03 -0.20576945942E+03  0.16874086087E+02  0.24526699168E+03  0.00000000000E+00 0.  1.
         -1    1    6    6    0  502  0.12744041221E+03  0.75180275912E+03 -0.45783574382E+02  0.76390089866E+03  0.00000000000E+00 0.  1.
<mgrwt>
<rscale>  0 0.19327071E+04</rscale>
<asrwt>0</asrwt>
<pdfrwt beam="1">  1        1 0.20599169E+00 0.19327071E+04</pdfrwt>
<pdfrwt beam="2">  1       -1 0.10729900E+00 0.19327071E+04</pdfrwt>
<totfact> 0.64071709E+00</totfact>
</mgrwt>
</event>
<event>
12    1  0.1495204E-007  0.1267112E+04  0.7818608E-02  0.9056060E-01
         -2   -1    0    0    0  501 -0.00000000000E+00  0.00000000000E+00  0.16591423563E+03  0.16591423563E+03  0.00000000000E+00 0.  1.
          2   -1    0    0  501    0  0.00000000000E+00 -0.00000000000E+00 -0.24192800243E+04  0.24192800243E+04  0.00000000000E+00 0. -1.
         23    2    1    2    0    0 -0.62182172023E+01  0.19631882627E+03 -0.91121565369E+02  0.23541167312E+03  0.92389222276E+02 0.  0.
        254    2    1    2    0    0  0.62182172023E+01 -0.19631882627E+03 -0.21622442233E+04  0.23497825868E+04  0.89866477413E+03 0.  0.
        -24    2    4    4    0    0  0.32638920320E+03  0.55181613088E+02 -0.33889066421E+03  0.47986656362E+03  0.76486039244E+02 0.  0.
         24    2    4    4    0    0 -0.32017098600E+03 -0.25150043936E+03 -0.18233535591E+04  0.18699160232E+04  0.78776906693E+02 0.  0.
         13    1    3    3    0    0 -0.43885361141E+01 -0.86780727818E+01  0.24998152005E+01  0.10040780471E+02  0.00000000000E+00 0. -1.
        -13    1    3    3    0    0 -0.18296810883E+01  0.20499689905E+03 -0.93621380569E+02  0.22537089265E+03  0.00000000000E+00 0.  1.
          2    1    6    6  502    0 -0.22806444966E+03 -0.13673835100E+03 -0.12509041996E+04  0.12788557723E+04  0.00000000000E+00 0. -1.
          1    1    5    5  503    0  0.27708474701E+03  0.23364685725E+02 -0.25362666376E+03  0.37636199348E+03  0.00000000000E+00 0. -1.
         -2    1    5    5    0  503  0.49304456196E+02  0.31816927363E+02 -0.85264000449E+02  0.10350457014E+03  0.00000000000E+00 0.  1.
         -1    1    6    6    0  502 -0.92106536340E+02 -0.11476208836E+03 -0.57244935952E+03  0.59106025088E+03  0.00000000000E+00 0.  1.
<mgrwt>
<rscale>  0 0.12671117E+04</rscale>
<asrwt>0</asrwt>
<pdfrwt beam="1">  1        2 0.37219692E+00 0.12671117E+04</pdfrwt>
<pdfrwt beam="2">  1       -2 0.25525267E-01 0.12671117E+04</pdfrwt>
<totfact> 0.52819675E+01</totfact>
</mgrwt>
</event>
<event>
12    1  0.1495204E-007  0.1797132E+04  0.7818608E-02  0.8707826E-01
          2   -1    0    0  501    0  0.00000000000E+00  0.00000000000E+00  0.77252296799E+03  0.77252296799E+03  0.00000000000E+00 0. -1.
         -2   -1    0    0    0  501 -0.00000000000E+00 -0.00000000000E+00 -0.10451737807E+04  0.10451737807E+04  0.00000000000E+00 0.  1.
         23    2    1    2    0    0 -0.26856376045E+03 -0.61889059159E+03 -0.81146175927E+02  0.68600759445E+03  0.94178872319E+02 0.  0.
        254    2    1    2    0    0  0.26856376045E+03  0.61889059159E+03 -0.19150463683E+03  0.11316891543E+04  0.88819719558E+03 0.  0.
        -24    2    4    4    0    0  0.45308088885E+03  0.54460873381E+03  0.14941199734E+03  0.72900447780E+03  0.85103577622E+02 0.  0.
         24    2    4    4    0    0 -0.18451712840E+03  0.74281857779E+02 -0.34091663417E+03  0.40268467649E+03  0.79789925155E+02 0.  0.
         11    1    3    3    0    0 -0.17388849531E+03 -0.36201129457E+03 -0.42049907664E+01  0.40163051196E+03  0.00000000000E+00 0. -1.
        -11    1    3    3    0    0 -0.94675265138E+02 -0.25687929702E+03 -0.76941185161E+02  0.28437708248E+03  0.00000000000E+00 0.  1.
          2    1    6    6  502    0 -0.11703571013E+03  0.77833333953E+01 -0.15907873863E+03  0.19764610497E+03  0.00000000000E+00 0. -1.
          3    1    5    5  503    0  0.22353748130E+03  0.23949275994E+03  0.30139403983E+02  0.32898962185E+03  0.00000000000E+00 0. -1.
         -4    1    5    5    0  503  0.22954340755E+03  0.30511597387E+03  0.11927259336E+03  0.40001485595E+03  0.00000000000E+00 0.  1.
         -3    1    6    6    0  502 -0.67481418271E+02  0.66498524384E+02 -0.18183789554E+03  0.20503857152E+03  0.00000000000E+00 0.  1.
<mgrwt>
<rscale>  0 0.17971319E+04</rscale>
<asrwt>0</asrwt>
<pdfrwt beam="1">  1        2 0.11884969E+00 0.17971319E+04</pdfrwt>
<pdfrwt beam="2">  1       -2 0.16079597E+00 0.17971319E+04</pdfrwt>
<totfact> 0.84615877E+00</totfact>
</mgrwt>
</event>
<event>
12    1  0.1495204E-007  0.2298878E+04  0.7818608E-02  0.8478364E-01
          1   -1    0    0  501    0  0.00000000000E+00  0.00000000000E+00  0.66064105280E+03  0.66064105280E+03  0.00000000000E+00 0. -1.
         -1   -1    0    0    0  501 -0.00000000000E+00 -0.00000000000E+00 -0.19998905522E+04  0.19998905522E+04  0.00000000000E+00 0.  1.
         23    2    1    2    0    0 -0.63271890040E+00 -0.88755168121E+03 -0.11473883428E+03  0.89982943858E+03  0.93699686713E+02 0.  0.
        254    2    1    2    0    0  0.63271890040E+00  0.88755168121E+03 -0.12245106651E+04  0.17607021664E+04  0.90160820911E+03 0.  0.
        -24    2    4    4    0    0 -0.16744898967E+03  0.51853883713E+03 -0.96350780876E+02  0.55910182082E+03  0.79935494676E+02 0.  0.
         24    2    4    4    0    0  0.16808170857E+03  0.36901284408E+03 -0.11281598843E+04  0.12016003456E+04  0.81711237298E+02 0.  0.
         13    1    3    3    0    0 -0.39410329735E+02 -0.26592861861E+03 -0.52332813010E+02  0.27387940339E+03  0.00000000000E+00 0.  1.
        -13    1    3    3    0    0  0.38777610834E+02 -0.62162306260E+03 -0.62406021268E+02  0.62595003519E+03  0.00000000000E+00 0. -1.
          4    1    6    6  502    0  0.99310714918E+02  0.15639736533E+03 -0.60456524578E+03  0.63231470834E+03  0.00000000000E+00 0. -1.
          1    1    5    5  503    0 -0.66176716128E+01  0.13063177308E+03 -0.24383471734E+02  0.13305264901E+03  0.00000000000E+00 0. -1.
         -2    1    5    5    0  503 -0.16083131806E+03  0.38790706406E+03 -0.71967309142E+02  0.42604917181E+03  0.00000000000E+00 0.  1.
         -3    1    6    6    0  502  0.68770993652E+02  0.21261547875E+03 -0.52359463848E+03  0.56928563729E+03  0.00000000000E+00 0.  1.
<mgrwt>
<rscale>  0 0.22988778E+04</rscale>
<asrwt>0</asrwt>
<pdfrwt beam="1">  1        1 0.10163708E+00 0.22988778E+04</pdfrwt>
<pdfrwt beam="2">  1       -1 0.30767547E+00 0.22988778E+04</pdfrwt>
<totfact> 0.79153904E-01</totfact>
</mgrwt>
</event>
<event>
12    1  0.1495204E-007  0.1089670E+04  0.7818608E-02  0.9215319E-01
         -2   -1    0    0    0  501 -0.00000000000E+00  0.00000000000E+00  0.90154476463E+02  0.90154476463E+02  0.00000000000E+00 0.  1.
          2   -1    0    0  501    0  0.00000000000E+00 -0.00000000000E+00 -0.32926275417E+04  0.32926275417E+04  0.00000000000E+00 0. -1.
         23    2    1    2    0    0  0.10293471444E+03  0.10742996366E+03 -0.43764468507E+03  0.47073704750E+03  0.89015419936E+02 0.  0.
        254    2    1    2    0    0 -0.10293471444E+03 -0.10742996366E+03 -0.27648283802E+04  0.29120449707E+04  0.90199400602E+03 0.  0.
        -24    2    4    4    0    0 -0.17067426223E+03  0.19270941137E+03 -0.22170757337E+03  0.34910099330E+03  0.80315841644E+02 0.  0.
         24    2    4    4    0    0  0.67739547793E+02 -0.30013937502E+03 -0.25431208068E+04  0.25629439774E+04  0.80907987062E+02 0.  0.
         11    1    3    3    0    0  0.10101124032E+03  0.11632936220E+03 -0.43465866644E+03  0.46115501460E+03  0.00000000000E+00 0. -1.
        -11    1    3    3    0    0  0.19234741191E+01 -0.88993985425E+01 -0.29860186290E+01  0.95820328927E+01  0.00000000000E+00 0.  1.
          2    1    6    6  502    0  0.52598030739E+02 -0.10058358006E+03 -0.11372111803E+04  0.11428617056E+04  0.00000000000E+00 0. -1.
          3    1    5    5  503    0 -0.11422771730E+03  0.71500948962E+02 -0.94880727652E+02  0.16481113306E+03  0.00000000000E+00 0. -1.
         -4    1    5    5    0  503 -0.56446544934E+02  0.12120846240E+03 -0.12682684572E+03  0.18428986024E+03  0.00000000000E+00 0.  1.
         -1    1    6    6    0  502  0.15141517054E+02 -0.19955579496E+03 -0.14059096265E+04  0.14200822718E+04  0.00000000000E+00 0.  1.
<mgrwt>
<rscale>  0 0.10896699E+04</rscale>
<asrwt>0</asrwt>
<pdfrwt beam="1">  1        2 0.50655807E+00 0.10896699E+04</pdfrwt>
<pdfrwt beam="2">  1       -2 0.13869920E-01 0.10896699E+04</pdfrwt>
<totfact> 0.46063799E+01</totfact>
</mgrwt>
</event>
<event>
12    1  0.1495204E-007  0.3330660E+04  0.7818608E-02  0.8155138E-01
         -1   -1    0    0    0  501 -0.00000000000E+00  0.00000000000E+00  0.20791672819E+04  0.20791672819E+04  0.00000000000E+00 0.  1.
          1   -1    0    0  501    0  0.00000000000E+00 -0.00000000000E+00 -0.13338625951E+04  0.13338625951E+04  0.00000000000E+00 0. -1.
         23    2    1    2    0    0 -0.48025592601E+03 -0.62437280320E+03  0.17087990222E+04  0.18839674226E+04  0.94085063759E+02 0.  0.
        254    2    1    2    0    0  0.48025592601E+03  0.62437280320E+03 -0.96349433544E+03  0.15290624543E+04  0.88838252066E+03 0.  0.
        -24    2    4    4    0    0  0.13070019320E+03  0.32397525969E+03 -0.99761788823E+03  0.10598076806E+04  0.76865854139E+02 0.  0.
         24    2    4    4    0    0  0.34955573281E+03  0.30039754351E+03  0.34123552791E+02  0.46925477375E+03  0.81287953245E+02 0.  0.
         13    1    3    3    0    0 -0.36149407804E+03 -0.41109066171E+03  0.12383891113E+04  0.13539871091E+04  0.00000000000E+00 0. -1.
        -13    1    3    3    0    0 -0.11876184797E+03 -0.21328214149E+03  0.47040991098E+03  0.52998031356E+03  0.00000000000E+00 0.  1.
          2    1    6    6  502    0  0.94841581096E+02  0.12898456620E+03  0.25462443274E+02  0.16211193614E+03  0.00000000000E+00 0. -1.
          3    1    5    5  503    0 -0.80552573081E+01  0.49245890238E+02 -0.13527841046E+03  0.14418839486E+03  0.00000000000E+00 0. -1.
         -4    1    5    5    0  503  0.13875545050E+03  0.27472936945E+03 -0.86233947777E+03  0.91561928574E+03  0.00000000000E+00 0.  1.
         -1    1    6    6    0  502  0.25471415172E+03  0.17141297731E+03  0.86611095164E+01  0.30714283761E+03  0.00000000000E+00 0.  1.
<mgrwt>
<rscale>  0 0.33306597E+04</rscale>
<asrwt>0</asrwt>
<pdfrwt beam="1">  1        1 0.20520963E+00 0.33306597E+04</pdfrwt>
<pdfrwt beam="2">  1       -1 0.31987189E+00 0.33306597E+04</pdfrwt>
<totfact> 0.17358197E-01</totfact>
</mgrwt>
</event>
<event>
12    1  0.1495204E-007  0.1385790E+04  0.7818608E-02  0.8964169E-01
         -2   -1    0    0    0  501 -0.00000000000E+00  0.00000000000E+00  0.66021377473E+03  0.66021377473E+03  0.00000000000E+00 0. -1.
          2   -1    0    0  501    0  0.00000000000E+00 -0.00000000000E+00 -0.72719409504E+03  0.72719409504E+03  0.00000000000E+00 0.  1.
         23    2    1    2    0    0  0.64187408998E+01  0.30975828776E+03  0.22124515024E+03  0.39142241946E+03  0.90943371866E+02 0.  0.
        254    2    1    2    0    0 -0.64187408998E+01 -0.30975828776E+03 -0.28822547054E+03  0.99598545031E+03  0.90162170464E+03 0.  0.
        -24    2    4    4    0    0  0.27373834104E+03  0.13140744063E+03 -0.34243734326E+03  0.46446113591E+03  0.79121538853E+02 0.  0.
         24    2    4    4    0    0 -0.28015708194E+03 -0.44116572839E+03  0.54211872717E+02  0.53152431439E+03  0.80398875482E+02 0.  0.
         13    1    3    3    0    0  0.30784197074E+01  0.20425229395E+03  0.19553807531E+03  0.28277838522E+03  0.00000000000E+00 0. -1.
        -13    1    3    3    0    0  0.33403211923E+01  0.10550599381E+03  0.25707074924E+02  0.10864403424E+03  0.00000000000E+00 0.  1.
          2    1    6    6  502    0 -0.28289002756E+03 -0.41961506941E+03  0.45460570566E+02  0.50810455385E+03  0.00000000000E+00 0. -1.
          3    1    5    5  503    0  0.26373151385E+03  0.11745448339E+03 -0.28967872502E+03  0.40897876570E+03  0.00000000000E+00 0. -1.
         -4    1    5    5    0  503  0.10006827189E+02  0.13952957244E+02 -0.52758618237E+02  0.55482370214E+02  0.00000000000E+00 0.  1.
         -1    1    6    6    0  502  0.27329456242E+01 -0.21550658985E+02  0.87513021514E+01  0.23419760541E+02  0.00000000000E+00 0.  1.
<mgrwt>
<rscale>  0 0.13857901E+04</rscale>
<asrwt>0</asrwt>
<pdfrwt beam="1">  1        2 0.11187601E+00 0.13857901E+04</pdfrwt>
<pdfrwt beam="2">  1       -2 0.10157135E+00 0.13857901E+04</pdfrwt>
<totfact> 0.30269613E+01</totfact>
</mgrwt>
</event>
<event>
12    1  0.1495204E-007  0.1693930E+04  0.7818608E-02  0.8764834E-01
          2   -1    0    0  501    0  0.00000000000E+00  0.00000000000E+00  0.18213647718E+04  0.18213647718E+04  0.00000000000E+00 0. -1.
         -2   -1    0    0    0  501 -0.00000000000E+00 -0.00000000000E+00 -0.39385298238E+03  0.39385298238E+03  0.00000000000E+00 0.  1.
         23    2    1    2    0    0 -0.53343800245E+03 -0.43791683157E+02  0.89723534923E+03  0.10487444453E+04  0.91432081909E+02 0.  0.
        254    2    1    2    0    0  0.53343800245E+03  0.43791683157E+02  0.53027644021E+03  0.11664733089E+04  0.89050157971E+03 0.  0.
        -24    2    4    4    0    0 -0.74742204915E+02 -0.30033182636E+03  0.26378582939E+03  0.41445570093E+03  0.80031001073E+02 0.  0.
         24    2    4    4    0    0  0.60818020736E+03  0.34412350951E+03  0.26649061082E+03  0.75201760801E+03  0.78797732643E+02 0.  0.
         11    1    3    3    0    0 -0.31328414559E+03 -0.65932235204E+02  0.56931614128E+03  0.65315762588E+03  0.00000000000E+00 0. -1.
        -11    1    3    3    0    0 -0.22015385686E+03  0.22140552047E+02  0.32791920795E+03  0.39558681939E+03  0.00000000000E+00 0.  1.
          2    1    6    6  502    0  0.10328137957E+03  0.93023128557E+02  0.43642487304E+02  0.14568806578E+03  0.00000000000E+00 0. -1.
          1    1    5    5  503    0 -0.35165881839E+01 -0.17719998256E+03  0.13922698102E+03  0.22538046157E+03  0.00000000000E+00 0. -1.
         -2    1    5    5    0  503 -0.71225616731E+02 -0.12313184379E+03  0.12455884836E+03  0.18907523936E+03  0.00000000000E+00 0.  1.
         -1    1    6    6    0  502  0.50489882780E+03  0.25110038096E+03  0.22284812352E+03  0.60632954223E+03  0.00000000000E+00 0.  1.
<mgrwt>
<rscale>  0 0.16939303E+04</rscale>
<asrwt>0</asrwt>
<pdfrwt beam="1">  1        2 0.28020996E+00 0.16939303E+04</pdfrwt>
<pdfrwt beam="2">  1       -2 0.60592768E-01 0.16939303E+04</pdfrwt>
<totfact> 0.20273862E+01</totfact>
</mgrwt>
</event>
<event>
12    1  0.1495204E-007  0.1400814E+04  0.7818608E-02  0.8953229E-01
         -2   -1    0    0    0  501 -0.00000000000E+00  0.00000000000E+00  0.43383031285E+03  0.43383031285E+03  0.00000000000E+00 0.  1.
          2   -1    0    0  501    0  0.00000000000E+00 -0.00000000000E+00 -0.11307883596E+04  0.11307883596E+04  0.00000000000E+00 0. -1.
         23    2    1    2    0    0 -0.40110007615E+03  0.40920902227E+02 -0.16702055732E+03  0.44587670716E+03  0.91402298043E+02 0.  0.
        254    2    1    2    0    0  0.40110007615E+03 -0.40920902227E+02 -0.52993748945E+03  0.11187419653E+04  0.89899613508E+03 0.  0.
        -24    2    4    4    0    0  0.22633521484E+03 -0.46253914570E+03 -0.25822181097E+03  0.58158411409E+03  0.79946778048E+02 0.  0.
         24    2    4    4    0    0  0.17476486132E+03  0.42161824347E+03 -0.27171567847E+03  0.53715785122E+03  0.80027790277E+02 0.  0.
         13    1    3    3    0    0 -0.24144419142E+03  0.12468771707E+01 -0.57363661444E+02  0.24816817267E+03  0.00000000000E+00 0. -1.
        -13    1    3    3    0    0 -0.15965588473E+03  0.39674025056E+02 -0.10965689588E+03  0.19770853448E+03  0.00000000000E+00 0.  1.
          2    1    6    6  502    0  0.10876824359E+03  0.29591559004E+03 -0.22634908220E+03  0.38811141990E+03  0.00000000000E+00 0. -1.
          1    1    5    5  503    0  0.18198912464E+03 -0.42693934235E+03 -0.23417245911E+03  0.51984034485E+03  0.00000000000E+00 0. -1.
         -2    1    5    5    0  503  0.44346090202E+02 -0.35599803355E+02 -0.24049351866E+02  0.61743769243E+02  0.00000000000E+00 0.  1.
         -1    1    6    6    0  502  0.65996617727E+02  0.12570265344E+03 -0.45366596269E+02  0.14904643132E+03  0.00000000000E+00 0.  1.
<mgrwt>
<rscale>  0 0.14008144E+04</rscale>
<asrwt>0</asrwt>
<pdfrwt beam="1">  1        2 0.17396744E+00 0.14008144E+04</pdfrwt>
<pdfrwt beam="2">  1       -2 0.66743125E-01 0.14008144E+04</pdfrwt>
<totfact> 0.41860521E+01</totfact>
</mgrwt>
</event>
<event>
12    1  0.1495204E-007  0.1752195E+04  0.7818608E-02  0.8732143E-01
         -1   -1    0    0    0  501 -0.00000000000E+00  0.00000000000E+00  0.19126811846E+03  0.19126811846E+03  0.00000000000E+00 0.  1.
          1   -1    0    0  501    0  0.00000000000E+00 -0.00000000000E+00 -0.40129349494E+04  0.40129349494E+04  0.00000000000E+00 0. -1.
         23    2    1    2    0    0  0.26528169016E+03 -0.51554412993E+03 -0.20725590077E+04  0.21540317822E+04  0.90509410842E+02 0.  0.
        254    2    1    2    0    0 -0.26528169016E+03  0.51554412993E+03 -0.17491078233E+04  0.20501712856E+04  0.89870128412E+03 0.  0.
        -24    2    4    4    0    0  0.28705126668E+03  0.13875673876E+03 -0.27188526384E+03  0.42663924424E+03  0.80296860320E+02 0.  0.
         24    2    4    4    0    0 -0.55233295683E+03  0.37678739117E+03 -0.14772225594E+04  0.16235320414E+04  0.81420919270E+02 0.  0.
         13    1    3    3    0    0  0.22936102603E+03 -0.44702467775E+03 -0.16634401901E+04  0.17376624554E+04  0.00000000000E+00 0.  1.
        -13    1    3    3    0    0  0.35920664125E+02 -0.68519452172E+02 -0.40911881751E+03  0.41636932678E+03  0.00000000000E+00 0. -1.
          2    1    6    6  502    0 -0.54973851255E+03  0.37797826795E+03 -0.14494644230E+04  0.15956274993E+04  0.00000000000E+00 0. -1.
          1    1    5    5  503    0  0.23211640948E+03  0.96450097719E+02 -0.24851537088E+03  0.35346928928E+03  0.00000000000E+00 0. -1.
         -2    1    5    5    0  503  0.54934857198E+02  0.42306641043E+02 -0.23369892960E+02  0.73169954958E+02  0.00000000000E+00 0.  1.
         -1    1    6    6    0  502 -0.25944442787E+01 -0.11908767842E+01 -0.27758136448E+02  0.27904542062E+02  0.00000000000E+00 0.  1.
<mgrwt>
<rscale>  0 0.17521946E+04</rscale>
<asrwt>0</asrwt>
<pdfrwt beam="1">  1        1 0.61737464E+00 0.17521946E+04</pdfrwt>
<pdfrwt beam="2">  1       -1 0.29425863E-01 0.17521946E+04</pdfrwt>
<totfact> 0.94681048E-01</totfact>
</mgrwt>
</event>
<event>
12    1  0.1495204E-007  0.1421602E+04  0.7818608E-02  0.8938329E-01
         -2   -1    0    0    0  501 -0.00000000000E+00  0.00000000000E+00  0.46602325747E+03  0.46602325747E+03  0.00000000000E+00 0.  1.
          2   -1    0    0  501    0  0.00000000000E+00 -0.00000000000E+00 -0.10841480456E+04  0.10841480456E+04  0.00000000000E+00 0. -1.
         23    2    1    2    0    0 -0.29773213799E+03 -0.28457141190E+03 -0.26003329596E+03  0.50105285486E+03  0.11752163162E+03 0.  0.
        254    2    1    2    0    0  0.29773213799E+03  0.28457141190E+03 -0.35809149221E+03  0.10491184482E+04  0.89598810661E+03 0.  0.
        -24    2    4    4    0    0  0.31692092964E+03  0.89479160243E+02 -0.62372101528E+03  0.70976635176E+03  0.79340868609E+02 0.  0.
         24    2    4    4    0    0 -0.19188791646E+02  0.19509225165E+03  0.26562952308E+03  0.33935209647E+03  0.78559566385E+02 0.  0.
         11    1    3    3    0    0 -0.16016059218E+03 -0.11556413193E+03 -0.18489730579E+03  0.27054296806E+03  0.00000000000E+00 0. -1.
        -11    1    3    3    0    0 -0.13757154581E+03 -0.16900727996E+03 -0.75135990172E+02  0.23050988681E+03  0.00000000000E+00 0.  1.
          2    1    6    6  502    0  0.95955101665E+01  0.17684426911E+03  0.22347441425E+03  0.28514344312E+03  0.00000000000E+00 0. -1.
          1    1    5    5  503    0  0.29137305503E+03  0.87978069447E+02 -0.60745965062E+03  0.67944508610E+03  0.00000000000E+00 0. -1.
         -2    1    5    5    0  503  0.25547874607E+02  0.15010907963E+01 -0.16261364665E+02  0.30321265661E+02  0.00000000000E+00 0.  1.
         -1    1    6    6    0  502 -0.28784301813E+02  0.18247982545E+02  0.42155108827E+02  0.54208653350E+02  0.00000000000E+00 0.  1.
<mgrwt>
<rscale>  0 0.14216022E+04</rscale>
<asrwt>0</asrwt>
<pdfrwt beam="1">  1        2 0.16679200E+00 0.14216022E+04</pdfrwt>
<pdfrwt beam="2">  1       -2 0.71695887E-01 0.14216022E+04</pdfrwt>
<totfact> 0.38205400E+01</totfact>
</mgrwt>
</event>
<event>
12    1  0.1495204E-007  0.1460333E+04  0.7818608E-02  0.8911268E-01
         -1   -1    0    0    0  501 -0.00000000000E+00  0.00000000000E+00  0.29396288326E+03  0.29396288326E+03  0.00000000000E+00 0.  1.
          1   -1    0    0  501    0  0.00000000000E+00 -0.00000000000E+00 -0.18136413438E+04  0.18136413438E+04  0.00000000000E+00 0. -1.
         23    2    1    2    0    0 -0.10564397910E+03 -0.42620136471E+03 -0.34715666183E+03  0.56716329586E+03  0.91368499544E+02 0.  0.
        254    2    1    2    0    0  0.10564397910E+03  0.42620136471E+03 -0.11725217987E+04  0.15404409312E+04  0.89740884801E+03 0.  0.
        -24    2    4    4    0    0 -0.92328659088E+02 -0.12344875330E+03 -0.85054507069E+03  0.86828038037E+03  0.81973932878E+02 0.  0.
         24    2    4    4    0    0  0.19797263819E+03  0.54965011801E+03 -0.32197672801E+03  0.67216055083E+03  0.82597669539E+02 0.  0.
         11    1    3    3    0    0 -0.11607718522E+03 -0.36366712517E+03 -0.27144171754E+03  0.46841039365E+03  0.00000000000E+00 0.  1.
        -11    1    3    3    0    0  0.10433206117E+02 -0.62534239541E+02 -0.75714944295E+02  0.98752902208E+02  0.00000000000E+00 0. -1.
          2    1    6    6  502    0  0.19047288112E+03  0.44598638380E+03 -0.24884920408E+03  0.54507770029E+03  0.00000000000E+00 0. -1.
          3    1    5    5  503    0 -0.32622458994E+02 -0.22622749946E+02 -0.42647895500E+03  0.42832267358E+03  0.00000000000E+00 0. -1.
         -4    1    5    5    0  503 -0.59706200093E+02 -0.10082600335E+03 -0.42406611569E+03  0.43995770679E+03  0.00000000000E+00 0.  1.
         -1    1    6    6    0  502  0.74997570650E+01  0.10366373421E+03 -0.73127523927E+02  0.12708285054E+03  0.00000000000E+00 0.  1.
<mgrwt>
<rscale>  0 0.14603332E+04</rscale>
<asrwt>0</asrwt>
<pdfrwt beam="1">  1        1 0.27902174E+00 0.14603332E+04</pdfrwt>
<pdfrwt beam="2">  1       -1 0.45225059E-01 0.14603332E+04</pdfrwt>
<totfact> 0.18782360E+01</totfact>
</mgrwt>
</event>
<event>
12    1  0.1495204E-007  0.1196009E+04  0.7818608E-02  0.9116357E-01
         -2   -1    0    0    0  501 -0.00000000000E+00  0.00000000000E+00  0.11109967839E+03  0.11109967839E+03  0.00000000000E+00 0.  1.
          2   -1    0    0  501    0  0.00000000000E+00 -0.00000000000E+00 -0.32188142676E+04  0.32188142676E+04  0.00000000000E+00 0. -1.
         23    2    1    2    0    0  0.20612167419E+03 -0.44996287665E+02 -0.10834495248E+04  0.11075869381E+04  0.91515802649E+02 0.  0.
        254    2    1    2    0    0 -0.20612167419E+03  0.44996287665E+02 -0.20242650644E+04  0.22223270079E+04  0.89251188713E+03 0.  0.
        -24    2    4    4    0    0 -0.25086051436E+03 -0.69870657222E+02 -0.20541193248E+04  0.20721067881E+04  0.80046453607E+02 0.  0.
         24    2    4    4    0    0  0.44738840171E+02  0.11486694489E+03  0.29854260359E+02  0.15022021976E+03  0.80491358028E+02 0.  0.
         13    1    3    3    0    0  0.99594204854E+00  0.94507316979E+01 -0.15063456038E+03  0.15093402204E+03  0.00000000000E+00 0.  1.
        -13    1    3    3    0    0  0.20512573214E+03 -0.54447019363E+02 -0.93281496441E+03  0.95665291603E+03  0.00000000000E+00 0. -1.
          2    1    6    6  502    0  0.63681448187E+02  0.95309019677E+02  0.72892487520E+01  0.11485760411E+03  0.00000000000E+00 0. -1.
          3    1    5    5  503    0 -0.19241726428E+03 -0.57088850887E+02 -0.12757344745E+04  0.12914263393E+04  0.00000000000E+00 0. -1.
         -4    1    5    5    0  503 -0.58443250076E+02 -0.12781806334E+02 -0.77838485025E+03  0.78068044880E+03  0.00000000000E+00 0.  1.
         -1    1    6    6    0  502 -0.18942608016E+02  0.19557925210E+02  0.22565011607E+02  0.35362615653E+02  0.00000000000E+00 0.  1.
<mgrwt>
<rscale>  0 0.11960087E+04</rscale>
<asrwt>0</asrwt>
<pdfrwt beam="1">  1        2 0.49520223E+00 0.11960087E+04</pdfrwt>
<pdfrwt beam="2">  1       -2 0.17092257E-01 0.11960087E+04</pdfrwt>
<totfact> 0.35633384E+01</totfact>
</mgrwt>
</event>
<event>
12    1  0.1495204E-007  0.1644754E+04  0.7818608E-02  0.8793516E-01
          1   -1    0    0  501    0  0.00000000000E+00  0.00000000000E+00  0.91161700047E+03  0.91161700047E+03  0.00000000000E+00 0. -1.
         -1   -1    0    0    0  501 -0.00000000000E+00 -0.00000000000E+00 -0.74187320407E+03  0.74187320407E+03  0.00000000000E+00 0.  1.
         23    2    1    2    0    0 -0.34795541316E+03 -0.35303887375E+03 -0.30060566432E+03  0.58729761612E+03  0.94049500507E+02 0.  0.
        254    2    1    2    0    0  0.34795541316E+03  0.35303887375E+03  0.47034946072E+03  0.10661925884E+04  0.81843057401E+03 0.  0.
        -24    2    4    4    0    0  0.31912494327E+03 -0.10762910893E+03  0.48729499915E+03  0.59762307924E+03  0.79197058896E+02 0.  0.
         24    2    4    4    0    0  0.28830469899E+02  0.46066798268E+03 -0.16945538435E+02  0.46856950918E+03  0.78892632131E+02 0.  0.
         13    1    3    3    0    0 -0.12725839378E+03 -0.78230810914E+02 -0.11787510155E+03  0.19028740928E+03  0.00000000000E+00 0. -1.
        -13    1    3    3    0    0 -0.22069701939E+03 -0.27480806283E+03 -0.18273056277E+03  0.39701020684E+03  0.00000000000E+00 0.  1.
          2    1    6    6  502    0  0.20768928697E+02  0.25294473913E+02 -0.34822152996E+01  0.32913289612E+02  0.00000000000E+00 0. -1.
          3    1    5    5  503    0  0.62399925200E+02 -0.21725893271E+02  0.48214705534E+02  0.81795005551E+02  0.00000000000E+00 0. -1.
         -4    1    5    5    0  503  0.25672501807E+03 -0.85903215657E+02  0.43908029362E+03  0.51582807369E+03  0.00000000000E+00 0.  1.
         -1    1    6    6    0  502  0.80615412021E+01  0.43537350876E+03 -0.13463323135E+02  0.43565621957E+03  0.00000000000E+00 0.  1.
<mgrwt>
<rscale>  0 0.16447544E+04</rscale>
<asrwt>0</asrwt>
<pdfrwt beam="1">  1        1 0.14024877E+00 0.16447544E+04</pdfrwt>
<pdfrwt beam="2">  1       -1 0.11413434E+00 0.16447544E+04</pdfrwt>
<totfact> 0.11898604E+01</totfact>
</mgrwt>
</event>
<event>
12    1  0.1495204E-007  0.2073611E+04  0.7818608E-02  0.8572958E-01
          2   -1    0    0  501    0  0.00000000000E+00  0.00000000000E+00  0.14143736520E+04  0.14143736520E+04  0.00000000000E+00 0. -1.
         -2   -1    0    0    0  501 -0.00000000000E+00 -0.00000000000E+00 -0.76002961071E+03  0.76002961071E+03  0.00000000000E+00 0.  1.
         23    2    1    2    0    0  0.56179101707E+03 -0.27454066505E+03  0.95614223114E+03  0.11464476761E+04  0.95669139526E+02 0.  0.
        254    2    1    2    0    0 -0.56179101707E+03  0.27454066505E+03 -0.30179818985E+03  0.10279555866E+04  0.75804275406E+03 0.  0.
        -24    2    4    4    0    0 -0.30893156465E+03  0.22379043076E+02 -0.51380968520E+03  0.60526225188E+03  0.80015421896E+02 0.  0.
         24    2    4    4    0    0 -0.25285945243E+03  0.25216162198E+03  0.21201149535E+03  0.42269333472E+03  0.78723533790E+02 0.  0.
         11    1    3    3    0    0  0.56456330978E+03 -0.27523286928E+03  0.94314796258E+03  0.11331429488E+04  0.00000000000E+00 0.  1.
        -11    1    3    3    0    0 -0.27722927067E+01  0.69220422887E+00  0.12994268562E+02  0.13304727318E+02  0.00000000000E+00 0. -1.
          2    1    6    6  502    0 -0.19210328954E+03  0.18000904316E+03  0.19310630254E+03  0.32649191958E+03  0.00000000000E+00 0. -1.
          3    1    5    5  503    0 -0.25894174565E+03  0.48057459200E+02 -0.41235840261E+03  0.48928498774E+03  0.00000000000E+00 0. -1.
         -4    1    5    5    0  503 -0.49989818992E+02 -0.25678416125E+02 -0.10145128259E+03  0.11597726414E+03  0.00000000000E+00 0.  1.
         -1    1    6    6    0  502 -0.60756162889E+02  0.72152578814E+02  0.18905192811E+02  0.96201415134E+02  0.00000000000E+00 0.  1.
<mgrwt>
<rscale>  0 0.20736112E+04</rscale>
<asrwt>0</asrwt>
<pdfrwt beam="1">  1        2 0.21759595E+00 0.20736112E+04</pdfrwt>
<pdfrwt beam="2">  1       -2 0.11692763E+00 0.20736112E+04</pdfrwt>
<totfact> 0.74252069E+00</totfact>
</mgrwt>
</event>
<event>
12    1  0.1495204E-007  0.3594764E+04  0.7818608E-02  0.8091692E-01
          2   -1    0    0  501    0  0.00000000000E+00  0.00000000000E+00  0.25241794065E+04  0.25241794065E+04  0.00000000000E+00 0. -1.
         -2   -1    0    0    0  501 -0.00000000000E+00 -0.00000000000E+00 -0.12798546006E+04  0.12798546006E+04  0.00000000000E+00 0.  1.
         23    2    1    2    0    0 -0.68323847303E+02  0.41544437968E+02  0.23562810625E+04  0.23594224517E+04  0.91759314586E+02 0.  0.
        254    2    1    2    0    0  0.68323847303E+02 -0.41544437968E+02 -0.11119562566E+04  0.14446115554E+04  0.91872832818E+03 0.  0.
        -24    2    4    4    0    0 -0.58026062096E+02 -0.36728442302E+03 -0.13441106906E+03  0.40345354153E+03  0.80271747262E+02 0.  0.
         24    2    4    4    0    0  0.12634990940E+03  0.32573998505E+03 -0.97754518753E+03  0.10411580139E+04  0.79652863879E+02 0.  0.
         11    1    3    3    0    0 -0.34208147208E+02 -0.21279505116E+02  0.44950924733E+03  0.45131095501E+03  0.00000000000E+00 0.  1.
        -11    1    3    3    0    0 -0.34115700095E+02  0.62823943084E+02  0.19067718152E+04  0.19081114967E+04  0.00000000000E+00 0. -1.
          2    1    6    6  502    0  0.37499858757E+02  0.33911878614E+02 -0.99092098885E+02  0.11124522003E+03  0.00000000000E+00 0. -1.
          1    1    5    5  503    0 -0.23600380346E+02 -0.94240538239E+02 -0.72892299875E+02  0.12145593596E+03  0.00000000000E+00 0. -1.
         -2    1    5    5    0  503 -0.34425681749E+02 -0.27304388478E+03 -0.61518769188E+02  0.28199760556E+03  0.00000000000E+00 0.  1.
         -1    1    6    6    0  502  0.88850050642E+02  0.29182810644E+03 -0.87845308865E+03  0.92991279385E+03  0.00000000000E+00 0.  1.
<mgrwt>
<rscale>  0 0.35947643E+04</rscale>
<asrwt>0</asrwt>
<pdfrwt beam="1">  1        2 0.38833529E+00 0.35947643E+04</pdfrwt>
<pdfrwt beam="2">  1       -2 0.19690071E+00 0.35947643E+04</pdfrwt>
<totfact> 0.38307063E-01</totfact>
</mgrwt>
</event>
<event>
12    1  0.1495204E-007  0.1946923E+04  0.7818608E-02  0.8631846E-01
          2   -1    0    0  501    0  0.00000000000E+00  0.00000000000E+00  0.19446829862E+04  0.19446829862E+04  0.00000000000E+00 0. -1.
         -2   -1    0    0    0  501 -0.00000000000E+00 -0.00000000000E+00 -0.48729126566E+03  0.48729126566E+03  0.00000000000E+00 0.  1.
         23    2    1    2    0    0 -0.70236811157E+03 -0.97212925470E+02  0.24638334704E+03  0.75675012938E+03  0.95888933596E+02 0.  0.
        254    2    1    2    0    0  0.70236811157E+03  0.97212925470E+02  0.12110083735E+04  0.16752241224E+04  0.91491161476E+03 0.  0.
        -24    2    4    4    0    0  0.33051592786E+03 -0.29970311749E+03  0.14547705000E+03  0.47634740756E+03  0.81734591229E+02 0.  0.
         24    2    4    4    0    0  0.37185218370E+03  0.39691604296E+03  0.10655313234E+04  0.11988767149E+04  0.78306989256E+02 0.  0.
         11    1    3    3    0    0 -0.69196527125E+02  0.64512708970E+01  0.50519080176E+02  0.85918308434E+02  0.00000000000E+00 0. -1.
        -11    1    3    3    0    0 -0.63317158444E+03 -0.10366419637E+03  0.19586426687E+03  0.67083182094E+03  0.00000000000E+00 0.  1.
          2    1    6    6  502    0  0.24706398255E+03  0.27901458783E+03  0.80197120975E+03  0.88433453679E+03  0.00000000000E+00 0. -1.
          1    1    5    5  503    0  0.20338716314E+03 -0.18110775484E+03  0.46458681331E+02  0.27626937229E+03  0.00000000000E+00 0. -1.
         -2    1    5    5    0  503  0.12712876472E+03 -0.11859536265E+03  0.99018368672E+02  0.20007803526E+03  0.00000000000E+00 0.  1.
         -1    1    6    6    0  502  0.12478820115E+03  0.11790145513E+03  0.26356011370E+03  0.31454217810E+03  0.00000000000E+00 0.  1.
<mgrwt>
<rscale>  0 0.19469227E+04</rscale>
<asrwt>0</asrwt>
<pdfrwt beam="1">  1        2 0.29918200E+00 0.19469227E+04</pdfrwt>
<pdfrwt beam="2">  1       -2 0.74967888E-01 0.19469227E+04</pdfrwt>
<totfact> 0.10694234E+01</totfact>
</mgrwt>
</event>
<event>
12    1  0.1495204E-007  0.1976919E+04  0.7818608E-02  0.8617488E-01
          2   -1    0    0  501    0  0.00000000000E+00  0.00000000000E+00  0.11984874061E+04  0.11984874061E+04  0.00000000000E+00 0.  1.
         -2   -1    0    0    0  501 -0.00000000000E+00 -0.00000000000E+00 -0.81523807717E+03  0.81523807717E+03  0.00000000000E+00 0. -1.
         23    2    1    2    0    0  0.45450753691E+02 -0.10664272334E+03  0.94078370249E+03  0.95217073079E+03  0.90092642625E+02 0.  0.
        254    2    1    2    0    0 -0.45450753691E+02  0.10664272334E+03 -0.55753437360E+03  0.10615547524E+04  0.89588809192E+03 0.  0.
        -24    2    4    4    0    0  0.29090166028E+03 -0.22394626664E+03 -0.41941690249E+03  0.56328834004E+03  0.81286589514E+02 0.  0.
         24    2    4    4    0    0 -0.33635241397E+03  0.33058898997E+03 -0.13811747111E+03  0.49826641240E+03  0.82285814236E+02 0.  0.
         13    1    3    3    0    0  0.42140092475E+02 -0.95107953550E+02  0.93070188999E+03  0.93649736692E+03  0.00000000000E+00 0.  1.
        -13    1    3    3    0    0  0.33106612164E+01 -0.11534769786E+02  0.10081812500E+02  0.15673363869E+02  0.00000000000E+00 0. -1.
          2    1    6    6  502    0 -0.53257865593E+02  0.42749837743E+02  0.83332118404E+01  0.68799646032E+02  0.00000000000E+00 0. -1.
          1    1    5    5  503    0  0.23660298881E+02 -0.28716990538E+02 -0.13571615484E+02  0.39606363574E+02  0.00000000000E+00 0. -1.
         -2    1    5    5    0  503  0.26724136140E+03 -0.19522927610E+03 -0.40584528701E+03  0.52368197647E+03  0.00000000000E+00 0.  1.
         -1    1    6    6    0  502 -0.28309454838E+03  0.28783915223E+03 -0.14645068295E+03  0.42946676637E+03  0.00000000000E+00 0.  1.
<mgrwt>
<rscale>  0 0.19769194E+04</rscale>
<asrwt>0</asrwt>
<pdfrwt beam="1">  1        2 0.18438268E+00 0.19769194E+04</pdfrwt>
<pdfrwt beam="2">  1       -2 0.12542124E+00 0.19769194E+04</pdfrwt>
<totfact> 0.84008395E+00</totfact>
</mgrwt>
</event>
<event>
12    1  0.1495204E-007  0.1611324E+04  0.7818608E-02  0.8813622E-01
         -1   -1    0    0    0  501 -0.00000000000E+00  0.00000000000E+00  0.25029691656E+04  0.25029691656E+04  0.00000000000E+00 0.  1.
          1   -1    0    0  501    0  0.00000000000E+00 -0.00000000000E+00 -0.25932839928E+03  0.25932839928E+03  0.00000000000E+00 0. -1.
         23    2    1    2    0    0  0.22741337507E+03 -0.35945097741E+03  0.17541425133E+03  0.46909003407E+03  0.91397221892E+02 0.  0.
        254    2    1    2    0    0 -0.22741337507E+03  0.35945097741E+03  0.20682265150E+04  0.22932075308E+04  0.89460494842E+03 0.  0.
        -24    2    4    4    0    0 -0.43003229007E+03  0.13619313787E+03  0.18660759412E+04  0.19214674713E+04  0.79507758051E+02 0.  0.
         24    2    4    4    0    0  0.20261891501E+03  0.22325783954E+03  0.20215057380E+03  0.37174005953E+03  0.80170628866E+02 0.  0.
         11    1    3    3    0    0  0.27898661035E+02 -0.11522605817E+03  0.32986901454E+02  0.12305899169E+03  0.00000000000E+00 0.  1.
        -11    1    3    3    0    0  0.19951471403E+03 -0.24422491924E+03  0.14242734987E+03  0.34603104238E+03  0.00000000000E+00 0. -1.
          4    1    6    6  502    0  0.37055980412E+02  0.90099760492E+02  0.83976223911E+02  0.12862005562E+03  0.00000000000E+00 0. -1.
          1    1    5    5  503    0 -0.59540769205E+02  0.54992802591E+01  0.16177836255E+03  0.17247487896E+03  0.00000000000E+00 0. -1.
         -2    1    5    5    0  503 -0.37049152087E+03  0.13069385761E+03  0.17042975787E+04  0.17489925923E+04  0.00000000000E+00 0.  1.
         -3    1    6    6    0  502  0.16556293459E+03  0.13315807905E+03  0.11817434989E+03  0.24312000391E+03  0.00000000000E+00 0.  1.
<mgrwt>
<rscale>  0 0.16113237E+04</rscale>
<asrwt>0</asrwt>
<pdfrwt beam="1">  1        1 0.39896678E-01 0.16113237E+04</pdfrwt>
<pdfrwt beam="2">  1       -1 0.38507216E+00 0.16113237E+04</pdfrwt>
<totfact> 0.92339109E-01</totfact>
</mgrwt>
</event>
<event>
12    1  0.1495204E-007  0.1929534E+04  0.7818608E-02  0.8640293E-01
         -1   -1    0    0    0  501 -0.00000000000E+00  0.00000000000E+00  0.16393489150E+04  0.16393489150E+04  0.00000000000E+00 0.  1.
          1   -1    0    0  501    0  0.00000000000E+00 -0.00000000000E+00 -0.56777152049E+03  0.56777152049E+03  0.00000000000E+00 0. -1.
         23    2    1    2    0    0  0.56197610921E+03  0.91495334558E+02  0.97373946893E+03  0.11316427563E+04  0.90874809578E+02 0.  0.
        254    2    1    2    0    0 -0.56197610921E+03 -0.91495334558E+02  0.97837925613E+02  0.10754776792E+04  0.90713363691E+03 0.  0.
        -24    2    4    4    0    0  0.83217039843E+02  0.28315214949E+03 -0.52404221570E+02  0.31015658353E+03  0.79691206446E+02 0.  0.
         24    2    4    4    0    0 -0.64519314906E+03 -0.37464748405E+03  0.15024214718E+03  0.76532109568E+03  0.80676761267E+02 0.  0.
         13    1    3    3    0    0  0.30823082914E+03  0.79591716791E+02  0.47290473104E+03  0.57007014485E+03  0.00000000000E+00 0. -1.
        -13    1    3    3    0    0  0.25374528007E+03  0.11903617767E+02  0.50083473789E+03  0.56157261147E+03  0.00000000000E+00 0.  1.
          2    1    6    6  502    0 -0.63166807469E+03 -0.37847077938E+03  0.14761820913E+03  0.75102318412E+03  0.00000000000E+00 0. -1.
          3    1    5    5  503    0  0.91329945957E+01  0.16909716559E+03 -0.36432660206E+02  0.17321836430E+03  0.00000000000E+00 0. -1.
         -4    1    5    5    0  503  0.74084045247E+02  0.11405498391E+03 -0.15971561364E+02  0.13693821923E+03  0.00000000000E+00 0.  1.
         -1    1    6    6    0  502 -0.13525074370E+02  0.38232953351E+01  0.26239380536E+01  0.14297911556E+02  0.00000000000E+00 0.  1.
<mgrwt>
<rscale>  0 0.19295343E+04</rscale>
<asrwt>0</asrwt>
<pdfrwt beam="1">  1        1 0.87349465E-01 0.19295343E+04</pdfrwt>
<pdfrwt beam="2">  1       -1 0.25220752E+00 0.19295343E+04</pdfrwt>
<totfact> 0.23337903E+00</totfact>
</mgrwt>
</event>
<event>
12    1  0.1495204E-007  0.1359871E+04  0.7818608E-02  0.8983389E-01
          3   -1    0    0  501    0  0.00000000000E+00  0.00000000000E+00  0.21665466591E+03  0.21665466591E+03  0.00000000000E+00 0. -1.
         -3   -1    0    0    0  501 -0.00000000000E+00 -0.00000000000E+00 -0.21338672717E+04  0.21338672717E+04  0.00000000000E+00 0.  1.
         23    2    1    2    0    0 -0.21408183005E+02 -0.32711461639E+03 -0.23263419648E+03  0.41220778578E+03  0.91292424238E+02 0.  0.
        254    2    1    2    0    0  0.21408183005E+02  0.32711461639E+03 -0.16845784093E+04  0.19383141518E+04  0.90099669895E+03 0.  0.
        -24    2    4    4    0    0 -0.38559421354E+03  0.19819857661E+03 -0.12434902122E+04  0.13193617358E+04  0.80510302656E+02 0.  0.
         24    2    4    4    0    0  0.40700239655E+03  0.12891603978E+03 -0.44108819713E+03  0.61895241603E+03  0.79202269847E+02 0.  0.
         13    1    3    3    0    0 -0.77158256788E+01 -0.32091327630E+03 -0.20538492962E+03  0.38108769881E+03  0.00000000000E+00 0. -1.
        -13    1    3    3    0    0 -0.13692357326E+02 -0.62013400958E+01 -0.27249266864E+02  0.31120086966E+02  0.00000000000E+00 0.  1.
          4    1    6    6  502    0  0.10252808005E+03  0.10324787185E+01 -0.83815766046E+02  0.13243170258E+03  0.00000000000E+00 0. -1.
          1    1    5    5  503    0 -0.66630277331E+02  0.67866160358E+02 -0.31263122909E+03  0.32677774554E+03  0.00000000000E+00 0. -1.
         -2    1    5    5    0  503 -0.31896393621E+03  0.13033241625E+03 -0.93085898309E+03  0.99258399026E+03  0.00000000000E+00 0.  1.
         -3    1    6    6    0  502  0.30447431650E+03  0.12788356107E+03 -0.35727243109E+03  0.48652071345E+03  0.00000000000E+00 0.  1.
<mgrwt>
<rscale>  0 0.13598710E+04</rscale>
<asrwt>0</asrwt>
<pdfrwt beam="1">  1        3 0.33331489E-01 0.13598710E+04</pdfrwt>
<pdfrwt beam="2">  1       -3 0.32828726E+00 0.13598710E+04</pdfrwt>
<totfact> 0.60475266E-01</totfact>
</mgrwt>
</event>
<event>
12    1  0.1495204E-007  0.2089816E+04  0.7818608E-02  0.8565743E-01
         -2   -1    0    0    0  501 -0.00000000000E+00  0.00000000000E+00  0.91969387468E+03  0.91969387468E+03  0.00000000000E+00 0.  1.
          2   -1    0    0  501    0  0.00000000000E+00 -0.00000000000E+00 -0.11871694461E+04  0.11871694461E+04  0.00000000000E+00 0. -1.
         23    2    1    2    0    0 -0.54548772691E+03 -0.33703168161E+03  0.46483176190E+03  0.79563646721E+03  0.76299452617E+02 0.  0.
        254    2    1    2    0    0  0.54548772691E+03  0.33703168161E+03 -0.73230733328E+03  0.13112268535E+04  0.87857533338E+03 0.  0.
        -24    2    4    4    0    0  0.71797756773E+03  0.50804121783E+02 -0.60925998618E+03  0.94607906377E+03  0.76125012936E+02 0.  0.
         24    2    4    4    0    0 -0.17248984082E+03  0.28622755983E+03 -0.12304734710E+03  0.36514778976E+03  0.80705003229E+02 0.  0.
         11    1    3    3    0    0 -0.20459617651E+03 -0.13069124712E+03  0.13136589234E+03  0.27603766986E+03  0.00000000000E+00 0. -1.
        -11    1    3    3    0    0 -0.34089155040E+03 -0.20634043449E+03  0.33346586957E+03  0.51959879735E+03  0.00000000000E+00 0.  1.
          4    1    6    6  502    0 -0.24569477978E+02  0.27158621785E+02  0.10787082131E+02  0.38178673710E+02  0.00000000000E+00 0. -1.
          3    1    5    5  503    0  0.28590262541E+03 -0.14848739077E+02 -0.22464536370E+03  0.36390429470E+03  0.00000000000E+00 0. -1.
         -4    1    5    5    0  503  0.43207494231E+03  0.65652860860E+02 -0.38461462248E+03  0.58217476907E+03  0.00000000000E+00 0.  1.
         -3    1    6    6    0  502 -0.14792036284E+03  0.25906893804E+03 -0.13383442923E+03  0.32696911605E+03  0.00000000000E+00 0.  1.
<mgrwt>
<rscale>  0 0.20898158E+04</rscale>
<asrwt>0</asrwt>
<pdfrwt beam="1">  1        2 0.18264145E+00 0.20898158E+04</pdfrwt>
<pdfrwt beam="2">  1       -2 0.14149137E+00 0.20898158E+04</pdfrwt>
<totfact> 0.62131948E+00</totfact>
</mgrwt>
</event>
<event>
12    1  0.1495204E-007  0.1394602E+04  0.7818608E-02  0.8957735E-01
         -2   -1    0    0    0  501 -0.00000000000E+00  0.00000000000E+00  0.38806342496E+03  0.38806342496E+03  0.00000000000E+00 0.  1.
          2   -1    0    0  501    0  0.00000000000E+00 -0.00000000000E+00 -0.12529617555E+04  0.12529617555E+04  0.00000000000E+00 0. -1.
         23    2    1    2    0    0  0.16071452310E+03  0.35746322258E+03 -0.39311808772E+03  0.56273544957E+03  0.92305156241E+02 0.  0.
        254    2    1    2    0    0 -0.16071452310E+03 -0.35746322258E+03 -0.47178024278E+03  0.10782897308E+04  0.88686133795E+03 0.  0.
        -24    2    4    4    0    0  0.21641824932E+03 -0.31804528648E+03  0.82889971787E+02  0.40151882568E+03  0.79730527796E+02 0.  0.
         24    2    4    4    0    0 -0.37713277242E+03 -0.39417936101E+02 -0.55467021457E+03  0.67677090517E+03  0.81098146908E+02 0.  0.
         13    1    3    3    0    0  0.13474117350E+03  0.24383439899E+03 -0.32368607307E+03  0.42706331131E+03  0.00000000000E+00 0. -1.
        -13    1    3    3    0    0  0.25973349606E+02  0.11362882359E+03 -0.69432014650E+02  0.13567213826E+03  0.00000000000E+00 0.  1.
          2    1    6    6  502    0 -0.21330156238E+03 -0.13536557009E+02 -0.37941337886E+03  0.43547136180E+03  0.00000000000E+00 0. -1.
          1    1    5    5  503    0  0.19128577105E+03 -0.26479753233E+03  0.97405503412E+02  0.34087506718E+03  0.00000000000E+00 0. -1.
         -2    1    5    5    0  503  0.25132478271E+02 -0.53247754153E+02 -0.14515531625E+02  0.60643758498E+02  0.00000000000E+00 0.  1.
         -1    1    6    6    0  502 -0.16383121004E+03 -0.25881379091E+02 -0.17525683571E+03  0.24129954337E+03  0.00000000000E+00 0.  1.
<mgrwt>
<rscale>  0 0.13946019E+04</rscale>
<asrwt>0</asrwt>
<pdfrwt beam="1">  1        2 0.19276335E+00 0.13946019E+04</pdfrwt>
<pdfrwt beam="2">  1       -2 0.59702065E-01 0.13946019E+04</pdfrwt>
<totfact> 0.44893723E+01</totfact>
</mgrwt>
</event>
<event>
12    1  0.1495204E-007  0.1769713E+04  0.7818608E-02  0.8722573E-01
          1   -1    0    0  501    0  0.00000000000E+00  0.00000000000E+00  0.11164735510E+04  0.11164735510E+04  0.00000000000E+00 0. -1.
         -1   -1    0    0    0  501 -0.00000000000E+00 -0.00000000000E+00 -0.70128973550E+03  0.70128973550E+03  0.00000000000E+00 0.  1.
         23    2    1    2    0    0  0.26885418516E+03  0.20898174762E+03 -0.42011396824E+03  0.54767600681E+03  0.86587056881E+02 0.  0.
        254    2    1    2    0    0 -0.26885418516E+03 -0.20898174762E+03  0.83529778379E+03  0.12700872797E+04  0.89411596944E+03 0.  0.
        -24    2    4    4    0    0 -0.55427522229E+03 -0.29402278149E+03  0.66172742190E+03  0.91613612514E+03  0.88044311701E+02 0.  0.
         24    2    4    4    0    0  0.28542103713E+03  0.85041033873E+02  0.17357036189E+03  0.35395115459E+03  0.80359214947E+02 0.  0.
         13    1    3    3    0    0  0.17922310069E+01  0.64723059704E+01 -0.41446807588E+02  0.41987387342E+02  0.00000000000E+00 0. -1.
        -13    1    3    3    0    0  0.26706195415E+03  0.20250944164E+03 -0.37866716065E+03  0.50568861947E+03  0.00000000000E+00 0.  1.
          2    1    6    6  502    0  0.28409895917E+03  0.70991130671E+02  0.17234439013E+03  0.33978603274E+03  0.00000000000E+00 0. -1.
          3    1    5    5  503    0 -0.38475215063E+03 -0.23060888211E+03  0.42304638487E+03  0.61658974827E+03  0.00000000000E+00 0. -1.
         -4    1    5    5    0  503 -0.16952307166E+03 -0.63413899374E+02  0.23868103703E+03  0.29954637687E+03  0.00000000000E+00 0.  1.
         -1    1    6    6    0  502  0.13220779592E+01  0.14049903202E+02  0.12259717596E+01  0.14165121845E+02  0.00000000000E+00 0.  1.
<mgrwt>
<rscale>  0 0.17697135E+04</rscale>
<asrwt>0</asrwt>
<pdfrwt beam="1">  1        1 0.17176516E+00 0.17697135E+04</pdfrwt>
<pdfrwt beam="2">  1       -1 0.10789073E+00 0.17697135E+04</pdfrwt>
<totfact> 0.93140261E+00</totfact>
</mgrwt>
</event>
<event>
12    1  0.1495204E-007  0.1340235E+04  0.7818608E-02  0.8998253E-01
          2   -1    0    0  501    0  0.00000000000E+00  0.00000000000E+00  0.17588561424E+04  0.17588561424E+04  0.00000000000E+00 0. -1.
         -2   -1    0    0    0  501 -0.00000000000E+00 -0.00000000000E+00 -0.25531238625E+03  0.25531238625E+03  0.00000000000E+00 0.  1.
         23    2    1    2    0    0 -0.12564382090E+03 -0.33002079117E+03  0.49598837263E+03  0.61785632099E+03  0.10508032769E+03 0.  0.
        254    2    1    2    0    0  0.12564382090E+03  0.33002079117E+03  0.10075553835E+04  0.13963122076E+04  0.89989990444E+03 0.  0.
        -24    2    4    4    0    0 -0.97135607640E+02  0.34346314726E+03  0.29505158060E+01  0.36409888919E+03  0.71812504231E+02 0.  0.
         24    2    4    4    0    0  0.22277942854E+03 -0.13442356093E+02  0.10046048677E+04  0.10322133184E+04  0.80137530954E+02 0.  0.
         11    1    3    3    0    0 -0.11407499513E+03 -0.18899600679E+03  0.24542697543E+03  0.33010149252E+03  0.00000000000E+00 0.  1.
        -11    1    3    3    0    0 -0.11568825766E+02 -0.14102478438E+03  0.25056139720E+03  0.28775482847E+03  0.00000000000E+00 0. -1.
          2    1    6    6  502    0  0.32435542744E+02 -0.27422072027E+02  0.26487346852E+03  0.26825731825E+03  0.00000000000E+00 0. -1.
          1    1    5    5  503    0 -0.75357556016E+02  0.32883615526E+03  0.76503587496E+01  0.33744704214E+03  0.00000000000E+00 0. -1.
         -2    1    5    5    0  503 -0.21778051625E+02  0.14626991999E+02 -0.46998429436E+01  0.26651847051E+02  0.00000000000E+00 0.  1.
         -1    1    6    6    0  502  0.19034388579E+03  0.13979715934E+02  0.73973139915E+03  0.76395600018E+03  0.00000000000E+00 0.  1.
<mgrwt>
<rscale>  0 0.13402354E+04</rscale>
<asrwt>0</asrwt>
<pdfrwt beam="1">  1        2 0.27059325E+00 0.13402354E+04</pdfrwt>
<pdfrwt beam="2">  1       -2 0.39278830E-01 0.13402354E+04</pdfrwt>
<totfact> 0.54481372E+01</totfact>
</mgrwt>
</event>
<event>
12    1  0.1495204E-007  0.2439332E+04  0.7818608E-02  0.8424923E-01
         -2   -1    0    0    0  501 -0.00000000000E+00  0.00000000000E+00  0.48218599669E+03  0.48218599669E+03  0.00000000000E+00 0.  1.
          2   -1    0    0  501    0  0.00000000000E+00 -0.00000000000E+00 -0.30850861682E+04  0.30850861682E+04  0.00000000000E+00 0. -1.
         23    2    1    2    0    0  0.42945124807E+03  0.91202442746E+03 -0.15546055964E+04  0.18551260701E+04  0.92071954840E+02 0.  0.
        254    2    1    2    0    0 -0.42945124807E+03 -0.91202442746E+03 -0.10482945750E+04  0.17121460947E+04  0.90349643214E+03 0.  0.
        -24    2    4    4    0    0 -0.32140703708E+03 -0.70997077180E+03 -0.11951050419E+04  0.14289503940E+04  0.79133981330E+02 0.  0.
         24    2    4    4    0    0 -0.10804421099E+03 -0.20205365567E+03  0.14681046686E+03  0.28319570075E+03  0.78404467009E+02 0.  0.
         13    1    3    3    0    0  0.35080887382E+03  0.74997143899E+03 -0.13374191245E+04  0.15729634261E+04  0.00000000000E+00 0. -1.
        -13    1    3    3    0    0  0.78642374243E+02  0.16205298847E+03 -0.21718647194E+03  0.28216264404E+03  0.00000000000E+00 0.  1.
          2    1    6    6  502    0  0.47114799467E+01 -0.32396308435E+02  0.11319098655E+01  0.32756679677E+02  0.00000000000E+00 0. -1.
          1    1    5    5  503    0 -0.69379315077E+02 -0.11740821075E+03 -0.25972558293E+03  0.29335227243E+03  0.00000000000E+00 0. -1.
         -2    1    5    5    0  503 -0.25202772200E+03 -0.59256256104E+03 -0.93537945898E+03  0.11355981216E+04  0.00000000000E+00 0.  1.
         -1    1    6    6    0  502 -0.11275569093E+03 -0.16965734723E+03  0.14567855699E+03  0.25043902107E+03  0.00000000000E+00 0.  1.
<mgrwt>
<rscale>  0 0.24393322E+04</rscale>
<asrwt>0</asrwt>
<pdfrwt beam="1">  1        2 0.47462865E+00 0.24393322E+04</pdfrwt>
<pdfrwt beam="2">  1       -2 0.74182460E-01 0.24393322E+04</pdfrwt>
<totfact> 0.22569091E+00</totfact>
</mgrwt>
</event>
<event>
12    1  0.1495204E-007  0.1508250E+04  0.7818608E-02  0.8878986E-01
         -2   -1    0    0    0  501 -0.00000000000E+00  0.00000000000E+00  0.66128169184E+03  0.66128169184E+03  0.00000000000E+00 0.  1.
          2   -1    0    0  501    0  0.00000000000E+00 -0.00000000000E+00 -0.86000286577E+03  0.86000286577E+03  0.00000000000E+00 0. -1.
         23    2    1    2    0    0  0.27201148408E+03 -0.27926765522E+03  0.21614030154E+03  0.45454371287E+03  0.88953281206E+02 0.  0.
        254    2    1    2    0    0 -0.27201148408E+03  0.27926765522E+03 -0.41486147547E+03  0.10667408447E+04  0.90213375687E+03 0.  0.
        -24    2    4    4    0    0 -0.29970497613E+03 -0.16353224845E+03 -0.49805288674E+03  0.60910752547E+03  0.79933913915E+02 0.  0.
         24    2    4    4    0    0  0.27693492053E+02  0.44279990367E+03  0.83191411266E+02  0.45763331927E+03  0.75291166884E+02 0.  0.
         13    1    3    3    0    0  0.26699354940E+03 -0.24770315597E+03  0.17985596079E+03  0.40619031935E+03  0.00000000000E+00 0.  1.
        -13    1    3    3    0    0  0.50179346730E+01 -0.31564499247E+02  0.36284340751E+02  0.48353393520E+02  0.00000000000E+00 0. -1.
          4    1    6    6  502    0  0.16067023124E+02  0.31064787295E+03  0.92835301666E+02  0.32462076864E+03  0.00000000000E+00 0. -1.
          1    1    5    5  503    0 -0.11984182519E+03 -0.62269028559E+02 -0.26748388195E+03  0.29964499342E+03  0.00000000000E+00 0. -1.
         -2    1    5    5    0  503 -0.17986315094E+03 -0.10126321989E+03 -0.23056900479E+03  0.30946253205E+03  0.00000000000E+00 0.  1.
         -1    1    6    6    0  502  0.11626468930E+02  0.13215203072E+03 -0.96438904004E+01  0.13301255063E+03  0.00000000000E+00 0.  1.
<mgrwt>
<rscale>  0 0.15082495E+04</rscale>
<asrwt>0</asrwt>
<pdfrwt beam="1">  1        2 0.13230813E+00 0.15082495E+04</pdfrwt>
<pdfrwt beam="2">  1       -2 0.10173564E+00 0.15082495E+04</pdfrwt>
<totfact> 0.23915975E+01</totfact>
</mgrwt>
</event>
<event>
12    1  0.1495204E-007  0.2161897E+04  0.7818608E-02  0.8534457E-01
         -2   -1    0    0    0  501 -0.00000000000E+00  0.00000000000E+00  0.69414774284E+03  0.69414774284E+03  0.00000000000E+00 0. -1.
          2   -1    0    0  501    0  0.00000000000E+00 -0.00000000000E+00 -0.16832865166E+04  0.16832865166E+04  0.00000000000E+00 0.  1.
         23    2    1    2    0    0  0.87654817831E+03 -0.16483882326E+03 -0.35977165152E+03  0.96604797862E+03  0.91129079920E+02 0.  0.
        254    2    1    2    0    0 -0.87654817831E+03  0.16483882326E+03 -0.62936712221E+03  0.14113862808E+04  0.89465060918E+03 0.  0.
        -24    2    4    4    0    0  0.53940884313E+02 -0.18404549239E+03  0.38051491845E+02  0.21158556992E+03  0.80858982788E+02 0.  0.
         24    2    4    4    0    0 -0.93048906262E+03  0.34888431565E+03 -0.66741861405E+03  0.11998007109E+04  0.80894857828E+02 0.  0.
         13    1    3    3    0    0  0.16035097511E+03 -0.55848482239E+02 -0.96143462952E+02  0.19512830050E+03  0.00000000000E+00 0. -1.
        -13    1    3    3    0    0  0.71619720320E+03 -0.10899034102E+03 -0.26362818857E+03  0.77091967812E+03  0.00000000000E+00 0.  1.
          2    1    6    6  502    0 -0.53231895488E+03  0.22410921795E+03 -0.34794616249E+03  0.67428105659E+03  0.00000000000E+00 0. -1.
          3    1    5    5  503    0  0.34398169830E+02 -0.82744371038E+02 -0.21921074325E+02  0.92251821259E+02  0.00000000000E+00 0. -1.
         -4    1    5    5    0  503  0.19542714483E+02 -0.10130112135E+03  0.59972566170E+02  0.11933374866E+03  0.00000000000E+00 0.  1.
         -1    1    6    6    0  502 -0.39817010775E+03  0.12477509770E+03 -0.31947245157E+03  0.52551965427E+03  0.00000000000E+00 0.  1.
<mgrwt>
<rscale>  0 0.21618969E+04</rscale>
<asrwt>0</asrwt>
<pdfrwt beam="1">  1        2 0.25896716E+00 0.21618969E+04</pdfrwt>
<pdfrwt beam="2">  1       -2 0.10679196E+00 0.21618969E+04</pdfrwt>
<totfact> 0.64840223E+00</totfact>
</mgrwt>
</event>
<event>
12    1  0.1495204E-007  0.2438051E+04  0.7818608E-02  0.8425394E-01
          2   -1    0    0  501    0  0.00000000000E+00  0.00000000000E+00  0.25521402276E+04  0.25521402276E+04  0.00000000000E+00 0.  1.
         -2   -1    0    0    0  501 -0.00000000000E+00 -0.00000000000E+00 -0.58226559708E+03  0.58226559708E+03  0.00000000000E+00 0. -1.
         23    2    1    2    0    0  0.85026552254E+03  0.21352328960E+03  0.16036355633E+04  0.18298100815E+04  0.89522401275E+02 0.  0.
        254    2    1    2    0    0 -0.85026552254E+03 -0.21352328960E+03  0.36623906724E+03  0.13045957432E+04  0.89403319003E+03 0.  0.
        -24    2    4    4    0    0  0.92054439023E+02  0.42861870661E+02 -0.14954317124E+03  0.19726672895E+03  0.78992674257E+02 0.  0.
         24    2    4    4    0    0 -0.94231996157E+03 -0.25638516026E+03  0.51578223849E+03  0.11073290143E+04  0.80286785818E+02 0.  0.
         11    1    3    3    0    0  0.67896256196E+03  0.19040523424E+03  0.12221703881E+04  0.14110084236E+04  0.00000000000E+00 0.  1.
        -11    1    3    3    0    0  0.17130296059E+03  0.23118055359E+02  0.38146517518E+03  0.41880165790E+03  0.00000000000E+00 0. -1.
          2    1    6    6  502    0 -0.13342008820E+03 -0.65946947939E+02  0.81310924425E+02  0.16959182265E+03  0.00000000000E+00 0. -1.
          3    1    5    5  503    0  0.21709625644E+02  0.49631025983E+02 -0.41838773417E+02  0.68447275670E+02  0.00000000000E+00 0. -1.
         -4    1    5    5    0  503  0.70344813379E+02 -0.67691553217E+01 -0.10770439782E+03  0.12881945328E+03  0.00000000000E+00 0.  1.
         -1    1    6    6    0  502 -0.80889987337E+03 -0.19043821232E+03  0.43447131406E+03  0.93773719164E+03  0.00000000000E+00 0.  1.
<mgrwt>
<rscale>  0 0.24380512E+04</rscale>
<asrwt>0</asrwt>
<pdfrwt beam="1">  1        2 0.39263695E+00 0.24380512E+04</pdfrwt>
<pdfrwt beam="2">  1       -2 0.89579324E-01 0.24380512E+04</pdfrwt>
<totfact> 0.31083485E+00</totfact>
</mgrwt>
</event>
<event>
12    1  0.1495204E-007  0.2153836E+04  0.7818608E-02  0.8537892E-01
         -4   -1    0    0    0  501 -0.00000000000E+00  0.00000000000E+00  0.18606296466E+04  0.18606296466E+04  0.00000000000E+00 0.  1.
          4   -1    0    0  501    0  0.00000000000E+00 -0.00000000000E+00 -0.62331195872E+03  0.62331195872E+03  0.00000000000E+00 0. -1.
         23    2    1    2    0    0 -0.45277790056E+03  0.41717126455E+03 -0.22526791907E+03  0.66190137341E+03  0.91258432758E+02 0.  0.
        254    2    1    2    0    0  0.45277790056E+03 -0.41717126455E+03  0.14625856069E+04  0.18220402319E+04  0.89534030280E+03 0.  0.
        -24    2    4    4    0    0 -0.16514518464E+03 -0.66580347222E+02  0.19838478923E+01  0.19593872391E+03  0.81744560841E+02 0.  0.
         24    2    4    4    0    0  0.61792308521E+03 -0.35059091733E+03  0.14606017590E+04  0.16261015080E+04  0.78138884233E+02 0.  0.
         13    1    3    3    0    0 -0.18571338131E+03  0.20895589280E+03 -0.63840936250E+02  0.28675371013E+03  0.00000000000E+00 0.  1.
        -13    1    3    3    0    0 -0.26706451926E+03  0.20821537175E+03 -0.16142698282E+03  0.37514766328E+03  0.00000000000E+00 0. -1.
          2    1    6    6  502    0  0.20360535971E+03 -0.79546658735E+02  0.48868919108E+03  0.53535029551E+03  0.00000000000E+00 0. -1.
          1    1    5    5  503    0 -0.86170173848E+02  0.84974116545E+01 -0.51314589894E+01  0.86740052670E+02  0.00000000000E+00 0. -1.
         -2    1    5    5    0  503 -0.78975010793E+02 -0.75077758876E+02  0.71153068817E+01  0.10919867124E+03  0.00000000000E+00 0.  1.
         -3    1    6    6    0  502  0.41431772550E+03 -0.27104425859E+03  0.97191256794E+03  0.10907512125E+04  0.00000000000E+00 0.  1.
<mgrwt>
<rscale>  0 0.21538363E+04</rscale>
<asrwt>0</asrwt>
<pdfrwt beam="1">  1        4 0.95894148E-01 0.21538363E+04</pdfrwt>
<pdfrwt beam="2">  1       -4 0.28625071E+00 0.21538363E+04</pdfrwt>
<totfact> 0.62986970E-02</totfact>
</mgrwt>
</event>
<event>
12    1  0.1495204E-007  0.1914386E+04  0.7818608E-02  0.8647728E-01
          1   -1    0    0  501    0  0.00000000000E+00  0.00000000000E+00  0.34932980660E+03  0.34932980660E+03  0.00000000000E+00 0. -1.
         -1   -1    0    0    0  501 -0.00000000000E+00 -0.00000000000E+00 -0.26227899786E+04  0.26227899786E+04  0.00000000000E+00 0.  1.
         23    2    1    2    0    0 -0.18482896142E+03  0.72650980070E+03 -0.76379152554E+03  0.10741727001E+04  0.92148031366E+02 0.  0.
        254    2    1    2    0    0  0.18482896142E+03 -0.72650980070E+03 -0.15096686465E+04  0.18979470851E+04  0.87242505705E+03 0.  0.
        -24    2    4    4    0    0 -0.93583006500E+02  0.12149116672E+03 -0.58596662427E+03  0.61092004841E+03  0.79677713889E+02 0.  0.
         24    2    4    4    0    0  0.27841196792E+03 -0.84800096742E+03 -0.92370202218E+03  0.12870270367E+04  0.81205312019E+02 0.  0.
         13    1    3    3    0    0 -0.23748981429E+02  0.22713913617E+02 -0.41139829895E+02  0.52653789935E+02  0.00000000000E+00 0.  1.
        -13    1    3    3    0    0 -0.16107997999E+03  0.70379588709E+03 -0.72265169565E+03  0.10215189102E+04  0.00000000000E+00 0. -1.
          4    1    6    6  502    0  0.13986600181E+03 -0.54782606672E+03 -0.56914353639E+03  0.80224700863E+03  0.00000000000E+00 0. -1.
          1    1    5    5  503    0 -0.43489105577E+02  0.11332929340E+03 -0.38759813624E+03  0.40616147806E+03  0.00000000000E+00 0. -1.
         -4    1    5    5    0  503 -0.50093900924E+02  0.81618733231E+01 -0.19836848803E+03  0.20475857035E+03  0.00000000000E+00 0.  1.
         -3    1    6    6    0  502  0.13854596612E+03 -0.30017490070E+03 -0.35455848579E+03  0.48478002804E+03  0.00000000000E+00 0.  1.
<mgrwt>
<rscale>  0 0.19143863E+04</rscale>
<asrwt>0</asrwt>
<pdfrwt beam="1">  1        1 0.53743046E-01 0.19143863E+04</pdfrwt>
<pdfrwt beam="2">  1       -1 0.40350616E+00 0.19143863E+04</pdfrwt>
<totfact> 0.45522737E-01</totfact>
</mgrwt>
</event>
<event>
12    1  0.1495204E-007  0.1545033E+04  0.7818608E-02  0.8855047E-01
          1   -1    0    0  501    0  0.00000000000E+00  0.00000000000E+00  0.14750787385E+04  0.14750787385E+04  0.00000000000E+00 0. -1.
         -1   -1    0    0    0  501 -0.00000000000E+00 -0.00000000000E+00 -0.40457622417E+03  0.40457622417E+03  0.00000000000E+00 0.  1.
         23    2    1    2    0    0 -0.23553269455E+03  0.16953933040E+03  0.88999792440E+03  0.94032553977E+03  0.88862706254E+02 0.  0.
        254    2    1    2    0    0  0.23553269455E+03 -0.16953933040E+03  0.18050458997E+03  0.93932942293E+03  0.87495064034E+03 0.  0.
        -24    2    4    4    0    0  0.51342746519E+02  0.23587286397E+03  0.37028439606E+03  0.44883692214E+03  0.77922802366E+02 0.  0.
         24    2    4    4    0    0  0.18418994803E+03 -0.40541219437E+03 -0.18977980609E+03  0.49049250080E+03  0.79256130608E+02 0.  0.
         11    1    3    3    0    0 -0.19225997433E+03  0.14131372257E+03  0.59896136686E+03  0.64473885016E+03  0.00000000000E+00 0. -1.
        -11    1    3    3    0    0 -0.43272720225E+02  0.28225607825E+02  0.29103655753E+03  0.29558668961E+03  0.00000000000E+00 0.  1.
          2    1    6    6  502    0  0.15326536994E+03 -0.37495294080E+03 -0.15103501772E+03  0.43230956271E+03  0.00000000000E+00 0. -1.
          1    1    5    5  503    0  0.42651344175E+01  0.99292803528E+02  0.21433713526E+03  0.23625761312E+03  0.00000000000E+00 0. -1.
         -2    1    5    5    0  503  0.47077612102E+02  0.13658006044E+03  0.15594726080E+03  0.21257930902E+03  0.00000000000E+00 0.  1.
         -1    1    6    6    0  502  0.30924578094E+02 -0.30459253573E+02 -0.38744788367E+02  0.58182938084E+02  0.00000000000E+00 0.  1.
<mgrwt>
<rscale>  0 0.15450331E+04</rscale>
<asrwt>0</asrwt>
<pdfrwt beam="1">  1        1 0.22693519E+00 0.15450331E+04</pdfrwt>
<pdfrwt beam="2">  1       -1 0.62242497E-01 0.15450331E+04</pdfrwt>
<totfact> 0.17178022E+01</totfact>
</mgrwt>
</event>
<event>
12    1  0.1495204E-007  0.1554779E+04  0.7818608E-02  0.8848821E-01
          1   -1    0    0  501    0  0.00000000000E+00  0.00000000000E+00  0.97004998840E+03  0.97004998840E+03  0.00000000000E+00 0. -1.
         -1   -1    0    0    0  501 -0.00000000000E+00 -0.00000000000E+00 -0.62299347731E+03  0.62299347731E+03  0.00000000000E+00 0.  1.
         23    2    1    2    0    0 -0.21031687857E+03  0.21376412761E+03  0.54732606637E+03  0.63059358760E+03  0.90300377255E+02 0.  0.
        254    2    1    2    0    0  0.21031687857E+03 -0.21376412761E+03 -0.20026955528E+03  0.96244987810E+03  0.89234162820E+03 0.  0.
        -24    2    4    4    0    0 -0.33055400442E+03  0.30161679472E+02 -0.46339469966E+02  0.34435589573E+03  0.79107267054E+02 0.  0.
         24    2    4    4    0    0  0.54087088299E+03 -0.24392580708E+03 -0.15393008531E+03  0.61809398237E+03  0.79401438598E+02 0.  0.
         11    1    3    3    0    0  0.14517247916E+01 -0.47897612890E+01  0.29844469296E+02  0.30261223796E+02  0.00000000000E+00 0.  1.
        -11    1    3    3    0    0 -0.21176860337E+03  0.21855388889E+03  0.51748159707E+03  0.60033236381E+03  0.00000000000E+00 0. -1.
          4    1    6    6  502    0  0.53200957177E+03 -0.24021487701E+03 -0.13852497079E+03  0.59993877948E+03  0.00000000000E+00 0. -1.
          3    1    5    5  503    0 -0.25025743863E+03  0.56620835573E+02 -0.31296437893E+02  0.25848437407E+03  0.00000000000E+00 0. -1.
         -4    1    5    5    0  503 -0.80296565785E+02 -0.26459156101E+02 -0.15043032073E+02  0.85871521661E+02  0.00000000000E+00 0.  1.
         -3    1    6    6    0  502  0.88613112253E+01 -0.37109300671E+01 -0.15405114524E+02  0.18155202894E+02  0.00000000000E+00 0.  1.
<mgrwt>
<rscale>  0 0.15547795E+04</rscale>
<asrwt>0</asrwt>
<pdfrwt beam="1">  1        1 0.14923846E+00 0.15547795E+04</pdfrwt>
<pdfrwt beam="2">  1       -1 0.95845151E-01 0.15547795E+04</pdfrwt>
<totfact> 0.16153599E+01</totfact>
</mgrwt>
</event>
<event>
12    1  0.1495204E-007  0.1908726E+04  0.7818608E-02  0.8650525E-01
         -2   -1    0    0    0  501 -0.00000000000E+00  0.00000000000E+00  0.60562041278E+03  0.60562041278E+03  0.00000000000E+00 0.  1.
          2   -1    0    0  501    0  0.00000000000E+00 -0.00000000000E+00 -0.15039261994E+04  0.15039261994E+04  0.00000000000E+00 0. -1.
         23    2    1    2    0    0 -0.52833785234E+03  0.46260395132E+03 -0.28977491406E+03  0.76525178114E+03  0.92181808011E+02 0.  0.
        254    2    1    2    0    0  0.52833785234E+03 -0.46260395132E+03 -0.60853087251E+03  0.13442948310E+04  0.97142960005E+03 0.  0.
        -24    2    4    4    0    0 -0.26233379929E+02 -0.54307275729E+03 -0.54933503972E+02  0.55239077953E+03  0.80632955529E+02 0.  0.
         24    2    4    4    0    0  0.55457123227E+03  0.80468805970E+02 -0.55359736853E+03  0.79190405147E+03  0.81348017097E+02 0.  0.
         13    1    3    3    0    0 -0.47154098026E+03  0.42840354436E+03 -0.28739303981E+03  0.69891004586E+03  0.00000000000E+00 0.  1.
        -13    1    3    3    0    0 -0.56796872083E+02  0.34200406961E+02 -0.23818742582E+01  0.66341735277E+02  0.00000000000E+00 0. -1.
          4    1    6    6  502    0  0.51674043693E+03  0.75566084682E+02 -0.54047967855E+03  0.75156449838E+03  0.00000000000E+00 0. -1.
          3    1    5    5  503    0 -0.30701762904E+02 -0.21096664270E+03  0.12200250428E+02  0.21353774535E+03  0.00000000000E+00 0. -1.
         -4    1    5    5    0  503  0.44683829753E+01 -0.33210611458E+03 -0.67133754400E+02  0.33885303418E+03  0.00000000000E+00 0.  1.
         -3    1    6    6    0  502  0.37830795342E+02  0.49027212878E+01 -0.13117689988E+02  0.40339553082E+02  0.00000000000E+00 0.  1.
<mgrwt>
<rscale>  0 0.19087257E+04</rscale>
<asrwt>0</asrwt>
<pdfrwt beam="1">  1        2 0.23137326E+00 0.19087257E+04</pdfrwt>
<pdfrwt beam="2">  1       -2 0.93172373E-01 0.19087257E+04</pdfrwt>
<totfact> 0.11527795E+01</totfact>
</mgrwt>
</event>
<event>
12    1  0.1495204E-007  0.2556465E+04  0.7818608E-02  0.8383141E-01
         -1   -1    0    0    0  501 -0.00000000000E+00  0.00000000000E+00  0.95428879470E+03  0.95428879470E+03  0.00000000000E+00 0.  1.
          1   -1    0    0  501    0  0.00000000000E+00 -0.00000000000E+00 -0.17121419931E+04  0.17121419931E+04  0.00000000000E+00 0. -1.
         23    2    1    2    0    0 -0.10083354191E+04  0.33261513244E+03 -0.68320378571E+03  0.12659350445E+04  0.91929214262E+02 0.  0.
        254    2    1    2    0    0  0.10083354191E+04 -0.33261513244E+03 -0.74649412678E+02  0.14004957433E+04  0.91018824889E+03 0.  0.
        -24    2    4    4    0    0  0.90879618286E+03  0.12604372394E+03 -0.73079797289E+02  0.92404618539E+03  0.81994961081E+02 0.  0.
         24    2    4    4    0    0  0.99539236209E+02 -0.45865885638E+03 -0.15696153885E+01  0.47644955787E+03  0.82010434842E+02 0.  0.
         13    1    3    3    0    0 -0.68288770852E+03  0.26814086046E+03 -0.48501909295E+03  0.87947635785E+03  0.00000000000E+00 0. -1.
        -13    1    3    3    0    0 -0.32544771055E+03  0.64474271982E+02 -0.19818469276E+03  0.38645868666E+03  0.00000000000E+00 0.  1.
          4    1    6    6  502    0  0.10018557828E+03 -0.42612987554E+03  0.18645452380E+02  0.43814549389E+03  0.00000000000E+00 0. -1.
          3    1    5    5  503    0  0.65531732557E+03  0.10201278357E+03 -0.87848395345E+02  0.66900279952E+03  0.00000000000E+00 0. -1.
         -4    1    5    5    0  503  0.25347885729E+03  0.24030940372E+02  0.14768598056E+02  0.25504338587E+03  0.00000000000E+00 0.  1.
         -3    1    6    6    0  502 -0.64634207160E+00 -0.32528980845E+02 -0.20215067768E+02  0.38304063985E+02  0.00000000000E+00 0.  1.
<mgrwt>
<rscale>  0 0.25564647E+04</rscale>
<asrwt>0</asrwt>
<pdfrwt beam="1">  1        1 0.26340646E+00 0.25564647E+04</pdfrwt>
<pdfrwt beam="2">  1       -1 0.14681366E+00 0.25564647E+04</pdfrwt>
<totfact> 0.15279263E+00</totfact>
</mgrwt>
</event>
<event>
12    1  0.1495204E-007  0.2036750E+04  0.7818608E-02  0.8589629E-01
          2   -1    0    0  501    0  0.00000000000E+00  0.00000000000E+00  0.12696457530E+04  0.12696457530E+04  0.00000000000E+00 0. -1.
         -2   -1    0    0    0  501 -0.00000000000E+00 -0.00000000000E+00 -0.81683193428E+03  0.81683193428E+03  0.00000000000E+00 0.  1.
         23    2    1    2    0    0  0.19932389704E+03 -0.65368113382E+03 -0.27947866373E+03  0.74394627370E+03  0.91206874917E+02 0.  0.
        254    2    1    2    0    0 -0.19932389704E+03  0.65368113382E+03  0.73229248250E+03  0.13425314136E+04  0.89392912247E+03 0.  0.
        -24    2    4    4    0    0 -0.25043250683E+03  0.80007905619E+03  0.33150476654E+03  0.90512905325E+03  0.80748103259E+02 0.  0.
         24    2    4    4    0    0  0.51108609785E+02 -0.14639792237E+03  0.40078771595E+03  0.43740236037E+03  0.81520487792E+02 0.  0.
         13    1    3    3    0    0  0.41504675013E+02 -0.11758961729E+03 -0.14728044437E+02  0.12556620339E+03  0.00000000000E+00 0. -1.
        -13    1    3    3    0    0  0.15781922203E+03 -0.53609151653E+03 -0.26475061929E+03  0.61838007031E+03  0.00000000000E+00 0.  1.
          4    1    6    6  502    0 -0.14403395895E+02 -0.55014475701E+02  0.85687661156E+02  0.10284175040E+03  0.00000000000E+00 0. -1.
          1    1    5    5  503    0 -0.11179620909E+03  0.28368191911E+03  0.15510816007E+03  0.34209993411E+03  0.00000000000E+00 0. -1.
         -2    1    5    5    0  503 -0.13863629774E+03  0.51639713707E+03  0.17639660647E+03  0.56302911914E+03  0.00000000000E+00 0.  1.
         -3    1    6    6    0  502  0.65512005680E+02 -0.91383446665E+02  0.31510005480E+03  0.33456060997E+03  0.00000000000E+00 0.  1.
<mgrwt>
<rscale>  0 0.20367496E+04</rscale>
<asrwt>0</asrwt>
<pdfrwt beam="1">  1        2 0.19533012E+00 0.20367496E+04</pdfrwt>
<pdfrwt beam="2">  1       -2 0.12566645E+00 0.20367496E+04</pdfrwt>
<totfact> 0.75489478E+00</totfact>
</mgrwt>
</event>
<event>
12    1  0.1495204E-007  0.1051649E+04  0.7818608E-02  0.9253643E-01
          2   -1    0    0  501    0  0.00000000000E+00  0.00000000000E+00  0.12607427879E+04  0.12607427879E+04  0.00000000000E+00 0. -1.
         -2   -1    0    0    0  501 -0.00000000000E+00 -0.00000000000E+00 -0.21930823578E+03  0.21930823578E+03  0.00000000000E+00 0.  1.
         23    2    1    2    0    0 -0.32623244341E+02  0.58094606969E+02  0.28231220704E+03  0.30432378428E+03  0.92051746357E+02 0.  0.
        254    2    1    2    0    0  0.32623244341E+02 -0.58094606969E+02  0.75912234512E+03  0.11757272394E+04  0.89533711374E+03 0.  0.
        -24    2    4    4    0    0  0.38794705940E+03  0.18542658015E+03  0.24656496534E+03  0.50213038073E+03  0.80341145073E+02 0.  0.
         24    2    4    4    0    0 -0.35532381506E+03 -0.24352118712E+03  0.51255737978E+03  0.67359685869E+03  0.73892342994E+02 0.  0.
         11    1    3    3    0    0 -0.61297403811E+02  0.48367686850E+02  0.23934537148E+03  0.25175982939E+03  0.00000000000E+00 0. -1.
        -11    1    3    3    0    0  0.28674159469E+02  0.97269201193E+01  0.42966835562E+02  0.52563954898E+02  0.00000000000E+00 0.  1.
          4    1    6    6  502    0 -0.18374918977E+03 -0.83480166444E+02  0.21943595167E+03  0.29813560642E+03  0.00000000000E+00 0. -1.
          1    1    5    5  503    0  0.18523799419E+03  0.13202626717E+03  0.13800729260E+03  0.26606401960E+03  0.00000000000E+00 0. -1.
         -2    1    5    5    0  503  0.20270906521E+03  0.53400312978E+02  0.10855767274E+03  0.23606636113E+03  0.00000000000E+00 0.  1.
         -3    1    6    6    0  502 -0.17157462529E+03 -0.16004102068E+03  0.29312142811E+03  0.37546125227E+03  0.00000000000E+00 0.  1.
<mgrwt>
<rscale>  0 0.10516488E+04</rscale>
<asrwt>0</asrwt>
<pdfrwt beam="1">  1        2 0.19396042E+00 0.10516488E+04</pdfrwt>
<pdfrwt beam="2">  1       -2 0.33739730E-01 0.10516488E+04</pdfrwt>
<totfact> 0.14243391E+02</totfact>
</mgrwt>
</event>
<event>
12    1  0.1495204E-007  0.1693333E+04  0.7818608E-02  0.8765176E-01
         -2   -1    0    0    0  501 -0.00000000000E+00  0.00000000000E+00  0.11991620169E+04  0.11991620169E+04  0.00000000000E+00 0.  1.
          2   -1    0    0  501    0  0.00000000000E+00 -0.00000000000E+00 -0.59778745370E+03  0.59778745370E+03  0.00000000000E+00 0. -1.
         23    2    1    2    0    0  0.56469804188E+03 -0.22560254978E+03  0.15391798795E+03  0.63362998138E+03  0.89531096911E+02 0.  0.
        254    2    1    2    0    0 -0.56469804188E+03  0.22560254978E+03  0.44745657525E+03  0.11633194892E+04  0.88505053996E+03 0.  0.
        -24    2    4    4    0    0 -0.13627988386E+03 -0.33066578454E+03  0.13855181187E+03  0.39203790317E+03  0.81148291032E+02 0.  0.
         24    2    4    4    0    0 -0.42841815802E+03  0.55626833432E+03  0.30890476338E+03  0.77128158605E+03  0.80477041757E+02 0.  0.
         13    1    3    3    0    0  0.53566871443E+02 -0.48640652093E+02  0.32248572229E+02  0.79216747996E+02  0.00000000000E+00 0.  1.
        -13    1    3    3    0    0  0.51113117044E+03 -0.17696189768E+03  0.12166941572E+03  0.55441323338E+03  0.00000000000E+00 0. -1.
          4    1    6    6  502    0 -0.18360923003E+03  0.24120226910E+03  0.17710674606E+03  0.35108073640E+03  0.00000000000E+00 0. -1.
          3    1    5    5  503    0 -0.12818472944E+03 -0.31431527537E+03  0.10757377184E+03  0.35608641308E+03  0.00000000000E+00 0. -1.
         -4    1    5    5    0  503 -0.80951544163E+01 -0.16350509166E+02  0.30978040031E+02  0.35951490083E+02  0.00000000000E+00 0.  1.
         -3    1    6    6    0  502 -0.24480892799E+03  0.31506606521E+03  0.13179801733E+03  0.42020084965E+03  0.00000000000E+00 0.  1.
<mgrwt>
<rscale>  0 0.16933328E+04</rscale>
<asrwt>0</asrwt>
<pdfrwt beam="1">  1        2 0.91967301E-01 0.16933328E+04</pdfrwt>
<pdfrwt beam="2">  1       -2 0.18448646E+00 0.16933328E+04</pdfrwt>
<totfact> 0.80039148E+00</totfact>
</mgrwt>
</event>
<event>
12    1  0.1495204E-007  0.1531802E+04  0.7818608E-02  0.8863576E-01
          1   -1    0    0  501    0  0.00000000000E+00  0.00000000000E+00  0.53090695086E+03  0.53090695086E+03  0.00000000000E+00 0. -1.
         -1   -1    0    0    0  501 -0.00000000000E+00 -0.00000000000E+00 -0.11049099817E+04  0.11049099817E+04  0.00000000000E+00 0.  1.
         23    2    1    2    0    0 -0.24377997279E+03 -0.10480869696E+02 -0.64738468267E+03  0.69816443573E+03  0.93745016895E+02 0.  0.
        254    2    1    2    0    0  0.24377997279E+03  0.10480869696E+02  0.73381651875E+02  0.93765249678E+03  0.90236844699E+03 0.  0.
        -24    2    4    4    0    0  0.23018428619E+03  0.43706070539E+03  0.29795896383E+02  0.50126737732E+03  0.79839353259E+02 0.  0.
         24    2    4    4    0    0  0.13595686607E+02 -0.42657983569E+03  0.43585755493E+02  0.43638511946E+03  0.79856468078E+02 0.  0.
         13    1    3    3    0    0 -0.10287503241E+02  0.13603406421E+02 -0.11595928310E+03  0.11720682884E+03  0.00000000000E+00 0. -1.
        -13    1    3    3    0    0 -0.23349246955E+03 -0.24084276117E+02 -0.53142539957E+03  0.58095760689E+03  0.00000000000E+00 0.  1.
          2    1    6    6  502    0 -0.17748316359E+02 -0.67602175825E+02  0.29220343730E+02  0.75755431472E+02  0.00000000000E+00 0. -1.
          1    1    5    5  503    0  0.31804930877E+02  0.13540351788E+03  0.15395635475E+02  0.13993817161E+03  0.00000000000E+00 0. -1.
         -2    1    5    5    0  503  0.19837935531E+03  0.30165718751E+03  0.14400260908E+02  0.36132920571E+03  0.00000000000E+00 0.  1.
         -1    1    6    6    0  502  0.31344002966E+02 -0.35897765986E+03  0.14365411763E+02  0.36062968799E+03  0.00000000000E+00 0.  1.
<mgrwt>
<rscale>  0 0.15318021E+04</rscale>
<asrwt>0</asrwt>
<pdfrwt beam="1">  1        1 0.81677993E-01 0.15318021E+04</pdfrwt>
<pdfrwt beam="2">  1       -1 0.16998615E+00 0.15318021E+04</pdfrwt>
<totfact> 0.96810069E+00</totfact>
</mgrwt>
</event>
<event>
12    1  0.1495204E-007  0.1775405E+04  0.7818608E-02  0.8719489E-01
          2   -1    0    0  501    0  0.00000000000E+00  0.00000000000E+00  0.23667233783E+03  0.23667233783E+03  0.00000000000E+00 0. -1.
         -2   -1    0    0    0  501 -0.00000000000E+00 -0.00000000000E+00 -0.33295654470E+04  0.33295654470E+04  0.00000000000E+00 0.  1.
         23    2    1    2    0    0  0.23429745552E+03  0.11195954797E+03 -0.23603738502E+04  0.23764177741E+04  0.92555314837E+02 0.  0.
        254    2    1    2    0    0 -0.23429745552E+03 -0.11195954797E+03 -0.73251925899E+03  0.11898200108E+04  0.90092006036E+03 0.  0.
        -24    2    4    4    0    0  0.29248397095E+03  0.25858035261E+02 -0.51485051672E+03  0.59783479193E+03  0.78229614799E+02 0.  0.
         24    2    4    4    0    0 -0.52678142647E+03 -0.13781758323E+03 -0.21766874227E+03  0.59198521882E+03  0.81083046456E+02 0.  0.
         11    1    3    3    0    0  0.20323751199E+03  0.85567003597E+02 -0.16221895488E+04  0.16371090772E+04  0.00000000000E+00 0.  1.
        -11    1    3    3    0    0  0.31059943521E+02  0.26392544374E+02 -0.73818430144E+03  0.73930869695E+03  0.00000000000E+00 0. -1.
          4    1    6    6  502    0 -0.52640194785E+03 -0.14174102962E+03 -0.21165940606E+03  0.58479845618E+03  0.00000000000E+00 0. -1.
          1    1    5    5  503    0  0.26623615722E+03 -0.11046801130E+01 -0.45104937266E+03  0.52376373329E+03  0.00000000000E+00 0. -1.
         -4    1    5    5    0  503  0.26247813727E+02  0.26962715374E+02 -0.63801144059E+02  0.74071058646E+02  0.00000000000E+00 0.  1.
         -3    1    6    6    0  502 -0.37947861543E+00  0.39234463864E+01 -0.60093362068E+01  0.71867626378E+01  0.00000000000E+00 0.  1.
<mgrwt>
<rscale>  0 0.17754053E+04</rscale>
<asrwt>0</asrwt>
<pdfrwt beam="1">  1        2 0.36411134E-01 0.17754053E+04</pdfrwt>
<pdfrwt beam="2">  1       -2 0.51224077E+00 0.17754053E+04</pdfrwt>
<totfact> 0.18728220E-01</totfact>
</mgrwt>
</event>
<event>
12    1  0.1495204E-007  0.1566380E+04  0.7818608E-02  0.8841472E-01
         -2   -1    0    0    0  501 -0.00000000000E+00  0.00000000000E+00  0.71829102503E+03  0.71829102503E+03  0.00000000000E+00 0.  1.
          2   -1    0    0  501    0  0.00000000000E+00 -0.00000000000E+00 -0.85395275434E+03  0.85395275434E+03  0.00000000000E+00 0. -1.
         23    2    1    2    0    0 -0.19861881496E+03  0.11209147504E+03  0.42430694777E+03  0.49024947115E+03  0.91072639192E+02 0.  0.
        254    2    1    2    0    0  0.19861881496E+03 -0.11209147504E+03 -0.55996867708E+03  0.10819943082E+04  0.89729194316E+03 0.  0.
        -24    2    4    4    0    0 -0.15423518766E+03  0.31643086391E+03 -0.17561104717E+03  0.40227624206E+03  0.84082996443E+02 0.  0.
         24    2    4    4    0    0  0.35285400262E+03 -0.42852233894E+03 -0.38435762991E+03  0.67971806615E+03  0.78412496801E+02 0.  0.
         13    1    3    3    0    0 -0.20667359967E+03  0.97064505917E+02  0.39951996894E+03  0.46016486251E+03  0.00000000000E+00 0.  1.
        -13    1    3    3    0    0  0.80547847093E+01  0.15026969120E+02  0.24786978828E+02  0.30084608641E+02  0.00000000000E+00 0. -1.
          4    1    6    6  502    0  0.20759021687E+03 -0.26307591994E+03 -0.18545775405E+03  0.38301072613E+03  0.00000000000E+00 0. -1.
          3    1    5    5  503    0 -0.13151400163E+03  0.26795869107E+03 -0.11122340367E+03  0.31854110922E+03  0.00000000000E+00 0. -1.
         -4    1    5    5    0  503 -0.22721186027E+02  0.48472172841E+02 -0.64387643506E+02  0.83735132834E+02  0.00000000000E+00 0.  1.
         -3    1    6    6    0  502  0.14526378574E+03 -0.16544641901E+03 -0.19889987585E+03  0.29670734003E+03  0.00000000000E+00 0.  1.
<mgrwt>
<rscale>  0 0.15663800E+04</rscale>
<asrwt>0</asrwt>
<pdfrwt beam="1">  1        2 0.13137735E+00 0.15663800E+04</pdfrwt>
<pdfrwt beam="2">  1       -2 0.11050631E+00 0.15663800E+04</pdfrwt>
<totfact> 0.19702063E+01</totfact>
</mgrwt>
</event>
<event>
12    1  0.1495204E-007  0.2115266E+04  0.7818608E-02  0.8554548E-01
          2   -1    0    0  501    0  0.00000000000E+00  0.00000000000E+00  0.21060311069E+04  0.21060311069E+04  0.00000000000E+00 0. -1.
         -2   -1    0    0    0  501 -0.00000000000E+00 -0.00000000000E+00 -0.53113544747E+03  0.53113544747E+03  0.00000000000E+00 0.  1.
         23    2    1    2    0    0  0.29364856466E+03  0.68738378295E+03  0.97568626242E+02  0.75941540495E+03  0.92011824503E+02 0.  0.
        254    2    1    2    0    0 -0.29364856466E+03 -0.68738378295E+03  0.14773270332E+04  0.18777511494E+04  0.88584889882E+03 0.  0.
        -24    2    4    4    0    0 -0.34578991960E+03 -0.31755938115E+03  0.14119605645E+04  0.14901983668E+04  0.81510169288E+02 0.  0.
         24    2    4    4    0    0  0.52141354936E+02 -0.36982440180E+03  0.65366468636E+02  0.38755278255E+03  0.80222035512E+02 0.  0.
         13    1    3    3    0    0  0.25515719070E+03  0.54254279208E+03  0.47592552235E+02  0.60143405643E+03  0.00000000000E+00 0. -1.
        -13    1    3    3    0    0  0.38491373965E+02  0.14484099087E+03  0.49976074007E+02  0.15798134851E+03  0.00000000000E+00 0.  1.
          4    1    6    6  502    0  0.29935649965E+02 -0.13177328317E+03  0.61423260204E+02  0.14843570389E+03  0.00000000000E+00 0. -1.
          1    1    5    5  503    0 -0.24884808816E+03 -0.17903456207E+03  0.86619364775E+03  0.91884176047E+03  0.00000000000E+00 0. -1.
         -2    1    5    5    0  503 -0.96941831443E+02 -0.13852481908E+03  0.54576691679E+03  0.57135660637E+03  0.00000000000E+00 0.  1.
         -1    1    6    6    0  502  0.22205704972E+02 -0.23805111863E+03  0.39432084324E+01  0.23911707866E+03  0.00000000000E+00 0.  1.
<mgrwt>
<rscale>  0 0.21152662E+04</rscale>
<asrwt>0</asrwt>
<pdfrwt beam="1">  1        2 0.32400478E+00 0.21152662E+04</pdfrwt>
<pdfrwt beam="2">  1       -2 0.81713147E-01 0.21152662E+04</pdfrwt>
<totfact> 0.70708816E+00</totfact>
</mgrwt>
</event>
<event>
12    1  0.1495204E-007  0.1921822E+04  0.7818608E-02  0.8644070E-01
         -1   -1    0    0    0  501 -0.00000000000E+00  0.00000000000E+00  0.10732279770E+04  0.10732279770E+04  0.00000000000E+00 0.  1.
          1   -1    0    0  501    0  0.00000000000E+00 -0.00000000000E+00 -0.86034822472E+03  0.86034822472E+03  0.00000000000E+00 0. -1.
         23    2    1    2    0    0  0.72768924991E+03 -0.87934801256E+02  0.24560565968E+03  0.77842394249E+03  0.91419475338E+02 0.  0.
        254    2    1    2    0    0 -0.72768924991E+03  0.87934801256E+02 -0.32725907381E+02  0.11551522593E+04  0.89221162475E+03 0.  0.
        -24    2    4    4    0    0 -0.47350886480E+03 -0.33966075447E+02 -0.44173074558E+03  0.65215910048E+03  0.69434151725E+02 0.  0.
         24    2    4    4    0    0 -0.25418038511E+03  0.12190087670E+03  0.40900483819E+03  0.50299315878E+03  0.79054842949E+02 0.  0.
         11    1    3    3    0    0  0.51902701570E+03 -0.10084753652E+03  0.19288188033E+03  0.56281674496E+03  0.00000000000E+00 0.  1.
        -11    1    3    3    0    0  0.20866223421E+03  0.12912735268E+02  0.52723779341E+02  0.21560719752E+03  0.00000000000E+00 0. -1.
          2    1    6    6  502    0 -0.14257414940E+03  0.30009196856E+02  0.23813520229E+03  0.27917076234E+03  0.00000000000E+00 0. -1.
          3    1    5    5  503    0 -0.47126305840E+03 -0.37640651694E+02 -0.44277154228E+03  0.64772859094E+03  0.00000000000E+00 0. -1.
         -4    1    5    5    0  503 -0.22458063999E+01  0.36745762477E+01  0.10407967021E+01  0.44305095374E+01  0.00000000000E+00 0.  1.
         -1    1    6    6    0  502 -0.11160623571E+03  0.91891679846E+02  0.17086963590E+03  0.22382239644E+03  0.00000000000E+00 0.  1.
<mgrwt>
<rscale>  0 0.19218218E+04</rscale>
<asrwt>0</asrwt>
<pdfrwt beam="1">  1        1 0.13236127E+00 0.19218218E+04</pdfrwt>
<pdfrwt beam="2">  1       -1 0.16511200E+00 0.19218218E+04</pdfrwt>
<totfact> 0.49032987E+00</totfact>
</mgrwt>
</event>
<event>
12    1  0.2202128E-007  0.1695686E+04  0.7818608E-02  0.8763828E-01
          3   -1    0    0  501    0  0.00000000000E+00  0.00000000000E+00  0.10807359462E+04  0.10807359462E+04  0.00000000000E+00 0. -1.
         -3   -1    0    0    0  501 -0.00000000000E+00 -0.00000000000E+00 -0.66513752702E+03  0.66513752702E+03  0.00000000000E+00 0.  1.
         23    2    1    2    0    0 -0.24109478404E+03  0.53830772302E+03  0.32060852239E+03  0.67696342831E+03  0.87107744154E+02 0.  0.
        254    2    1    2    0    0  0.24109478404E+03 -0.53830772302E+03  0.94989896780E+02  0.10689100449E+04  0.88636544611E+03 0.  0.
        -24    2    4    4    0    0  0.53827254696E+03 -0.16588835246E+03  0.13208090500E+03  0.58411945273E+03  0.80584671678E+02 0.  0.
         24    2    4    4    0    0 -0.29717776292E+03 -0.37241937056E+03 -0.37091008217E+02  0.48479059217E+03  0.81457749935E+02 0.  0.
         13    1    3    3    0    0 -0.21015987667E+02  0.64619140557E+02  0.84484737906E+01  0.68473949596E+02  0.00000000000E+00 0. -1.
        -13    1    3    3    0    0 -0.22007879637E+03  0.47368858246E+03  0.31216004860E+03  0.60848947871E+03  0.00000000000E+00 0.  1.
          2    1    6    6  502    0 -0.29586002366E+03 -0.37030419058E+03 -0.45366961908E+02  0.47614756998E+03  0.00000000000E+00 0. -1.
          3    1    5    5  503    0  0.52402424668E+03 -0.14872990560E+03  0.13607650025E+03  0.56146131643E+03  0.00000000000E+00 0. -1.
         -4    1    5    5    0  503  0.14248300279E+02 -0.17158446861E+02 -0.39955952484E+01  0.22658136307E+02  0.00000000000E+00 0.  1.
         -1    1    6    6    0  502 -0.13177392583E+01 -0.21151799742E+01  0.82759536908E+01  0.86430221895E+01  0.00000000000E+00 0.  1.
<mgrwt>
<rscale>  0 0.16956863E+04</rscale>
<asrwt>0</asrwt>
<pdfrwt beam="1">  1        3 0.16626707E+00 0.16956863E+04</pdfrwt>
<pdfrwt beam="2">  1       -3 0.10232885E+00 0.16956863E+04</pdfrwt>
<totfact> 0.50849258E-01</totfact>
</mgrwt>
</event>
<event>
12    1  0.1495204E-007  0.1314103E+04  0.7818608E-02  0.9018456E-01
         -2   -1    0    0    0  501 -0.00000000000E+00  0.00000000000E+00  0.25898993421E+03  0.25898993421E+03  0.00000000000E+00 0.  1.
          2   -1    0    0  501    0  0.00000000000E+00 -0.00000000000E+00 -0.16669241295E+04  0.16669241295E+04  0.00000000000E+00 0. -1.
         23    2    1    2    0    0 -0.14192526098E+03 -0.25081982477E+03 -0.71381369301E+03  0.77524309972E+03  0.91752444845E+02 0.  0.
        254    2    1    2    0    0  0.14192526098E+03  0.25081982477E+03 -0.69412050230E+03  0.11506709640E+04  0.87131339453E+03 0.  0.
        -24    2    4    4    0    0 -0.80055770951E+02  0.53602200444E+03 -0.40175427210E+03  0.67925559004E+03  0.79076834441E+02 0.  0.
         24    2    4    4    0    0  0.22198103193E+03 -0.28520217967E+03 -0.29236623020E+03  0.47141537397E+03  0.78349093310E+02 0.  0.
         13    1    3    3    0    0 -0.34823351103E+02 -0.46799824081E+02 -0.25781799209E+03  0.26433502674E+03  0.00000000000E+00 0. -1.
        -13    1    3    3    0    0 -0.10710190988E+03 -0.20402000069E+03 -0.45599570092E+03  0.51090807298E+03  0.00000000000E+00 0.  1.
          2    1    6    6  502    0  0.19785022505E+03 -0.22550502752E+03 -0.20696812720E+03  0.36446266567E+03  0.00000000000E+00 0. -1.
          3    1    5    5  503    0 -0.63898673447E+02  0.44448908771E+03 -0.36725400015E+03  0.58011127397E+03  0.00000000000E+00 0. -1.
         -4    1    5    5    0  503 -0.16157097505E+02  0.91532916727E+02 -0.34500271955E+02  0.99144316072E+02  0.00000000000E+00 0.  1.
         -1    1    6    6    0  502  0.24130806881E+02 -0.59697152147E+02 -0.85398103005E+02  0.10695270830E+03  0.00000000000E+00 0.  1.
<mgrwt>
<rscale>  0 0.13141028E+04</rscale>
<asrwt>0</asrwt>
<pdfrwt beam="1">  1        2 0.25644986E+00 0.13141028E+04</pdfrwt>
<pdfrwt beam="2">  1       -2 0.39844606E-01 0.13141028E+04</pdfrwt>
<totfact> 0.59698718E+01</totfact>
</mgrwt>
</event>
<event>
12    1  0.1495204E-007  0.1849363E+04  0.7818608E-02  0.8680480E-01
          2   -1    0    0  501    0  0.00000000000E+00  0.00000000000E+00  0.25343364312E+04  0.25343364312E+04  0.00000000000E+00 0. -1.
         -2   -1    0    0    0  501 -0.00000000000E+00 -0.00000000000E+00 -0.33738073160E+03  0.33738073160E+03  0.00000000000E+00 0.  1.
         23    2    1    2    0    0 -0.44236784029E+03 -0.23840340602E+03  0.16041785222E+04  0.16835685104E+04  0.92134184741E+02 0.  0.
        254    2    1    2    0    0  0.44236784029E+03  0.23840340602E+03  0.59277717743E+03  0.11881486524E+04  0.89876968577E+03 0.  0.
        -24    2    4    4    0    0  0.60208945063E+03 -0.12897210889E+03  0.37310262835E+03  0.72425960401E+03  0.78745738167E+02 0.  0.
         24    2    4    4    0    0 -0.15972161034E+03  0.36737551491E+03  0.21967454908E+03  0.46388904842E+03  0.80376488906E+02 0.  0.
         13    1    3    3    0    0 -0.33240792215E+03 -0.13315472900E+03  0.10876581735E+04  0.11450875560E+04  0.00000000000E+00 0. -1.
        -13    1    3    3    0    0 -0.10995991814E+03 -0.10524867702E+03  0.51652034873E+03  0.53848095441E+03  0.00000000000E+00 0.  1.
          2    1    6    6  502    0 -0.50671037582E+02  0.46806128649E+02  0.25421375686E+02  0.73516080353E+02  0.00000000000E+00 0. -1.
          1    1    5    5  503    0  0.32889873558E+03 -0.34931166027E+02  0.17769036405E+03  0.37545762757E+03  0.00000000000E+00 0. -1.
         -2    1    5    5    0  503  0.27319071506E+03 -0.94040942864E+02  0.19541226430E+03  0.34880197644E+03  0.00000000000E+00 0.  1.
         -1    1    6    6    0  502 -0.10905057276E+03  0.32056938626E+03  0.19425317339E+03  0.39037296807E+03  0.00000000000E+00 0.  1.
<mgrwt>
<rscale>  0 0.18493634E+04</rscale>
<asrwt>0</asrwt>
<pdfrwt beam="1">  1        2 0.38989790E+00 0.18493634E+04</pdfrwt>
<pdfrwt beam="2">  1       -2 0.51904730E-01 0.18493634E+04</pdfrwt>
<totfact> 0.10970152E+01</totfact>
</mgrwt>
</event>
<event>
12    1  0.1495204E-007  0.1217170E+04  0.7818608E-02  0.9097959E-01
          2   -1    0    0  501    0  0.00000000000E+00  0.00000000000E+00  0.14225091172E+04  0.14225091172E+04  0.00000000000E+00 0. -1.
         -2   -1    0    0    0  501 -0.00000000000E+00 -0.00000000000E+00 -0.26036784068E+03  0.26036784068E+03  0.00000000000E+00 0.  1.
         23    2    1    2    0    0 -0.17053317007E+03 -0.12441832195E+03  0.58571394358E+02  0.23683729706E+03  0.89998978367E+02 0.  0.
        254    2    1    2    0    0  0.17053317007E+03  0.12441832195E+03  0.11035698821E+04  0.14460396608E+04  0.91027618607E+03 0.  0.
        -24    2    4    4    0    0 -0.18081306196E+03  0.28809917014E+03  0.96530424574E+03  0.10266412457E+04  0.80532386390E+02 0.  0.
         24    2    4    4    0    0  0.35134623203E+03 -0.16368084819E+03  0.13826563639E+03  0.41939841513E+03  0.80882937509E+02 0.  0.
         11    1    3    3    0    0 -0.10894275863E+03 -0.88933788194E+02 -0.60625842741E+01  0.14076398072E+03  0.00000000000E+00 0.  1.
        -11    1    3    3    0    0 -0.61590411444E+02 -0.35484533760E+02  0.64633978632E+02  0.96073316336E+02  0.00000000000E+00 0. -1.
          2    1    6    6  502    0 -0.35357923751E+01 -0.60883151197E+01  0.58116700381E+01  0.91293437524E+01  0.00000000000E+00 0. -1.
          3    1    5    5  503    0 -0.56662908698E+02  0.16115409254E+03  0.51506697267E+03  0.54265579616E+03  0.00000000000E+00 0. -1.
         -4    1    5    5    0  503 -0.12415015326E+03  0.12694507760E+03  0.45023727307E+03  0.48398544952E+03  0.00000000000E+00 0.  1.
         -1    1    6    6    0  502  0.35488202441E+03 -0.15759253307E+03  0.13245396635E+03  0.41026907138E+03  0.00000000000E+00 0.  1.
<mgrwt>
<rscale>  0 0.12171699E+04</rscale>
<asrwt>0</asrwt>
<pdfrwt beam="1">  1        2 0.21884755E+00 0.12171699E+04</pdfrwt>
<pdfrwt beam="2">  1       -2 0.40056592E-01 0.12171699E+04</pdfrwt>
<totfact> 0.81617197E+01</totfact>
</mgrwt>
</event>
<event>
12    1  0.1495204E-007  0.2391383E+04  0.7818608E-02  0.8442737E-01
         -1   -1    0    0    0  501 -0.00000000000E+00  0.00000000000E+00  0.80593300007E+03  0.80593300007E+03  0.00000000000E+00 0.  1.
          1   -1    0    0  501    0  0.00000000000E+00 -0.00000000000E+00 -0.17739416412E+04  0.17739416412E+04  0.00000000000E+00 0. -1.
         23    2    1    2    0    0  0.75803967259E+03  0.19871657885E+03  0.28470899344E+03  0.83871878396E+03  0.90981117191E+02 0.  0.
        254    2    1    2    0    0 -0.75803967259E+03 -0.19871657885E+03 -0.12527176346E+04  0.17411558573E+04  0.92098307454E+03 0.  0.
        -24    2    4    4    0    0  0.19647892348E+03 -0.18199146246E+02 -0.10975344734E+03  0.23893191619E+03  0.78150272403E+02 0.  0.
         24    2    4    4    0    0 -0.95451859607E+03 -0.18051743261E+03 -0.11429641873E+04  0.15022239412E+04  0.81347048572E+02 0.  0.
         11    1    3    3    0    0  0.69701204032E+03  0.17468373966E+03  0.23365719751E+03  0.75560299047E+03  0.00000000000E+00 0.  1.
        -11    1    3    3    0    0  0.61027632271E+02  0.24032839197E+02  0.51051795926E+02  0.83115793492E+02  0.00000000000E+00 0. -1.
          2    1    6    6  502    0 -0.89280470214E+03 -0.18039469232E+03 -0.10933115538E+04  0.14230153319E+04  0.00000000000E+00 0. -1.
          3    1    5    5  503    0  0.16874642595E+03  0.11343473461E+02 -0.72937041231E+02  0.18418426275E+03  0.00000000000E+00 0. -1.
         -4    1    5    5    0  503  0.27732497522E+02 -0.29542619707E+02 -0.36816406111E+02  0.54747653437E+02  0.00000000000E+00 0.  1.
         -3    1    6    6    0  502 -0.61713893934E+02 -0.12274028750E+00 -0.49652633455E+02  0.79208609246E+02  0.00000000000E+00 0.  1.
<mgrwt>
<rscale>  0 0.23913830E+04</rscale>
<asrwt>0</asrwt>
<pdfrwt beam="1">  1        1 0.27291410E+00 0.23913830E+04</pdfrwt>
<pdfrwt beam="2">  1       -1 0.12398969E+00 0.23913830E+04</pdfrwt>
<totfact> 0.21730782E+00</totfact>
</mgrwt>
</event>
<event>
12    1  0.1495204E-007  0.1248058E+04  0.7818608E-02  0.9071801E-01
          1   -1    0    0  501    0  0.00000000000E+00  0.00000000000E+00  0.49237200698E+03  0.49237200698E+03  0.00000000000E+00 0. -1.
         -1   -1    0    0    0  501 -0.00000000000E+00 -0.00000000000E+00 -0.79089071685E+03  0.79089071685E+03  0.00000000000E+00 0.  1.
         23    2    1    2    0    0  0.24228807358E+03  0.15198224267E+03 -0.71344083626E+02  0.30803436464E+03  0.89404020280E+02 0.  0.
        254    2    1    2    0    0 -0.24228807358E+03 -0.15198224267E+03 -0.22717462625E+03  0.97522835919E+03  0.90424550266E+03 0.  0.
        -24    2    4    4    0    0 -0.12334754660E+03  0.35364755082E+03 -0.23537826635E+03  0.44967202907E+03  0.80751458248E+02 0.  0.
         24    2    4    4    0    0 -0.11894052698E+03 -0.50562979348E+03  0.82036400998E+01  0.52555633012E+03  0.79585296390E+02 0.  0.
         13    1    3    3    0    0  0.67479280699E+02  0.22466864262E+01 -0.16269227165E+01  0.67536270263E+02  0.00000000000E+00 0. -1.
        -13    1    3    3    0    0  0.17480879288E+03  0.14973555624E+03 -0.69717160909E+02  0.24049809437E+03  0.00000000000E+00 0.  1.
          4    1    6    6  502    0 -0.37383387072E+01 -0.44050665558E+01  0.96656852412E+01  0.11260784113E+02  0.00000000000E+00 0. -1.
          3    1    5    5  503    0 -0.15571724740E+02  0.10182207609E+03 -0.10216176115E+03  0.14507666674E+03  0.00000000000E+00 0. -1.
         -4    1    5    5    0  503 -0.10777582186E+03  0.25182547472E+03 -0.13321650521E+03  0.30459536233E+03  0.00000000000E+00 0.  1.
         -3    1    6    6    0  502 -0.11520218828E+03 -0.50122472693E+03 -0.14620451414E+01  0.51429554601E+03  0.00000000000E+00 0.  1.
<mgrwt>
<rscale>  0 0.12480584E+04</rscale>
<asrwt>0</asrwt>
<pdfrwt beam="1">  1        1 0.75749540E-01 0.12480584E+04</pdfrwt>
<pdfrwt beam="2">  1       -1 0.12167549E+00 0.12480584E+04</pdfrwt>
<totfact> 0.26726854E+01</totfact>
</mgrwt>
</event>
