<event>
12    6  0.1530859E-007  0.1354597E+04  0.7818608E-02  0.8987356E-01
          2   -1    0    0  501    0  0.00000000000E+00  0.00000000000E+00  0.12119139721E+04  0.12119139721E+04  0.00000000000E+00 0. -1.
         -3   -1    0    0    0  501 -0.00000000000E+00 -0.00000000000E+00 -0.37851961281E+03  0.37851961281E+03  0.00000000000E+00 0.  1.
         24    2    1    2    0    0  0.93965898659E+02 -0.69464522032E+02 -0.17829109739E+03  0.22824711346E+03  0.81572786281E+02 0.  0.
        254    2    1    2    0    0 -0.93965898659E+02  0.69464522032E+02  0.10116854567E+04  0.13621864715E+04  0.90464888760E+03 0.  0.
         23    2    4    4    0    0  0.12448162699E+03  0.32478668826E+03  0.79160705798E+02  0.36668401040E+03  0.84903932813E+02 0.  0.
         23    2    4    4    0    0 -0.21844752565E+03 -0.25532216623E+03  0.93252475093E+03  0.99550246109E+03  0.92271387335E+02 0.  0.
          2    1    3    3  502    0  0.50955461042E+02  0.86856644341E+01 -0.82475359593E+02  0.97334910061E+02  0.00000000000E+00 0. -1.
         -1    1    3    3    0  502  0.43010437616E+02 -0.78150186466E+02 -0.95815737796E+02  0.13091220340E+03  0.00000000000E+00 0.  1.
         11    1    5    5    0    0  0.86308287126E+02  0.11019060477E+03  0.26641393756E+02  0.14248106424E+03  0.00000000000E+00 0.  1.
        -11    1    5    5    0    0  0.38173339867E+02  0.21459608350E+03  0.52519312042E+02  0.22420294616E+03  0.00000000000E+00 0. -1.
          3    1    6    6  503    0 -0.17471226470E+03 -0.24164961952E+03  0.85427681418E+03  0.90482472850E+03  0.00000000000E+00 0. -1.
         -3    1    6    6    0  503 -0.43735260952E+02 -0.13672546711E+02  0.78247936744E+02  0.90677732596E+02  0.00000000000E+00 0.  1.
<mgrwt>
<rscale>  0 0.13545969E+04</rscale>
<asrwt>0</asrwt>
<pdfrwt beam="1">  1        2 0.18644830E+00 0.13545969E+04</pdfrwt>
<pdfrwt beam="2">  1       -3 0.58233787E-01 0.13545969E+04</pdfrwt>
<totfact> 0.33566055E+01</totfact>
</mgrwt>
</event>
<event>
12    6  0.1530859E-007  0.1194908E+04  0.7818608E-02  0.9117325E-01
          2   -1    0    0  501    0  0.00000000000E+00  0.00000000000E+00  0.20664391666E+04  0.20664391666E+04  0.00000000000E+00 0. -1.
         -1   -1    0    0    0  501 -0.00000000000E+00 -0.00000000000E+00 -0.17273748684E+03  0.17273748684E+03  0.00000000000E+00 0.  1.
         24    2    1    2    0    0  0.10946911206E+03 -0.16791437588E+03  0.75085647413E+03  0.78104551459E+03  0.77896899753E+02 0.  0.
        254    2    1    2    0    0 -0.10946911206E+03  0.16791437588E+03  0.11428452056E+04  0.14581311388E+04  0.88310391796E+03 0.  0.
         23    2    4    4    0    0 -0.15751219888E+03 -0.27605525956E+03  0.86401785046E+03  0.92501306534E+03  0.90031805544E+02 0.  0.
         23    2    4    4    0    0  0.48043086820E+02  0.44396963544E+03  0.27882735513E+03  0.53311807348E+03  0.83982205951E+02 0.  0.
          4    1    3    3  502    0  0.42596186408E+02 -0.13280742266E+03  0.49515058184E+03  0.51441845351E+03  0.00000000000E+00 0. -1.
         -3    1    3    3    0  502  0.66872925649E+02 -0.35106953222E+02  0.25570589229E+03  0.26662706108E+03  0.00000000000E+00 0.  1.
         11    1    5    5    0    0 -0.65717485061E+02 -0.86067232404E+02  0.41490137244E+03  0.42880007601E+03  0.00000000000E+00 0.  1.
        -11    1    5    5    0    0 -0.91794713817E+02 -0.18998802715E+03  0.44911647802E+03  0.49621298933E+03  0.00000000000E+00 0. -1.
          4    1    6    6  503    0  0.51210188928E+02  0.32824894152E+03  0.24410602947E+03  0.41225914748E+03  0.00000000000E+00 0. -1.
         -4    1    6    6    0  503 -0.31671021075E+01  0.11572069392E+03  0.34721325657E+02  0.12085892600E+03  0.00000000000E+00 0.  1.
<mgrwt>
<rscale>  0 0.11949084E+04</rscale>
<asrwt>0</asrwt>
<pdfrwt beam="1">  1        2 0.31791370E+00 0.11949084E+04</pdfrwt>
<pdfrwt beam="2">  1       -1 0.26574999E-01 0.11949084E+04</pdfrwt>
<totfact> 0.87128435E+01</totfact>
</mgrwt>
</event>
<event>
12    6  0.1530859E-007  0.1230654E+04  0.7818608E-02  0.9086440E-01
          2   -1    0    0  501    0  0.00000000000E+00  0.00000000000E+00  0.30036942883E+03  0.30036942883E+03  0.00000000000E+00 0. -1.
         -1   -1    0    0    0  501 -0.00000000000E+00 -0.00000000000E+00 -0.12605388251E+04  0.12605388251E+04  0.00000000000E+00 0.  1.
         24    2    1    2    0    0 -0.17322237872E+03  0.16711740593E+03 -0.40455915722E+03  0.47668508245E+03  0.75008908062E+02 0.  0.
        254    2    1    2    0    0  0.17322237872E+03 -0.16711740593E+03 -0.55561023903E+03  0.10842231715E+04  0.89939030901E+03 0.  0.
         23    2    4    4    0    0  0.79044778803E+02  0.36427085459E+03 -0.19674465384E+03  0.42994471886E+03  0.84868544825E+02 0.  0.
         23    2    4    4    0    0  0.94177599913E+02 -0.53138826052E+03 -0.35886558519E+03  0.65427845259E+03  0.89737849046E+02 0.  0.
          2    1    3    3  502    0 -0.17488202922E+03  0.14963913411E+03 -0.34608896332E+03  0.41563585641E+03  0.00000000000E+00 0. -1.
         -1    1    3    3    0  502  0.16596505070E+01  0.17478271821E+02 -0.58470193893E+02  0.61049226035E+02  0.00000000000E+00 0.  1.
         11    1    5    5    0    0  0.64689146746E+02  0.14503517328E+03 -0.11260767561E+03  0.19468018851E+03  0.00000000000E+00 0.  1.
        -11    1    5    5    0    0  0.14355632057E+02  0.21923568131E+03 -0.84136978232E+02  0.23526453034E+03  0.00000000000E+00 0. -1.
          1    1    6    6  503    0  0.95855967476E+02 -0.53242390643E+03 -0.34802788135E+03  0.64326276810E+03  0.00000000000E+00 0. -1.
         -1    1    6    6    0  503 -0.16783675632E+01  0.10356459086E+01 -0.10837703844E+02  0.11015684488E+02  0.00000000000E+00 0.  1.
<mgrwt>
<rscale>  0 0.12306540E+04</rscale>
<asrwt>0</asrwt>
<pdfrwt beam="1">  1        2 0.46210683E-01 0.12306540E+04</pdfrwt>
<pdfrwt beam="2">  1       -1 0.19392904E+00 0.12306540E+04</pdfrwt>
<totfact> 0.20518417E+01</totfact>
</mgrwt>
</event>
<event>
12    6  0.1530859E-007  0.2083264E+04  0.7818608E-02  0.8568652E-01
         -1   -1    0    0    0  501 -0.00000000000E+00  0.00000000000E+00  0.54602240478E+03  0.54602240478E+03  0.00000000000E+00 0.  1.
          2   -1    0    0  501    0  0.00000000000E+00 -0.00000000000E+00 -0.19870922041E+04  0.19870922041E+04  0.00000000000E+00 0. -1.
         24    2    1    2    0    0 -0.48104468847E+03 -0.56434156423E+03 -0.10352154201E+03  0.75293074552E+03  0.79388944195E+02 0.  0.
        254    2    1    2    0    0  0.48104468847E+03  0.56434156423E+03 -0.13375482573E+04  0.17801838634E+04  0.91111681653E+03 0.  0.
         23    2    4    4    0    0 -0.26300818143E+03  0.15516496174E+03 -0.40825929826E+03  0.51799152121E+03  0.91597448572E+02 0.  0.
         23    2    4    4    0    0  0.74405286990E+03  0.40917660249E+03 -0.92928895909E+03  0.12621923422E+04  0.92257107948E+02 0.  0.
          4    1    3    3  502    0 -0.23703912183E+03 -0.27075446513E+03 -0.10480643177E+02  0.36000745763E+03  0.00000000000E+00 0. -1.
         -3    1    3    3    0  502 -0.24400556664E+03 -0.29358709910E+03 -0.93040898837E+02  0.39292328788E+03  0.00000000000E+00 0.  1.
         11    1    5    5    0    0 -0.13577739039E+03  0.98489288748E+02 -0.29117719998E+03  0.33603541707E+03  0.00000000000E+00 0. -1.
        -11    1    5    5    0    0 -0.12723079104E+03  0.56675672988E+02 -0.11708209828E+03  0.18195610414E+03  0.00000000000E+00 0.  1.
          4    1    6    6  503    0  0.25678288624E+03  0.15140758399E+03 -0.39145244561E+03  0.49203325531E+03  0.00000000000E+00 0.  1.
         -4    1    6    6    0  503  0.48726998366E+03  0.25776901850E+03 -0.53783651348E+03  0.77015908688E+03  0.00000000000E+00 0. -1.
<mgrwt>
<rscale>  0 0.20832637E+04</rscale>
<asrwt>0</asrwt>
<pdfrwt beam="1">  1        2 0.30570649E+00 0.20832637E+04</pdfrwt>
<pdfrwt beam="2">  1       -1 0.84003448E-01 0.20832637E+04</pdfrwt>
<totfact> 0.10022379E+01</totfact>
</mgrwt>
</event>
<event>
12    6  0.1530859E-007  0.2599013E+04  0.7818608E-02  0.8368536E-01
          2   -1    0    0  501    0  0.00000000000E+00  0.00000000000E+00  0.81624249756E+03  0.81624249756E+03  0.00000000000E+00 0. -1.
         -1   -1    0    0    0  501 -0.00000000000E+00 -0.00000000000E+00 -0.20688920837E+04  0.20688920837E+04  0.00000000000E+00 0.  1.
         24    2    1    2    0    0  0.20992727752E+03  0.94731576183E+03  0.11552516051E+03  0.98043277949E+03  0.80160825433E+02 0.  0.
        254    2    1    2    0    0 -0.20992727752E+03 -0.94731576183E+03 -0.13681747467E+04  0.19047018018E+04  0.90250218939E+03 0.  0.
         23    2    4    4    0    0  0.32223244898E+02 -0.10172348480E+04 -0.88387161746E+03  0.13511145394E+04  0.92067306591E+02 0.  0.
         23    2    4    4    0    0 -0.24215052241E+03  0.69919086171E+02 -0.48430312924E+03  0.55358726241E+03  0.91562994650E+02 0.  0.
          4    1    3    3  502    0  0.17238062338E+03  0.66841894921E+03  0.54186055179E+02  0.69241252123E+03  0.00000000000E+00 0. -1.
         -3    1    3    3    0  502  0.37546654135E+02  0.27889681262E+03  0.61339105332E+02  0.28802025826E+03  0.00000000000E+00 0.  1.
         11    1    5    5    0    0 -0.89123604501E+01 -0.79788551954E+03 -0.66831394434E+03  0.10408382490E+04  0.00000000000E+00 0.  1.
        -11    1    5    5    0    0  0.41135605348E+02 -0.21934932846E+03 -0.21555767312E+03  0.31027629037E+03  0.00000000000E+00 0. -1.
          3    1    6    6  503    0 -0.54496559774E+02  0.56965865116E+02 -0.16805239053E+03  0.18562486573E+03  0.00000000000E+00 0. -1.
         -3    1    6    6    0  503 -0.18765396264E+03  0.12953221055E+02 -0.31625073872E+03  0.36796239668E+03  0.00000000000E+00 0.  1.
<mgrwt>
<rscale>  0 0.25990134E+04</rscale>
<asrwt>0</asrwt>
<pdfrwt beam="1">  1        2 0.12557577E+00 0.25990134E+04</pdfrwt>
<pdfrwt beam="2">  1       -1 0.31829109E+00 0.25990134E+04</pdfrwt>
<totfact> 0.84953926E-01</totfact>
</mgrwt>
</event>
<event>
12    6  0.1530859E-007  0.2103464E+04  0.7818608E-02  0.8559719E-01
          2   -1    0    0  501    0  0.00000000000E+00  0.00000000000E+00  0.15252396444E+04  0.15252396444E+04  0.00000000000E+00 0. -1.
         -1   -1    0    0    0  501 -0.00000000000E+00 -0.00000000000E+00 -0.72522392233E+03  0.72522392233E+03  0.00000000000E+00 0.  1.
         24    2    1    2    0    0 -0.74581897229E+02 -0.77867098554E+03  0.69780841445E+03  0.10514761718E+04  0.82307919065E+02 0.  0.
        254    2    1    2    0    0  0.74581897229E+02  0.77867098554E+03  0.10220730762E+03  0.11989873949E+04  0.90290280555E+03 0.  0.
         23    2    4    4    0    0 -0.15716122642E+03  0.16162746797E+02 -0.26090596786E+03  0.31816784946E+03  0.90542646792E+02 0.  0.
         23    2    4    4    0    0  0.23174312365E+03  0.76250823874E+03  0.36311327548E+03  0.88081954544E+03  0.94170756016E+02 0.  0.
          2    1    3    3  502    0 -0.29820841502E+02 -0.26715929617E+03  0.29295239308E+03  0.39759838623E+03  0.00000000000E+00 0. -1.
         -1    1    3    3    0  502 -0.44761055727E+02 -0.51151168937E+03  0.40485602137E+03  0.65387778561E+03  0.00000000000E+00 0.  1.
         11    1    5    5    0    0 -0.45020087150E+02  0.24493533463E+02 -0.15666097288E+03  0.16483143466E+03  0.00000000000E+00 0. -1.
        -11    1    5    5    0    0 -0.11214113927E+03 -0.83307866657E+01 -0.10424499498E+03  0.15333641479E+03  0.00000000000E+00 0.  1.
          2    1    6    6  503    0  0.98655394889E+02  0.40976509630E+03  0.23542811275E+03  0.48276983891E+03  0.00000000000E+00 0. -1.
         -2    1    6    6    0  503  0.13308772876E+03  0.35274314244E+03  0.12768516272E+03  0.39804970652E+03  0.00000000000E+00 0.  1.
<mgrwt>
<rscale>  0 0.21034641E+04</rscale>
<asrwt>0</asrwt>
<pdfrwt beam="1">  1        2 0.23465225E+00 0.21034641E+04</pdfrwt>
<pdfrwt beam="2">  1       -1 0.11157291E+00 0.21034641E+04</pdfrwt>
<totfact> 0.95138474E+00</totfact>
</mgrwt>
</event>
<event>
12    6  0.1530859E-007  0.1189855E+04  0.7818608E-02  0.9121783E-01
          2   -1    0    0  501    0  0.00000000000E+00  0.00000000000E+00  0.21463445075E+04  0.21463445075E+04  0.00000000000E+00 0. -1.
         -1   -1    0    0    0  501 -0.00000000000E+00 -0.00000000000E+00 -0.16490290554E+03  0.16490290554E+03  0.00000000000E+00 0.  1.
         24    2    1    2    0    0 -0.96022214871E+02  0.12423853849E+03  0.78909423715E+03  0.80858958244E+03  0.80572436581E+02 0.  0.
        254    2    1    2    0    0  0.96022214871E+02 -0.12423853849E+03  0.11923473648E+04  0.15026578306E+04  0.90090667512E+03 0.  0.
         23    2    4    4    0    0 -0.62643589341E+02 -0.22925232239E+03 -0.35473260866E+02  0.25683783567E+03  0.90699917231E+02 0.  0.
         23    2    4    4    0    0  0.15866580421E+03  0.10501378390E+03  0.12278206257E+04  0.12458199949E+04  0.91220823673E+02 0.  0.
          2    1    3    3  502    0 -0.34621702470E+02  0.61893589217E+02  0.53865424691E+03  0.54330274836E+03  0.00000000000E+00 0. -1.
         -1    1    3    3    0  502 -0.61400512400E+02  0.62344949273E+02  0.25043999024E+03  0.26528683408E+03  0.00000000000E+00 0.  1.
         11    1    5    5    0    0 -0.79643738041E+00 -0.87653959737E+02  0.24617307499E+02  0.91048683673E+02  0.00000000000E+00 0.  1.
        -11    1    5    5    0    0 -0.61847151961E+02 -0.14159836266E+03 -0.60090568366E+02  0.16578915199E+03  0.00000000000E+00 0. -1.
          3    1    6    6  503    0  0.16758986981E+03  0.10776140160E+03  0.12011227886E+04  0.12175363803E+04  0.00000000000E+00 0. -1.
         -3    1    6    6    0  503 -0.89240655964E+01 -0.27476176984E+01  0.26697837136E+02  0.28283614648E+02  0.00000000000E+00 0.  1.
<mgrwt>
<rscale>  0 0.11898545E+04</rscale>
<asrwt>0</asrwt>
<pdfrwt beam="1">  1        2 0.33020683E+00 0.11898545E+04</pdfrwt>
<pdfrwt beam="2">  1       -1 0.25369679E-01 0.11898545E+04</pdfrwt>
<totfact> 0.85248698E+01</totfact>
</mgrwt>
</event>
<event>
12    6  0.1530859E-007  0.2885452E+04  0.7818608E-02  0.8277219E-01
         -1   -1    0    0    0  501 -0.00000000000E+00  0.00000000000E+00  0.11690144064E+04  0.11690144064E+04  0.00000000000E+00 0.  1.
          2   -1    0    0  501    0  0.00000000000E+00 -0.00000000000E+00 -0.17805238219E+04  0.17805238219E+04  0.00000000000E+00 0. -1.
         24    2    1    2    0    0  0.11986422962E+04 -0.50018779535E+03 -0.35441663026E+03  0.13484528960E+04  0.76045250616E+02 0.  0.
        254    2    1    2    0    0 -0.11986422962E+04  0.50018779535E+03 -0.25709278520E+03  0.16010853322E+04  0.90024794146E+03 0.  0.
         23    2    4    4    0    0 -0.66616797012E+03 -0.19153893939E+03 -0.58909539951E+02  0.70143149242E+03  0.89826916598E+02 0.  0.
         23    2    4    4    0    0 -0.53247432607E+03  0.69172673475E+03 -0.19818324525E+03  0.89965383983E+03  0.89920238732E+02 0.  0.
          2    1    3    3  502    0  0.57828493930E+03 -0.27239278672E+03 -0.20012878594E+03  0.66982298575E+03  0.00000000000E+00 0. -1.
         -1    1    3    3    0  502  0.62035735689E+03 -0.22779500864E+03 -0.15428784431E+03  0.67862991027E+03  0.00000000000E+00 0.  1.
         11    1    5    5    0    0 -0.48297730449E+03 -0.14352396272E+03 -0.25979097415E+01  0.50385806896E+03  0.00000000000E+00 0. -1.
        -11    1    5    5    0    0 -0.18319066563E+03 -0.48014976668E+02 -0.56311630209E+02  0.19757342345E+03  0.00000000000E+00 0.  1.
          2    1    6    6  503    0 -0.32923935948E+03  0.38988041756E+03 -0.76758138316E+02  0.51603983143E+03  0.00000000000E+00 0.  1.
         -2    1    6    6    0  503 -0.20323496660E+03  0.30184631719E+03 -0.12142510693E+03  0.38361400840E+03  0.00000000000E+00 0. -1.
<mgrwt>
<rscale>  0 0.28854518E+04</rscale>
<asrwt>0</asrwt>
<pdfrwt beam="1">  1        2 0.27392674E+00 0.28854518E+04</pdfrwt>
<pdfrwt beam="2">  1       -1 0.17984837E+00 0.28854518E+04</pdfrwt>
<totfact> 0.18150877E+00</totfact>
</mgrwt>
</event>
<event>
12    6  0.1530859E-007  0.1313055E+04  0.7818608E-02  0.9019276E-01
         -1   -1    0    0    0  501 -0.00000000000E+00  0.00000000000E+00  0.13439982894E+03  0.13439982894E+03  0.00000000000E+00 0.  1.
          2   -1    0    0  501    0  0.00000000000E+00 -0.00000000000E+00 -0.32070608060E+04  0.32070608060E+04  0.00000000000E+00 0. -1.
         24    2    1    2    0    0  0.14604930618E+03 -0.45836779728E+02 -0.41603587751E+02  0.17456768956E+03  0.72880789743E+02 0.  0.
        254    2    1    2    0    0 -0.14604930618E+03  0.45836779728E+02 -0.30310573893E+04  0.31668929454E+04  0.90469366086E+03 0.  0.
         23    2    4    4    0    0  0.33741947972E+03 -0.15169123776E+03 -0.14208694133E+04  0.14710956820E+04  0.91599558016E+02 0.  0.
         23    2    4    4    0    0 -0.48346878590E+03  0.19752801749E+03 -0.16101879760E+04  0.16957972634E+04  0.10130970228E+03 0.  0.
          2    1    3    3  502    0 -0.14521788808E+01 -0.18215401638E+02  0.17729564953E+01  0.18359004741E+02  0.00000000000E+00 0. -1.
         -1    1    3    3    0  502  0.14750148506E+03 -0.27621378090E+02 -0.43376544246E+02  0.15620868482E+03  0.00000000000E+00 0.  1.
         11    1    5    5    0    0  0.24818706309E+03 -0.76842832448E+02 -0.10825336001E+04  0.11132747345E+04  0.00000000000E+00 0.  1.
        -11    1    5    5    0    0  0.89232416638E+02 -0.74848405315E+02 -0.33833581316E+03  0.35782094744E+03  0.00000000000E+00 0. -1.
          2    1    6    6  503    0 -0.39799210933E+03  0.14936090151E+03 -0.14128287738E+04  0.14753953850E+04  0.00000000000E+00 0.  1.
         -2    1    6    6    0  503 -0.85476676577E+02  0.48167115982E+02 -0.19735920222E+03  0.22040187840E+03  0.00000000000E+00 0. -1.
<mgrwt>
<rscale>  0 0.13130551E+04</rscale>
<asrwt>0</asrwt>
<pdfrwt beam="1">  1        2 0.49339395E+00 0.13130551E+04</pdfrwt>
<pdfrwt beam="2">  1       -1 0.20676898E-01 0.13130551E+04</pdfrwt>
<totfact> 0.28086057E+01</totfact>
</mgrwt>
</event>
<event>
12    6  0.1530859E-007  0.1237365E+04  0.7818608E-02  0.9080765E-01
         -1   -1    0    0    0  501 -0.00000000000E+00  0.00000000000E+00  0.34046544066E+03  0.34046544066E+03  0.00000000000E+00 0.  1.
          2   -1    0    0  501    0  0.00000000000E+00 -0.00000000000E+00 -0.11242493489E+04  0.11242493489E+04  0.00000000000E+00 0. -1.
         24    2    1    2    0    0 -0.14624579583E+03  0.27894928972E+03 -0.11123684566E+03  0.34320535990E+03  0.78839991115E+02 0.  0.
        254    2    1    2    0    0  0.14624579583E+03 -0.27894928972E+03 -0.67254706257E+03  0.11215094296E+04  0.84039473486E+03 0.  0.
         23    2    4    4    0    0 -0.65002901130E+01 -0.53243867843E+03 -0.59174152677E+03  0.80103711416E+03  0.89270508555E+02 0.  0.
         23    2    4    4    0    0  0.15274608595E+03  0.25348938871E+03 -0.80805535793E+02  0.32047231548E+03  0.92653836492E+02 0.  0.
          4    1    3    3  502    0 -0.10836905388E+03  0.13393382863E+03 -0.80686509209E+02  0.19024309464E+03  0.00000000000E+00 0. -1.
         -3    1    3    3    0  502 -0.37876741952E+02  0.14501546109E+03 -0.30550336449E+02  0.15296226526E+03  0.00000000000E+00 0.  1.
         11    1    5    5    0    0 -0.89449008020E+01 -0.51427293001E+03 -0.53825273650E+03  0.74449490673E+03  0.00000000000E+00 0. -1.
        -11    1    5    5    0    0  0.24446106890E+01 -0.18165748425E+02 -0.53488790273E+02  0.56542207440E+02  0.00000000000E+00 0.  1.
          1    1    6    6  503    0  0.15542041114E+03  0.25751441911E+03 -0.86530580200E+02  0.31298038526E+03  0.00000000000E+00 0. -1.
         -1    1    6    6    0  503 -0.26743251935E+01 -0.40250304025E+01  0.57250444068E+01  0.74919302214E+01  0.00000000000E+00 0.  1.
<mgrwt>
<rscale>  0 0.12373650E+04</rscale>
<asrwt>0</asrwt>
<pdfrwt beam="1">  1        2 0.17296144E+00 0.12373650E+04</pdfrwt>
<pdfrwt beam="2">  1       -1 0.52379297E-01 0.12373650E+04</pdfrwt>
<totfact> 0.86738188E+01</totfact>
</mgrwt>
</event>
<event>
12    6  0.1530859E-007  0.1797627E+04  0.7818608E-02  0.8707563E-01
          2   -1    0    0  501    0  0.00000000000E+00  0.00000000000E+00  0.10391938347E+04  0.10391938347E+04  0.00000000000E+00 0. -1.
         -1   -1    0    0    0  501 -0.00000000000E+00 -0.00000000000E+00 -0.77739641410E+03  0.77739641410E+03  0.00000000000E+00 0.  1.
         24    2    1    2    0    0 -0.48493389254E+03  0.14597866011E+03 -0.36033799346E+03  0.62557546260E+03  0.70926303558E+02 0.  0.
        254    2    1    2    0    0  0.48493389254E+03 -0.14597866011E+03  0.62213541406E+03  0.11910147862E+04  0.88033692310E+03 0.  0.
         23    2    4    4    0    0 -0.46422021962E+02  0.13187937011E+03 -0.13904197738E+03  0.21781076143E+03  0.92529367981E+02 0.  0.
         23    2    4    4    0    0  0.53135591450E+03 -0.27785803022E+03  0.76117739145E+03  0.97320402477E+03  0.90503368663E+02 0.  0.
          4    1    3    3  502    0 -0.27335851998E+03  0.11738831566E+03 -0.19791595208E+03  0.35731725565E+03  0.00000000000E+00 0. -1.
         -3    1    3    3    0  502 -0.21157537256E+03  0.28590344451E+02 -0.16242204138E+03  0.26825820695E+03  0.00000000000E+00 0.  1.
         11    1    5    5    0    0 -0.21629703932E+02  0.10366353822E+03 -0.42297770932E+02  0.11403102505E+03  0.00000000000E+00 0.  1.
        -11    1    5    5    0    0 -0.24792318030E+02  0.28215831893E+02 -0.96744206451E+02  0.10377973639E+03  0.00000000000E+00 0. -1.
          3    1    6    6  503    0  0.29006352704E+03 -0.18520067899E+03  0.38021463749E+03  0.51283458520E+03  0.00000000000E+00 0. -1.
         -3    1    6    6    0  503  0.24129238746E+03 -0.92657351230E+02  0.38096275395E+03  0.46036943956E+03  0.00000000000E+00 0.  1.
<mgrwt>
<rscale>  0 0.17976268E+04</rscale>
<asrwt>0</asrwt>
<pdfrwt beam="1">  1        2 0.15987597E+00 0.17976268E+04</pdfrwt>
<pdfrwt beam="2">  1       -1 0.11959945E+00 0.17976268E+04</pdfrwt>
<totfact> 0.15989476E+01</totfact>
</mgrwt>
</event>
<event>
12    6  0.1530859E-007  0.2416468E+04  0.7818608E-02  0.8433364E-01
         -1   -1    0    0    0  501 -0.00000000000E+00  0.00000000000E+00  0.95808946160E+03  0.95808946160E+03  0.00000000000E+00 0.  1.
          2   -1    0    0  501    0  0.00000000000E+00 -0.00000000000E+00 -0.15236878932E+04  0.15236878932E+04  0.00000000000E+00 0. -1.
         24    2    1    2    0    0 -0.10337711678E+03 -0.29317050170E+03 -0.12618377950E+04  0.13020146887E+04  0.79823914878E+02 0.  0.
        254    2    1    2    0    0  0.10337711678E+03  0.29317050170E+03  0.69623936339E+03  0.11797626661E+04  0.90025270110E+03 0.  0.
         23    2    4    4    0    0 -0.21946631368E+02 -0.30417733537E+03  0.34608213515E+03  0.47071194274E+03  0.93762374055E+02 0.  0.
         23    2    4    4    0    0  0.12532374814E+03  0.59734783707E+03  0.35015722824E+03  0.70905072335E+03  0.87248859615E+02 0.  0.
          2    1    3    3  502    0 -0.11682197681E+03 -0.26939541272E+03 -0.11541777274E+04  0.11909439488E+04  0.00000000000E+00 0. -1.
         -3    1    3    3    0  502  0.13444860039E+02 -0.23775088983E+02 -0.10766006763E+03  0.11107073998E+03  0.00000000000E+00 0.  1.
         11    1    5    5    0    0 -0.57155343915E+02 -0.14141227933E+03  0.16496531022E+03  0.22467247197E+03  0.00000000000E+00 0. -1.
        -11    1    5    5    0    0  0.35208712546E+02 -0.16276505604E+03  0.18111682493E+03  0.24603947077E+03  0.00000000000E+00 0.  1.
          1    1    6    6  503    0  0.82912238357E+02  0.19560033573E+03  0.12761750826E+03  0.24783090813E+03  0.00000000000E+00 0. -1.
         -1    1    6    6    0  503  0.42411509787E+02  0.40174750134E+03  0.22253971998E+03  0.46121981523E+03  0.00000000000E+00 0.  1.
<mgrwt>
<rscale>  0 0.24164679E+04</rscale>
<asrwt>0</asrwt>
<pdfrwt beam="1">  1        2 0.23441352E+00 0.24164679E+04</pdfrwt>
<pdfrwt beam="2">  1       -1 0.14739838E+00 0.24164679E+04</pdfrwt>
<totfact> 0.46045143E+00</totfact>
</mgrwt>
</event>
<event>
12    6  0.1530859E-007  0.1878804E+04  0.7818608E-02  0.8665479E-01
          2   -1    0    0  501    0  0.00000000000E+00  0.00000000000E+00  0.13278120149E+04  0.13278120149E+04  0.00000000000E+00 0. -1.
         -1   -1    0    0    0  501 -0.00000000000E+00 -0.00000000000E+00 -0.66460922054E+03  0.66460922054E+03  0.00000000000E+00 0.  1.
         24    2    1    2    0    0  0.62180537230E+03  0.24865438661E+03 -0.25284573818E+02  0.67473244698E+03  0.78445142175E+02 0.  0.
        254    2    1    2    0    0 -0.62180537230E+03 -0.24865438661E+03  0.68848736816E+03  0.13176887884E+04  0.90211859646E+03 0.  0.
         23    2    4    4    0    0 -0.78901793086E+03  0.19274423979E+02  0.47411796819E+03  0.92527253585E+03  0.91763931942E+02 0.  0.
         23    2    4    4    0    0  0.16721255856E+03 -0.26792881058E+03  0.21436939997E+03  0.39241625259E+03  0.91051569864E+02 0.  0.
          4    1    3    3  502    0  0.29088389951E+03  0.94598953553E+02 -0.45024337978E+02  0.30917567177E+03  0.00000000000E+00 0. -1.
         -3    1    3    3    0  502  0.33092147279E+03  0.15405543305E+03  0.19739764161E+02  0.36555677520E+03  0.00000000000E+00 0.  1.
         11    1    5    5    0    0 -0.75765714994E+03  0.68921401911E+01  0.46919288730E+03  0.89119797125E+03  0.00000000000E+00 0.  1.
        -11    1    5    5    0    0 -0.31360780917E+02  0.12382283788E+02  0.49250808888E+01  0.34074564608E+02  0.00000000000E+00 0. -1.
          1    1    6    6  503    0  0.10320045326E+03 -0.81335146568E+02  0.87897494607E+02  0.15808766295E+03  0.00000000000E+00 0. -1.
         -1    1    6    6    0  503  0.64012105301E+02 -0.18659366402E+03  0.12647190536E+03  0.23432858964E+03  0.00000000000E+00 0.  1.
<mgrwt>
<rscale>  0 0.18788040E+04</rscale>
<asrwt>0</asrwt>
<pdfrwt beam="1">  1        2 0.20427877E+00 0.18788040E+04</pdfrwt>
<pdfrwt beam="2">  1       -1 0.10224757E+00 0.18788040E+04</pdfrwt>
<totfact> 0.15423480E+01</totfact>
</mgrwt>
</event>
<event>
12    6  0.1530859E-007  0.1533116E+04  0.7818608E-02  0.8862725E-01
          2   -1    0    0  501    0  0.00000000000E+00  0.00000000000E+00  0.28070706704E+04  0.28070706704E+04  0.00000000000E+00 0. -1.
         -1   -1    0    0    0  501 -0.00000000000E+00 -0.00000000000E+00 -0.20933253440E+03  0.20933253440E+03  0.00000000000E+00 0.  1.
         24    2    1    2    0    0 -0.48976329404E+02 -0.47755619919E+03  0.90116832022E+03  0.10243618360E+04  0.82184095568E+02 0.  0.
        254    2    1    2    0    0  0.48976329404E+02  0.47755619919E+03  0.16965698158E+04  0.19920413688E+04  0.92704965929E+03 0.  0.
         23    2    4    4    0    0  0.20161755400E+03  0.61997029604E+03  0.16211183095E+04  0.17496560939E+04  0.90879410855E+02 0.  0.
         23    2    4    4    0    0 -0.15264122460E+03 -0.14241409686E+03  0.75451506334E+02  0.24238527494E+03  0.97347692682E+02 0.  0.
          2    1    3    3  502    0 -0.19347205102E+02 -0.42452865860E+03  0.81175209305E+03  0.91626434881E+03  0.00000000000E+00 0. -1.
         -1    1    3    3    0  502 -0.29629124302E+02 -0.53027540584E+02  0.89416227162E+02  0.10809748724E+03  0.00000000000E+00 0.  1.
         11    1    5    5    0    0  0.15993937583E+03  0.44744582212E+03  0.12753596858E+04  0.13610035620E+04  0.00000000000E+00 0. -1.
        -11    1    5    5    0    0  0.41678178176E+02  0.17252447393E+03  0.34575862369E+03  0.38865253183E+03  0.00000000000E+00 0.  1.
          1    1    6    6  503    0 -0.10499255732E+03 -0.14894361114E+03  0.58428852690E+02  0.19136762322E+03  0.00000000000E+00 0. -1.
         -1    1    6    6    0  503 -0.47648667275E+02  0.65295142795E+01  0.17022653644E+02  0.51017651719E+02  0.00000000000E+00 0.  1.
<mgrwt>
<rscale>  0 0.15331161E+04</rscale>
<asrwt>0</asrwt>
<pdfrwt beam="1">  1        2 0.43185700E+00 0.15331161E+04</pdfrwt>
<pdfrwt beam="2">  1       -1 0.32205007E-01 0.15331161E+04</pdfrwt>
<totfact> 0.22735288E+01</totfact>
</mgrwt>
</event>
<event>
12    6  0.1530859E-007  0.1853354E+04  0.7818608E-02  0.8678430E-01
         -1   -1    0    0    0  501 -0.00000000000E+00  0.00000000000E+00  0.23260855211E+03  0.23260855211E+03  0.00000000000E+00 0.  1.
          2   -1    0    0  501    0  0.00000000000E+00 -0.00000000000E+00 -0.36917392565E+04  0.36917392565E+04  0.00000000000E+00 0. -1.
         24    2    1    2    0    0  0.47167157733E+03 -0.22422499287E+03 -0.31340498541E+03  0.61397578927E+03  0.77412277057E+02 0.  0.
        254    2    1    2    0    0 -0.47167157733E+03  0.22422499287E+03 -0.31457257190E+04  0.33103720194E+04  0.88894413950E+03 0.  0.
         23    2    4    4    0    0  0.22863976668E+03  0.17409962925E+03 -0.65155104888E+03  0.71754834598E+03  0.88147805996E+02 0.  0.
         23    2    4    4    0    0 -0.70031134401E+03  0.50125363621E+02 -0.24941746701E+04  0.25928236734E+04  0.94227308219E+02 0.  0.
          4    1    3    3  502    0  0.73432414340E+02 -0.65311764356E+02 -0.72843000499E+02  0.12232762877E+03  0.00000000000E+00 0. -1.
         -3    1    3    3    0  502  0.39823916299E+03 -0.15891322852E+03 -0.24056198491E+03  0.49164816050E+03  0.00000000000E+00 0.  1.
         11    1    5    5    0    0  0.16324523264E+03  0.16902881181E+03 -0.51226831587E+03  0.56359433341E+03  0.00000000000E+00 0. -1.
        -11    1    5    5    0    0  0.65394534037E+02  0.50708174412E+01 -0.13928273301E+03  0.15395401257E+03  0.00000000000E+00 0.  1.
          1    1    6    6  503    0 -0.41387283810E+03 -0.16667493274E+01 -0.15878502357E+04  0.16409027623E+04  0.00000000000E+00 0. -1.
         -1    1    6    6    0  503 -0.28643850591E+03  0.51792112948E+02 -0.90632443441E+03  0.95192091112E+03  0.00000000000E+00 0.  1.
<mgrwt>
<rscale>  0 0.18533538E+04</rscale>
<asrwt>0</asrwt>
<pdfrwt beam="1">  1        2 0.56795989E+00 0.18533538E+04</pdfrwt>
<pdfrwt beam="2">  1       -1 0.35785931E-01 0.18533538E+04</pdfrwt>
<totfact> 0.47681916E+00</totfact>
</mgrwt>
</event>
<event>
12    6  0.1530859E-007  0.2148040E+04  0.7818608E-02  0.8540372E-01
          2   -1    0    0  501    0  0.00000000000E+00  0.00000000000E+00  0.60706111168E+03  0.60706111168E+03  0.00000000000E+00 0. -1.
         -1   -1    0    0    0  501 -0.00000000000E+00 -0.00000000000E+00 -0.19001686473E+04  0.19001686473E+04  0.00000000000E+00 0.  1.
         24    2    1    2    0    0 -0.23187730906E+03  0.20317960765E+03 -0.14949498911E+04  0.15283229406E+04  0.76464333827E+02 0.  0.
        254    2    1    2    0    0  0.23187730906E+03 -0.20317960765E+03  0.20184235550E+03  0.97890681840E+03  0.90690086736E+03 0.  0.
         23    2    4    4    0    0 -0.19077994481E+03  0.63184425882E+02 -0.22540651014E+03  0.31516870259E+03  0.90188454151E+02 0.  0.
         23    2    4    4    0    0  0.42265725387E+03 -0.26636403353E+03  0.42724886564E+03  0.66373811581E+03  0.91748245659E+02 0.  0.
          2    1    3    3  502    0 -0.42899427716E+02  0.41734824911E+02 -0.46353159981E+03  0.46737961073E+03  0.00000000000E+00 0. -1.
         -1    1    3    3    0  502 -0.18897788135E+03  0.16144478274E+03 -0.10314182913E+04  0.10609433299E+04  0.00000000000E+00 0.  1.
         11    1    5    5    0    0 -0.12537768662E+03  0.18176808776E+02 -0.80978217686E+02  0.15035768161E+03  0.00000000000E+00 0. -1.
        -11    1    5    5    0    0 -0.65402258182E+02  0.45007617105E+02 -0.14442829246E+03  0.16481102097E+03  0.00000000000E+00 0.  1.
          3    1    6    6  503    0  0.55133966973E+02 -0.28429417252E+02  0.18402518697E+02  0.64704240772E+02  0.00000000000E+00 0. -1.
         -3    1    6    6    0  503  0.36752328690E+03 -0.23793461628E+03  0.40884634694E+03  0.59903387504E+03  0.00000000000E+00 0.  1.
<mgrwt>
<rscale>  0 0.21480396E+04</rscale>
<asrwt>0</asrwt>
<pdfrwt beam="1">  1        2 0.93394017E-01 0.21480396E+04</pdfrwt>
<pdfrwt beam="2">  1       -1 0.29233364E+00 0.21480396E+04</pdfrwt>
<totfact> 0.18980745E+00</totfact>
</mgrwt>
</event>
<event>
12    6  0.1530859E-007  0.2622114E+04  0.7818608E-02  0.8360728E-01
          2   -1    0    0  501    0  0.00000000000E+00  0.00000000000E+00  0.19073773281E+04  0.19073773281E+04  0.00000000000E+00 0. -1.
         -1   -1    0    0    0  501 -0.00000000000E+00 -0.00000000000E+00 -0.90116937797E+03  0.90116937797E+03  0.00000000000E+00 0.  1.
         24    2    1    2    0    0 -0.10776510939E+04 -0.33547671215E+03  0.14844837671E+03  0.11413297835E+04  0.81977128347E+02 0.  0.
        254    2    1    2    0    0  0.10776510939E+04  0.33547671215E+03  0.85775957340E+03  0.16672169226E+04  0.87748747956E+03 0.  0.
         23    2    4    4    0    0  0.10333742885E+04 -0.35572219912E+02  0.69682924424E+03  0.12504640825E+04  0.94665849524E+02 0.  0.
         23    2    4    4    0    0  0.44276805363E+02  0.37104893206E+03  0.16093032916E+03  0.41675284010E+03  0.90258591898E+02 0.  0.
          2    1    3    3  502    0 -0.40118881275E+03 -0.10945016768E+03  0.17753167749E+02  0.41622947715E+03  0.00000000000E+00 0. -1.
         -1    1    3    3    0  502 -0.67646228110E+03 -0.22602654447E+03  0.13069520896E+03  0.72510030630E+03  0.00000000000E+00 0.  1.
         11    1    5    5    0    0  0.32048377469E+03  0.16191285310E+02  0.17527124701E+03  0.36563919045E+03  0.00000000000E+00 0. -1.
        -11    1    5    5    0    0  0.71289051380E+03 -0.51763505221E+02  0.52155799722E+03  0.88482489206E+03  0.00000000000E+00 0.  1.
          3    1    6    6  503    0 -0.24689795985E+02  0.67709140915E+02  0.43890245571E+02  0.84382862274E+02  0.00000000000E+00 0. -1.
         -3    1    6    6    0  503  0.68966601348E+02  0.30333979115E+03  0.11704008359E+03  0.33236997783E+03  0.00000000000E+00 0.  1.
<mgrwt>
<rscale>  0 0.26221137E+04</rscale>
<asrwt>0</asrwt>
<pdfrwt beam="1">  1        2 0.29344267E+00 0.26221137E+04</pdfrwt>
<pdfrwt beam="2">  1       -1 0.13864144E+00 0.26221137E+04</pdfrwt>
<totfact> 0.32497320E+00</totfact>
</mgrwt>
</event>
<event>
12    6  0.1530859E-007  0.1495767E+04  0.7818608E-02  0.8887273E-01
         -1   -1    0    0    0  501 -0.00000000000E+00  0.00000000000E+00  0.13185585241E+03  0.13185585241E+03  0.00000000000E+00 0.  1.
          2   -1    0    0  501    0  0.00000000000E+00 -0.00000000000E+00 -0.42419763540E+04  0.42419763540E+04  0.00000000000E+00 0. -1.
         24    2    1    2    0    0 -0.30892332478E+03 -0.20085047838E+02 -0.28255961272E+04  0.28437094333E+04  0.82781865461E+02 0.  0.
        254    2    1    2    0    0  0.30892332478E+03  0.20085047838E+02 -0.12845243745E+04  0.15301227732E+04  0.77164486823E+03 0.  0.
         23    2    4    4    0    0  0.16398566067E+03 -0.12006595706E+03  0.40071562371E+01  0.22244714950E+03  0.90330205748E+02 0.  0.
         23    2    4    4    0    0  0.14493766411E+03  0.14015100490E+03 -0.12885315307E+04  0.13076756237E+04  0.95146205878E+02 0.  0.
          4    1    3    3  502    0 -0.12647392400E+03 -0.42595181875E+02 -0.13897702851E+04  0.13961631166E+04  0.00000000000E+00 0. -1.
         -3    1    3    3    0  502 -0.18244940077E+03  0.22510134037E+02 -0.14358258421E+04  0.14475463166E+04  0.00000000000E+00 0.  1.
         11    1    5    5    0    0  0.15177949819E+03 -0.66127432725E+02 -0.83921628841E+01  0.16577177633E+03  0.00000000000E+00 0. -1.
        -11    1    5    5    0    0  0.12206162482E+02 -0.53938524332E+02  0.12399319121E+02  0.56675373173E+02  0.00000000000E+00 0.  1.
          4    1    6    6  503    0  0.15849118892E+02  0.16343478545E+02 -0.43545463980E+03  0.43604936324E+03  0.00000000000E+00 0. -1.
         -4    1    6    6    0  503  0.12908854522E+03  0.12380752635E+03 -0.85307689092E+03  0.87162626045E+03  0.00000000000E+00 0.  1.
<mgrwt>
<rscale>  0 0.14957666E+04</rscale>
<asrwt>0</asrwt>
<pdfrwt beam="1">  1        2 0.65261174E+00 0.14957666E+04</pdfrwt>
<pdfrwt beam="2">  1       -1 0.20285516E-01 0.14957666E+04</pdfrwt>
<totfact> 0.48373526E+00</totfact>
</mgrwt>
</event>
<event>
12    6  0.1530859E-007  0.1675126E+04  0.7818608E-02  0.8775680E-01
         -1   -1    0    0    0  501 -0.00000000000E+00  0.00000000000E+00  0.42294732227E+03  0.42294732227E+03  0.00000000000E+00 0.  1.
          2   -1    0    0  501    0  0.00000000000E+00 -0.00000000000E+00 -0.16586263125E+04  0.16586263125E+04  0.00000000000E+00 0. -1.
         24    2    1    2    0    0  0.32926414801E+03 -0.28688075306E+03  0.56392874929E+02  0.44718155239E+03  0.77947025720E+02 0.  0.
        254    2    1    2    0    0 -0.32926414801E+03  0.28688075306E+03 -0.12920718652E+04  0.16343920824E+04  0.90059554105E+03 0.  0.
         23    2    4    4    0    0  0.56113796225E+02  0.51077456271E+02 -0.11455056191E+04  0.11513232101E+04  0.87202901844E+02 0.  0.
         23    2    4    4    0    0 -0.38537794424E+03  0.23580329678E+03 -0.14656624608E+03  0.48306887228E+03  0.88059730872E+02 0.  0.
          2    1    3    3  502    0  0.95009480261E+01 -0.33227974496E+02 -0.31761341100E+01  0.34705246439E+02  0.00000000000E+00 0. -1.
         -1    1    3    3    0  502  0.31976319999E+03 -0.25365277856E+03  0.59569009039E+02  0.41247630595E+03  0.00000000000E+00 0.  1.
         11    1    5    5    0    0 -0.19611948771E+02  0.50731711571E+01 -0.97703738367E+02  0.99781692164E+02  0.00000000000E+00 0. -1.
        -11    1    5    5    0    0  0.75725744996E+02  0.46004285114E+02 -0.10478018807E+04  0.10515415179E+04  0.00000000000E+00 0.  1.
          3    1    6    6  503    0 -0.16695500401E+03  0.64344598104E+02 -0.27868654320E+02  0.18108247448E+03  0.00000000000E+00 0. -1.
         -3    1    6    6    0  503 -0.21842294022E+03  0.17145869868E+03 -0.11869759176E+03  0.30198639781E+03  0.00000000000E+00 0.  1.
<mgrwt>
<rscale>  0 0.16751257E+04</rscale>
<asrwt>0</asrwt>
<pdfrwt beam="1">  1        2 0.25517328E+00 0.16751257E+04</pdfrwt>
<pdfrwt beam="2">  1       -1 0.65068818E-01 0.16751257E+04</pdfrwt>
<totfact> 0.26895711E+01</totfact>
</mgrwt>
</event>
<event>
12    6  0.1530859E-007  0.3706199E+04  0.7818608E-02  0.8066590E-01
          2   -1    0    0  501    0  0.00000000000E+00  0.00000000000E+00  0.32492273189E+04  0.32492273189E+04  0.00000000000E+00 0. -1.
         -1   -1    0    0    0  501 -0.00000000000E+00 -0.00000000000E+00 -0.10568596562E+04  0.10568596562E+04  0.00000000000E+00 0.  1.
         24    2    1    2    0    0  0.48751327786E+03 -0.13038574111E+04 -0.18734026326E+03  0.14069086216E+04  0.81130453893E+02 0.  0.
        254    2    1    2    0    0 -0.48751327786E+03  0.13038574111E+04  0.23797079259E+04  0.28991783536E+04  0.89694591163E+03 0.  0.
         23    2    4    4    0    0 -0.17740053684E+03 -0.80881645368E+02  0.16874101935E+03  0.27042831869E+03  0.81517807307E+02 0.  0.
         23    2    4    4    0    0 -0.31011274102E+03  0.13847390565E+04  0.22109669066E+04  0.26287500349E+04  0.90994049947E+02 0.  0.
          2    1    3    3  502    0  0.11467576881E+02 -0.16529965752E+02 -0.11473134075E+02  0.23159833609E+02  0.00000000000E+00 0. -1.
         -1    1    3    3    0  502  0.47604570098E+03 -0.12873274454E+04 -0.17586712919E+03  0.13837487880E+04  0.00000000000E+00 0.  1.
         11    1    5    5    0    0 -0.97305119428E+02 -0.36554360088E+02  0.14021864854E+03  0.17454448404E+03  0.00000000000E+00 0. -1.
        -11    1    5    5    0    0 -0.80095417414E+02 -0.44327285281E+02  0.28522370807E+02  0.95883834652E+02  0.00000000000E+00 0.  1.
          4    1    6    6  503    0 -0.96270534700E+02  0.59365325104E+03  0.88578032517E+03  0.10706535307E+04  0.00000000000E+00 0. -1.
         -4    1    6    6    0  503 -0.21384220632E+03  0.79108580546E+03  0.13251865814E+04  0.15580965042E+04  0.00000000000E+00 0.  1.
<mgrwt>
<rscale>  0 0.37061987E+04</rscale>
<asrwt>0</asrwt>
<pdfrwt beam="1">  1        2 0.49988112E+00 0.37061987E+04</pdfrwt>
<pdfrwt beam="2">  1       -1 0.16259379E+00 0.37061987E+04</pdfrwt>
<totfact> 0.30809157E-01</totfact>
</mgrwt>
</event>
<event>
12    6  0.1530859E-007  0.1308693E+04  0.7818608E-02  0.9022699E-01
         -1   -1    0    0    0  501 -0.00000000000E+00  0.00000000000E+00  0.14901088165E+03  0.14901088165E+03  0.00000000000E+00 0.  1.
          2   -1    0    0  501    0  0.00000000000E+00 -0.00000000000E+00 -0.28734118938E+04  0.28734118938E+04  0.00000000000E+00 0. -1.
         24    2    1    2    0    0 -0.19763917372E+03 -0.71633198714E+02 -0.10518070394E+03  0.24928670850E+03  0.82995930067E+02 0.  0.
        254    2    1    2    0    0  0.19763917372E+03  0.71633198714E+02 -0.26192203082E+04  0.27731360669E+04  0.88644010777E+03 0.  0.
         23    2    4    4    0    0  0.29900507814E+03 -0.32697046705E+02 -0.26021324989E+03  0.40786384718E+03  0.90381684003E+02 0.  0.
         23    2    4    4    0    0 -0.10136590442E+03  0.10433024542E+03 -0.23590070583E+04  0.23652722197E+04  0.91861448198E+02 0.  0.
          2    1    3    3  502    0 -0.50062813011E+02 -0.44633042389E+02 -0.66291156952E+02  0.94302233322E+02  0.00000000000E+00 0. -1.
         -1    1    3    3    0  502 -0.14757636071E+03 -0.27000156326E+02 -0.38889546986E+02  0.15498447518E+03  0.00000000000E+00 0.  1.
         11    1    5    5    0    0  0.78290364098E+02  0.23471978410E+02 -0.10125848842E+03  0.13012915261E+03  0.00000000000E+00 0.  1.
        -11    1    5    5    0    0  0.22071471404E+03 -0.56169025115E+02 -0.15895476147E+03  0.27773469458E+03  0.00000000000E+00 0. -1.
          3    1    6    6  503    0  0.54279947564E+01 -0.82020328461E+01 -0.44615435322E+02  0.45686688859E+02  0.00000000000E+00 0. -1.
         -3    1    6    6    0  503 -0.10679389917E+03  0.11253227827E+03 -0.23143916230E+04  0.23195855309E+04  0.00000000000E+00 0.  1.
<mgrwt>
<rscale>  0 0.13086935E+04</rscale>
<asrwt>0</asrwt>
<pdfrwt beam="1">  1        2 0.44206338E+00 0.13086935E+04</pdfrwt>
<pdfrwt beam="2">  1       -1 0.22924751E-01 0.13086935E+04</pdfrwt>
<totfact> 0.38158748E+01</totfact>
</mgrwt>
</event>
<event>
12    6  0.1530859E-007  0.1682214E+04  0.7818608E-02  0.8771574E-01
          2   -1    0    0  501    0  0.00000000000E+00  0.00000000000E+00  0.18348408252E+04  0.18348408252E+04  0.00000000000E+00 0. -1.
         -1   -1    0    0    0  501 -0.00000000000E+00 -0.00000000000E+00 -0.38557084647E+03  0.38557084647E+03  0.00000000000E+00 0.  1.
         24    2    1    2    0    0 -0.59483111245E+03 -0.80677928434E+01  0.50773309585E+03  0.78605875310E+03  0.78780232805E+02 0.  0.
        254    2    1    2    0    0  0.59483111245E+03  0.80677928434E+01  0.94153688292E+03  0.14343529186E+04  0.90387358167E+03 0.  0.
         23    2    4    4    0    0  0.82053289402E+03  0.56201398792E+02  0.65674895071E+03  0.10564491323E+04  0.91283938791E+02 0.  0.
         23    2    4    4    0    0 -0.22570178157E+03 -0.48133605949E+02  0.28478793221E+03  0.37790378632E+03  0.91918263468E+02 0.  0.
          4    1    3    3  502    0 -0.10041294108E+03 -0.29656954233E+02  0.76874479095E+02  0.12989218301E+03  0.00000000000E+00 0. -1.
         -3    1    3    3    0  502 -0.49441817137E+03  0.21589161390E+02  0.43085861676E+03  0.65616657009E+03  0.00000000000E+00 0.  1.
         11    1    5    5    0    0  0.23858343141E+03  0.49463251096E+02  0.16211258744E+03  0.29265877393E+03  0.00000000000E+00 0.  1.
        -11    1    5    5    0    0  0.58194946260E+03  0.67381476968E+01  0.49463636327E+03  0.76379035836E+03  0.00000000000E+00 0. -1.
          3    1    6    6  503    0 -0.21504676073E+03 -0.55323022081E+02  0.28893060482E+03  0.36439901273E+03  0.00000000000E+00 0. -1.
         -3    1    6    6    0  503 -0.10655020841E+02  0.71894161320E+01 -0.41426726157E+01  0.13504773595E+02  0.00000000000E+00 0.  1.
<mgrwt>
<rscale>  0 0.16822142E+04</rscale>
<asrwt>0</asrwt>
<pdfrwt beam="1">  1        2 0.28228320E+00 0.16822142E+04</pdfrwt>
<pdfrwt beam="2">  1       -1 0.59318593E-01 0.16822142E+04</pdfrwt>
<totfact> 0.25805922E+01</totfact>
</mgrwt>
</event>
<event>
12    6  0.1530859E-007  0.1391541E+04  0.7818608E-02  0.8959965E-01
          2   -1    0    0  501    0  0.00000000000E+00  0.00000000000E+00  0.14605859887E+04  0.14605859887E+04  0.00000000000E+00 0. -1.
         -1   -1    0    0    0  501 -0.00000000000E+00 -0.00000000000E+00 -0.33143976852E+03  0.33143976852E+03  0.00000000000E+00 0.  1.
         24    2    1    2    0    0  0.25092515625E+03 -0.32642616721E+03  0.34861559283E+03  0.54530632318E+03  0.79427185897E+02 0.  0.
        254    2    1    2    0    0 -0.25092515625E+03  0.32642616721E+03  0.78053062732E+03  0.12467194340E+04  0.88066100758E+03 0.  0.
         23    2    4    4    0    0 -0.15275105043E+03 -0.29007928094E+03  0.25249507743E+03  0.42369055817E+03  0.91000287463E+02 0.  0.
         23    2    4    4    0    0 -0.98174105819E+02  0.61650544815E+03  0.52803554990E+03  0.82302887584E+03  0.94009924220E+02 0.  0.
          2    1    3    3  502    0  0.18617758219E+03 -0.27996774100E+03  0.25264920547E+03  0.42056586777E+03  0.00000000000E+00 0. -1.
         -1    1    3    3    0  502  0.64747574053E+02 -0.46458426208E+02  0.95966387364E+02  0.12474045541E+03  0.00000000000E+00 0.  1.
         11    1    5    5    0    0 -0.29365529935E+02 -0.33178529362E+02  0.21556995378E+01  0.44359848957E+02  0.00000000000E+00 0. -1.
        -11    1    5    5    0    0 -0.12338552049E+03 -0.25690075158E+03  0.25033937789E+03  0.37933070921E+03  0.00000000000E+00 0.  1.
          2    1    6    6  503    0 -0.69713609795E+02  0.16796766739E+03  0.15442734564E+03  0.23858107587E+03  0.00000000000E+00 0. -1.
         -2    1    6    6    0  503 -0.28460496024E+02  0.44853778076E+03  0.37360820426E+03  0.58444779997E+03  0.00000000000E+00 0.  1.
<mgrwt>
<rscale>  0 0.13915406E+04</rscale>
<asrwt>0</asrwt>
<pdfrwt beam="1">  1        2 0.22470553E+00 0.13915406E+04</pdfrwt>
<pdfrwt beam="2">  1       -1 0.50990734E-01 0.13915406E+04</pdfrwt>
<totfact> 0.57332174E+01</totfact>
</mgrwt>
</event>
<event>
12    6  0.1530859E-007  0.2246517E+04  0.7818608E-02  0.8499312E-01
         -1   -1    0    0    0  501 -0.00000000000E+00  0.00000000000E+00  0.25622243470E+04  0.25622243470E+04  0.00000000000E+00 0.  1.
          2   -1    0    0  501    0  0.00000000000E+00 -0.00000000000E+00 -0.49242762008E+03  0.49242762008E+03  0.00000000000E+00 0. -1.
         24    2    1    2    0    0  0.55310120120E+03 -0.20984263998E+03  0.18545635751E+04  0.19481846950E+04  0.77863208902E+02 0.  0.
        254    2    1    2    0    0 -0.55310120120E+03  0.20984263998E+03  0.21523315183E+03  0.11064672721E+04  0.90993936188E+03 0.  0.
         23    2    4    4    0    0 -0.54571330314E+02 -0.11781726653E+03  0.43595426404E+03  0.46388279271E+03  0.90951562163E+02 0.  0.
         23    2    4    4    0    0 -0.49852987089E+03  0.32765990651E+03 -0.22072111221E+03  0.64258447941E+03  0.91126051708E+02 0.  0.
          4    1    3    3  502    0  0.52091512621E+02 -0.38001326490E+02  0.26355582152E+03  0.27132876286E+03  0.00000000000E+00 0. -1.
         -3    1    3    3    0  502  0.50100968858E+03 -0.17184131349E+03  0.15910077536E+04  0.16768559321E+04  0.00000000000E+00 0.  1.
         11    1    5    5    0    0 -0.32499406712E+02 -0.51009637381E+02  0.76066716538E+02  0.97181993740E+02  0.00000000000E+00 0. -1.
        -11    1    5    5    0    0 -0.22071923602E+02 -0.66807629147E+02  0.35988754750E+03  0.36670079897E+03  0.00000000000E+00 0.  1.
          1    1    6    6  503    0 -0.37721934973E+03  0.26328951102E+03 -0.13014176179E+03  0.47807183831E+03  0.00000000000E+00 0. -1.
         -1    1    6    6    0  503 -0.12131052116E+03  0.64370395490E+02 -0.90579350413E+02  0.16451264110E+03  0.00000000000E+00 0.  1.
<mgrwt>
<rscale>  0 0.22465173E+04</rscale>
<asrwt>0</asrwt>
<pdfrwt beam="1">  1        2 0.75758097E-01 0.22465173E+04</pdfrwt>
<pdfrwt beam="2">  1       -1 0.39418835E+00 0.22465173E+04</pdfrwt>
<totfact> 0.51125821E-01</totfact>
</mgrwt>
</event>
<event>
12    6  0.1530859E-007  0.2296329E+04  0.7818608E-02  0.8479370E-01
          2   -1    0    0  501    0  0.00000000000E+00  0.00000000000E+00  0.20928252060E+04  0.20928252060E+04  0.00000000000E+00 0. -1.
         -1   -1    0    0    0  501 -0.00000000000E+00 -0.00000000000E+00 -0.62990549420E+03  0.62990549420E+03  0.00000000000E+00 0.  1.
         24    2    1    2    0    0 -0.17845282247E+03 -0.68483888795E+03  0.14096715721E+04  0.15783331207E+04  0.55783390443E+02 0.  0.
        254    2    1    2    0    0  0.17845282247E+03  0.68483888795E+03  0.53248139758E+02  0.11443975795E+04  0.89775316387E+03 0.  0.
         23    2    4    4    0    0  0.15990016266E+03  0.54263232453E+03 -0.37437459117E+03  0.68443281311E+03  0.90961747518E+02 0.  0.
         23    2    4    4    0    0  0.18552659804E+02  0.14220656343E+03  0.42762273093E+03  0.45996476637E+03  0.90219057984E+02 0.  0.
          2    1    3    3  502    0 -0.11331623904E+03 -0.49461800604E+03  0.96363105617E+03  0.10890694901E+04  0.00000000000E+00 0. -1.
         -1    1    3    3    0  502 -0.65136583424E+02 -0.19022088192E+03  0.44604051589E+03  0.48926363061E+03  0.00000000000E+00 0.  1.
         11    1    5    5    0    0  0.14083072338E+03  0.41601965669E+03 -0.32832184517E+03  0.54836199852E+03  0.00000000000E+00 0.  1.
        -11    1    5    5    0    0  0.19069439280E+02  0.12661266783E+03 -0.46052746002E+02  0.13607081460E+03  0.00000000000E+00 0. -1.
          3    1    6    6  503    0  0.55855758594E+01  0.83744240176E+02  0.11920905426E+03  0.14579127216E+03  0.00000000000E+00 0. -1.
         -3    1    6    6    0  503  0.12967083944E+02  0.58462323251E+02  0.30841367667E+03  0.31417349420E+03  0.00000000000E+00 0.  1.
<mgrwt>
<rscale>  0 0.22963293E+04</rscale>
<asrwt>0</asrwt>
<pdfrwt beam="1">  1        2 0.32197310E+00 0.22963293E+04</pdfrwt>
<pdfrwt beam="2">  1       -1 0.96908539E-01 0.22963293E+04</pdfrwt>
<totfact> 0.62652319E+00</totfact>
</mgrwt>
</event>
<event>
12    6  0.1530859E-007  0.1541813E+04  0.7818608E-02  0.8857114E-01
          2   -1    0    0  501    0  0.00000000000E+00  0.00000000000E+00  0.12034722148E+04  0.12034722148E+04  0.00000000000E+00 0. -1.
         -1   -1    0    0    0  501 -0.00000000000E+00 -0.00000000000E+00 -0.49381825507E+03  0.49381825507E+03  0.00000000000E+00 0.  1.
         24    2    1    2    0    0 -0.14232786866E+03  0.46839520534E+03  0.37953259757E+03  0.62460662370E+03  0.80231858766E+02 0.  0.
        254    2    1    2    0    0  0.14232786866E+03 -0.46839520534E+03  0.33012136213E+03  0.10726838462E+04  0.89555526322E+03 0.  0.
         23    2    4    4    0    0  0.31342577596E+03 -0.53069346446E+03  0.50540685056E+03  0.80236655984E+03  0.92112656571E+02 0.  0.
         23    2    4    4    0    0 -0.17109790730E+03  0.62298259118E+02 -0.17528548843E+03  0.27031728631E+03  0.95869003615E+02 0.  0.
          4    1    3    3  502    0 -0.54607553457E+02  0.16570177540E+03  0.18481505860E+03  0.25415678065E+03  0.00000000000E+00 0. -1.
         -3    1    3    3    0  502 -0.87720315205E+02  0.30269342994E+03  0.19471753897E+03  0.37044984304E+03  0.00000000000E+00 0.  1.
         11    1    5    5    0    0  0.14785975136E+03 -0.31010541436E+03  0.32409545509E+03  0.47229835707E+03  0.00000000000E+00 0.  1.
        -11    1    5    5    0    0  0.16556602460E+03 -0.22058805010E+03  0.18131139548E+03  0.33006820277E+03  0.00000000000E+00 0. -1.
          2    1    6    6  503    0 -0.11740706486E+03  0.84400455440E+02 -0.14522683969E+03  0.20493582098E+03  0.00000000000E+00 0.  1.
         -2    1    6    6    0  503 -0.53690842439E+02 -0.22102196323E+02 -0.30058648745E+02  0.65381465328E+02  0.00000000000E+00 0. -1.
<mgrwt>
<rscale>  0 0.15418126E+04</rscale>
<asrwt>0</asrwt>
<pdfrwt beam="1">  1        2 0.18514957E+00 0.15418126E+04</pdfrwt>
<pdfrwt beam="2">  1       -1 0.75972040E-01 0.15418126E+04</pdfrwt>
<totfact> 0.36030840E+01</totfact>
</mgrwt>
</event>
<event>
12    6  0.1530859E-007  0.1530056E+04  0.7818608E-02  0.8864709E-01
         -1   -1    0    0    0  501 -0.00000000000E+00  0.00000000000E+00  0.13567016421E+04  0.13567016421E+04  0.00000000000E+00 0.  1.
          2   -1    0    0  501    0  0.00000000000E+00 -0.00000000000E+00 -0.43139003963E+03  0.43139003963E+03  0.00000000000E+00 0. -1.
         24    2    1    2    0    0  0.30446331875E+03 -0.29314360600E+03  0.59898410434E+03  0.73753215920E+03  0.80874238212E+02 0.  0.
        254    2    1    2    0    0 -0.30446331875E+03  0.29314360600E+03  0.32632749817E+03  0.10505595226E+04  0.90474006663E+03 0.  0.
         23    2    4    4    0    0 -0.49492020921E+03  0.46325131221E+03  0.36681923053E+03  0.77628912202E+03  0.92307428347E+02 0.  0.
         23    2    4    4    0    0  0.19045689046E+03 -0.17010770621E+03 -0.40491732358E+02  0.27427040054E+03  0.91510728244E+02 0.  0.
          4    1    3    3  502    0  0.20946214875E+03 -0.17253730603E+03  0.32439661046E+03  0.42293814514E+03  0.00000000000E+00 0. -1.
         -3    1    3    3    0  502  0.95001169995E+02 -0.12060629997E+03  0.27458749388E+03  0.31459401406E+03  0.00000000000E+00 0.  1.
         11    1    5    5    0    0 -0.42872943009E+03  0.43875284685E+03  0.32426034067E+03  0.69387156836E+03  0.00000000000E+00 0. -1.
        -11    1    5    5    0    0 -0.66190779119E+02  0.24498465365E+02  0.42558889855E+02  0.82417553660E+02  0.00000000000E+00 0.  1.
          3    1    6    6  503    0  0.84399662453E+02 -0.13539076830E+03 -0.27955123073E+02  0.16197361535E+03  0.00000000000E+00 0. -1.
         -3    1    6    6    0  503  0.10605722801E+03 -0.34716937910E+02 -0.12536609285E+02  0.11229678518E+03  0.00000000000E+00 0.  1.
<mgrwt>
<rscale>  0 0.15300557E+04</rscale>
<asrwt>0</asrwt>
<pdfrwt beam="1">  1        2 0.66367699E-01 0.15300557E+04</pdfrwt>
<pdfrwt beam="2">  1       -1 0.20872333E+00 0.15300557E+04</pdfrwt>
<totfact> 0.10552927E+01</totfact>
</mgrwt>
</event>
<event>
12    6  0.1530859E-007  0.1392982E+04  0.7818608E-02  0.8958914E-01
          2   -1    0    0  501    0  0.00000000000E+00  0.00000000000E+00  0.58423414068E+03  0.58423414068E+03  0.00000000000E+00 0. -1.
         -1   -1    0    0    0  501 -0.00000000000E+00 -0.00000000000E+00 -0.83031771143E+03  0.83031771143E+03  0.00000000000E+00 0.  1.
         24    2    1    2    0    0  0.17383368322E+03 -0.34387592105E+03  0.14153964982E+01  0.39320258730E+03  0.78342024577E+02 0.  0.
        254    2    1    2    0    0 -0.17383368322E+03  0.34387592105E+03 -0.24749896725E+03  0.10213492648E+04  0.91292375555E+03 0.  0.
         23    2    4    4    0    0  0.18699412012E+02  0.53100837248E+03  0.12516769457E+03  0.55311660425E+03  0.89170995724E+02 0.  0.
         23    2    4    4    0    0 -0.19253309523E+03 -0.18713245143E+03 -0.37266666182E+03  0.46823266057E+03  0.90960631352E+02 0.  0.
          4    1    3    3  502    0  0.89571308534E+02 -0.21247078228E+03  0.35847884574E+02  0.23334935926E+03  0.00000000000E+00 0. -1.
         -3    1    3    3    0  502  0.84262374686E+02 -0.13140513876E+03 -0.34432488076E+02  0.15985322804E+03  0.00000000000E+00 0.  1.
         11    1    5    5    0    0  0.44457329757E+02  0.46856984788E+03  0.10106806543E+03  0.48140306434E+03  0.00000000000E+00 0. -1.
        -11    1    5    5    0    0 -0.25757917745E+02  0.62438524599E+02  0.24099629140E+02  0.71713539902E+02  0.00000000000E+00 0.  1.
          4    1    6    6  503    0 -0.51107131477E+02 -0.11211524599E+03 -0.17029462092E+03  0.21019520733E+03  0.00000000000E+00 0. -1.
         -4    1    6    6    0  503 -0.14142596375E+03 -0.75017205439E+02 -0.20237204090E+03  0.25803745324E+03  0.00000000000E+00 0.  1.
<mgrwt>
<rscale>  0 0.13929823E+04</rscale>
<asrwt>0</asrwt>
<pdfrwt beam="1">  1        2 0.89882176E-01 0.13929823E+04</pdfrwt>
<pdfrwt beam="2">  1       -1 0.12774119E+00 0.13929823E+04</pdfrwt>
<totfact> 0.30223108E+01</totfact>
</mgrwt>
</event>
<event>
12    6  0.1530859E-007  0.1472443E+04  0.7818608E-02  0.8902988E-01
          2   -1    0    0  501    0  0.00000000000E+00  0.00000000000E+00  0.22341685701E+04  0.22341685701E+04  0.00000000000E+00 0. -1.
         -1   -1    0    0    0  501 -0.00000000000E+00 -0.00000000000E+00 -0.24260573575E+03  0.24260573575E+03  0.00000000000E+00 0.  1.
         24    2    1    2    0    0 -0.62228575548E+02 -0.17940670132E+03  0.12649326361E+04  0.12815770505E+04  0.79536170788E+02 0.  0.
        254    2    1    2    0    0  0.62228575548E+02  0.17940670132E+03  0.72663019828E+03  0.11951972554E+04  0.92975581421E+03 0.  0.
         23    2    4    4    0    0  0.79927421347E+02 -0.33202584643E+03  0.53501770045E+03  0.64116872065E+03  0.90685352592E+02 0.  0.
         23    2    4    4    0    0 -0.17698845799E+02  0.51143254774E+03  0.19161249783E+03  0.55402853470E+03  0.91409889550E+02 0.  0.
          4    1    3    3  502    0 -0.49750048588E+02 -0.17430099748E+03  0.12404837678E+04  0.12536570038E+04  0.00000000000E+00 0. -1.
         -3    1    3    3    0  502 -0.12478526960E+02 -0.51057038389E+01  0.24448868325E+02  0.27920046726E+02  0.00000000000E+00 0.  1.
         11    1    5    5    0    0  0.99933522022E+02 -0.26877306952E+03  0.44376425705E+03  0.52834873669E+03  0.00000000000E+00 0.  1.
        -11    1    5    5    0    0 -0.20006100675E+02 -0.63252776907E+02  0.91253443397E+02  0.11281998397E+03  0.00000000000E+00 0. -1.
          3    1    6    6  503    0  0.30407641078E+02  0.33004360898E+03  0.13644310338E+03  0.35842729935E+03  0.00000000000E+00 0. -1.
         -3    1    6    6    0  503 -0.48106486876E+02  0.18138893876E+03  0.55169394452E+02  0.19560123535E+03  0.00000000000E+00 0.  1.
<mgrwt>
<rscale>  0 0.14724430E+04</rscale>
<asrwt>0</asrwt>
<pdfrwt beam="1">  1        2 0.34371823E+00 0.14724430E+04</pdfrwt>
<pdfrwt beam="2">  1       -1 0.37323961E-01 0.14724430E+04</pdfrwt>
<totfact> 0.37693018E+01</totfact>
</mgrwt>
</event>
<event>
12    6  0.1530859E-007  0.2334952E+04  0.7818608E-02  0.8464266E-01
          2   -1    0    0  501    0  0.00000000000E+00  0.00000000000E+00  0.27403846188E+04  0.27403846188E+04  0.00000000000E+00 0. -1.
         -1   -1    0    0    0  501 -0.00000000000E+00 -0.00000000000E+00 -0.49737553291E+03  0.49737553291E+03  0.00000000000E+00 0.  1.
         24    2    1    2    0    0  0.41422827238E+03  0.85050797682E+03  0.14036104504E+04  0.16944950918E+04  0.79009109413E+02 0.  0.
        254    2    1    2    0    0 -0.41422827238E+03 -0.85050797682E+03  0.83939863542E+03  0.15432650599E+04  0.88438006284E+03 0.  0.
         23    2    4    4    0    0 -0.61098675331E+03 -0.29019775995E+03  0.34957636901E+03  0.76690789046E+03  0.91785195292E+02 0.  0.
         23    2    4    4    0    0  0.19675848093E+03 -0.56031021688E+03  0.48982226641E+03  0.77635716940E+03  0.10071327047E+03 0.  0.
          2    1    3    3  502    0  0.17018998965E+03  0.41172491887E+03  0.71090251886E+03  0.83896628819E+03  0.00000000000E+00 0. -1.
         -1    1    3    3    0  502  0.24403828273E+03  0.43878305795E+03  0.69270793156E+03  0.85552880362E+03  0.00000000000E+00 0.  1.
         11    1    5    5    0    0 -0.59941501077E+03 -0.29703128236E+03  0.34511064492E+03  0.75274650120E+03  0.00000000000E+00 0.  1.
        -11    1    5    5    0    0 -0.11571742547E+02  0.68335224095E+01  0.44657240863E+01  0.14161389258E+02  0.00000000000E+00 0. -1.
          3    1    6    6  503    0  0.26613374286E+02 -0.26869285840E+02  0.10376255470E+02  0.39216028483E+02  0.00000000000E+00 0. -1.
         -3    1    6    6    0  503  0.17014510665E+03 -0.53344093104E+03  0.47944601094E+03  0.73714114091E+03  0.00000000000E+00 0.  1.
<mgrwt>
<rscale>  0 0.23349520E+04</rscale>
<asrwt>0</asrwt>
<pdfrwt beam="1">  1        2 0.42159762E+00 0.23349520E+04</pdfrwt>
<pdfrwt beam="2">  1       -1 0.76519314E-01 0.23349520E+04</pdfrwt>
<totfact> 0.44290622E+00</totfact>
</mgrwt>
</event>
<event>
12    6  0.1530859E-007  0.1204211E+04  0.7818608E-02  0.9109178E-01
         -1   -1    0    0    0  501 -0.00000000000E+00  0.00000000000E+00  0.32781009398E+03  0.32781009398E+03  0.00000000000E+00 0.  1.
          2   -1    0    0  501    0  0.00000000000E+00 -0.00000000000E+00 -0.11059187126E+04  0.11059187126E+04  0.00000000000E+00 0. -1.
         24    2    1    2    0    0  0.21787617912E+03  0.67083555531E+02 -0.29264999185E+03  0.37916200480E+03  0.78419227896E+02 0.  0.
        254    2    1    2    0    0 -0.21787617912E+03 -0.67083555531E+02 -0.48545862677E+03  0.10545668018E+04  0.90800376005E+03 0.  0.
         23    2    4    4    0    0 -0.28865043554E+02 -0.26779446563E+03 -0.65804405847E+03  0.71692282518E+03  0.91702169062E+02 0.  0.
         23    2    4    4    0    0 -0.18901113556E+03  0.20071091009E+03  0.17258543170E+03  0.33764397660E+03  0.90596053466E+02 0.  0.
          2    1    3    3  502    0  0.19366719668E+03  0.35247742764E+02 -0.26672739090E+03  0.33150096153E+03  0.00000000000E+00 0. -1.
         -1    1    3    3    0  502  0.24208982435E+02  0.31835812767E+02 -0.25922600944E+02  0.47661043261E+02  0.00000000000E+00 0.  1.
         11    1    5    5    0    0 -0.43576387064E+02 -0.13125412522E+03 -0.24115796959E+03  0.27799948416E+03  0.00000000000E+00 0.  1.
        -11    1    5    5    0    0  0.14711343510E+02 -0.13654034041E+03 -0.41688608888E+03  0.43892334102E+03  0.00000000000E+00 0. -1.
          3    1    6    6  503    0 -0.19064349872E+03  0.15936376115E+03  0.15356335340E+03  0.29210178958E+03  0.00000000000E+00 0. -1.
         -3    1    6    6    0  503  0.16323631585E+01  0.41347148947E+02  0.19022078304E+02  0.45542187020E+02  0.00000000000E+00 0.  1.
<mgrwt>
<rscale>  0 0.12042115E+04</rscale>
<asrwt>0</asrwt>
<pdfrwt beam="1">  1        2 0.17014134E+00 0.12042115E+04</pdfrwt>
<pdfrwt beam="2">  1       -1 0.50432322E-01 0.12042115E+04</pdfrwt>
<totfact> 0.95925851E+01</totfact>
</mgrwt>
</event>
<event>
12    6  0.1530859E-007  0.2541246E+04  0.7818608E-02  0.8388437E-01
          2   -1    0    0  501    0  0.00000000000E+00  0.00000000000E+00  0.40882045510E+04  0.40882045510E+04  0.00000000000E+00 0. -1.
         -1   -1    0    0    0  501 -0.00000000000E+00 -0.00000000000E+00 -0.39491248326E+03  0.39491248326E+03  0.00000000000E+00 0.  1.
         24    2    1    2    0    0  0.10471539452E+04  0.32190426404E+03  0.11411389072E+04  0.15836239843E+04  0.74250777067E+02 0.  0.
        254    2    1    2    0    0 -0.10471539452E+04 -0.32190426404E+03  0.25521531605E+04  0.28994930499E+04  0.83271871104E+03 0.  0.
         23    2    4    4    0    0 -0.21281611277E+03 -0.11695076178E+03  0.15709865914E+04  0.15921645313E+04  0.89559173910E+02 0.  0.
         23    2    4    4    0    0 -0.83433783245E+03 -0.20495350225E+03  0.98116656907E+03  0.13073285187E+04  0.91073940792E+02 0.  0.
          2    1    3    3  502    0  0.21538929883E+03  0.55086045655E+02  0.27315003128E+03  0.35219023562E+03  0.00000000000E+00 0. -1.
         -1    1    3    3    0  502  0.83176464639E+03  0.26681821838E+03  0.86798887591E+03  0.12314337487E+04  0.00000000000E+00 0.  1.
         11    1    5    5    0    0 -0.12416872586E+03 -0.70849436381E+02  0.11793337112E+04  0.11879669682E+04  0.00000000000E+00 0. -1.
        -11    1    5    5    0    0 -0.88647386913E+02 -0.46101325403E+02  0.39165288019E+03  0.40419756305E+03  0.00000000000E+00 0.  1.
          1    1    6    6  503    0 -0.72498782677E+03 -0.20497974942E+03  0.83286048652E+03  0.11230675121E+04  0.00000000000E+00 0. -1.
         -1    1    6    6    0  503 -0.10935000568E+03  0.26247169050E-01  0.14830608255E+03  0.18426100660E+03  0.00000000000E+00 0.  1.
<mgrwt>
<rscale>  0 0.25412462E+04</rscale>
<asrwt>0</asrwt>
<pdfrwt beam="1">  1        2 0.62895452E+00 0.25412462E+04</pdfrwt>
<pdfrwt beam="2">  1       -1 0.60755770E-01 0.25412462E+04</pdfrwt>
<totfact> 0.80670330E-01</totfact>
</mgrwt>
</event>
<event>
12    6  0.1530859E-007  0.1141103E+04  0.7818608E-02  0.9166031E-01
         -1   -1    0    0    0  501 -0.00000000000E+00  0.00000000000E+00  0.10948803422E+04  0.10948803422E+04  0.00000000000E+00 0.  1.
          4   -1    0    0  501    0  0.00000000000E+00 -0.00000000000E+00 -0.29731909357E+03  0.29731909357E+03  0.00000000000E+00 0. -1.
         24    2    1    2    0    0 -0.15205230332E+00 -0.71207549880E+02  0.39260193432E+03  0.40687750215E+03  0.79639717767E+02 0.  0.
        254    2    1    2    0    0  0.15205230332E+00  0.71207549880E+02  0.40495931436E+03  0.98532193366E+03  0.89543102939E+03 0.  0.
         23    2    4    4    0    0 -0.11043465095E+03 -0.33863471011E+03  0.41051975869E+03  0.55110156984E+03  0.91198623824E+02 0.  0.
         23    2    4    4    0    0  0.11058670325E+03  0.40984225999E+03 -0.55604443344E+01  0.43422036382E+03  0.91193798058E+02 0.  0.
          4    1    3    3  502    0 -0.32864054126E+02 -0.65805580386E+02  0.26148512203E+03  0.27163374147E+03  0.00000000000E+00 0. -1.
         -3    1    3    3    0  502  0.32712001822E+02 -0.54019694943E+01  0.13111681229E+03  0.13524376068E+03  0.00000000000E+00 0.  1.
         11    1    5    5    0    0 -0.85543495507E+02 -0.16914831008E+03  0.26803154564E+03  0.32828303320E+03  0.00000000000E+00 0. -1.
        -11    1    5    5    0    0 -0.24891155439E+02 -0.16948640004E+03  0.14248821305E+03  0.22281853665E+03  0.00000000000E+00 0.  1.
          3    1    6    6  503    0 -0.14633183988E+02  0.25097858953E+02  0.49714181997E+01  0.29474524535E+02  0.00000000000E+00 0. -1.
         -3    1    6    6    0  503  0.12521988724E+03  0.38474440104E+03 -0.10531862534E+02  0.40474583929E+03  0.00000000000E+00 0.  1.
<mgrwt>
<rscale>  0 0.11411027E+04</rscale>
<asrwt>0</asrwt>
<pdfrwt beam="1">  1        4 0.45741399E-01 0.11411027E+04</pdfrwt>
<pdfrwt beam="2">  1       -1 0.16844313E+00 0.11411027E+04</pdfrwt>
<totfact> 0.48799981E+00</totfact>
</mgrwt>
</event>
<event>
12    6  0.1530859E-007  0.3689135E+04  0.7818608E-02  0.8070374E-01
         -1   -1    0    0    0  501 -0.00000000000E+00  0.00000000000E+00  0.79497785117E+03  0.79497785117E+03  0.00000000000E+00 0.  1.
          2   -1    0    0  501    0  0.00000000000E+00 -0.00000000000E+00 -0.42799052097E+04  0.42799052097E+04  0.00000000000E+00 0. -1.
         24    2    1    2    0    0  0.10726913095E+04 -0.13114902945E+04 -0.11237141052E+04  0.20346308231E+04  0.79471742154E+02 0.  0.
        254    2    1    2    0    0 -0.10726913095E+04  0.13114902945E+04 -0.23612132533E+04  0.30402522378E+04  0.89282260493E+03 0.  0.
         23    2    4    4    0    0 -0.25976828637E+03  0.53508149380E+03 -0.26028995227E+03  0.65572659257E+03  0.91840826130E+02 0.  0.
         23    2    4    4    0    0 -0.81292302311E+03  0.77640880071E+03 -0.21009233010E+04  0.23845256452E+04  0.91811593235E+02 0.  0.
          4    1    3    3  502    0  0.23721799767E+02 -0.33784536700E+02 -0.14098539777E+02  0.43622099079E+02  0.00000000000E+00 0. -1.
         -3    1    3    3    0  502  0.10489695097E+04 -0.12777057578E+04 -0.11096155655E+04  0.19910087240E+04  0.00000000000E+00 0.  1.
         11    1    5    5    0    0 -0.10688904844E+03  0.18186744034E+03 -0.48626923072E+02  0.21648466962E+03  0.00000000000E+00 0. -1.
        -11    1    5    5    0    0 -0.15287923793E+03  0.35321405346E+03 -0.21166302920E+03  0.43924192295E+03  0.00000000000E+00 0.  1.
          2    1    6    6  503    0 -0.16550965978E+03  0.18782151003E+03 -0.40326111796E+03  0.47464712826E+03  0.00000000000E+00 0. -1.
         -2    1    6    6    0  503 -0.64741336333E+03  0.58858729069E+03 -0.16976621830E+04  0.19098785169E+04  0.00000000000E+00 0.  1.
<mgrwt>
<rscale>  0 0.36891353E+04</rscale>
<asrwt>0</asrwt>
<pdfrwt beam="1">  1        2 0.65844696E+00 0.36891353E+04</pdfrwt>
<pdfrwt beam="2">  1       -1 0.12230428E+00 0.36891353E+04</pdfrwt>
<totfact> 0.10674966E-01</totfact>
</mgrwt>
</event>
<event>
12    6  0.1530859E-007  0.1253524E+04  0.7818608E-02  0.9067255E-01
          2   -1    0    0  501    0  0.00000000000E+00  0.00000000000E+00  0.29051793056E+03  0.29051793056E+03  0.00000000000E+00 0. -1.
         -1   -1    0    0    0  501 -0.00000000000E+00 -0.00000000000E+00 -0.13521729706E+04  0.13521729706E+04  0.00000000000E+00 0.  1.
         24    2    1    2    0    0 -0.20443924242E+03  0.30334878137E+02  0.25276685141E+02  0.22284445034E+03  0.79404845964E+02 0.  0.
        254    2    1    2    0    0  0.20443924242E+03 -0.30334878137E+02 -0.10869317251E+04  0.14198464508E+04  0.88984704304E+03 0.  0.
         23    2    4    4    0    0  0.48036883484E+03  0.20819319966E+03 -0.71515217344E+03  0.89100168113E+03  0.91338593847E+02 0.  0.
         23    2    4    4    0    0 -0.27592959241E+03 -0.23852807780E+03 -0.37177955170E+03  0.52884476965E+03  0.91782195773E+02 0.  0.
          4    1    3    3  502    0 -0.73954793992E+02  0.47405184811E+02  0.24686432166E+02  0.91246824791E+02  0.00000000000E+00 0. -1.
         -3    1    3    3    0  502 -0.13048444843E+03 -0.17070306673E+02  0.59025297532E+00  0.13159762555E+03  0.00000000000E+00 0.  1.
         11    1    5    5    0    0  0.42146105755E+03  0.15976745784E+03 -0.64831535691E+03  0.78959981359E+03  0.00000000000E+00 0. -1.
        -11    1    5    5    0    0  0.58907777283E+02  0.48425741823E+02 -0.66836816526E+02  0.10140186753E+03  0.00000000000E+00 0.  1.
          2    1    6    6  503    0 -0.12348697233E+03 -0.65635251861E+02 -0.97029523450E+02  0.17021088991E+03  0.00000000000E+00 0. -1.
         -2    1    6    6    0  503 -0.15244262008E+03 -0.17289282594E+03 -0.27475002825E+03  0.35863387974E+03  0.00000000000E+00 0.  1.
<mgrwt>
<rscale>  0 0.12535238E+04</rscale>
<asrwt>0</asrwt>
<pdfrwt beam="1">  1        2 0.44695066E-01 0.12535238E+04</pdfrwt>
<pdfrwt beam="2">  1       -1 0.20802661E+00 0.12535238E+04</pdfrwt>
<totfact> 0.17004873E+01</totfact>
</mgrwt>
</event>
<event>
12    6  0.1530859E-007  0.1904773E+04  0.7818608E-02  0.8652484E-01
          2   -1    0    0  501    0  0.00000000000E+00  0.00000000000E+00  0.11558454685E+04  0.11558454685E+04  0.00000000000E+00 0. -1.
         -1   -1    0    0    0  501 -0.00000000000E+00 -0.00000000000E+00 -0.78474150497E+03  0.78474150497E+03  0.00000000000E+00 0.  1.
         24    2    1    2    0    0 -0.11237807397E+03  0.64473715772E+02 -0.59494786903E+03  0.61415355746E+03  0.80224271500E+02 0.  0.
        254    2    1    2    0    0  0.11237807397E+03 -0.64473715772E+02  0.96605183253E+03  0.13264334160E+04  0.89965758616E+03 0.  0.
         23    2    4    4    0    0  0.45936320430E+03  0.86001585258E+02  0.72930701979E+03  0.87102814077E+03  0.91599491073E+02 0.  0.
         23    2    4    4    0    0 -0.34698513033E+03 -0.15047530103E+03  0.23674481274E+03  0.45540527520E+03  0.91128269103E+02 0.  0.
          4    1    3    3  502    0 -0.48833666606E+02  0.72652763665E+02 -0.31242940907E+03  0.32446153349E+03  0.00000000000E+00 0. -1.
         -3    1    3    3    0  502 -0.63544407365E+02 -0.81790478931E+01 -0.28251845996E+03  0.28969202397E+03  0.00000000000E+00 0.  1.
         11    1    5    5    0    0  0.96797839297E+02 -0.19155552175E+02  0.14583971502E+03  0.17608514801E+03  0.00000000000E+00 0.  1.
        -11    1    5    5    0    0  0.36256536501E+03  0.10515713743E+03  0.58346730477E+03  0.69494299276E+03  0.00000000000E+00 0. -1.
          4    1    6    6  503    0 -0.34865129565E+02 -0.41416080651E+02  0.58834816879E+02  0.79952515115E+02  0.00000000000E+00 0. -1.
         -4    1    6    6    0  503 -0.31212000077E+03 -0.10905922038E+03  0.17790999586E+03  0.37545276008E+03  0.00000000000E+00 0.  1.
<mgrwt>
<rscale>  0 0.19047729E+04</rscale>
<asrwt>0</asrwt>
<pdfrwt beam="1">  1        2 0.17782238E+00 0.19047729E+04</pdfrwt>
<pdfrwt beam="2">  1       -1 0.12072946E+00 0.19047729E+04</pdfrwt>
<totfact> 0.13113869E+01</totfact>
</mgrwt>
</event>
<event>
12    6  0.1530859E-007  0.1926014E+04  0.7818608E-02  0.8642015E-01
          2   -1    0    0  501    0  0.00000000000E+00  0.00000000000E+00  0.17319330726E+04  0.17319330726E+04  0.00000000000E+00 0. -1.
         -1   -1    0    0    0  501 -0.00000000000E+00 -0.00000000000E+00 -0.53546087997E+03  0.53546087997E+03  0.00000000000E+00 0.  1.
         24    2    1    2    0    0  0.68722813070E+03 -0.91477887617E+02  0.80313199368E+03  0.10640001217E+04  0.80153303640E+02 0.  0.
        254    2    1    2    0    0 -0.68722813070E+03  0.91477887617E+02  0.39334019891E+03  0.12033938309E+04  0.90154838612E+03 0.  0.
         23    2    4    4    0    0 -0.20601206463E+03 -0.13794000213E+03 -0.24964098659E+03  0.36334721366E+03  0.90731254439E+02 0.  0.
         23    2    4    4    0    0 -0.48121606607E+03  0.22941788975E+03  0.64298118550E+03  0.84004661719E+03  0.89733181017E+02 0.  0.
          4    1    3    3  502    0  0.47821724797E+03 -0.95884056239E+02  0.53409228573E+03  0.72328421673E+03  0.00000000000E+00 0. -1.
         -3    1    3    3    0  502  0.20901088274E+03  0.44061686214E+01  0.26903970795E+03  0.34071590494E+03  0.00000000000E+00 0.  1.
         11    1    5    5    0    0  0.29652775652E+01 -0.20120037631E+01 -0.32640923638E+02  0.32837035891E+02  0.00000000000E+00 0. -1.
        -11    1    5    5    0    0 -0.20897734219E+03 -0.13592799837E+03 -0.21700006295E+03  0.33051017777E+03  0.00000000000E+00 0.  1.
          2    1    6    6  503    0 -0.45659807308E+03  0.19168529833E+03  0.58065290573E+03  0.76314012532E+03  0.00000000000E+00 0. -1.
         -2    1    6    6    0  503 -0.24617992993E+02  0.37732591425E+02  0.62328279764E+02  0.76906491878E+02  0.00000000000E+00 0.  1.
<mgrwt>
<rscale>  0 0.19260139E+04</rscale>
<asrwt>0</asrwt>
<pdfrwt beam="1">  1        2 0.26645124E+00 0.19260139E+04</pdfrwt>
<pdfrwt beam="2">  1       -1 0.82378598E-01 0.19260139E+04</pdfrwt>
<totfact> 0.14679980E+01</totfact>
</mgrwt>
</event>
<event>
12    6  0.1530859E-007  0.1897987E+04  0.7818608E-02  0.8655859E-01
          2   -1    0    0  501    0  0.00000000000E+00  0.00000000000E+00  0.33141924943E+04  0.33141924943E+04  0.00000000000E+00 0. -1.
         -1   -1    0    0    0  501 -0.00000000000E+00 -0.00000000000E+00 -0.27173711125E+03  0.27173711125E+03  0.00000000000E+00 0.  1.
         24    2    1    2    0    0 -0.32392437803E+03 -0.49492330903E+03  0.37335551624E+03  0.70767619312E+03  0.10740190083E+03 0.  0.
        254    2    1    2    0    0  0.32392437803E+03  0.49492330903E+03  0.26690998668E+04  0.28782534124E+04  0.90020693324E+03 0.  0.
         23    2    4    4    0    0 -0.14411408593E+03 -0.13027445604E+02  0.62642120767E+02  0.18026382892E+03  0.87363771778E+02 0.  0.
         23    2    4    4    0    0  0.46803846396E+03  0.50795075463E+03  0.26064577460E+04  0.26979895835E+04  0.91933878307E+02 0.  0.
          2    1    3    3  502    0 -0.16219835940E+02 -0.20051366572E+01  0.25948966721E+02  0.30666798412E+02  0.00000000000E+00 0. -1.
         -1    1    3    3    0  502 -0.30770454209E+03 -0.49291817237E+03  0.34740654952E+03  0.67700939471E+03  0.00000000000E+00 0.  1.
         11    1    5    5    0    0 -0.46303564449E+02  0.10321681558E+02  0.64037376336E+02  0.79695312026E+02  0.00000000000E+00 0. -1.
        -11    1    5    5    0    0 -0.97810521479E+02 -0.23349127162E+02 -0.13952555694E+01  0.10056851689E+03  0.00000000000E+00 0.  1.
          3    1    6    6  503    0  0.23309300658E+03  0.18930260915E+03  0.11808261571E+04  0.12184080765E+04  0.00000000000E+00 0. -1.
         -3    1    6    6    0  503  0.23494545738E+03  0.31864814549E+03  0.14256315889E+04  0.14795815070E+04  0.00000000000E+00 0.  1.
<mgrwt>
<rscale>  0 0.18979875E+04</rscale>
<asrwt>0</asrwt>
<pdfrwt beam="1">  1        2 0.50987574E+00 0.18979875E+04</pdfrwt>
<pdfrwt beam="2">  1       -1 0.41805712E-01 0.18979875E+04</pdfrwt>
<totfact> 0.65598785E+00</totfact>
</mgrwt>
</event>
<event>
12    6  0.1530859E-007  0.1632971E+04  0.7818608E-02  0.8800545E-01
          2   -1    0    0  501    0  0.00000000000E+00  0.00000000000E+00  0.72812973156E+03  0.72812973156E+03  0.00000000000E+00 0. -1.
         -1   -1    0    0    0  501 -0.00000000000E+00 -0.00000000000E+00 -0.91556300552E+03  0.91556300552E+03  0.00000000000E+00 0.  1.
         24    2    1    2    0    0  0.13786462116E+02  0.44824406565E+03 -0.41759108063E+03  0.61790941408E+03  0.79479081866E+02 0.  0.
        254    2    1    2    0    0 -0.13786462116E+02 -0.44824406565E+03  0.23015780667E+03  0.10257833230E+04  0.89339017280E+03 0.  0.
         23    2    4    4    0    0  0.23103857674E+03  0.62665548771E+02  0.35554818824E+03  0.43838080836E+03  0.91964254100E+02 0.  0.
         23    2    4    4    0    0 -0.24482503885E+03 -0.51090961442E+03 -0.12539038157E+03  0.58740251465E+03  0.91383984744E+02 0.  0.
          4    1    3    3  502    0  0.25736299045E+01  0.21599456423E+01 -0.19909171682E+02  0.20190692240E+02  0.00000000000E+00 0. -1.
         -3    1    3    3    0  502  0.11212832212E+02  0.44608412001E+03 -0.39768190895E+03  0.59771872184E+03  0.00000000000E+00 0.  1.
         11    1    5    5    0    0  0.22247447227E+03  0.54368246930E+02  0.27923313521E+03  0.36113978026E+03  0.00000000000E+00 0. -1.
        -11    1    5    5    0    0  0.85641044701E+01  0.82973018407E+01  0.76315053027E+02  0.77241028099E+02  0.00000000000E+00 0.  1.
          1    1    6    6  503    0 -0.10518979611E+03 -0.31766560690E+03 -0.57713701484E+02  0.33956914222E+03  0.00000000000E+00 0. -1.
         -1    1    6    6    0  503 -0.13963524275E+03 -0.19324400752E+03 -0.67676680087E+02  0.24783337243E+03  0.00000000000E+00 0.  1.
<mgrwt>
<rscale>  0 0.16329711E+04</rscale>
<asrwt>0</asrwt>
<pdfrwt beam="1">  1        2 0.11201996E+00 0.16329711E+04</pdfrwt>
<pdfrwt beam="2">  1       -1 0.14085585E+00 0.16329711E+04</pdfrwt>
<totfact> 0.17557810E+01</totfact>
</mgrwt>
</event>
<event>
12    6  0.1530859E-007  0.2030762E+04  0.7818608E-02  0.8592372E-01
         -1   -1    0    0    0  501 -0.00000000000E+00  0.00000000000E+00  0.13023883393E+04  0.13023883393E+04  0.00000000000E+00 0.  1.
          2   -1    0    0  501    0  0.00000000000E+00 -0.00000000000E+00 -0.79162171719E+03  0.79162171719E+03  0.00000000000E+00 0. -1.
         24    2    1    2    0    0  0.69542739555E+03 -0.40001793649E+02 -0.23105494400E+03  0.73822808744E+03  0.79843070792E+02 0.  0.
        254    2    1    2    0    0 -0.69542739555E+03  0.40001793649E+02  0.74182156613E+03  0.13557819691E+04  0.89589402594E+03 0.  0.
         23    2    4    4    0    0 -0.47234743459E+03  0.21581159750E+01  0.92828037587E+03  0.10455033123E+04  0.90862331480E+02 0.  0.
         23    2    4    4    0    0 -0.22307996097E+03  0.37843677674E+02 -0.18645880974E+03  0.31027865682E+03  0.10153395602E+03 0.  0.
          2    1    3    3  502    0  0.67661107747E+03 -0.25027010211E+02 -0.22404044741E+03  0.71317811483E+03  0.00000000000E+00 0. -1.
         -1    1    3    3    0  502  0.18816318078E+02 -0.14974783438E+02 -0.70144965909E+01  0.25049972604E+02  0.00000000000E+00 0.  1.
         11    1    5    5    0    0 -0.23400110807E+03  0.43437864438E+02  0.42475547315E+03  0.48688867168E+03  0.00000000000E+00 0. -1.
        -11    1    5    5    0    0 -0.23834632652E+03 -0.41279748463E+02  0.50352490272E+03  0.55861464057E+03  0.00000000000E+00 0.  1.
          1    1    6    6  503    0 -0.13983566043E+03 -0.54083481396E+01 -0.16050602887E+03  0.21294470517E+03  0.00000000000E+00 0. -1.
         -1    1    6    6    0  503 -0.83244300534E+02  0.43252025814E+02 -0.25952780869E+02  0.97333951647E+02  0.00000000000E+00 0.  1.
<mgrwt>
<rscale>  0 0.20307623E+04</rscale>
<asrwt>0</asrwt>
<pdfrwt beam="1">  1        2 0.12178796E+00 0.20307623E+04</pdfrwt>
<pdfrwt beam="2">  1       -1 0.20036744E+00 0.20307623E+04</pdfrwt>
<totfact> 0.55275330E+00</totfact>
</mgrwt>
</event>
<event>
12    6  0.1530859E-007  0.2127828E+04  0.7818608E-02  0.8549083E-01
          2   -1    0    0  501    0  0.00000000000E+00  0.00000000000E+00  0.24000207880E+04  0.24000207880E+04  0.00000000000E+00 0. -1.
         -1   -1    0    0    0  501 -0.00000000000E+00 -0.00000000000E+00 -0.47162618543E+03  0.47162618543E+03  0.00000000000E+00 0.  1.
         24    2    1    2    0    0  0.38568553916E+03  0.77744771890E+03  0.62155414573E+03  0.10703791243E+04  0.78763081319E+02 0.  0.
        254    2    1    2    0    0 -0.38568553916E+03 -0.77744771890E+03  0.13068404569E+04  0.18012678491E+04  0.88518675649E+03 0.  0.
         23    2    4    4    0    0 -0.25367859650E+03 -0.16537672778E+03  0.10834861095E+04  0.11286161386E+04  0.90166216287E+02 0.  0.
         23    2    4    4    0    0 -0.13200694267E+03 -0.61207099112E+03  0.22335434743E+03  0.67265171053E+03  0.10254963712E+03 0.  0.
          2    1    3    3  502    0  0.14473258164E+03  0.35422614785E+03  0.30744496967E+03  0.49086260133E+03  0.00000000000E+00 0. -1.
         -1    1    3    3    0  502  0.24095295753E+03  0.42322157105E+03  0.31410917606E+03  0.57951652300E+03  0.00000000000E+00 0.  1.
         11    1    5    5    0    0 -0.35378564052E+02 -0.44237959356E+02  0.11129789801E+03  0.12488339339E+03  0.00000000000E+00 0. -1.
        -11    1    5    5    0    0 -0.21830003244E+03 -0.12113876843E+03  0.97218821144E+03  0.10037327452E+04  0.00000000000E+00 0.  1.
          3    1    6    6  503    0 -0.40952245746E+01 -0.95294066274E+02  0.14959542396E+00  0.95382138318E+02  0.00000000000E+00 0. -1.
         -3    1    6    6    0  503 -0.12791171809E+03 -0.51677692485E+03  0.22320475201E+03  0.57726957221E+03  0.00000000000E+00 0.  1.
<mgrwt>
<rscale>  0 0.21278277E+04</rscale>
<asrwt>0</asrwt>
<pdfrwt beam="1">  1        2 0.36923396E+00 0.21278277E+04</pdfrwt>
<pdfrwt beam="2">  1       -1 0.72557876E-01 0.21278277E+04</pdfrwt>
<totfact> 0.79704488E+00</totfact>
</mgrwt>
</event>
<event>
12    6  0.1530859E-007  0.3235521E+04  0.7818608E-02  0.8179499E-01
          2   -1    0    0  501    0  0.00000000000E+00  0.00000000000E+00  0.25690125704E+04  0.25690125704E+04  0.00000000000E+00 0. -1.
         -1   -1    0    0    0  501 -0.00000000000E+00 -0.00000000000E+00 -0.10187372602E+04  0.10187372602E+04  0.00000000000E+00 0.  1.
         24    2    1    2    0    0  0.16865560445E+03 -0.24152574745E+03  0.23346482765E+04  0.23554480058E+04  0.10379466832E+03 0.  0.
        254    2    1    2    0    0 -0.16865560445E+03  0.24152574745E+03 -0.78437296633E+03  0.12323018249E+04  0.90363014437E+03 0.  0.
         23    2    4    4    0    0 -0.22897012681E+03  0.10155592122E+03 -0.95152011724E+03  0.98827880574E+03  0.92539398326E+02 0.  0.
         23    2    4    4    0    0  0.60314522361E+02  0.13996982623E+03  0.16714715092E+03  0.24402301919E+03  0.91540537308E+02 0.  0.
          2    1    3    3  502    0  0.16448316736E+03 -0.15600895740E+03  0.17046922457E+04  0.17197003110E+04  0.00000000000E+00 0. -1.
         -1    1    3    3    0  502  0.41724370961E+01 -0.85516790050E+02  0.62995603084E+03  0.63574769477E+03  0.00000000000E+00 0.  1.
         11    1    5    5    0    0 -0.24951297606E+00 -0.61905565899E+00  0.21528659472E+01  0.22539561710E+01  0.00000000000E+00 0.  1.
        -11    1    5    5    0    0 -0.22872061384E+03  0.10217497688E+03 -0.95367298319E+03  0.98602484957E+03  0.00000000000E+00 0. -1.
          2    1    6    6  503    0  0.82267065822E+02  0.10775802207E+03  0.10869413223E+03  0.17376442622E+03  0.00000000000E+00 0. -1.
         -2    1    6    6    0  503 -0.21952543461E+02  0.32211804163E+02  0.58453018686E+02  0.70258592965E+02  0.00000000000E+00 0.  1.
<mgrwt>
<rscale>  0 0.32355209E+04</rscale>
<asrwt>0</asrwt>
<pdfrwt beam="1">  1        2 0.39523270E+00 0.32355209E+04</pdfrwt>
<pdfrwt beam="2">  1       -1 0.15672881E+00 0.32355209E+04</pdfrwt>
<totfact> 0.93682179E-01</totfact>
</mgrwt>
</event>
<event>
12    6  0.1530859E-007  0.1321136E+04  0.7818608E-02  0.9012970E-01
         -1   -1    0    0    0  501 -0.00000000000E+00  0.00000000000E+00  0.28728158473E+03  0.28728158473E+03  0.00000000000E+00 0.  1.
          2   -1    0    0  501    0  0.00000000000E+00 -0.00000000000E+00 -0.15188941174E+04  0.15188941174E+04  0.00000000000E+00 0. -1.
         24    2    1    2    0    0 -0.32889907620E+03  0.88767229137E+01 -0.16837016285E+03  0.37824633916E+03  0.80426256993E+02 0.  0.
        254    2    1    2    0    0  0.32889907620E+03 -0.88767229137E+01 -0.10632423698E+04  0.14279293629E+04  0.89456387702E+03 0.  0.
         23    2    4    4    0    0  0.47668598808E+03 -0.20308895959E+03 -0.26671498052E+03  0.58998078298E+03  0.92009709868E+02 0.  0.
         23    2    4    4    0    0 -0.14778691189E+03  0.19421223667E+03 -0.79652738926E+03  0.83794857995E+03  0.90236226625E+02 0.  0.
          4    1    3    3  502    0 -0.13566909058E+03 -0.25297425626E+02 -0.10007315972E+03  0.17047198943E+03  0.00000000000E+00 0. -1.
         -3    1    3    3    0  502 -0.19322998561E+03  0.34174148540E+02 -0.68297003133E+02  0.20777434973E+03  0.00000000000E+00 0.  1.
         11    1    5    5    0    0  0.30394612473E+03 -0.10130671865E+03 -0.12249726065E+03  0.34300419363E+03  0.00000000000E+00 0.  1.
        -11    1    5    5    0    0  0.17273986336E+03 -0.10178224094E+03 -0.14421771987E+03  0.24697658935E+03  0.00000000000E+00 0. -1.
          1    1    6    6  503    0 -0.71409224789E+01  0.17934638311E+02 -0.14745601155E+02  0.24291496015E+02  0.00000000000E+00 0. -1.
         -1    1    6    6    0  503 -0.14064598941E+03  0.17627759836E+03 -0.78178178810E+03  0.81365708393E+03  0.00000000000E+00 0.  1.
<mgrwt>
<rscale>  0 0.13211363E+04</rscale>
<asrwt>0</asrwt>
<pdfrwt beam="1">  1        2 0.23367601E+00 0.13211363E+04</pdfrwt>
<pdfrwt beam="2">  1       -1 0.44197167E-01 0.13211363E+04</pdfrwt>
<totfact> 0.69943872E+01</totfact>
</mgrwt>
</event>
<event>
12    6  0.1530859E-007  0.2496315E+04  0.7818608E-02  0.8404300E-01
         -1   -1    0    0    0  501 -0.00000000000E+00  0.00000000000E+00  0.99330646342E+03  0.99330646342E+03  0.00000000000E+00 0.  1.
          2   -1    0    0  501    0  0.00000000000E+00 -0.00000000000E+00 -0.15683950186E+04  0.15683950186E+04  0.00000000000E+00 0. -1.
         24    2    1    2    0    0 -0.16847192959E+03 -0.14970207089E+03 -0.13378585457E+04  0.13591902151E+04  0.82091726267E+02 0.  0.
        254    2    1    2    0    0  0.16847192959E+03  0.14970207089E+03  0.76276999048E+03  0.12025112669E+04  0.90189898970E+03 0.  0.
         23    2    4    4    0    0  0.45400445746E+03  0.26064583410E+03  0.22632747046E+03  0.57767784124E+03  0.91821926304E+02 0.  0.
         23    2    4    4    0    0 -0.28553252786E+03 -0.11094376321E+03  0.53644252002E+03  0.62483342569E+03  0.93855684472E+02 0.  0.
          2    1    3    3  502    0 -0.10550860251E+03 -0.76124009205E+02 -0.97456812642E+03  0.98321409826E+03  0.00000000000E+00 0. -1.
         -1    1    3    3    0  502 -0.62963327079E+02 -0.73578061689E+02 -0.36329041925E+03  0.37597611684E+03  0.00000000000E+00 0.  1.
         11    1    5    5    0    0  0.33319918912E+03  0.14208497493E+03  0.15493969130E+03  0.39397480588E+03  0.00000000000E+00 0. -1.
        -11    1    5    5    0    0  0.12080526834E+03  0.11856085917E+03  0.71387779151E+02  0.18370303535E+03  0.00000000000E+00 0.  1.
          3    1    6    6  503    0 -0.23113529105E+03 -0.95495697425E+02  0.35113740031E+03  0.43109213040E+03  0.00000000000E+00 0. -1.
         -3    1    6    6    0  503 -0.54397236814E+02 -0.15448065782E+02  0.18530511971E+03  0.19374129529E+03  0.00000000000E+00 0.  1.
<mgrwt>
<rscale>  0 0.24963148E+04</rscale>
<asrwt>0</asrwt>
<pdfrwt beam="1">  1        2 0.24129154E+00 0.24963148E+04</pdfrwt>
<pdfrwt beam="2">  1       -1 0.15281638E+00 0.24963148E+04</pdfrwt>
<totfact> 0.39154427E+00</totfact>
</mgrwt>
</event>
<event>
12    6  0.1530859E-007  0.1184191E+04  0.7818608E-02  0.9126808E-01
         -1   -1    0    0    0  501 -0.00000000000E+00  0.00000000000E+00  0.10877470545E+04  0.10877470545E+04  0.00000000000E+00 0.  1.
          2   -1    0    0  501    0  0.00000000000E+00 -0.00000000000E+00 -0.32229649875E+03  0.32229649875E+03  0.00000000000E+00 0. -1.
         24    2    1    2    0    0  0.68577100024E+02 -0.13661506608E+03  0.38154623899E+03  0.41838286260E+03  0.78103727844E+02 0.  0.
        254    2    1    2    0    0 -0.68577100024E+02  0.13661506608E+03  0.38390431673E+03  0.99166069063E+03  0.90146653072E+03 0.  0.
         23    2    4    4    0    0  0.80408096022E+02  0.43561121476E+03 -0.28425169708E+02  0.45293610848E+03  0.90114015342E+02 0.  0.
         23    2    4    4    0    0 -0.14898519605E+03 -0.29899614868E+03  0.41232948644E+03  0.53872458215E+03  0.92807782281E+02 0.  0.
          4    1    3    3  502    0 -0.53176888057E+01 -0.38953398344E+02  0.42496593550E+02  0.57893052434E+02  0.00000000000E+00 0. -1.
         -3    1    3    3    0  502  0.73894788829E+02 -0.97661667732E+02  0.33904964544E+03  0.36048981016E+03  0.00000000000E+00 0.  1.
         11    1    5    5    0    0  0.85994958481E+02  0.32772461547E+03  0.80455331932E+01  0.33891486700E+03  0.00000000000E+00 0.  1.
        -11    1    5    5    0    0 -0.55868624589E+01  0.10788659929E+03 -0.36470702901E+02  0.11402124148E+03  0.00000000000E+00 0. -1.
          3    1    6    6  503    0 -0.41548905755E+02 -0.10989265220E+03  0.21524198618E+03  0.24521790146E+03  0.00000000000E+00 0. -1.
         -3    1    6    6    0  503 -0.10743629029E+03 -0.18910349648E+03  0.19708750026E+03  0.29350668069E+03  0.00000000000E+00 0.  1.
<mgrwt>
<rscale>  0 0.11841910E+04</rscale>
<asrwt>0</asrwt>
<pdfrwt beam="1">  1        2 0.49584077E-01 0.11841910E+04</pdfrwt>
<pdfrwt beam="2">  1       -1 0.16734570E+00 0.11841910E+04</pdfrwt>
<totfact> 0.29519319E+01</totfact>
</mgrwt>
</event>
<event>
12    6  0.1530859E-007  0.1584528E+04  0.7818608E-02  0.8830110E-01
          2   -1    0    0  501    0  0.00000000000E+00  0.00000000000E+00  0.89562341014E+03  0.89562341014E+03  0.00000000000E+00 0. -1.
         -1   -1    0    0    0  501 -0.00000000000E+00 -0.00000000000E+00 -0.70083266450E+03  0.70083266450E+03  0.00000000000E+00 0.  1.
         24    2    1    2    0    0  0.13829228555E+03  0.42000543523E+03  0.35150746285E+03  0.57036921564E+03  0.78957101320E+02 0.  0.
        254    2    1    2    0    0 -0.13829228555E+03 -0.42000543523E+03 -0.15671671721E+03  0.10260868590E+04  0.91255947252E+03 0.  0.
         23    2    4    4    0    0 -0.10673950739E+03 -0.61893311105E+03  0.14648151671E+03  0.65110436287E+03  0.89490436515E+02 0.  0.
         23    2    4    4    0    0 -0.31552778159E+02  0.19892767582E+03 -0.30319823392E+03  0.37498249612E+03  0.90082769325E+02 0.  0.
          4    1    3    3  502    0  0.10852064762E+03  0.22765169578E+03  0.22700186108E+03  0.33931087587E+03  0.00000000000E+00 0. -1.
         -3    1    3    3    0  502  0.29771637927E+02  0.19235373945E+03  0.12450560177E+03  0.23105833977E+03  0.00000000000E+00 0.  1.
         11    1    5    5    0    0 -0.36083650724E+02 -0.24864719101E+03  0.14385857857E+02  0.25166328368E+03  0.00000000000E+00 0. -1.
        -11    1    5    5    0    0 -0.70655856667E+02 -0.37028592003E+03  0.13209565886E+03  0.39944107919E+03  0.00000000000E+00 0.  1.
          4    1    6    6  503    0 -0.31688220457E+02  0.44208640114E+02 -0.32993971540E+02  0.63617209421E+02  0.00000000000E+00 0. -1.
         -4    1    6    6    0  503  0.13544229807E+00  0.15471903570E+03 -0.27020426238E+03  0.31136528670E+03  0.00000000000E+00 0.  1.
<mgrwt>
<rscale>  0 0.15845279E+04</rscale>
<asrwt>0</asrwt>
<pdfrwt beam="1">  1        2 0.13778822E+00 0.15845279E+04</pdfrwt>
<pdfrwt beam="2">  1       -1 0.10782041E+00 0.15845279E+04</pdfrwt>
<totfact> 0.25889173E+01</totfact>
</mgrwt>
</event>
<event>
12    6  0.1530859E-007  0.1409785E+04  0.7818608E-02  0.8946766E-01
          2   -1    0    0  501    0  0.00000000000E+00  0.00000000000E+00  0.14803418650E+04  0.14803418650E+04  0.00000000000E+00 0. -1.
         -1   -1    0    0    0  501 -0.00000000000E+00 -0.00000000000E+00 -0.33564775245E+03  0.33564775245E+03  0.00000000000E+00 0.  1.
         24    2    1    2    0    0 -0.34767454415E+03  0.20239120343E+03  0.44365277811E+03  0.60410804568E+03  0.79239860327E+02 0.  0.
        254    2    1    2    0    0  0.34767454415E+03 -0.20239120343E+03  0.70104133443E+03  0.12118815718E+04  0.90297187305E+03 0.  0.
         23    2    4    4    0    0 -0.15704955472E+03 -0.38342196694E+03  0.43069273157E+03  0.60437705962E+03  0.89991298468E+02 0.  0.
         23    2    4    4    0    0  0.50472409887E+03  0.18103076351E+03  0.27034860287E+03  0.60750451215E+03  0.91950051065E+02 0.  0.
          4    1    3    3  502    0 -0.32836114701E+03  0.20779685082E+03  0.40968423420E+03  0.56466073516E+03  0.00000000000E+00 0. -1.
         -3    1    3    3    0  502 -0.19313397137E+02 -0.54056473893E+01  0.33968543907E+02  0.39447310527E+02  0.00000000000E+00 0.  1.
         11    1    5    5    0    0 -0.12967555473E+03 -0.36412628915E+03  0.37008986208E+03  0.53513569304E+03  0.00000000000E+00 0.  1.
        -11    1    5    5    0    0 -0.27373999983E+02 -0.19295677790E+02  0.60602869483E+02  0.69241366581E+02  0.00000000000E+00 0. -1.
          4    1    6    6  503    0  0.59771748232E+02  0.47879928896E+02  0.61681375506E+02  0.98334844089E+02  0.00000000000E+00 0. -1.
         -4    1    6    6    0  503  0.44495235063E+03  0.13315083462E+03  0.20866722736E+03  0.50916966806E+03  0.00000000000E+00 0.  1.
<mgrwt>
<rscale>  0 0.14097850E+04</rscale>
<asrwt>0</asrwt>
<pdfrwt beam="1">  1        2 0.22774490E+00 0.14097850E+04</pdfrwt>
<pdfrwt beam="2">  1       -1 0.51638116E-01 0.14097850E+04</pdfrwt>
<totfact> 0.54464797E+01</totfact>
</mgrwt>
</event>
<event>
12    6  0.1530859E-007  0.2543186E+04  0.7818608E-02  0.8387760E-01
         -1   -1    0    0    0  501 -0.00000000000E+00  0.00000000000E+00  0.56787100721E+03  0.56787100721E+03  0.00000000000E+00 0.  1.
          2   -1    0    0  501    0  0.00000000000E+00 -0.00000000000E+00 -0.28473867546E+04  0.28473867546E+04  0.00000000000E+00 0. -1.
         24    2    1    2    0    0 -0.66302410725E+02  0.75945433053E+03 -0.20782208243E+04  0.22150579314E+04  0.79454105786E+02 0.  0.
        254    2    1    2    0    0  0.66302410725E+02 -0.75945433053E+03 -0.20129492302E+03  0.12001998304E+04  0.90487186772E+03 0.  0.
         23    2    4    4    0    0 -0.90396818893E+02  0.13977714059E+03 -0.21026801035E+03  0.28334837503E+03  0.91457266300E+02 0.  0.
         23    2    4    4    0    0  0.15669922962E+03 -0.89923147111E+03  0.89730873224E+01  0.91685145536E+03  0.85814845371E+02 0.  0.
          2    1    3    3  502    0 -0.77892338259E+02  0.65023391449E+03 -0.18290224194E+04  0.19427285891E+04  0.00000000000E+00 0. -1.
         -1    1    3    3    0  502  0.11589927534E+02  0.10922041603E+03 -0.24919840488E+03  0.27232934232E+03  0.00000000000E+00 0.  1.
         11    1    5    5    0    0 -0.34064397484E+02  0.11318749112E+03 -0.17669064078E+03  0.21258262832E+03  0.00000000000E+00 0. -1.
        -11    1    5    5    0    0 -0.56332421410E+02  0.26589649465E+02 -0.33577369564E+02  0.70765746710E+02  0.00000000000E+00 0.  1.
          4    1    6    6  503    0  0.15801613563E+03 -0.79388219750E+03 -0.11432215218E+02  0.80953612531E+03  0.00000000000E+00 0. -1.
         -4    1    6    6    0  503 -0.13169060089E+01 -0.10534927361E+03  0.20405302540E+02  0.10731533005E+03  0.00000000000E+00 0.  1.
<mgrwt>
<rscale>  0 0.25431857E+04</rscale>
<asrwt>0</asrwt>
<pdfrwt beam="1">  1        2 0.43805949E+00 0.25431857E+04</pdfrwt>
<pdfrwt beam="2">  1       -1 0.87364773E-01 0.25431857E+04</pdfrwt>
<totfact> 0.28199509E+00</totfact>
</mgrwt>
</event>
<event>
12    6  0.1530859E-007  0.1634273E+04  0.7818608E-02  0.8799765E-01
          2   -1    0    0  501    0  0.00000000000E+00  0.00000000000E+00  0.17548518142E+04  0.17548518142E+04  0.00000000000E+00 0. -1.
         -1   -1    0    0    0  501 -0.00000000000E+00 -0.00000000000E+00 -0.38049471719E+03  0.38049471719E+03  0.00000000000E+00 0.  1.
         24    2    1    2    0    0 -0.14664369390E+03  0.11676104517E+03  0.11694301147E+04  0.11870717562E+04  0.80218741800E+02 0.  0.
        254    2    1    2    0    0  0.14664369390E+03 -0.11676104517E+03  0.20492698224E+03  0.94827477513E+03  0.90669314901E+03 0.  0.
         23    2    4    4    0    0 -0.10239193577E+02  0.24850846121E+03  0.41297806351E+03  0.49067014196E+03  0.91351031170E+02 0.  0.
         23    2    4    4    0    0  0.15688288747E+03 -0.36526950638E+03 -0.20805108127E+03  0.45760463317E+03  0.89903810865E+02 0.  0.
          2    1    3    3  502    0 -0.73332274533E+02  0.10706522622E+03  0.72118971356E+03  0.73277226210E+03  0.00000000000E+00 0. -1.
         -1    1    3    3    0  502 -0.73311419363E+02  0.96958189454E+01  0.44824040116E+03  0.45429949411E+03  0.00000000000E+00 0.  1.
         11    1    5    5    0    0 -0.23900593174E+02  0.13188690662E+03  0.14158874186E+03  0.19496862905E+03  0.00000000000E+00 0.  1.
        -11    1    5    5    0    0  0.13661399597E+02  0.11662155459E+03  0.27138932165E+03  0.29570151292E+03  0.00000000000E+00 0. -1.
          2    1    6    6  503    0  0.32170926598E+02 -0.11447794658E+03 -0.10663101157E+03  0.15971957112E+03  0.00000000000E+00 0. -1.
         -2    1    6    6    0  503  0.12471196088E+03 -0.25079155980E+03 -0.10142006970E+03  0.29788506205E+03  0.00000000000E+00 0.  1.
<mgrwt>
<rscale>  0 0.16342727E+04</rscale>
<asrwt>0</asrwt>
<pdfrwt beam="1">  1        2 0.26997720E+00 0.16342727E+04</pdfrwt>
<pdfrwt beam="2">  1       -1 0.58537649E-01 0.16342727E+04</pdfrwt>
<totfact> 0.29453868E+01</totfact>
</mgrwt>
</event>
<event>
12    6  0.1530859E-007  0.1194150E+04  0.7818608E-02  0.9117992E-01
         -1   -1    0    0    0  501 -0.00000000000E+00  0.00000000000E+00  0.21511783681E+03  0.21511783681E+03  0.00000000000E+00 0.  1.
          2   -1    0    0  501    0  0.00000000000E+00 -0.00000000000E+00 -0.16572253191E+04  0.16572253191E+04  0.00000000000E+00 0. -1.
         24    2    1    2    0    0  0.20240659523E+03 -0.13715547965E+03 -0.44113924864E+03  0.51072167166E+03  0.80328910266E+02 0.  0.
        254    2    1    2    0    0 -0.20240659523E+03  0.13715547965E+03 -0.10009682337E+04  0.13616214843E+04  0.89010988435E+03 0.  0.
         23    2    4    4    0    0 -0.34343136655E+02 -0.27079667233E+03 -0.27522334374E+02  0.28909840469E+03  0.91159859169E+02 0.  0.
         23    2    4    4    0    0 -0.16806345858E+03  0.40795215198E+03 -0.97344589932E+03  0.10725230796E+04  0.89657977648E+02 0.  0.
          2    1    3    3  502    0  0.19225757690E+03 -0.13751168739E+03 -0.37134599513E+03  0.44019346672E+03  0.00000000000E+00 0. -1.
         -1    1    3    3    0  502  0.10149018332E+02  0.35620773812E+00 -0.69793253509E+02  0.70528204943E+02  0.00000000000E+00 0.  1.
         11    1    5    5    0    0  0.21927639364E+02 -0.36922100189E+02 -0.22538714836E+02  0.48498005288E+02  0.00000000000E+00 0.  1.
        -11    1    5    5    0    0 -0.56270776019E+02 -0.23387457214E+03 -0.49836195379E+01  0.24060039940E+03  0.00000000000E+00 0. -1.
          1    1    6    6  503    0 -0.11730392089E+03  0.29597264210E+03 -0.78946190429E+03  0.85124033801E+03  0.00000000000E+00 0. -1.
         -1    1    6    6    0  503 -0.50759537689E+02  0.11197950987E+03 -0.18398399504E+03  0.22128274160E+03  0.00000000000E+00 0.  1.
<mgrwt>
<rscale>  0 0.11941503E+04</rscale>
<asrwt>0</asrwt>
<pdfrwt beam="1">  1        2 0.25495773E+00 0.11941503E+04</pdfrwt>
<pdfrwt beam="2">  1       -1 0.33095053E-01 0.11941503E+04</pdfrwt>
<totfact> 0.99904805E+01</totfact>
</mgrwt>
</event>
<event>
12    6  0.1530859E-007  0.3213546E+04  0.7818608E-02  0.8185249E-01
         -1   -1    0    0    0  501 -0.00000000000E+00  0.00000000000E+00  0.14693422786E+04  0.14693422786E+04  0.00000000000E+00 0.  1.
          2   -1    0    0  501    0  0.00000000000E+00 -0.00000000000E+00 -0.17570580865E+04  0.17570580865E+04  0.00000000000E+00 0. -1.
         24    2    1    2    0    0 -0.50836334591E+03 -0.15850367962E+03 -0.15180680251E+04  0.16107802007E+04  0.80781299141E+02 0.  0.
        254    2    1    2    0    0  0.50836334591E+03  0.15850367962E+03  0.12303522172E+04  0.16156201644E+04  0.90161257164E+03 0.  0.
         23    2    4    4    0    0  0.25642409874E+03  0.51905315398E+03  0.81502286375E+03  0.10038401015E+04  0.90902067452E+02 0.  0.
         23    2    4    4    0    0  0.25193924717E+03 -0.36054947436E+03  0.41532935344E+03  0.61178006290E+03  0.91143106197E+02 0.  0.
          2    1    3    3  502    0 -0.31713918366E+03 -0.12321876762E+03 -0.86979818149E+03  0.93397484069E+03  0.00000000000E+00 0. -1.
         -1    1    3    3    0  502 -0.19122416225E+03 -0.35284911997E+02 -0.64826984363E+03  0.67680536006E+03  0.00000000000E+00 0.  1.
         11    1    5    5    0    0  0.94151215222E+02  0.15470169058E+03  0.19072365157E+03  0.26300679775E+03  0.00000000000E+00 0. -1.
        -11    1    5    5    0    0  0.16227288351E+03  0.36435146340E+03  0.62429921218E+03  0.74083330374E+03  0.00000000000E+00 0.  1.
          4    1    6    6  503    0  0.24422532201E+03 -0.33102558301E+03  0.41001353628E+03  0.58080551345E+03  0.00000000000E+00 0.  1.
         -4    1    6    6    0  503  0.77139251599E+01 -0.29523891346E+02  0.53158171603E+01  0.30974549451E+02  0.00000000000E+00 0. -1.
<mgrwt>
<rscale>  0 0.32135462E+04</rscale>
<asrwt>0</asrwt>
<pdfrwt beam="1">  1        2 0.27031663E+00 0.32135462E+04</pdfrwt>
<pdfrwt beam="2">  1       -1 0.22605266E+00 0.32135462E+04</pdfrwt>
<totfact> 0.87493585E-01</totfact>
</mgrwt>
</event>
<event>
12    6  0.1530859E-007  0.1397455E+04  0.7818608E-02  0.8955663E-01
          2   -1    0    0  501    0  0.00000000000E+00  0.00000000000E+00  0.22039458742E+04  0.22039458742E+04  0.00000000000E+00 0. -1.
         -1   -1    0    0    0  501 -0.00000000000E+00 -0.00000000000E+00 -0.22152091084E+03  0.22152091084E+03  0.00000000000E+00 0.  1.
         24    2    1    2    0    0  0.19828602157E+03  0.35703691679E+03  0.40532005813E+03  0.58087564339E+03  0.79620708780E+02 0.  0.
        254    2    1    2    0    0 -0.19828602157E+03 -0.35703691679E+03  0.15771049053E+04  0.18445911417E+04  0.86513807652E+03 0.  0.
         23    2    4    4    0    0  0.11067339815E+03 -0.55608238937E+03  0.87369277230E+03  0.10456197651E+04  0.92224768382E+02 0.  0.
         23    2    4    4    0    0 -0.30895941972E+03  0.19904547258E+03  0.70341213295E+03  0.79897137660E+03  0.92149924871E+02 0.  0.
          4    1    3    3  502    0  0.19132473823E+03  0.35687925008E+03  0.40655105715E+03  0.57380459798E+03  0.00000000000E+00 0. -1.
         -3    1    3    3    0  502  0.69612833400E+01  0.15766670924E+00 -0.12309990284E+01  0.70710454063E+01  0.00000000000E+00 0.  1.
         11    1    5    5    0    0  0.12274253712E+03 -0.41722880743E+03  0.65113535212E+03  0.78302161844E+03  0.00000000000E+00 0. -1.
        -11    1    5    5    0    0 -0.12069138970E+02 -0.13885358194E+03  0.22255742019E+03  0.26259814663E+03  0.00000000000E+00 0.  1.
          1    1    6    6  503    0 -0.15514395784E+03  0.45767926415E+02  0.30038977510E+03  0.34117205004E+03  0.00000000000E+00 0. -1.
         -1    1    6    6    0  503 -0.15381546188E+03  0.15327754617E+03  0.40302235785E+03  0.45779932656E+03  0.00000000000E+00 0.  1.
<mgrwt>
<rscale>  0 0.13974550E+04</rscale>
<asrwt>0</asrwt>
<pdfrwt beam="1">  1        2 0.33906858E+00 0.13974550E+04</pdfrwt>
<pdfrwt beam="2">  1       -1 0.34080142E-01 0.13974550E+04</pdfrwt>
<totfact> 0.46437619E+01</totfact>
</mgrwt>
</event>
<event>
12    6  0.1530859E-007  0.1724440E+04  0.7818608E-02  0.8747547E-01
          2   -1    0    0  501    0  0.00000000000E+00  0.00000000000E+00  0.12079288444E+04  0.12079288444E+04  0.00000000000E+00 0. -1.
         -1   -1    0    0    0  501 -0.00000000000E+00 -0.00000000000E+00 -0.61545262606E+03  0.61545262606E+03  0.00000000000E+00 0.  1.
         24    2    1    2    0    0  0.60614339978E+03  0.14236461110E+03  0.22221758539E+03  0.66594292641E+03  0.80136273851E+02 0.  0.
        254    2    1    2    0    0 -0.60614339978E+03 -0.14236461110E+03  0.37025863291E+03  0.11574385440E+04  0.90271536175E+03 0.  0.
         23    2    4    4    0    0 -0.73016437516E+03 -0.33798703761E+02  0.53182946062E+03  0.90868572914E+03  0.92654260713E+02 0.  0.
         23    2    4    4    0    0  0.12402097538E+03 -0.10856590733E+03 -0.16157082770E+03  0.24875281488E+03  0.92763527185E+02 0.  0.
          2    1    3    3  502    0  0.41531143707E+03  0.12729394866E+03  0.12969745277E+03  0.45333074944E+03  0.00000000000E+00 0. -1.
         -1    1    3    3    0  502  0.19083196271E+03  0.15070662436E+02  0.92520132620E+02  0.21261217697E+03  0.00000000000E+00 0.  1.
         11    1    5    5    0    0 -0.16932960540E+03  0.17888975562E+02  0.88338081956E+02  0.19182321923E+03  0.00000000000E+00 0. -1.
        -11    1    5    5    0    0 -0.56083476976E+03 -0.51687679324E+02  0.44349137866E+03  0.71686250991E+03  0.00000000000E+00 0.  1.
          1    1    6    6  503    0  0.80171431982E+01  0.94502362080E+01  0.55362103206E+01  0.13573178484E+02  0.00000000000E+00 0. -1.
         -1    1    6    6    0  503  0.11600383218E+03 -0.11801614354E+03 -0.16710703802E+03  0.23517963639E+03  0.00000000000E+00 0.  1.
<mgrwt>
<rscale>  0 0.17244396E+04</rscale>
<asrwt>0</asrwt>
<pdfrwt beam="1">  1        2 0.18583521E+00 0.17244396E+04</pdfrwt>
<pdfrwt beam="2">  1       -1 0.94685020E-01 0.17244396E+04</pdfrwt>
<totfact> 0.21889830E+01</totfact>
</mgrwt>
</event>
<event>
12    6  0.1530859E-007  0.2081258E+04  0.7818608E-02  0.8569545E-01
         -1   -1    0    0    0  501 -0.00000000000E+00  0.00000000000E+00  0.43360241850E+03  0.43360241850E+03  0.00000000000E+00 0.  1.
          2   -1    0    0  501    0  0.00000000000E+00 -0.00000000000E+00 -0.24974697727E+04  0.24974697727E+04  0.00000000000E+00 0. -1.
         24    2    1    2    0    0 -0.80273240557E+03  0.25753650039E+03 -0.95189568037E+03  0.12740011387E+04  0.79177970389E+02 0.  0.
        254    2    1    2    0    0  0.80273240557E+03 -0.25753650039E+03 -0.11119716738E+04  0.16570710525E+04  0.89369967313E+03 0.  0.
         23    2    4    4    0    0 -0.13324542964E+03 -0.12416183353E+03 -0.11980751521E+02  0.20374180645E+03  0.90535517145E+02 0.  0.
         23    2    4    4    0    0  0.93597783521E+03 -0.13337466686E+03 -0.10999909223E+04  0.14533292461E+04  0.91337607695E+02 0.  0.
          2    1    3    3  502    0 -0.17938122402E+03  0.90910839055E+02 -0.20969362193E+03  0.29054056389E+03  0.00000000000E+00 0. -1.
         -3    1    3    3    0  502 -0.62335118156E+03  0.16662566133E+03 -0.74220205844E+03  0.98346057477E+03  0.00000000000E+00 0.  1.
         11    1    5    5    0    0 -0.80889076040E+02 -0.21204657812E+02  0.15418237286E+02  0.85031771571E+02  0.00000000000E+00 0.  1.
        -11    1    5    5    0    0 -0.52356353598E+02 -0.10295717572E+03 -0.27398988807E+02  0.11871003488E+03  0.00000000000E+00 0. -1.
          2    1    6    6  503    0  0.60341087411E+03 -0.12794968282E+03 -0.69447439503E+03  0.92885439638E+03  0.00000000000E+00 0.  1.
         -2    1    6    6    0  503  0.33256696110E+03 -0.54249840420E+01 -0.40551652725E+03  0.52447484968E+03  0.00000000000E+00 0. -1.
<mgrwt>
<rscale>  0 0.20812582E+04</rscale>
<asrwt>0</asrwt>
<pdfrwt beam="1">  1        2 0.38422611E+00 0.20812582E+04</pdfrwt>
<pdfrwt beam="2">  1       -1 0.66708065E-01 0.20812582E+04</pdfrwt>
<totfact> 0.83572132E+00</totfact>
</mgrwt>
</event>
<event>
12    6  0.1530859E-007  0.5652979E+04  0.7818608E-02  0.7734983E-01
          2   -1    0    0  501    0  0.00000000000E+00  0.00000000000E+00  0.24823346589E+04  0.24823346589E+04  0.00000000000E+00 0. -1.
         -1   -1    0    0    0  501 -0.00000000000E+00 -0.00000000000E+00 -0.32183589261E+04  0.32183589261E+04  0.00000000000E+00 0.  1.
         24    2    1    2    0    0 -0.13493666250E+04  0.16860791131E+04  0.13644475174E+04  0.25557123186E+04  0.79343326456E+02 0.  0.
        254    2    1    2    0    0  0.13493666250E+04 -0.16860791131E+04 -0.21004717846E+04  0.31449812664E+04  0.90292435118E+03 0.  0.
         23    2    4    4    0    0  0.59028821403E+02 -0.45587582807E+03 -0.83251195103E+03  0.95538909607E+03  0.91569666965E+02 0.  0.
         23    2    4    4    0    0  0.12903378036E+04 -0.12302032850E+04 -0.12679598335E+04  0.21895921703E+04  0.90664011844E+02 0.  0.
          4    1    3    3  502    0 -0.28756163369E+02  0.23445620798E+02  0.15866619080E+02  0.40352988332E+02  0.00000000000E+00 0. -1.
         -3    1    3    3    0  502 -0.13206104616E+04  0.16626334923E+04  0.13485808984E+04  0.25153593303E+04  0.00000000000E+00 0.  1.
         11    1    5    5    0    0  0.39430574896E+02 -0.71153064335E+02 -0.11288195822E+03  0.13913973298E+03  0.00000000000E+00 0.  1.
        -11    1    5    5    0    0  0.19598246507E+02 -0.38472276373E+03 -0.71962999281E+03  0.81624936310E+03  0.00000000000E+00 0. -1.
          2    1    6    6  503    0  0.96473408927E+03 -0.96424061297E+03 -0.94311360352E+03  0.16582928245E+04  0.00000000000E+00 0. -1.
         -2    1    6    6    0  503  0.32560371428E+03 -0.26596267207E+03 -0.32484623002E+03  0.53129934580E+03  0.00000000000E+00 0.  1.
<mgrwt>
<rscale>  0 0.56529794E+04</rscale>
<asrwt>0</asrwt>
<pdfrwt beam="1">  1        2 0.38189764E+00 0.56529794E+04</pdfrwt>
<pdfrwt beam="2">  1       -1 0.49513214E+00 0.56529794E+04</pdfrwt>
<totfact> 0.45366845E-03</totfact>
</mgrwt>
</event>
<event>
12    6  0.1530859E-007  0.2545504E+04  0.7818608E-02  0.8386951E-01
          2   -1    0    0  501    0  0.00000000000E+00  0.00000000000E+00  0.38435132594E+04  0.38435132594E+04  0.00000000000E+00 0. -1.
         -1   -1    0    0    0  501 -0.00000000000E+00 -0.00000000000E+00 -0.42146284503E+03  0.42146284503E+03  0.00000000000E+00 0.  1.
         24    2    1    2    0    0 -0.18222591203E+03  0.79722766419E+03  0.23779611927E+03  0.85556750791E+03  0.81673341375E+02 0.  0.
        254    2    1    2    0    0  0.18222591203E+03 -0.79722766419E+03  0.31842542951E+04  0.34094085965E+04  0.90322385408E+03 0.  0.
         23    2    4    4    0    0 -0.35910261621E+02  0.16899353113E+03  0.29465995673E+03  0.35337210532E+03  0.90548297989E+02 0.  0.
         23    2    4    4    0    0  0.21813617365E+03 -0.96622119532E+03  0.28895943383E+04  0.30560364912E+04  0.91852091011E+02 0.  0.
          4    1    3    3  502    0 -0.95590455533E+01  0.13706673703E+03  0.17440971272E+02  0.13850217771E+03  0.00000000000E+00 0. -1.
         -3    1    3    3    0  502 -0.17266686648E+03  0.66016092716E+03  0.22035514800E+03  0.71706533020E+03  0.00000000000E+00 0.  1.
         11    1    5    5    0    0 -0.33397855293E+02  0.37733629151E+02  0.31896897655E+02  0.59637702731E+02  0.00000000000E+00 0.  1.
        -11    1    5    5    0    0 -0.25124063285E+01  0.13125990198E+03  0.26276305907E+03  0.29373440259E+03  0.00000000000E+00 0. -1.
          1    1    6    6  503    0  0.10940845144E+03 -0.67459147811E+03  0.20092945964E+04  0.21223356583E+04  0.00000000000E+00 0. -1.
         -1    1    6    6    0  503  0.10872772222E+03 -0.29162971721E+03  0.88029974196E+03  0.93370083283E+03  0.00000000000E+00 0.  1.
<mgrwt>
<rscale>  0 0.25455043E+04</rscale>
<asrwt>0</asrwt>
<pdfrwt beam="1">  1        2 0.59130971E+00 0.25455043E+04</pdfrwt>
<pdfrwt beam="2">  1       -1 0.64840440E-01 0.25455043E+04</pdfrwt>
<totfact> 0.11108287E+00</totfact>
</mgrwt>
</event>
<event>
12    6  0.1530859E-007  0.1617349E+04  0.7818608E-02  0.8809960E-01
          2   -1    0    0  501    0  0.00000000000E+00  0.00000000000E+00  0.11461934341E+04  0.11461934341E+04  0.00000000000E+00 0. -1.
         -3   -1    0    0    0  501 -0.00000000000E+00 -0.00000000000E+00 -0.57054422359E+03  0.57054422359E+03  0.00000000000E+00 0.  1.
         24    2    1    2    0    0  0.53071305089E+03  0.13775003802E+03  0.74425100276E+02  0.55943291768E+03  0.82429839678E+02 0.  0.
        254    2    1    2    0    0 -0.53071305089E+03 -0.13775003802E+03  0.50122411024E+03  0.11573047400E+04  0.88741041081E+03 0.  0.
         23    2    4    4    0    0  0.41359653251E+02  0.28203550807E+02 -0.20442785235E+03  0.22927528594E+03  0.90941457724E+02 0.  0.
         23    2    4    4    0    0 -0.57207270414E+03 -0.16595358882E+03  0.70565196259E+03  0.92802945407E+03  0.92120588613E+02 0.  0.
          2    1    3    3  502    0  0.81532117307E+02  0.24066639842E+02 -0.18163875184E+02  0.86928796538E+02  0.00000000000E+00 0. -1.
         -1    1    3    3    0  502  0.44918093359E+03  0.11368339818E+03  0.92588975460E+02  0.47250412114E+03  0.00000000000E+00 0.  1.
         11    1    5    5    0    0  0.61229089512E+01 -0.24300386336E+02 -0.12631562653E+03  0.12877746812E+03  0.00000000000E+00 0.  1.
        -11    1    5    5    0    0  0.35236744299E+02  0.52503937143E+02 -0.78112225817E+02  0.10049781782E+03  0.00000000000E+00 0. -1.
          3    1    6    6  503    0 -0.49142125310E+03 -0.16867283025E+03  0.57985292845E+03  0.77857227686E+03  0.00000000000E+00 0. -1.
         -3    1    6    6    0  503 -0.80651451044E+02  0.27192414272E+01  0.12579903413E+03  0.14945717721E+03  0.00000000000E+00 0.  1.
<mgrwt>
<rscale>  0 0.16173485E+04</rscale>
<asrwt>0</asrwt>
<pdfrwt beam="1">  1        2 0.17633745E+00 0.16173485E+04</pdfrwt>
<pdfrwt beam="2">  1       -3 0.87776035E-01 0.16173485E+04</pdfrwt>
<totfact> 0.14658235E+01</totfact>
</mgrwt>
</event>
<event>
12    6  0.1530859E-007  0.1697207E+04  0.7818608E-02  0.8762959E-01
          2   -1    0    0  501    0  0.00000000000E+00  0.00000000000E+00  0.94338290087E+03  0.94338290087E+03  0.00000000000E+00 0. -1.
         -1   -1    0    0    0  501 -0.00000000000E+00 -0.00000000000E+00 -0.76334610790E+03  0.76334610790E+03  0.00000000000E+00 0.  1.
         24    2    1    2    0    0  0.86235322434E+02 -0.28580924665E+03  0.59935787929E+03  0.67428183263E+03  0.79389331972E+02 0.  0.
        254    2    1    2    0    0 -0.86235322434E+02  0.28580924665E+03 -0.41932108632E+03  0.10324471761E+04  0.89498242540E+03 0.  0.
         23    2    4    4    0    0  0.15556682802E+03  0.32692811150E+03 -0.60709080054E+03  0.71271491379E+03  0.91215569798E+02 0.  0.
         23    2    4    4    0    0 -0.24180215045E+03 -0.41118864841E+02  0.18776971422E+03  0.31973226235E+03  0.82536131478E+02 0.  0.
          4    1    3    3  502    0  0.89404810267E+02 -0.28551251254E+03  0.60049738573E+03  0.67090068206E+03  0.00000000000E+00 0. -1.
         -3    1    3    3    0  502 -0.31694878325E+01 -0.29673411811E+00 -0.11395064379E+01  0.33811505704E+01  0.00000000000E+00 0.  1.
         11    1    5    5    0    0  0.13746578305E+03  0.22583046185E+03 -0.49145452136E+03  0.55805356873E+03  0.00000000000E+00 0. -1.
        -11    1    5    5    0    0  0.18101044969E+02  0.10109764965E+03 -0.11563627918E+03  0.15466134506E+03  0.00000000000E+00 0.  1.
          2    1    6    6  503    0 -0.19962696199E+03 -0.12313119737E+01  0.15739658279E+03  0.25421668780E+03  0.00000000000E+00 0. -1.
         -2    1    6    6    0  503 -0.42175188465E+02 -0.39887552867E+02  0.30373131431E+02  0.65515574551E+02  0.00000000000E+00 0.  1.
<mgrwt>
<rscale>  0 0.16972067E+04</rscale>
<asrwt>0</asrwt>
<pdfrwt beam="1">  1        2 0.14513583E+00 0.16972067E+04</pdfrwt>
<pdfrwt beam="2">  1       -1 0.11743786E+00 0.16972067E+04</pdfrwt>
<totfact> 0.19439232E+01</totfact>
</mgrwt>
</event>
<event>
12    6  0.1530859E-007  0.2966557E+04  0.7818608E-02  0.8253346E-01
          4   -1    0    0  501    0  0.00000000000E+00  0.00000000000E+00  0.16122516288E+04  0.16122516288E+04  0.00000000000E+00 0. -1.
         -3   -1    0    0    0  501 -0.00000000000E+00 -0.00000000000E+00 -0.13646223582E+04  0.13646223582E+04  0.00000000000E+00 0.  1.
         24    2    1    2    0    0  0.13158989830E+04  0.22758363656E+03 -0.31245974819E+02  0.13381209680E+04  0.78784319816E+02 0.  0.
        254    2    1    2    0    0 -0.13158989830E+04 -0.22758363656E+03  0.27887524541E+03  0.16387530190E+04  0.90794031166E+03 0.  0.
         23    2    4    4    0    0 -0.10833834120E+04  0.19704653955E+03  0.30219953646E+03  0.11454715777E+04  0.90739293515E+02 0.  0.
         23    2    4    4    0    0 -0.23251557104E+03 -0.42463017610E+03 -0.23324291057E+02  0.49328144127E+03  0.91696676664E+02 0.  0.
          2    1    3    3  502    0  0.21658368651E+03  0.41540392663E+02  0.23827366805E+02  0.22181487979E+03  0.00000000000E+00 0. -1.
         -1    1    3    3    0  502  0.10993152965E+04  0.18604324390E+03 -0.55073341625E+02  0.11163060883E+04  0.00000000000E+00 0.  1.
         11    1    5    5    0    0 -0.90469209927E+03  0.16028179391E+03  0.28626008341E+03  0.96234239400E+03  0.00000000000E+00 0.  1.
        -11    1    5    5    0    0 -0.17869131271E+03  0.36764745635E+02  0.15939453057E+02  0.18312918370E+03  0.00000000000E+00 0. -1.
          4    1    6    6  503    0 -0.11605513887E+03 -0.13086438262E+03 -0.28565784451E+02  0.17722947254E+03  0.00000000000E+00 0.  1.
         -4    1    6    6    0  503 -0.11646043218E+03 -0.29376579348E+03  0.52414933939E+01  0.31605196873E+03  0.00000000000E+00 0. -1.
<mgrwt>
<rscale>  0 0.29665567E+04</rscale>
<asrwt>0</asrwt>
<pdfrwt beam="1">  1        4 0.24803871E+00 0.29665567E+04</pdfrwt>
<pdfrwt beam="2">  1       -3 0.20994190E+00 0.29665567E+04</pdfrwt>
<totfact> 0.16034968E-02</totfact>
</mgrwt>
</event>
<event>
12    6  0.1530859E-007  0.1379369E+04  0.7818608E-02  0.8968889E-01
          2   -1    0    0  501    0  0.00000000000E+00  0.00000000000E+00  0.16568329811E+04  0.16568329811E+04  0.00000000000E+00 0. -1.
         -3   -1    0    0    0  501 -0.00000000000E+00 -0.00000000000E+00 -0.28709257956E+03  0.28709257956E+03  0.00000000000E+00 0.  1.
         24    2    1    2    0    0 -0.28720757796E+03 -0.13900941157E+03  0.91088216893E+02  0.34147722665E+03  0.80609079669E+02 0.  0.
        254    2    1    2    0    0  0.28720757796E+03  0.13900941157E+03  0.12786521847E+04  0.16024483340E+04  0.91163449065E+03 0.  0.
         23    2    4    4    0    0 -0.30937825337E+03  0.12499113071E+03  0.33390078853E+03  0.48111661355E+03  0.92982648028E+02 0.  0.
         23    2    4    4    0    0  0.59658583133E+03  0.14018280861E+02  0.94475139613E+03  0.11213317205E+04  0.93372696888E+02 0.  0.
          2    1    3    3  502    0 -0.86306146247E+02 -0.44656325643E+02  0.67401920323E+02  0.11826223896E+03  0.00000000000E+00 0. -1.
         -1    1    3    3    0  502 -0.20090143171E+03 -0.94353085925E+02  0.23686296570E+02  0.22321498769E+03  0.00000000000E+00 0.  1.
         11    1    5    5    0    0 -0.30904110307E+03  0.10887250035E+03  0.30309764536E+03  0.44634942292E+03  0.00000000000E+00 0. -1.
        -11    1    5    5    0    0 -0.33715030388E+00  0.16118630358E+02  0.30803143169E+02  0.34767190626E+02  0.00000000000E+00 0.  1.
          2    1    6    6  503    0  0.50150170262E+03 -0.37805673874E+01  0.84325248987E+03  0.98111824573E+03  0.00000000000E+00 0. -1.
         -2    1    6    6    0  503  0.95084128703E+02  0.17798848248E+02  0.10149890626E+03  0.14021347475E+03  0.00000000000E+00 0.  1.
<mgrwt>
<rscale>  0 0.13793686E+04</rscale>
<asrwt>0</asrwt>
<pdfrwt beam="1">  1        2 0.25489738E+00 0.13793686E+04</pdfrwt>
<pdfrwt beam="2">  1       -3 0.44168090E-01 0.13793686E+04</pdfrwt>
<totfact> 0.33092630E+01</totfact>
</mgrwt>
</event>
<event>
12    6  0.1530859E-007  0.1455211E+04  0.7818608E-02  0.8914796E-01
          2   -1    0    0  501    0  0.00000000000E+00  0.00000000000E+00  0.11563076705E+04  0.11563076705E+04  0.00000000000E+00 0. -1.
         -1   -1    0    0    0  501 -0.00000000000E+00 -0.00000000000E+00 -0.45784507167E+03  0.45784507167E+03  0.00000000000E+00 0.  1.
         24    2    1    2    0    0 -0.15732255087E+03  0.36625034208E+03 -0.35452199234E+01  0.40655754053E+03  0.79917251534E+02 0.  0.
        254    2    1    2    0    0  0.15732255087E+03 -0.36625034208E+03  0.70200781874E+03  0.12075952016E+04  0.89809882269E+03 0.  0.
         23    2    4    4    0    0  0.31084147601E+03 -0.47365119102E+03  0.11585576028E+03  0.58553632473E+03  0.91991067089E+02 0.  0.
         23    2    4    4    0    0 -0.15351892514E+03  0.10740084894E+03  0.58615205847E+03  0.62205887689E+03  0.90994548994E+02 0.  0.
          4    1    3    3  502    0 -0.11906019754E+03  0.28298856426E+03 -0.36505828384E+02  0.30917718811E+03  0.00000000000E+00 0. -1.
         -3    1    3    3    0  502 -0.38262353327E+02  0.83261777822E+02  0.32960608461E+02  0.97380352424E+02  0.00000000000E+00 0.  1.
         11    1    5    5    0    0  0.27593195524E+03 -0.41334964456E+03  0.69441613446E+02  0.50181521525E+03  0.00000000000E+00 0.  1.
        -11    1    5    5    0    0  0.34909520768E+02 -0.60301546469E+02  0.46414146834E+02  0.83721109484E+02  0.00000000000E+00 0. -1.
          3    1    6    6  503    0 -0.14305160064E+03  0.57016106527E+02  0.39091478803E+03  0.42015350569E+03  0.00000000000E+00 0.  1.
         -3    1    6    6    0  503 -0.10467324503E+02  0.50384742415E+02  0.19523727044E+03  0.20190537120E+03  0.00000000000E+00 0. -1.
<mgrwt>
<rscale>  0 0.14552110E+04</rscale>
<asrwt>0</asrwt>
<pdfrwt beam="1">  1        2 0.17789349E+00 0.14552110E+04</pdfrwt>
<pdfrwt beam="2">  1       -1 0.70437704E-01 0.14552110E+04</pdfrwt>
<totfact> 0.45319679E+01</totfact>
</mgrwt>
</event>
<event>
12    6  0.1530859E-007  0.2708125E+04  0.7818608E-02  0.8332374E-01
          2   -1    0    0  501    0  0.00000000000E+00  0.00000000000E+00  0.35144498610E+04  0.35144498610E+04  0.00000000000E+00 0. -1.
         -1   -1    0    0    0  501 -0.00000000000E+00 -0.00000000000E+00 -0.52169896650E+03  0.52169896650E+03  0.00000000000E+00 0.  1.
         24    2    1    2    0    0 -0.75159441292E+03 -0.83303972664E+03  0.65918941286E+03  0.13037374809E+04  0.79695603689E+02 0.  0.
        254    2    1    2    0    0  0.75159441292E+03  0.83303972664E+03  0.23335614816E+04  0.27324113467E+04  0.87276184097E+03 0.  0.
         23    2    4    4    0    0  0.47445934902E+03  0.25815937710E+03  0.18419028373E+04  0.19216234940E+04  0.90955224484E+02 0.  0.
         23    2    4    4    0    0  0.27713506390E+03  0.57488034955E+03  0.49165864438E+03  0.81078785267E+03  0.91419141959E+02 0.  0.
          4    1    3    3  502    0 -0.35876637341E+03 -0.41976309674E+03  0.36720138702E+03  0.66313741163E+03  0.00000000000E+00 0. -1.
         -3    1    3    3    0  502 -0.39282803951E+03 -0.41327662990E+03  0.29198802584E+03  0.64060006922E+03  0.00000000000E+00 0.  1.
         11    1    5    5    0    0  0.42983088031E+03  0.19910939680E+03  0.15866267222E+04  0.16558331719E+04  0.00000000000E+00 0. -1.
        -11    1    5    5    0    0  0.44628468706E+02  0.59049980298E+02  0.25527611510E+03  0.26579032212E+03  0.00000000000E+00 0.  1.
          4    1    6    6  503    0  0.17111509152E+03  0.37608733411E+03  0.37054209601E+03  0.55499865075E+03  0.00000000000E+00 0. -1.
         -4    1    6    6    0  503  0.10601997238E+03  0.19879301544E+03  0.12111654836E+03  0.25578920192E+03  0.00000000000E+00 0.  1.
<mgrwt>
<rscale>  0 0.27081247E+04</rscale>
<asrwt>0</asrwt>
<pdfrwt beam="1">  1        2 0.54068458E+00 0.27081247E+04</pdfrwt>
<pdfrwt beam="2">  1       -1 0.80261382E-01 0.27081247E+04</pdfrwt>
<totfact> 0.12263424E+00</totfact>
</mgrwt>
</event>
<event>
12    6  0.1530859E-007  0.1065079E+04  0.7818608E-02  0.9239913E-01
          2   -1    0    0  501    0  0.00000000000E+00  0.00000000000E+00  0.14037256118E+03  0.14037256118E+03  0.00000000000E+00 0. -1.
         -1   -1    0    0    0  501 -0.00000000000E+00 -0.00000000000E+00 -0.20203268183E+04  0.20203268183E+04  0.00000000000E+00 0.  1.
         24    2    1    2    0    0 -0.41424963314E+02 -0.12409819569E+02 -0.22432024416E+02  0.93039154212E+02  0.79265738436E+02 0.  0.
        254    2    1    2    0    0  0.41424963314E+02  0.12409819569E+02 -0.18575222327E+04  0.20676602253E+04  0.90717139008E+03 0.  0.
         23    2    4    4    0    0  0.34898033698E+03 -0.20908297612E+03 -0.47831858512E+03  0.63425015560E+03  0.89339937962E+02 0.  0.
         23    2    4    4    0    0 -0.30755537367E+03  0.22149279569E+03 -0.13792036476E+04  0.14334100697E+04  0.93874170523E+02 0.  0.
          4    1    3    3  502    0  0.16166198311E+02 -0.53771570077E+01  0.16059542645E+02  0.23413002697E+02  0.00000000000E+00 0. -1.
         -3    1    3    3    0  502 -0.57591161625E+02 -0.70326625610E+01 -0.38491567061E+02  0.69626151515E+02  0.00000000000E+00 0.  1.
         11    1    5    5    0    0  0.22696695540E+03 -0.91979149111E+02 -0.24828474387E+03  0.34873984108E+03  0.00000000000E+00 0.  1.
        -11    1    5    5    0    0  0.12201338158E+03 -0.11710382701E+03 -0.23003384124E+03  0.28551031453E+03  0.00000000000E+00 0. -1.
          4    1    6    6  503    0 -0.19994300488E+03  0.17567362018E+03 -0.82025112404E+03  0.86235162928E+03  0.00000000000E+00 0. -1.
         -4    1    6    6    0  503 -0.10761236879E+03  0.45819175507E+02 -0.55895252358E+03  0.57105844043E+03  0.00000000000E+00 0.  1.
<mgrwt>
<rscale>  0 0.10650792E+04</rscale>
<asrwt>0</asrwt>
<pdfrwt beam="1">  1        2 0.21595779E-01 0.10650792E+04</pdfrwt>
<pdfrwt beam="2">  1       -1 0.31081951E+00 0.10650792E+04</pdfrwt>
<totfact> 0.84473603E+00</totfact>
</mgrwt>
</event>
<event>
12    6  0.1530859E-007  0.1511063E+04  0.7818608E-02  0.8877129E-01
          2   -1    0    0  501    0  0.00000000000E+00  0.00000000000E+00  0.90266676693E+03  0.90266676693E+03  0.00000000000E+00 0. -1.
         -1   -1    0    0    0  501 -0.00000000000E+00 -0.00000000000E+00 -0.63237937064E+03  0.63237937064E+03  0.00000000000E+00 0.  1.
         24    2    1    2    0    0  0.17004637084E+03  0.15531310488E+03 -0.34621974346E+03  0.42337291847E+03  0.79615253277E+02 0.  0.
        254    2    1    2    0    0 -0.17004637084E+03 -0.15531310488E+03  0.61650713975E+03  0.11116732191E+04  0.89593435245E+03 0.  0.
         23    2    4    4    0    0 -0.45243288150E+03 -0.33842459102E+03  0.44113595733E+03  0.72256282726E+03  0.90936188758E+02 0.  0.
         23    2    4    4    0    0  0.28238651066E+03  0.18311148614E+03  0.17537118242E+03  0.38911039183E+03  0.85906272465E+02 0.  0.
          2    1    3    3  502    0  0.11332528587E+02  0.37121307908E+02 -0.25247132072E+02  0.46301569982E+02  0.00000000000E+00 0. -1.
         -1    1    3    3    0  502  0.15871384225E+03  0.11819179697E+03 -0.32097261138E+03  0.37707134849E+03  0.00000000000E+00 0.  1.
         11    1    5    5    0    0 -0.44038897296E+03 -0.30308345600E+03  0.40603366427E+03  0.67131614409E+03  0.00000000000E+00 0. -1.
        -11    1    5    5    0    0 -0.12043908539E+02 -0.35341135022E+02  0.35102293063E+02  0.51246683170E+02  0.00000000000E+00 0.  1.
          3    1    6    6  503    0  0.21573659005E+03  0.17424136671E+03  0.15992160316E+03  0.32012067930E+03  0.00000000000E+00 0. -1.
         -3    1    6    6    0  503  0.66649920609E+02  0.88701194301E+01  0.15449579269E+02  0.68989712534E+02  0.00000000000E+00 0.  1.
<mgrwt>
<rscale>  0 0.15110630E+04</rscale>
<asrwt>0</asrwt>
<pdfrwt beam="1">  1        2 0.13887181E+00 0.15110630E+04</pdfrwt>
<pdfrwt beam="2">  1       -1 0.97289133E-01 0.15110630E+04</pdfrwt>
<totfact> 0.32655257E+01</totfact>
</mgrwt>
</event>
<event>
12    6  0.1530859E-007  0.1347474E+04  0.7818608E-02  0.8992743E-01
         -1   -1    0    0    0  501 -0.00000000000E+00  0.00000000000E+00  0.28395360124E+03  0.28395360124E+03  0.00000000000E+00 0.  1.
          2   -1    0    0  501    0  0.00000000000E+00 -0.00000000000E+00 -0.15985753106E+04  0.15985753106E+04  0.00000000000E+00 0. -1.
         24    2    1    2    0    0  0.58594450826E+01 -0.13155180468E+03  0.10916252359E+03  0.18888160923E+03  0.80122377253E+02 0.  0.
        254    2    1    2    0    0 -0.58594450826E+01  0.13155180468E+03 -0.14237842330E+04  0.16936473026E+04  0.90771109568E+03 0.  0.
         23    2    4    4    0    0 -0.32994684611E+03 -0.21993295484E+03 -0.46015414516E+03  0.61415484970E+03  0.90603069631E+02 0.  0.
         23    2    4    4    0    0  0.32408740102E+03  0.35148475952E+03 -0.96363008780E+03  0.10794924529E+04  0.90259792310E+02 0.  0.
          2    1    3    3  502    0 -0.12240579080E+02 -0.54985175604E+02  0.25597500936E+01  0.56389304243E+02  0.00000000000E+00 0. -1.
         -1    1    3    3    0  502  0.18100024163E+02 -0.76566629073E+02  0.10660277350E+03  0.13249230499E+03  0.00000000000E+00 0.  1.
         11    1    5    5    0    0 -0.31299797390E+03 -0.18165806627E+03 -0.43272753997E+03  0.56411036913E+03  0.00000000000E+00 0. -1.
        -11    1    5    5    0    0 -0.16948872208E+02 -0.38274888566E+02 -0.27426605182E+02  0.50044480572E+02  0.00000000000E+00 0.  1.
          4    1    6    6  503    0  0.17742546224E+03  0.25231505703E+03 -0.57763564935E+03  0.65483251756E+03  0.00000000000E+00 0. -1.
         -4    1    6    6    0  503  0.14666193878E+03  0.99169702486E+02 -0.38599443845E+03  0.42465993535E+03  0.00000000000E+00 0.  1.
<mgrwt>
<rscale>  0 0.13474735E+04</rscale>
<asrwt>0</asrwt>
<pdfrwt beam="1">  1        2 0.24593466E+00 0.13474735E+04</pdfrwt>
<pdfrwt beam="2">  1       -1 0.43685169E-01 0.13474735E+04</pdfrwt>
<totfact> 0.64357441E+01</totfact>
</mgrwt>
</event>
<event>
12    6  0.1705961E-007  0.1992823E+04  0.7818608E-02  0.8609984E-01
          2   -1    0    0  501    0  0.00000000000E+00  0.00000000000E+00  0.91435991591E+03  0.91435991591E+03  0.00000000000E+00 0. -1.
         -1   -1    0    0    0  501 -0.00000000000E+00 -0.00000000000E+00 -0.10858258885E+04  0.10858258885E+04  0.00000000000E+00 0.  1.
         24    2    1    2    0    0  0.17957260206E+03  0.30297712298E+03  0.64262467285E+03  0.73706019402E+03  0.79055695503E+02 0.  0.
        254    2    1    2    0    0 -0.17957260206E+03 -0.30297712298E+03 -0.81409064548E+03  0.12631256104E+04  0.89927819512E+03 0.  0.
         23    2    4    4    0    0  0.25050633705E+03 -0.40228735272E+03 -0.58148066639E+03  0.75537569041E+03  0.88792619116E+02 0.  0.
         23    2    4    4    0    0 -0.43007893911E+03  0.99310229742E+02 -0.23260997909E+03  0.50774992002E+03  0.94192161641E+02 0.  0.
          2    1    3    3  502    0  0.15239921722E+03  0.26877572611E+03  0.60532153122E+03  0.67961758991E+03  0.00000000000E+00 0. -1.
         -1    1    3    3    0  502  0.27173384840E+02  0.34201396869E+02  0.37303141631E+02  0.57442604110E+02  0.00000000000E+00 0.  1.
         11    1    5    5    0    0  0.24277820160E+03 -0.37934968461E+03 -0.57486042317E+03  0.73028209927E+03  0.00000000000E+00 0. -1.
        -11    1    5    5    0    0  0.77281354532E+01 -0.22937668113E+02 -0.66202432232E+01  0.25093591141E+02  0.00000000000E+00 0.  1.
          1    1    6    6  503    0 -0.43464967291E+03  0.96392713709E+02 -0.23263891726E+03  0.50232734272E+03  0.00000000000E+00 0. -1.
         -1    1    6    6    0  503  0.45707337959E+01  0.29175160323E+01  0.28938177435E-01  0.54225773070E+01  0.00000000000E+00 0.  1.
<mgrwt>
<rscale>  0 0.19928228E+04</rscale>
<asrwt>0</asrwt>
<pdfrwt beam="1">  1        2 0.14067076E+00 0.19928228E+04</pdfrwt>
<pdfrwt beam="2">  1       -1 0.16705014E+00 0.19928228E+04</pdfrwt>
<totfact> 0.78687387E+00</totfact>
</mgrwt>
</event>
<event>
12    6  0.1530859E-007  0.1443003E+04  0.7818608E-02  0.8923266E-01
          4   -1    0    0  501    0  0.00000000000E+00  0.00000000000E+00  0.74215836607E+03  0.74215836607E+03  0.00000000000E+00 0. -1.
         -3   -1    0    0    0  501 -0.00000000000E+00 -0.00000000000E+00 -0.70141914656E+03  0.70141914656E+03  0.00000000000E+00 0.  1.
         24    2    1    2    0    0 -0.54795134184E+02  0.11951150263E+03 -0.40631179232E+03  0.43432657853E+03  0.79150478517E+02 0.  0.
        254    2    1    2    0    0  0.54795134184E+02 -0.11951150263E+03  0.44705101184E+03  0.10092509341E+04  0.89523591014E+03 0.  0.
         23    2    4    4    0    0 -0.16311351512E+02 -0.46803256044E+03  0.68649788267E+02  0.48204156216E+03  0.91272867790E+02 0.  0.
         23    2    4    4    0    0  0.71106485697E+02  0.34852105781E+03  0.37840122357E+03  0.52720937194E+03  0.90769905872E+02 0.  0.
          2    1    3    3  502    0 -0.20566247362E+02 -0.61809672876E+01 -0.83583495302E+02  0.86298178277E+02  0.00000000000E+00 0. -1.
         -1    1    3    3    0  502 -0.34228886822E+02  0.12569246992E+03 -0.32272829702E+03  0.34802840025E+03  0.00000000000E+00 0.  1.
         11    1    5    5    0    0 -0.16004179563E+02 -0.41113617649E+03  0.90167087516E+02  0.42121157754E+03  0.00000000000E+00 0.  1.
        -11    1    5    5    0    0 -0.30717194972E+00 -0.56896383954E+02 -0.21517299250E+02  0.60829984618E+02  0.00000000000E+00 0. -1.
          3    1    6    6  503    0  0.18888449782E+02  0.44917677533E+02  0.15387438763E+02  0.51099359700E+02  0.00000000000E+00 0. -1.
         -3    1    6    6    0  503  0.52218035915E+02  0.30360338028E+03  0.36301378481E+03  0.47611001224E+03  0.00000000000E+00 0.  1.
<mgrwt>
<rscale>  0 0.14430025E+04</rscale>
<asrwt>0</asrwt>
<pdfrwt beam="1">  1        4 0.11417821E+00 0.14430025E+04</pdfrwt>
<pdfrwt beam="2">  1       -3 0.10791064E+00 0.14430025E+04</pdfrwt>
<totfact> 0.96974317E-01</totfact>
</mgrwt>
</event>
<event>
12    6  0.1530859E-007  0.1763655E+04  0.7818608E-02  0.8725870E-01
         -1   -1    0    0    0  501 -0.00000000000E+00  0.00000000000E+00  0.19002542289E+03  0.19002542289E+03  0.00000000000E+00 0.  1.
          2   -1    0    0  501    0  0.00000000000E+00 -0.00000000000E+00 -0.40921860153E+04  0.40921860153E+04  0.00000000000E+00 0. -1.
         24    2    1    2    0    0 -0.58471567402E+03  0.19359611591E+03 -0.19018306523E+04  0.20006155905E+04  0.78300927851E+02 0.  0.
        254    2    1    2    0    0  0.58471567402E+03 -0.19359611591E+03 -0.20003299401E+04  0.22815958477E+04  0.90828842743E+03 0.  0.
         23    2    4    4    0    0  0.65167980137E+03 -0.42643522240E+03 -0.17674357980E+04  0.19334602058E+04  0.88912907132E+02 0.  0.
         23    2    4    4    0    0 -0.66964127348E+02  0.23283910649E+03 -0.23289414210E+03  0.34813564186E+03  0.90887292015E+02 0.  0.
          2    1    3    3  502    0 -0.28657630703E+03  0.10742971763E+03 -0.10645596227E+04  0.11076796984E+04  0.00000000000E+00 0. -1.
         -1    1    3    3    0  502 -0.29813936699E+03  0.86166398277E+02 -0.83727102957E+03  0.89293589204E+03  0.00000000000E+00 0.  1.
         11    1    5    5    0    0  0.64130002423E+03 -0.40109872342E+03 -0.17005142838E+04  0.18611541410E+04  0.00000000000E+00 0.  1.
        -11    1    5    5    0    0  0.10379777139E+02 -0.25336498977E+02 -0.66921514137E+02  0.72306064809E+02  0.00000000000E+00 0. -1.
          2    1    6    6  503    0  0.18758800156E+02  0.91348979767E+02 -0.79916822218E+02  0.12281379060E+03  0.00000000000E+00 0. -1.
         -2    1    6    6    0  503 -0.85722927504E+02  0.14149012672E+03 -0.15297731988E+03  0.22532185126E+03  0.00000000000E+00 0.  1.
<mgrwt>
<rscale>  0 0.17636546E+04</rscale>
<asrwt>0</asrwt>
<pdfrwt beam="1">  1        2 0.62956701E+00 0.17636546E+04</pdfrwt>
<pdfrwt beam="2">  1       -1 0.29234684E-01 0.17636546E+04</pdfrwt>
<totfact> 0.33631181E+00</totfact>
</mgrwt>
</event>
<event>
12    6  0.1530859E-007  0.1587327E+04  0.7818608E-02  0.8828372E-01
          2   -1    0    0  501    0  0.00000000000E+00  0.00000000000E+00  0.16086835926E+04  0.16086835926E+04  0.00000000000E+00 0. -1.
         -1   -1    0    0    0  501 -0.00000000000E+00 -0.00000000000E+00 -0.39156346450E+03  0.39156346450E+03  0.00000000000E+00 0.  1.
         24    2    1    2    0    0 -0.38971430122E+03 -0.17406881470E+03  0.76248347862E+03  0.87763232891E+03  0.81732862148E+02 0.  0.
        254    2    1    2    0    0  0.38971430122E+03  0.17406881470E+03  0.45463664946E+03  0.11226147282E+04  0.93348388097E+03 0.  0.
         23    2    4    4    0    0  0.55550688526E+03 -0.13191350712E+03  0.48303107572E+02  0.58018831478E+03  0.91083574122E+02 0.  0.
         23    2    4    4    0    0 -0.16579258404E+03  0.30598232182E+03  0.40633354189E+03  0.54242641339E+03  0.89482425565E+02 0.  0.
          4    1    3    3  502    0 -0.65247702540E+02 -0.46588081224E+02  0.20504581617E+03  0.22016243714E+03  0.00000000000E+00 0. -1.
         -3    1    3    3    0  502 -0.32446659868E+03 -0.12748073348E+03  0.55743766244E+03  0.65746989176E+03  0.00000000000E+00 0.  1.
         11    1    5    5    0    0  0.21013929347E+03 -0.95726888558E+02  0.19323058907E+02  0.23172298215E+03  0.00000000000E+00 0.  1.
        -11    1    5    5    0    0  0.34536759179E+03 -0.36186618564E+02  0.28980048666E+02  0.34846533262E+03  0.00000000000E+00 0. -1.
          2    1    6    6  503    0 -0.15930970690E+03  0.29375813891E+03  0.34798358768E+03  0.48245829269E+03  0.00000000000E+00 0. -1.
         -2    1    6    6    0  503 -0.64828771413E+01  0.12224182911E+02  0.58349954210E+02  0.59968120699E+02  0.00000000000E+00 0.  1.
<mgrwt>
<rscale>  0 0.15873270E+04</rscale>
<asrwt>0</asrwt>
<pdfrwt beam="1">  1        2 0.24748978E+00 0.15873270E+04</pdfrwt>
<pdfrwt beam="2">  1       -1 0.60240534E-01 0.15873270E+04</pdfrwt>
<totfact> 0.33697069E+01</totfact>
</mgrwt>
</event>
<event>
12    6  0.1530859E-007  0.1550798E+04  0.7818608E-02  0.8851358E-01
          2   -1    0    0  501    0  0.00000000000E+00  0.00000000000E+00  0.17808293536E+04  0.17808293536E+04  0.00000000000E+00 0. -1.
         -1   -1    0    0    0  501 -0.00000000000E+00 -0.00000000000E+00 -0.33762014704E+03  0.33762014704E+03  0.00000000000E+00 0.  1.
         24    2    1    2    0    0 -0.12009387356E+03 -0.35451336401E+03  0.10299622120E+02  0.38303164247E+03  0.80652918044E+02 0.  0.
        254    2    1    2    0    0  0.12009387356E+03  0.35451336401E+03  0.14329095845E+04  0.17354178582E+04  0.90462312679E+03 0.  0.
         23    2    4    4    0    0 -0.36790826333E+03  0.25235605423E+02  0.49026715841E+03  0.62030493973E+03  0.91776934112E+02 0.  0.
         23    2    4    4    0    0  0.48800213689E+03  0.32927775859E+03  0.94264242605E+03  0.11151129184E+04  0.91280608990E+02 0.  0.
          4    1    3    3  502    0 -0.32156055135E+02 -0.16400326316E+03 -0.28811314657E+02  0.16959119689E+03  0.00000000000E+00 0. -1.
         -3    1    3    3    0  502 -0.87937818428E+02 -0.19051010085E+03  0.39110936777E+02  0.21344044558E+03  0.00000000000E+00 0.  1.
         11    1    5    5    0    0 -0.21223005556E+03 -0.17055271394E+02  0.22448648346E+03  0.30939725277E+03  0.00000000000E+00 0.  1.
        -11    1    5    5    0    0 -0.15567820777E+03  0.42290876817E+02  0.26578067495E+03  0.31090768696E+03  0.00000000000E+00 0. -1.
          3    1    6    6  503    0  0.17884295553E+03  0.12318565557E+03  0.26819189830E+03  0.34508897808E+03  0.00000000000E+00 0. -1.
         -3    1    6    6    0  503  0.30915918137E+03  0.20609210302E+03  0.67445052774E+03  0.77002394036E+03  0.00000000000E+00 0.  1.
<mgrwt>
<rscale>  0 0.15507983E+04</rscale>
<asrwt>0</asrwt>
<pdfrwt beam="1">  1        2 0.27397374E+00 0.15507983E+04</pdfrwt>
<pdfrwt beam="2">  1       -1 0.51941562E-01 0.15507983E+04</pdfrwt>
<totfact> 0.36181615E+01</totfact>
</mgrwt>
</event>
<event>
12    6  0.1530859E-007  0.1869125E+04  0.7818608E-02  0.8670379E-01
         -1   -1    0    0    0  501 -0.00000000000E+00  0.00000000000E+00  0.49915353786E+03  0.49915353786E+03  0.00000000000E+00 0.  1.
          2   -1    0    0  501    0  0.00000000000E+00 -0.00000000000E+00 -0.17497764132E+04  0.17497764132E+04  0.00000000000E+00 0. -1.
         24    2    1    2    0    0  0.37362685774E+03 -0.59714592515E+03 -0.33313501546E+03  0.78326861861E+03  0.79690059726E+02 0.  0.
        254    2    1    2    0    0 -0.37362685774E+03  0.59714592515E+03 -0.91748785986E+03  0.14656613324E+04  0.90011048414E+03 0.  0.
         23    2    4    4    0    0 -0.23453782125E+03  0.66834063359E+03 -0.22213772195E+03  0.74785086640E+03  0.90821576498E+02 0.  0.
         23    2    4    4    0    0 -0.13908903650E+03 -0.71194708442E+02 -0.69535013791E+03  0.71781046604E+03  0.85589744011E+02 0.  0.
          2    1    3    3  502    0  0.31200411092E+02 -0.20001470587E+02 -0.25809596640E+02  0.45162592449E+02  0.00000000000E+00 0. -1.
         -1    1    3    3    0  502  0.34242644665E+03 -0.57714445456E+03 -0.30732541882E+03  0.73810602616E+03  0.00000000000E+00 0.  1.
         11    1    5    5    0    0 -0.19800599251E+03  0.45900351607E+03 -0.17931220892E+03  0.53107764885E+03  0.00000000000E+00 0. -1.
        -11    1    5    5    0    0 -0.36531828736E+02  0.20933711752E+03 -0.42825513030E+02  0.21677321755E+03  0.00000000000E+00 0.  1.
          2    1    6    6  503    0 -0.58096417338E+02 -0.28215848037E+02 -0.47160731473E+03  0.47600923006E+03  0.00000000000E+00 0. -1.
         -2    1    6    6    0  503 -0.80992619161E+02 -0.42978860405E+02 -0.22374282317E+03  0.24180123598E+03  0.00000000000E+00 0.  1.
<mgrwt>
<rscale>  0 0.18691250E+04</rscale>
<asrwt>0</asrwt>
<pdfrwt beam="1">  1        2 0.26919638E+00 0.18691250E+04</pdfrwt>
<pdfrwt beam="2">  1       -1 0.76792851E-01 0.18691250E+04</pdfrwt>
<totfact> 0.16738910E+01</totfact>
</mgrwt>
</event>
<event>
12    6  0.1530859E-007  0.1807416E+04  0.7818608E-02  0.8702366E-01
          2   -1    0    0  501    0  0.00000000000E+00  0.00000000000E+00  0.28930877190E+04  0.28930877190E+04  0.00000000000E+00 0. -1.
         -1   -1    0    0    0  501 -0.00000000000E+00 -0.00000000000E+00 -0.28228936381E+03  0.28228936381E+03  0.00000000000E+00 0.  1.
         24    2    1    2    0    0 -0.37269721974E+03 -0.26427431547E+03  0.10218560386E+03  0.47508819636E+03  0.80763638263E+02 0.  0.
        254    2    1    2    0    0  0.37269721974E+03  0.26427431547E+03  0.25086127513E+04  0.27002888864E+04  0.88863828563E+03 0.  0.
         23    2    4    4    0    0 -0.14024989106E+03  0.30660986191E+03  0.17141847582E+04  0.17493780624E+04  0.90634324539E+02 0.  0.
         23    2    4    4    0    0  0.51294711080E+03 -0.42335546442E+02  0.79442799314E+03  0.95091082400E+03  0.90600893739E+02 0.  0.
          2    1    3    3  502    0 -0.10479243503E+03 -0.44961850146E+02  0.51697790267E+02  0.12520257157E+03  0.00000000000E+00 0. -1.
         -1    1    3    3    0  502 -0.26790478471E+03 -0.21931246532E+03  0.50487813596E+02  0.34988562480E+03  0.00000000000E+00 0.  1.
         11    1    5    5    0    0 -0.55359651591E+02  0.48913562596E+02  0.48594993102E+03  0.49153287081E+03  0.00000000000E+00 0. -1.
        -11    1    5    5    0    0 -0.84890239466E+02  0.25769629932E+03  0.12282348271E+04  0.12578451916E+04  0.00000000000E+00 0.  1.
          2    1    6    6  503    0  0.47127924589E+03 -0.34976561624E+02  0.76561754270E+03  0.89972090626E+03  0.00000000000E+00 0.  1.
         -2    1    6    6    0  503  0.41667864906E+02 -0.73589848182E+01  0.28810450432E+02  0.51189917732E+02  0.00000000000E+00 0. -1.
<mgrwt>
<rscale>  0 0.18074157E+04</rscale>
<asrwt>0</asrwt>
<pdfrwt beam="1">  1        2 0.44509040E+00 0.18074157E+04</pdfrwt>
<pdfrwt beam="2">  1       -1 0.43429135E-01 0.18074157E+04</pdfrwt>
<totfact> 0.11439635E+01</totfact>
</mgrwt>
</event>
<event>
12    6  0.1530859E-007  0.2202113E+04  0.7818608E-02  0.8517549E-01
          2   -1    0    0  501    0  0.00000000000E+00  0.00000000000E+00  0.25480651348E+04  0.25480651348E+04  0.00000000000E+00 0. -1.
         -1   -1    0    0    0  501 -0.00000000000E+00 -0.00000000000E+00 -0.47578253819E+03  0.47578253819E+03  0.00000000000E+00 0.  1.
         24    2    1    2    0    0  0.14902525582E+03  0.89192055026E+02  0.20849529462E+04  0.20935837661E+04  0.76814374877E+02 0.  0.
        254    2    1    2    0    0 -0.14902525582E+03 -0.89192055026E+02 -0.12670349623E+02  0.93026390687E+03  0.91381981217E+03 0.  0.
         23    2    4    4    0    0  0.85873631853E+02 -0.41074506195E+03 -0.20796533986E+03  0.47747373545E+03  0.92982788207E+02 0.  0.
         23    2    4    4    0    0 -0.23489888767E+03  0.32155300692E+03  0.19529499023E+03  0.45279017142E+03  0.91131676317E+02 0.  0.
          4    1    3    3  502    0  0.31903834804E+02  0.39783181318E+02  0.31787197804E+03  0.32193656303E+03  0.00000000000E+00 0. -1.
         -3    1    3    3    0  502  0.11712142102E+03  0.49408873708E+02  0.17670809682E+04  0.17716472030E+04  0.00000000000E+00 0.  1.
         11    1    5    5    0    0  0.10013140101E+03 -0.30497820599E+03 -0.13520868509E+03  0.34830933396E+03  0.00000000000E+00 0. -1.
        -11    1    5    5    0    0 -0.14257769162E+02 -0.10576685596E+03 -0.72756654767E+02  0.12916440150E+03  0.00000000000E+00 0.  1.
          2    1    6    6  503    0 -0.45110346292E+02  0.96268556600E+02  0.14854864686E+02  0.10734638018E+03  0.00000000000E+00 0.  1.
         -2    1    6    6    0  503 -0.18978854138E+03  0.22528445032E+03  0.18044012555E+03  0.34544379124E+03  0.00000000000E+00 0. -1.
<mgrwt>
<rscale>  0 0.22021125E+04</rscale>
<asrwt>0</asrwt>
<pdfrwt beam="1">  1        2 0.39201001E+00 0.22021125E+04</pdfrwt>
<pdfrwt beam="2">  1       -1 0.73197315E-01 0.22021125E+04</pdfrwt>
<totfact> 0.63862077E+00</totfact>
</mgrwt>
</event>
<event>
12    6  0.1530859E-007  0.2075888E+04  0.7818608E-02  0.8571940E-01
         -1   -1    0    0    0  501 -0.00000000000E+00  0.00000000000E+00  0.12337497400E+04  0.12337497400E+04  0.00000000000E+00 0.  1.
          2   -1    0    0  501    0  0.00000000000E+00 -0.00000000000E+00 -0.87321436407E+03  0.87321436407E+03  0.00000000000E+00 0. -1.
         24    2    1    2    0    0 -0.82179209778E+03  0.56777021874E+02 -0.23010339251E+02  0.82790491763E+03  0.79568805047E+02 0.  0.
        254    2    1    2    0    0  0.82179209778E+03 -0.56777021874E+02  0.38354571519E+03  0.12790591865E+04  0.90017731844E+03 0.  0.
         23    2    4    4    0    0  0.73511893365E+02 -0.11737173537E+03 -0.24505442786E+03  0.29594488687E+03  0.91386983328E+02 0.  0.
         23    2    4    4    0    0  0.74828020442E+03  0.60594713495E+02  0.62860014306E+03  0.98311429959E+03  0.88207724042E+02 0.  0.
          4    1    3    3  502    0 -0.78680415305E+03  0.70599339605E+02 -0.22164665255E+02  0.79027610010E+03  0.00000000000E+00 0. -1.
         -3    1    3    3    0  502 -0.34987944730E+02 -0.13822317731E+02 -0.84567399632E+00  0.37628817526E+02  0.00000000000E+00 0.  1.
         11    1    5    5    0    0  0.75524487096E+02 -0.40341383934E+02 -0.15781959618E+03  0.17955055096E+03  0.00000000000E+00 0. -1.
        -11    1    5    5    0    0 -0.20125937313E+01 -0.77030351434E+02 -0.87234831678E+02  0.11639433592E+03  0.00000000000E+00 0.  1.
          3    1    6    6  503    0  0.25499662272E+03  0.51314566718E+02  0.18027807274E+03  0.31647534796E+03  0.00000000000E+00 0. -1.
         -3    1    6    6    0  503  0.49328358170E+03  0.92801467769E+01  0.44832207031E+03  0.66663895163E+03  0.00000000000E+00 0.  1.
<mgrwt>
<rscale>  0 0.20758882E+04</rscale>
<asrwt>0</asrwt>
<pdfrwt beam="1">  1        2 0.13434067E+00 0.20758882E+04</pdfrwt>
<pdfrwt beam="2">  1       -1 0.18980765E+00 0.20758882E+04</pdfrwt>
<totfact> 0.57106130E+00</totfact>
</mgrwt>
</event>
<event>
12    6  0.1530859E-007  0.2636862E+04  0.7818608E-02  0.8355787E-01
          2   -1    0    0  501    0  0.00000000000E+00  0.00000000000E+00  0.19953143169E+04  0.19953143169E+04  0.00000000000E+00 0. -1.
         -1   -1    0    0    0  501 -0.00000000000E+00 -0.00000000000E+00 -0.87117098905E+03  0.87117098905E+03  0.00000000000E+00 0.  1.
         24    2    1    2    0    0  0.93841050637E+03 -0.19695978969E+03 -0.21665246505E+03  0.98617019267E+03  0.78650626662E+02 0.  0.
        254    2    1    2    0    0 -0.93841050637E+03  0.19695978969E+03  0.13407957929E+04  0.18803151132E+04  0.90467902026E+03 0.  0.
         23    2    4    4    0    0 -0.83195978685E+03 -0.59999523957E+02  0.13478357531E+04  0.15876038132E+04  0.89819934014E+02 0.  0.
         23    2    4    4    0    0 -0.10645071952E+03  0.25695931365E+03 -0.70399602473E+01  0.29271130003E+03  0.90942287024E+02 0.  0.
          4    1    3    3  502    0  0.30784618171E+03 -0.98772905184E+02 -0.89496904592E+02  0.33546244845E+03  0.00000000000E+00 0. -1.
         -3    1    3    3    0  502  0.63056432467E+03 -0.98186884505E+02 -0.12715556046E+03  0.65070774422E+03  0.00000000000E+00 0.  1.
         11    1    5    5    0    0 -0.20995617774E+03 -0.37446073379E+02  0.40757518322E+03  0.46000145104E+03  0.00000000000E+00 0. -1.
        -11    1    5    5    0    0 -0.62200360911E+03 -0.22553450578E+02  0.94026056988E+03  0.11276023622E+04  0.00000000000E+00 0.  1.
          3    1    6    6  503    0 -0.42386793957E+02  0.28554555539E+02  0.17975655924E+02  0.54176813767E+02  0.00000000000E+00 0. -1.
         -3    1    6    6    0  503 -0.64063925564E+02  0.22840475811E+03 -0.25015616172E+02  0.23853448626E+03  0.00000000000E+00 0.  1.
<mgrwt>
<rscale>  0 0.26368617E+04</rscale>
<asrwt>0</asrwt>
<pdfrwt beam="1">  1        2 0.30697143E+00 0.26368617E+04</pdfrwt>
<pdfrwt beam="2">  1       -1 0.13402631E+00 0.26368617E+04</pdfrwt>
<totfact> 0.31646653E+00</totfact>
</mgrwt>
</event>
<event>
12    6  0.1530859E-007  0.1364461E+04  0.7818608E-02  0.8979953E-01
         -1   -1    0    0    0  501 -0.00000000000E+00  0.00000000000E+00  0.14949157858E+03  0.14949157858E+03  0.00000000000E+00 0.  1.
          2   -1    0    0  501    0  0.00000000000E+00 -0.00000000000E+00 -0.31134772649E+04  0.31134772649E+04  0.00000000000E+00 0. -1.
         24    2    1    2    0    0  0.25637049600E+02 -0.73535411417E+02 -0.16390568202E+04  0.16427529405E+04  0.77879705280E+02 0.  0.
        254    2    1    2    0    0 -0.25637049600E+02  0.73535411417E+02 -0.13249288661E+04  0.16202159030E+04  0.92929992847E+03 0.  0.
         23    2    4    4    0    0  0.32513045731E+03 -0.63959851168E+02 -0.13609245937E+03  0.36976484192E+03  0.91674445672E+02 0.  0.
         23    2    4    4    0    0 -0.35076750692E+03  0.13749526259E+03 -0.11888364067E+04  0.12504510611E+04  0.91395093138E+02 0.  0.
          4    1    3    3  502    0  0.29537924252E+02 -0.30873491028E+02 -0.13360115132E+04  0.13366945892E+04  0.00000000000E+00 0. -1.
         -3    1    3    3    0  502 -0.39008746523E+01 -0.42661920389E+02 -0.30304530696E+03  0.30605835121E+03  0.00000000000E+00 0.  1.
         11    1    5    5    0    0  0.30855411508E+03 -0.53374912091E+02 -0.14844411423E+03  0.34654029812E+03  0.00000000000E+00 0. -1.
        -11    1    5    5    0    0  0.16576342232E+02 -0.10584939078E+02  0.12351654854E+02  0.23224543799E+02  0.00000000000E+00 0.  1.
          3    1    6    6  503    0 -0.31883366820E+03  0.10605424909E+03 -0.11102862265E+04  0.11600163432E+04  0.00000000000E+00 0. -1.
         -3    1    6    6    0  503 -0.31933838716E+02  0.31441013497E+02 -0.78550180242E+02  0.90434717896E+02  0.00000000000E+00 0.  1.
<mgrwt>
<rscale>  0 0.13644613E+04</rscale>
<asrwt>0</asrwt>
<pdfrwt beam="1">  1        2 0.47899653E+00 0.13644613E+04</pdfrwt>
<pdfrwt beam="2">  1       -1 0.22998703E-01 0.13644613E+04</pdfrwt>
<totfact> 0.26793397E+01</totfact>
</mgrwt>
</event>
<event>
12    6  0.1530859E-007  0.2177711E+04  0.7818608E-02  0.8527763E-01
          2   -1    0    0  501    0  0.00000000000E+00  0.00000000000E+00  0.12785289696E+04  0.12785289696E+04  0.00000000000E+00 0. -1.
         -1   -1    0    0    0  501 -0.00000000000E+00 -0.00000000000E+00 -0.92732074088E+03  0.92732074088E+03  0.00000000000E+00 0.  1.
         24    2    1    2    0    0 -0.29203737534E+03 -0.51516559742E+02 -0.72126155748E+03  0.78406128643E+03  0.81203953492E+02 0.  0.
        254    2    1    2    0    0  0.29203737534E+03  0.51516559742E+02  0.10724697862E+04  0.14217884240E+04  0.88507123775E+03 0.  0.
         23    2    4    4    0    0  0.28118678636E+03  0.42362646078E+03  0.42417460983E+03  0.66861251012E+03  0.92699525194E+02 0.  0.
         23    2    4    4    0    0  0.10850588986E+02 -0.37210990104E+03  0.64829517635E+03  0.75317591390E+03  0.91672285126E+02 0.  0.
          2    1    3    3  502    0 -0.58375464019E+02  0.19137256575E+02 -0.18289634379E+03  0.19293781889E+03  0.00000000000E+00 0. -1.
         -1    1    3    3    0  502 -0.23366191132E+03 -0.70653816317E+02 -0.53836521369E+03  0.59112346754E+03  0.00000000000E+00 0.  1.
         11    1    5    5    0    0  0.25611152436E+03  0.37753337879E+03  0.33821526551E+03  0.56790327595E+03  0.00000000000E+00 0. -1.
        -11    1    5    5    0    0  0.25075261999E+02  0.46093081996E+02  0.85959344323E+02  0.10070923418E+03  0.00000000000E+00 0.  1.
          1    1    6    6  503    0  0.26214292854E+02 -0.36446574446E+03  0.62825832356E+03  0.72679501179E+03  0.00000000000E+00 0. -1.
         -1    1    6    6    0  503 -0.15363703868E+02 -0.76441565803E+01  0.20036852789E+02  0.26380902109E+02  0.00000000000E+00 0.  1.
<mgrwt>
<rscale>  0 0.21777111E+04</rscale>
<asrwt>0</asrwt>
<pdfrwt beam="1">  1        2 0.19669676E+00 0.21777111E+04</pdfrwt>
<pdfrwt beam="2">  1       -1 0.14266473E+00 0.21777111E+04</pdfrwt>
<totfact> 0.70849943E+00</totfact>
</mgrwt>
</event>
<event>
12    6  0.1530859E-007  0.1249365E+04  0.7818608E-02  0.9070712E-01
         -1   -1    0    0    0  501 -0.00000000000E+00  0.00000000000E+00  0.27798978392E+03  0.27798978392E+03  0.00000000000E+00 0.  1.
          2   -1    0    0  501    0  0.00000000000E+00 -0.00000000000E+00 -0.14037498535E+04  0.14037498535E+04  0.00000000000E+00 0. -1.
         24    2    1    2    0    0  0.19316086806E+01 -0.49074645288E+02  0.11826235735E+03  0.15023635453E+03  0.78567965062E+02 0.  0.
        254    2    1    2    0    0 -0.19316086806E+01  0.49074645288E+02 -0.12440224269E+04  0.15315032829E+04  0.89190720083E+03 0.  0.
         23    2    4    4    0    0  0.93011619796E+02 -0.24988316050E+03 -0.11608005444E+04  0.11944158445E+04  0.89880756715E+02 0.  0.
         23    2    4    4    0    0 -0.94943228477E+02  0.29895780579E+03 -0.83221882550E+02  0.33708743840E+03  0.91170571531E+02 0.  0.
          4    1    3    3  502    0 -0.12190271048E+02  0.18804686406E+02  0.20414219948E+02  0.30314341740E+02  0.00000000000E+00 0. -1.
         -3    1    3    3    0  502  0.14121879728E+02 -0.67879331694E+02  0.97848137401E+02  0.11992201279E+03  0.00000000000E+00 0.  1.
         11    1    5    5    0    0 -0.82126606472E+01 -0.16242555288E+02 -0.18673665065E+03  0.18762154752E+03  0.00000000000E+00 0.  1.
        -11    1    5    5    0    0  0.10122428044E+03 -0.23364060522E+03 -0.97406389375E+03  0.10067942970E+04  0.00000000000E+00 0. -1.
          2    1    6    6  503    0 -0.37593930588E+02  0.18950345627E+03 -0.10002910714E+02  0.19345521906E+03  0.00000000000E+00 0.  1.
         -2    1    6    6    0  503 -0.57349297889E+02  0.10945434952E+03 -0.73218971836E+02  0.14363221934E+03  0.00000000000E+00 0. -1.
<mgrwt>
<rscale>  0 0.12493648E+04</rscale>
<asrwt>0</asrwt>
<pdfrwt beam="1">  1        2 0.21596152E+00 0.12493648E+04</pdfrwt>
<pdfrwt beam="2">  1       -1 0.42767659E-01 0.12493648E+04</pdfrwt>
<totfact> 0.86859552E+01</totfact>
</mgrwt>
</event>
<event>
12    6  0.1530859E-007  0.1805265E+04  0.7818608E-02  0.8703505E-01
         -1   -1    0    0    0  501 -0.00000000000E+00  0.00000000000E+00  0.28091585694E+03  0.28091585694E+03  0.00000000000E+00 0.  1.
          2   -1    0    0  501    0  0.00000000000E+00 -0.00000000000E+00 -0.29003185158E+04  0.29003185158E+04  0.00000000000E+00 0. -1.
         24    2    1    2    0    0 -0.40738401330E+03  0.52004712706E+03 -0.12207391553E+04  0.13904845100E+04  0.82657961616E+02 0.  0.
        254    2    1    2    0    0  0.40738401330E+03 -0.52004712706E+03 -0.13986635036E+04  0.17907498628E+04  0.90228306316E+03 0.  0.
         23    2    4    4    0    0  0.67430230931E+03 -0.46275218125E+03 -0.94312276908E+03  0.12515209350E+04  0.89447793107E+02 0.  0.
         23    2    4    4    0    0 -0.26691829601E+03 -0.57294945809E+02 -0.45554073452E+03  0.53922892774E+03  0.93393726446E+02 0.  0.
          4    1    3    3  502    0 -0.36229227791E+03  0.47560848223E+03 -0.10485818402E+04  0.12070555077E+04  0.00000000000E+00 0. -1.
         -3    1    3    3    0  502 -0.45091735387E+02  0.44438644823E+02 -0.17215731504E+03  0.18342900228E+03  0.00000000000E+00 0.  1.
         11    1    5    5    0    0  0.50951392246E+03 -0.33893731682E+03 -0.76049958604E+03  0.97613654899E+03  0.00000000000E+00 0.  1.
        -11    1    5    5    0    0  0.16478838685E+03 -0.12381486442E+03 -0.18262318304E+03  0.27538438604E+03  0.00000000000E+00 0. -1.
          1    1    6    6  503    0 -0.59953344801E+02  0.14553814000E-01 -0.18101058491E+03  0.19068097864E+03  0.00000000000E+00 0. -1.
         -1    1    6    6    0  503 -0.20696495121E+03 -0.57309499623E+02 -0.27453014962E+03  0.34854794910E+03  0.00000000000E+00 0.  1.
<mgrwt>
<rscale>  0 0.18052650E+04</rscale>
<asrwt>0</asrwt>
<pdfrwt beam="1">  1        2 0.44620284E+00 0.18052650E+04</pdfrwt>
<pdfrwt beam="2">  1       -1 0.43217825E-01 0.18052650E+04</pdfrwt>
<totfact> 0.11428743E+01</totfact>
</mgrwt>
</event>
<event>
12    6  0.1530859E-007  0.1220845E+04  0.7818608E-02  0.9094804E-01
          2   -1    0    0  501    0  0.00000000000E+00  0.00000000000E+00  0.10693589494E+04  0.10693589494E+04  0.00000000000E+00 0. -1.
         -1   -1    0    0    0  501 -0.00000000000E+00 -0.00000000000E+00 -0.34844773598E+03  0.34844773598E+03  0.00000000000E+00 0.  1.
         24    2    1    2    0    0  0.14089755225E+03 -0.11329451384E+01  0.42182369148E+03  0.45230187545E+03  0.82391480403E+02 0.  0.
        254    2    1    2    0    0 -0.14089755225E+03  0.11329451384E+01  0.29908752191E+03  0.96550480990E+03  0.90713438276E+03 0.  0.
         23    2    4    4    0    0 -0.17094494400E+03 -0.31769509827E+03 -0.15432996922E+03  0.40285906477E+03  0.91243286463E+02 0.  0.
         23    2    4    4    0    0  0.30047391743E+02  0.31882804341E+03  0.45341749113E+03  0.56264574514E+03  0.91807658979E+02 0.  0.
          4    1    3    3  502    0  0.51050590345E+02 -0.30125085219E+02  0.24255664884E+03  0.24969463637E+03  0.00000000000E+00 0. -1.
         -3    1    3    3    0  502  0.89846961907E+02  0.28992140081E+02  0.17926704264E+03  0.20260723908E+03  0.00000000000E+00 0.  1.
         11    1    5    5    0    0 -0.13394238071E+03 -0.16360506733E+03 -0.66364243408E+02  0.22161090273E+03  0.00000000000E+00 0.  1.
        -11    1    5    5    0    0 -0.37002563287E+02 -0.15409003093E+03 -0.87965725809E+02  0.18124816203E+03  0.00000000000E+00 0. -1.
          2    1    6    6  503    0  0.60707744499E+02  0.21409235268E+03  0.32841627274E+03  0.39670923095E+03  0.00000000000E+00 0.  1.
         -2    1    6    6    0  503 -0.30660352757E+02  0.10473569073E+03  0.12500121839E+03  0.16593651419E+03  0.00000000000E+00 0. -1.
<mgrwt>
<rscale>  0 0.12208451E+04</rscale>
<asrwt>0</asrwt>
<pdfrwt beam="1">  1        2 0.16451676E+00 0.12208451E+04</pdfrwt>
<pdfrwt beam="2">  1       -1 0.53607345E-01 0.12208451E+04</pdfrwt>
<totfact> 0.89808223E+01</totfact>
</mgrwt>
</event>
<event>
12    6  0.1530859E-007  0.2250303E+04  0.7818608E-02  0.8497778E-01
          2   -1    0    0  501    0  0.00000000000E+00  0.00000000000E+00  0.16534224430E+04  0.16534224430E+04  0.00000000000E+00 0. -1.
         -1   -1    0    0    0  501 -0.00000000000E+00 -0.00000000000E+00 -0.76566385372E+03  0.76566385372E+03  0.00000000000E+00 0.  1.
         24    2    1    2    0    0 -0.46591316690E+03  0.91144428683E+02  0.12512247915E+04  0.13404883432E+04  0.77221327828E+02 0.  0.
        254    2    1    2    0    0  0.46591316690E+03 -0.91144428683E+02 -0.36346620226E+03  0.10785979535E+04  0.89771013087E+03 0.  0.
         23    2    4    4    0    0  0.42085240395E+03  0.23808626649E+03 -0.50719668945E+03  0.70653425982E+03  0.90223956466E+02 0.  0.
         23    2    4    4    0    0  0.45060762953E+02 -0.32923069517E+03  0.14373048719E+03  0.37206369364E+03  0.85729902472E+02 0.  0.
          4    1    3    3  502    0 -0.25891617076E+03  0.23285011993E+02  0.75676761913E+03  0.80017310917E+03  0.00000000000E+00 0. -1.
         -3    1    3    3    0  502 -0.20699699614E+03  0.67859416690E+02  0.49445717236E+03  0.54031523405E+03  0.00000000000E+00 0.  1.
         11    1    5    5    0    0  0.39542579840E+03  0.21591445549E+03 -0.43230199496E+03  0.62439220765E+03  0.00000000000E+00 0. -1.
        -11    1    5    5    0    0  0.25426605549E+02  0.22171810993E+02 -0.74894694491E+02  0.82142052174E+02  0.00000000000E+00 0.  1.
          3    1    6    6  503    0  0.47036714312E+02 -0.30379513963E+03  0.15487443061E+03  0.34422380599E+03  0.00000000000E+00 0. -1.
         -3    1    6    6    0  503 -0.19759513589E+01 -0.25435555539E+02 -0.11143943417E+02  0.27839887648E+02  0.00000000000E+00 0.  1.
<mgrwt>
<rscale>  0 0.22503029E+04</rscale>
<asrwt>0</asrwt>
<pdfrwt beam="1">  1        2 0.25437268E+00 0.22503029E+04</pdfrwt>
<pdfrwt beam="2">  1       -1 0.11779444E+00 0.22503029E+04</pdfrwt>
<totfact> 0.69911531E+00</totfact>
</mgrwt>
</event>
<event>
12    6  0.1530859E-007  0.1319685E+04  0.7818608E-02  0.9014099E-01
         -1   -1    0    0    0  501 -0.00000000000E+00  0.00000000000E+00  0.35525222790E+03  0.35525222790E+03  0.00000000000E+00 0.  1.
          2   -1    0    0  501    0  0.00000000000E+00 -0.00000000000E+00 -0.12255858745E+04  0.12255858745E+04  0.00000000000E+00 0. -1.
         24    2    1    2    0    0  0.22822014612E+03 -0.11053685432E+03  0.57823052947E+02  0.27079003359E+03  0.75371782387E+02 0.  0.
        254    2    1    2    0    0 -0.22822014612E+03  0.11053685432E+03 -0.92815669958E+03  0.13100480689E+04  0.88907156768E+03 0.  0.
         23    2    4    4    0    0  0.30323933053E+03  0.12818376861E+03 -0.56215268416E+03  0.65786014018E+03  0.91537716880E+02 0.  0.
         23    2    4    4    0    0 -0.53145947665E+03 -0.17646914287E+02 -0.36600401542E+03  0.65218792867E+03  0.92895457906E+02 0.  0.
          4    1    3    3  502    0  0.13864798625E+03 -0.45059554254E+02  0.24311459027E+00  0.14578644184E+03  0.00000000000E+00 0. -1.
         -3    1    3    3    0  502  0.89572159873E+02 -0.65477300068E+02  0.57579938357E+02  0.12500359175E+03  0.00000000000E+00 0.  1.
         11    1    5    5    0    0  0.25998459594E+03  0.75396233108E+02 -0.41261168920E+03  0.49348251049E+03  0.00000000000E+00 0.  1.
        -11    1    5    5    0    0  0.43254734587E+02  0.52787535500E+02 -0.14954099496E+03  0.16437762969E+03  0.00000000000E+00 0. -1.
          4    1    6    6  503    0 -0.24739453574E+03  0.14664437911E+01 -0.22528351559E+03  0.33460255403E+03  0.00000000000E+00 0.  1.
         -4    1    6    6    0  503 -0.28406494091E+03 -0.19113358078E+02 -0.14072049983E+03  0.31758537464E+03  0.00000000000E+00 0. -1.
<mgrwt>
<rscale>  0 0.13196850E+04</rscale>
<asrwt>0</asrwt>
<pdfrwt beam="1">  1        2 0.18855167E+00 0.13196850E+04</pdfrwt>
<pdfrwt beam="2">  1       -1 0.54654189E-01 0.13196850E+04</pdfrwt>
<totfact> 0.69012987E+01</totfact>
</mgrwt>
</event>
<event>
12    6  0.1530859E-007  0.1252126E+04  0.7818608E-02  0.9068416E-01
         -3   -1    0    0    0  501 -0.00000000000E+00  0.00000000000E+00  0.57758210948E+03  0.57758210948E+03  0.00000000000E+00 0.  1.
          4   -1    0    0  501    0  0.00000000000E+00 -0.00000000000E+00 -0.67861298006E+03  0.67861298006E+03  0.00000000000E+00 0. -1.
         24    2    1    2    0    0 -0.92902376250E+02  0.41823846776E+02  0.25754056163E+03  0.28792345806E+03  0.78693653778E+02 0.  0.
        254    2    1    2    0    0  0.92902376250E+02 -0.41823846776E+02 -0.35857143220E+03  0.96827163149E+03  0.89364220731E+03 0.  0.
         23    2    4    4    0    0 -0.30834365357E+03  0.23781070585E+03 -0.19036672222E+03  0.44321445484E+03  0.92573341375E+02 0.  0.
         23    2    4    4    0    0  0.40124602982E+03 -0.27963455262E+03 -0.16820470998E+03  0.52505717665E+03  0.90544766951E+02 0.  0.
          2    1    3    3  502    0  0.34793301820E+01 -0.11984851966E+02  0.73976549808E+01  0.14507505450E+02  0.00000000000E+00 0. -1.
         -1    1    3    3    0  502 -0.96381706432E+02  0.53808698742E+02  0.25014290664E+03  0.27341595261E+03  0.00000000000E+00 0.  1.
         11    1    5    5    0    0 -0.39458985287E+02  0.13332792680E+02  0.53185050284E+01  0.41988824421E+02  0.00000000000E+00 0.  1.
        -11    1    5    5    0    0 -0.26888466829E+03  0.22447791317E+03 -0.19568522725E+03  0.40122563042E+03  0.00000000000E+00 0. -1.
          3    1    6    6  503    0  0.29030882799E+03 -0.24791926192E+03 -0.12222922584E+03  0.40085304002E+03  0.00000000000E+00 0. -1.
         -3    1    6    6    0  503  0.11093720183E+03 -0.31715290699E+02 -0.45975484136E+02  0.12420413663E+03  0.00000000000E+00 0.  1.
<mgrwt>
<rscale>  0 0.12521257E+04</rscale>
<asrwt>0</asrwt>
<pdfrwt beam="1">  1        4 0.10440200E+00 0.12521257E+04</pdfrwt>
<pdfrwt beam="2">  1       -3 0.88858786E-01 0.12521257E+04</pdfrwt>
<totfact> 0.19204731E+00</totfact>
</mgrwt>
</event>
<event>
12    6  0.1530859E-007  0.3359574E+04  0.7818608E-02  0.8147900E-01
          2   -1    0    0  501    0  0.00000000000E+00  0.00000000000E+00  0.19419881498E+04  0.19419881498E+04  0.00000000000E+00 0. -1.
         -1   -1    0    0    0  501 -0.00000000000E+00 -0.00000000000E+00 -0.14529873452E+04  0.14529873452E+04  0.00000000000E+00 0.  1.
         24    2    1    2    0    0  0.14875726466E+03  0.15474728858E+04  0.13232555304E+03  0.15624041086E+04  0.82434766819E+02 0.  0.
        254    2    1    2    0    0 -0.14875726466E+03 -0.15474728858E+04  0.35667525153E+03  0.18325713863E+04  0.90238550243E+03 0.  0.
         23    2    4    4    0    0 -0.18630978542E+03  0.33208071050E+02  0.44015887897E+01  0.21013992231E+03  0.91243086528E+02 0.  0.
         23    2    4    4    0    0  0.37552520756E+02 -0.15806809568E+04  0.35227366274E+03  0.16224314640E+04  0.90689817297E+02 0.  0.
          2    1    3    3  502    0  0.53383958657E+02  0.30250182822E+03  0.39316326307E+01  0.30720133602E+03  0.00000000000E+00 0. -1.
         -1    1    3    3    0  502  0.95373306004E+02  0.12449710575E+04  0.12839392041E+03  0.12552027726E+04  0.00000000000E+00 0.  1.
         11    1    5    5    0    0 -0.14452638659E+02  0.31292696724E+02  0.15751982363E+02  0.37897712079E+02  0.00000000000E+00 0. -1.
        -11    1    5    5    0    0 -0.17185714676E+03  0.19153743258E+01 -0.11350393573E+02  0.17224221023E+03  0.00000000000E+00 0.  1.
          1    1    6    6  503    0  0.62704236693E+02 -0.11916056650E+04  0.28443500458E+03  0.12266862492E+04  0.00000000000E+00 0. -1.
         -1    1    6    6    0  503 -0.25151715937E+02 -0.38907529182E+03  0.67838658162E+02  0.39574521483E+03  0.00000000000E+00 0.  1.
<mgrwt>
<rscale>  0 0.33595739E+04</rscale>
<asrwt>0</asrwt>
<pdfrwt beam="1">  1        2 0.29876741E+00 0.33595739E+04</pdfrwt>
<pdfrwt beam="2">  1       -1 0.22353651E+00 0.33595739E+04</pdfrwt>
<totfact> 0.70914294E-01</totfact>
</mgrwt>
</event>
<event>
12    6  0.1530859E-007  0.1361212E+04  0.7818608E-02  0.8982384E-01
         -3   -1    0    0    0  501 -0.00000000000E+00  0.00000000000E+00  0.31900869856E+03  0.31900869856E+03  0.00000000000E+00 0.  1.
          2   -1    0    0  501    0  0.00000000000E+00 -0.00000000000E+00 -0.14520753990E+04  0.14520753990E+04  0.00000000000E+00 0. -1.
         24    2    1    2    0    0  0.13935053635E+03  0.28858092181E+01  0.13990338918E+03  0.21083086694E+03  0.73822735494E+02 0.  0.
        254    2    1    2    0    0 -0.13935053635E+03 -0.28858092181E+01 -0.12729700896E+04  0.15602532306E+04  0.89135312573E+03 0.  0.
         23    2    4    4    0    0 -0.22200353441E+03  0.27470370517E+03 -0.14147156498E+03  0.38879420129E+03  0.79993951832E+02 0.  0.
         23    2    4    4    0    0  0.82652998062E+02 -0.27758951439E+03 -0.11314985246E+04  0.11714590293E+04  0.90221336546E+02 0.  0.
          4    1    3    3  502    0 -0.89851474420E+01 -0.23053013064E+01  0.74390814097E+01  0.11890635849E+02  0.00000000000E+00 0. -1.
         -3    1    3    3    0  502  0.14833568379E+03  0.51911105245E+01  0.13246430777E+03  0.19894023109E+03  0.00000000000E+00 0.  1.
         11    1    5    5    0    0 -0.14824039085E+03  0.12738922470E+03 -0.96700337637E+02  0.21806921687E+03  0.00000000000E+00 0. -1.
        -11    1    5    5    0    0 -0.73763143568E+02  0.14731448048E+03 -0.44771227341E+02  0.17072498442E+03  0.00000000000E+00 0.  1.
          1    1    6    6  503    0  0.48708592256E+02 -0.26029336997E+03 -0.10091562623E+04  0.10433223506E+04  0.00000000000E+00 0.  1.
         -1    1    6    6    0  503  0.33944405805E+02 -0.17296144420E+02 -0.12234226229E+03  0.12813667875E+03  0.00000000000E+00 0. -1.
<mgrwt>
<rscale>  0 0.13612122E+04</rscale>
<asrwt>0</asrwt>
<pdfrwt beam="1">  1        2 0.22339622E+00 0.13612122E+04</pdfrwt>
<pdfrwt beam="2">  1       -3 0.49078261E-01 0.13612122E+04</pdfrwt>
<totfact> 0.34800573E+01</totfact>
</mgrwt>
</event>
<event>
12    6  0.1530859E-007  0.1871936E+04  0.7818608E-02  0.8668953E-01
         -1   -1    0    0    0  501 -0.00000000000E+00  0.00000000000E+00  0.44534451021E+03  0.44534451021E+03  0.00000000000E+00 0.  1.
          2   -1    0    0  501    0  0.00000000000E+00 -0.00000000000E+00 -0.19670976870E+04  0.19670976870E+04  0.00000000000E+00 0. -1.
         24    2    1    2    0    0  0.23975383500E+03  0.21201593618E+03 -0.13972656820E+04  0.14357968450E+04  0.82027650183E+02 0.  0.
        254    2    1    2    0    0 -0.23975383500E+03 -0.21201593618E+03 -0.12448749484E+03  0.97664535227E+03  0.91427914181E+03 0.  0.
         23    2    4    4    0    0 -0.47388345753E+02 -0.37672228814E+03  0.28565250721E+03  0.48538090281E+03  0.99156080192E+02 0.  0.
         23    2    4    4    0    0 -0.19236548924E+03  0.16470635196E+03 -0.41014000205E+03  0.49126444946E+03  0.94832875054E+02 0.  0.
          2    1    3    3  502    0  0.24060264042E+03  0.18549721980E+03 -0.12776564953E+04  0.13132802325E+04  0.00000000000E+00 0. -1.
         -1    1    3    3    0  502 -0.84880542284E+00  0.26518716383E+02 -0.11960918673E+03  0.12251661251E+03  0.00000000000E+00 0.  1.
         11    1    5    5    0    0  0.29705814810E+02 -0.13854496132E+03  0.11368039895E+03  0.18166005297E+03  0.00000000000E+00 0. -1.
        -11    1    5    5    0    0 -0.77094160563E+02 -0.23817732682E+03  0.17197210826E+03  0.30372084984E+03  0.00000000000E+00 0.  1.
          3    1    6    6  503    0 -0.19106230019E+02  0.44602704638E+02 -0.14269956225E+03  0.15072363568E+03  0.00000000000E+00 0. -1.
         -3    1    6    6    0  503 -0.17325925922E+03  0.12010364732E+03 -0.26744043980E+03  0.34054081378E+03  0.00000000000E+00 0.  1.
<mgrwt>
<rscale>  0 0.18719361E+04</rscale>
<asrwt>0</asrwt>
<pdfrwt beam="1">  1        2 0.30263041E+00 0.18719361E+04</pdfrwt>
<pdfrwt beam="2">  1       -1 0.68514540E-01 0.18719361E+04</pdfrwt>
<totfact> 0.16060102E+01</totfact>
</mgrwt>
</event>
<event>
12    6  0.1530859E-007  0.1449501E+04  0.7818608E-02  0.8918747E-01
         -1   -1    0    0    0  501 -0.00000000000E+00  0.00000000000E+00  0.36959640498E+03  0.36959640498E+03  0.00000000000E+00 0.  1.
          2   -1    0    0  501    0  0.00000000000E+00 -0.00000000000E+00 -0.14211806594E+04  0.14211806594E+04  0.00000000000E+00 0. -1.
         24    2    1    2    0    0 -0.29143675204E+03 -0.61052569221E+02 -0.72105930652E+03  0.78431446089E+03  0.80992921925E+02 0.  0.
        254    2    1    2    0    0  0.29143675204E+03  0.61052569221E+02 -0.33052494786E+03  0.10064626035E+04  0.90280531364E+03 0.  0.
         23    2    4    4    0    0  0.81444769626E+01 -0.23117981797E+03 -0.49795184212E+03  0.55706805460E+03  0.94118752916E+02 0.  0.
         23    2    4    4    0    0  0.28329227508E+03  0.29223238720E+03  0.16742689425E+03  0.44939454885E+03  0.90936320413E+02 0.  0.
          2    1    3    3  502    0 -0.19457081771E+03 -0.39270391887E+02 -0.37498955004E+03  0.42428425546E+03  0.00000000000E+00 0. -1.
         -1    1    3    3    0  502 -0.96865934330E+02 -0.21782177333E+02 -0.34606975647E+03  0.36003020544E+03  0.00000000000E+00 0.  1.
         11    1    5    5    0    0  0.47547961724E+02 -0.17017773659E+03 -0.36724396838E+03  0.40754067651E+03  0.00000000000E+00 0.  1.
        -11    1    5    5    0    0 -0.39403484762E+02 -0.61002081381E+02 -0.13070787374E+03  0.14952737810E+03  0.00000000000E+00 0. -1.
          4    1    6    6  503    0  0.15340399110E+02  0.10748529858E+02 -0.11045552134E+02  0.21745412410E+02  0.00000000000E+00 0. -1.
         -4    1    6    6    0  503  0.26795187597E+03  0.28148385734E+03  0.17847244639E+03  0.42764913644E+03  0.00000000000E+00 0.  1.
<mgrwt>
<rscale>  0 0.14495010E+04</rscale>
<asrwt>0</asrwt>
<pdfrwt beam="1">  1        2 0.21864318E+00 0.14495010E+04</pdfrwt>
<pdfrwt beam="2">  1       -1 0.56860986E-01 0.14495010E+04</pdfrwt>
<totfact> 0.48696520E+01</totfact>
</mgrwt>
</event>
<event>
12    6  0.1530859E-007  0.2806326E+04  0.7818608E-02  0.8301307E-01
          2   -1    0    0  501    0  0.00000000000E+00  0.00000000000E+00  0.13594718906E+04  0.13594718906E+04  0.00000000000E+00 0. -1.
         -1   -1    0    0    0  501 -0.00000000000E+00 -0.00000000000E+00 -0.14482583786E+04  0.14482583786E+04  0.00000000000E+00 0.  1.
         24    2    1    2    0    0  0.11384409155E+04  0.35383189260E+03  0.35952958843E+03  0.12477448137E+04  0.79755056077E+02 0.  0.
        254    2    1    2    0    0 -0.11384409155E+04 -0.35383189260E+03 -0.44831607639E+03  0.15599854554E+04  0.90073447284E+03 0.  0.
         23    2    4    4    0    0 -0.20753821075E+03 -0.38744680744E+03 -0.43245779334E+03  0.62326856949E+03  0.90867096209E+02 0.  0.
         23    2    4    4    0    0 -0.93090270475E+03  0.33614914838E+02 -0.15858283051E+02  0.93671688596E+03  0.97351071340E+02 0.  0.
          2    1    3    3  502    0  0.11182051342E+04  0.34321598823E+03  0.36279054643E+03  0.12246619604E+04  0.00000000000E+00 0. -1.
         -1    1    3    3    0  502  0.20235781326E+02  0.10615904373E+02 -0.32609580049E+01  0.23082853347E+02  0.00000000000E+00 0.  1.
         11    1    5    5    0    0 -0.10873677833E+03 -0.26251885562E+03 -0.32196502946E+03  0.42941974421E+03  0.00000000000E+00 0. -1.
        -11    1    5    5    0    0 -0.98801432412E+02 -0.12492795182E+03 -0.11049276388E+03  0.19384882528E+03  0.00000000000E+00 0.  1.
          4    1    6    6  503    0 -0.81647128367E+03 -0.27679021870E+01 -0.11292847701E+02  0.81655406848E+03  0.00000000000E+00 0. -1.
         -4    1    6    6    0  503 -0.11443142108E+03  0.36382817025E+02 -0.45654353495E+01  0.12016281748E+03  0.00000000000E+00 0.  1.
<mgrwt>
<rscale>  0 0.28063261E+04</rscale>
<asrwt>0</asrwt>
<pdfrwt beam="1">  1        2 0.20914952E+00 0.28063261E+04</pdfrwt>
<pdfrwt beam="2">  1       -1 0.22280898E+00 0.28063261E+04</pdfrwt>
<totfact> 0.15940860E+00</totfact>
</mgrwt>
</event>
<event>
12    6  0.1530859E-007  0.1835451E+04  0.7818608E-02  0.8687671E-01
         -1   -1    0    0    0  501 -0.00000000000E+00  0.00000000000E+00  0.13306568991E+04  0.13306568991E+04  0.00000000000E+00 0.  1.
          2   -1    0    0  501    0  0.00000000000E+00 -0.00000000000E+00 -0.63293591249E+03  0.63293591249E+03  0.00000000000E+00 0. -1.
         24    2    1    2    0    0  0.40847373034E+03 -0.29258899694E+03 -0.24765298325E+03  0.56541429868E+03  0.76825903987E+02 0.  0.
        254    2    1    2    0    0 -0.40847373034E+03  0.29258899694E+03  0.94537396985E+03  0.13981785129E+04  0.89928421623E+03 0.  0.
         23    2    4    4    0    0  0.26459497747E+03  0.63499354554E+02  0.13136447532E+03  0.31375239582E+03  0.84506037516E+02 0.  0.
         23    2    4    4    0    0 -0.67306870781E+03  0.22908964238E+03  0.81400949454E+03  0.10844261171E+04  0.88684815668E+02 0.  0.
          4    1    3    3  502    0  0.41029927602E+03 -0.29178107481E+03 -0.24045183024E+03  0.55794155087E+03  0.00000000000E+00 0. -1.
         -3    1    3    3    0  502 -0.18255456701E+01 -0.80792212943E+00 -0.72011530129E+01  0.74727478130E+01  0.00000000000E+00 0.  1.
         11    1    5    5    0    0  0.17982997906E+03  0.46385628407E+02  0.13101177379E+03  0.22727633569E+03  0.00000000000E+00 0. -1.
        -11    1    5    5    0    0  0.84764998408E+02  0.17113726148E+02  0.35270152735E+00  0.86476060133E+02  0.00000000000E+00 0.  1.
          1    1    6    6  503    0 -0.26687750783E+03  0.52089947507E+02  0.27588616327E+03  0.38736306212E+03  0.00000000000E+00 0. -1.
         -1    1    6    6    0  503 -0.40619119999E+03  0.17699969488E+03  0.53812333127E+03  0.69706305496E+03  0.00000000000E+00 0.  1.
<mgrwt>
<rscale>  0 0.18354515E+04</rscale>
<asrwt>0</asrwt>
<pdfrwt beam="1">  1        2 0.97374756E-01 0.18354515E+04</pdfrwt>
<pdfrwt beam="2">  1       -1 0.20471644E+00 0.18354515E+04</pdfrwt>
<totfact> 0.69763075E+00</totfact>
</mgrwt>
</event>
<event>
12    6  0.1530859E-007  0.1535683E+04  0.7818608E-02  0.8861065E-01
          2   -1    0    0  501    0  0.00000000000E+00  0.00000000000E+00  0.21915275753E+04  0.21915275753E+04  0.00000000000E+00 0. -1.
         -1   -1    0    0    0  501 -0.00000000000E+00 -0.00000000000E+00 -0.26902728893E+03  0.26902728893E+03  0.00000000000E+00 0.  1.
         24    2    1    2    0    0 -0.29119417243E+03  0.12032181827E+03  0.10156234908E+02  0.32534512380E+03  0.80466853224E+02 0.  0.
        254    2    1    2    0    0  0.29119417243E+03 -0.12032181827E+03  0.19123440515E+04  0.21352097405E+04  0.89598519990E+03 0.  0.
         23    2    4    4    0    0  0.52846435518E+03  0.24523636377E+02  0.67181253401E+03  0.86085518741E+03  0.99315604942E+02 0.  0.
         23    2    4    4    0    0 -0.23727018276E+03 -0.14484545465E+03  0.12405315175E+04  0.12743545530E+04  0.88225481917E+02 0.  0.
          2    1    3    3  502    0 -0.62427264974E+02  0.46379330359E+02 -0.26469456815E+02  0.82151310645E+02  0.00000000000E+00 0. -1.
         -1    1    3    3    0  502 -0.22876690745E+03  0.73942487910E+02  0.36625691722E+02  0.24319381316E+03  0.00000000000E+00 0.  1.
         11    1    5    5    0    0  0.42899112808E+03  0.48566333010E+02  0.58232768532E+03  0.72491213934E+03  0.00000000000E+00 0. -1.
        -11    1    5    5    0    0  0.99473227099E+02 -0.24042696633E+02  0.89484848697E+02  0.13594304806E+03  0.00000000000E+00 0.  1.
          3    1    6    6  503    0 -0.14192718220E+03 -0.12766207738E+03  0.71951839407E+03  0.74441094192E+03  0.00000000000E+00 0. -1.
         -3    1    6    6    0  503 -0.95343000559E+02 -0.17183377267E+02  0.52101312341E+03  0.52994361112E+03  0.00000000000E+00 0.  1.
<mgrwt>
<rscale>  0 0.15356832E+04</rscale>
<asrwt>0</asrwt>
<pdfrwt beam="1">  1        2 0.33715808E+00 0.15356832E+04</pdfrwt>
<pdfrwt beam="2">  1       -1 0.41388815E-01 0.15356832E+04</pdfrwt>
<totfact> 0.32807754E+01</totfact>
</mgrwt>
</event>
<event>
12    6  0.1530859E-007  0.1301838E+04  0.7818608E-02  0.9028109E-01
         -1   -1    0    0    0  501 -0.00000000000E+00  0.00000000000E+00  0.16860295795E+03  0.16860295795E+03  0.00000000000E+00 0.  1.
          2   -1    0    0  501    0  0.00000000000E+00 -0.00000000000E+00 -0.25129792300E+04  0.25129792300E+04  0.00000000000E+00 0. -1.
         24    2    1    2    0    0 -0.10430073407E+03  0.26678873818E+03 -0.10757323998E+04  0.11167716338E+04  0.89015796119E+02 0.  0.
        254    2    1    2    0    0  0.10430073407E+03 -0.26678873818E+03 -0.12686438722E+04  0.15648105542E+04  0.87012638280E+03 0.  0.
         23    2    4    4    0    0 -0.20352489788E+03  0.22932361427E+03 -0.35846860083E+03  0.48047760285E+03  0.91363477029E+02 0.  0.
         23    2    4    4    0    0  0.30782563196E+03 -0.49611235246E+03 -0.91017527135E+03  0.10843329513E+04  0.80466382921E+02 0.  0.
          2    1    3    3  502    0 -0.11234273048E+03  0.26893512260E+03 -0.10387766241E+04  0.10788901075E+04  0.00000000000E+00 0. -1.
         -1    1    3    3    0  502  0.80419964054E+01 -0.21463844154E+01 -0.36955775761E+02  0.37881526294E+02  0.00000000000E+00 0.  1.
         11    1    5    5    0    0 -0.20586605786E+03  0.22301160445E+03 -0.36238257788E+03  0.47269032384E+03  0.00000000000E+00 0. -1.
        -11    1    5    5    0    0  0.23411599776E+01  0.63120098239E+01  0.39139770486E+01  0.77872790110E+01  0.00000000000E+00 0.  1.
          1    1    6    6  503    0  0.39679307908E+02 -0.91681280382E+02 -0.20868768823E+03  0.23136649686E+03  0.00000000000E+00 0.  1.
         -1    1    6    6    0  503  0.26814632405E+03 -0.40443107207E+03 -0.70148758312E+03  0.85296645446E+03  0.00000000000E+00 0. -1.
<mgrwt>
<rscale>  0 0.13018383E+04</rscale>
<asrwt>0</asrwt>
<pdfrwt beam="1">  1        2 0.38661218E+00 0.13018383E+04</pdfrwt>
<pdfrwt beam="2">  1       -1 0.25938917E-01 0.13018383E+04</pdfrwt>
<totfact> 0.50448653E+01</totfact>
</mgrwt>
</event>
<event>
12    6  0.1530859E-007  0.4407921E+04  0.7818608E-02  0.7926958E-01
          2   -1    0    0  501    0  0.00000000000E+00  0.00000000000E+00  0.20877169077E+04  0.20877169077E+04  0.00000000000E+00 0. -1.
         -1   -1    0    0    0  501 -0.00000000000E+00 -0.00000000000E+00 -0.23266770172E+04  0.23266770172E+04  0.00000000000E+00 0.  1.
         24    2    1    2    0    0  0.59204734447E+03 -0.14771901116E+04 -0.15019417736E+04  0.21896848575E+04  0.79246449849E+02 0.  0.
        254    2    1    2    0    0 -0.59204734447E+03  0.14771901116E+04  0.12629816640E+04  0.22247090674E+04  0.90641991750E+03 0.  0.
         23    2    4    4    0    0  0.66029524922E+02 -0.80199837570E+02  0.10466514381E+03  0.17323261255E+03  0.90900129896E+02 0.  0.
         23    2    4    4    0    0 -0.65807686939E+03  0.15573899492E+04  0.11583165202E+04  0.20514764548E+04  0.91268087648E+02 0.  0.
          4    1    3    3  502    0  0.15667391604E+03 -0.46249460400E+03 -0.42650842449E+03  0.64834975967E+03  0.00000000000E+00 0. -1.
         -3    1    3    3    0  502  0.43537342843E+03 -0.10146955076E+04 -0.10754333491E+04  0.15413350978E+04  0.00000000000E+00 0.  1.
         11    1    5    5    0    0  0.17217210519E+02 -0.86853553977E+02  0.62391243446E+02  0.10831730903E+03  0.00000000000E+00 0. -1.
        -11    1    5    5    0    0  0.48812314403E+02  0.66537164079E+01  0.42273900367E+02  0.64915303524E+02  0.00000000000E+00 0.  1.
          1    1    6    6  503    0 -0.32367874213E+03  0.88154201670E+03  0.63524070902E+03  0.11337614448E+04  0.00000000000E+00 0. -1.
         -1    1    6    6    0  503 -0.33439812727E+03  0.67584793250E+03  0.52307581121E+03  0.91771501004E+03  0.00000000000E+00 0.  1.
<mgrwt>
<rscale>  0 0.44079215E+04</rscale>
<asrwt>0</asrwt>
<pdfrwt beam="1">  1        2 0.32118722E+00 0.44079215E+04</pdfrwt>
<pdfrwt beam="2">  1       -1 0.35795031E+00 0.44079215E+04</pdfrwt>
<totfact> 0.71328020E-02</totfact>
</mgrwt>
</event>
<event>
12    6  0.1530859E-007  0.1332891E+04  0.7818608E-02  0.9003881E-01
          2   -1    0    0  501    0  0.00000000000E+00  0.00000000000E+00  0.79281681426E+03  0.79281681426E+03  0.00000000000E+00 0. -1.
         -1   -1    0    0    0  501 -0.00000000000E+00 -0.00000000000E+00 -0.56021710076E+03  0.56021710076E+03  0.00000000000E+00 0.  1.
         24    2    1    2    0    0 -0.68798941998E+02  0.31174875389E+03  0.21891468101E+03  0.39453972857E+03  0.76271750262E+02 0.  0.
        254    2    1    2    0    0  0.68798941998E+02 -0.31174875389E+03  0.13685032491E+02  0.95849418646E+03  0.90366102349E+03 0.  0.
         23    2    4    4    0    0  0.38701776151E+03 -0.32691246581E+03 -0.21295997394E+03  0.55705875820E+03  0.91148239469E+02 0.  0.
         23    2    4    4    0    0 -0.31821881951E+03  0.15163711914E+02  0.22664500643E+03  0.40143542826E+03  0.91045531859E+02 0.  0.
          4    1    3    3  502    0 -0.49906689297E+02  0.29446762380E+03  0.18245565873E+03  0.34998846625E+03  0.00000000000E+00 0. -1.
         -3    1    3    3    0  502 -0.18892252701E+02  0.17281130089E+02  0.36459022273E+02  0.44551262321E+02  0.00000000000E+00 0.  1.
         11    1    5    5    0    0  0.34292744373E+03 -0.24581085056E+03 -0.16510659696E+03  0.45308100189E+03  0.00000000000E+00 0.  1.
        -11    1    5    5    0    0  0.44090317782E+02 -0.81101615248E+02 -0.47853376981E+02  0.10397775631E+03  0.00000000000E+00 0. -1.
          1    1    6    6  503    0 -0.33294480683E+02  0.19755069676E+02  0.59755816564E+02  0.71200722153E+02  0.00000000000E+00 0. -1.
         -1    1    6    6    0  503 -0.28492433883E+03 -0.45913577616E+01  0.16688918987E+03  0.33023470611E+03  0.00000000000E+00 0.  1.
<mgrwt>
<rscale>  0 0.13328909E+04</rscale>
<asrwt>0</asrwt>
<pdfrwt beam="1">  1        2 0.12197182E+00 0.13328909E+04</pdfrwt>
<pdfrwt beam="2">  1       -1 0.86187246E-01 0.13328909E+04</pdfrwt>
<totfact> 0.51730580E+01</totfact>
</mgrwt>
</event>
<event>
12    6  0.1530859E-007  0.1800513E+04  0.7818608E-02  0.8706027E-01
          2   -1    0    0  501    0  0.00000000000E+00  0.00000000000E+00  0.19567133408E+04  0.19567133408E+04  0.00000000000E+00 0. -1.
         -1   -1    0    0    0  501 -0.00000000000E+00 -0.00000000000E+00 -0.41419556768E+03  0.41419556768E+03  0.00000000000E+00 0.  1.
         24    2    1    2    0    0  0.53110173335E+03 -0.36160500850E+03  0.26201862104E+03  0.69850167925E+03  0.80147394288E+02 0.  0.
        254    2    1    2    0    0 -0.53110173335E+03  0.36160500850E+03  0.12804991521E+04  0.16724072292E+04  0.86280972904E+03 0.  0.
         23    2    4    4    0    0 -0.25714202468E+03 -0.57491044920E+02 -0.14065255741E+02  0.28136778804E+03  0.97687049416E+02 0.  0.
         23    2    4    4    0    0 -0.27395970867E+03  0.41909605342E+03  0.12945644078E+04  0.13910394412E+04  0.91642222665E+02 0.  0.
          4    1    3    3  502    0  0.25781258111E+03 -0.22340998476E+03  0.13168378391E+03  0.36567740867E+03  0.00000000000E+00 0. -1.
         -3    1    3    3    0  502  0.27328915224E+03 -0.13819502374E+03  0.13033483712E+03  0.33282427058E+03  0.00000000000E+00 0.  1.
         11    1    5    5    0    0 -0.26085284396E+03 -0.58284020075E+02 -0.50374538186E+00  0.26728540356E+03  0.00000000000E+00 0. -1.
        -11    1    5    5    0    0  0.37108192787E+01  0.79297515472E+00 -0.13561510360E+02  0.14082384477E+02  0.00000000000E+00 0.  1.
          1    1    6    6  503    0 -0.16657149323E+03  0.31956605418E+03  0.85927786885E+03  0.93178698276E+03  0.00000000000E+00 0. -1.
         -1    1    6    6    0  503 -0.10738821544E+03  0.99529999234E+02  0.43528653895E+03  0.45925245841E+03  0.00000000000E+00 0.  1.
<mgrwt>
<rscale>  0 0.18005133E+04</rscale>
<asrwt>0</asrwt>
<pdfrwt beam="1">  1        2 0.30103282E+00 0.18005133E+04</pdfrwt>
<pdfrwt beam="2">  1       -1 0.63722396E-01 0.18005133E+04</pdfrwt>
<totfact> 0.18963184E+01</totfact>
</mgrwt>
</event>
<event>
12    6  0.1530859E-007  0.1320661E+04  0.7818608E-02  0.9013340E-01
         -1   -1    0    0    0  501 -0.00000000000E+00  0.00000000000E+00  0.70388952113E+03  0.70388952113E+03  0.00000000000E+00 0.  1.
          2   -1    0    0  501    0  0.00000000000E+00 -0.00000000000E+00 -0.61946685838E+03  0.61946685838E+03  0.00000000000E+00 0. -1.
         24    2    1    2    0    0  0.43574524812E+01  0.14208854460E+03 -0.29943560652E+03  0.33971549989E+03  0.74409653353E+02 0.  0.
        254    2    1    2    0    0 -0.43574524812E+01 -0.14208854460E+03  0.38385826927E+03  0.98364087963E+03  0.89442387450E+03 0.  0.
         23    2    4    4    0    0  0.14294765470E+03 -0.22218410183E+03 -0.21551193695E+03  0.35346636556E+03  0.93237704409E+02 0.  0.
         23    2    4    4    0    0 -0.14730510718E+03  0.80095557231E+02  0.59937020622E+03  0.63017451407E+03  0.98798690206E+02 0.  0.
          2    1    3    3  502    0  0.19944539852E+02  0.12829330948E+03 -0.28812287275E+03  0.31602491631E+03  0.00000000000E+00 0. -1.
         -1    1    3    3    0  502 -0.15587087370E+02  0.13795235126E+02 -0.11312733767E+02  0.23690583576E+02  0.00000000000E+00 0.  1.
         11    1    5    5    0    0  0.12625959083E+02 -0.90526786991E+02 -0.98403957974E+02  0.13430507418E+03  0.00000000000E+00 0. -1.
        -11    1    5    5    0    0  0.13032169562E+03 -0.13165731484E+03 -0.11710797897E+03  0.21916129138E+03  0.00000000000E+00 0.  1.
          2    1    6    6  503    0 -0.69955312992E+02  0.50924559663E+02  0.14918613164E+03  0.17246320902E+03  0.00000000000E+00 0.  1.
         -2    1    6    6    0  503 -0.77349794187E+02  0.29170997568E+02  0.45018407458E+03  0.45771130505E+03  0.00000000000E+00 0. -1.
<mgrwt>
<rscale>  0 0.13206608E+04</rscale>
<asrwt>0</asrwt>
<pdfrwt beam="1">  1        2 0.95302594E-01 0.13206608E+04</pdfrwt>
<pdfrwt beam="2">  1       -1 0.10829069E+00 0.13206608E+04</pdfrwt>
<totfact> 0.42274989E+01</totfact>
</mgrwt>
</event>
<event>
12    6  0.1530859E-007  0.2149788E+04  0.7818608E-02  0.8539623E-01
          2   -1    0    0  501    0  0.00000000000E+00  0.00000000000E+00  0.82839735437E+03  0.82839735437E+03  0.00000000000E+00 0. -1.
         -1   -1    0    0    0  501 -0.00000000000E+00 -0.00000000000E+00 -0.13947384172E+04  0.13947384172E+04  0.00000000000E+00 0.  1.
         24    2    1    2    0    0 -0.29858485063E+03  0.25771249639E+03 -0.10569213393E+04  0.11309106709E+04  0.79420300892E+02 0.  0.
        254    2    1    2    0    0  0.29858485063E+03 -0.25771249639E+03  0.49058027651E+03  0.10922251007E+04  0.89259062230E+03 0.  0.
         23    2    4    4    0    0  0.59871210558E+03 -0.22378760696E+03  0.23897276517E+03  0.68848174743E+03  0.91444276247E+02 0.  0.
         23    2    4    4    0    0 -0.30012725495E+03 -0.33924889431E+02  0.25160751134E+03  0.40374335324E+03  0.92060242416E+02 0.  0.
          4    1    3    3  502    0 -0.32812874483E+02  0.63457387991E+02 -0.23125303444E+03  0.24203613524E+03  0.00000000000E+00 0. -1.
         -3    1    3    3    0  502 -0.26577197614E+03  0.19425510840E+03 -0.82566830488E+03  0.88887453564E+03  0.00000000000E+00 0.  1.
         11    1    5    5    0    0  0.54144686710E+03 -0.17642348094E+03  0.19391968911E+03  0.60157692803E+03  0.00000000000E+00 0.  1.
        -11    1    5    5    0    0  0.57265238479E+02 -0.47364126024E+02  0.45053076064E+02  0.86904819399E+02  0.00000000000E+00 0. -1.
          2    1    6    6  503    0 -0.13511324978E+02 -0.14396275609E+02 -0.28823429246E+01  0.19952858312E+02  0.00000000000E+00 0. -1.
         -2    1    6    6    0  503 -0.28661592998E+03 -0.19528613822E+02  0.25448985426E+03  0.38379049493E+03  0.00000000000E+00 0.  1.
<mgrwt>
<rscale>  0 0.21497885E+04</rscale>
<asrwt>0</asrwt>
<pdfrwt beam="1">  1        2 0.12744575E+00 0.21497885E+04</pdfrwt>
<pdfrwt beam="2">  1       -1 0.21457514E+00 0.21497885E+04</pdfrwt>
<totfact> 0.41198590E+00</totfact>
</mgrwt>
</event>
<event>
12    6  0.1530859E-007  0.1573161E+04  0.7818608E-02  0.8837208E-01
         -1   -1    0    0    0  501 -0.00000000000E+00  0.00000000000E+00  0.15500516053E+04  0.15500516053E+04  0.00000000000E+00 0.  1.
          2   -1    0    0  501    0  0.00000000000E+00 -0.00000000000E+00 -0.39915352924E+03  0.39915352924E+03  0.00000000000E+00 0. -1.
         24    2    1    2    0    0  0.47857467426E+03 -0.92404284272E+02  0.58822783312E+03  0.76801999354E+03  0.79186212391E+02 0.  0.
        254    2    1    2    0    0 -0.47857467426E+03  0.92404284272E+02  0.56267024295E+03  0.11811851410E+04  0.91707593166E+03 0.  0.
         23    2    4    4    0    0 -0.24734487125E+03  0.88520757829E+02  0.79448544807E+03  0.84133984352E+03  0.87350988567E+02 0.  0.
         23    2    4    4    0    0 -0.23122980301E+03  0.38835264436E+01 -0.23181520512E+03  0.33984529749E+03  0.90962812867E+02 0.  0.
          4    1    3    3  502    0  0.14468416969E+03 -0.24025763501E+02  0.23625615061E+03  0.27807861293E+03  0.00000000000E+00 0. -1.
         -3    1    3    3    0  502  0.33389050457E+03 -0.68378520771E+02  0.35197168251E+03  0.48994138061E+03  0.00000000000E+00 0.  1.
         11    1    5    5    0    0 -0.17763716829E+03  0.10067035278E+03  0.54413198921E+03  0.58117906463E+03  0.00000000000E+00 0. -1.
        -11    1    5    5    0    0 -0.69707702965E+02 -0.12149594948E+02  0.25035345885E+03  0.26016077889E+03  0.00000000000E+00 0.  1.
          3    1    6    6  503    0 -0.23748682871E+03  0.22294846520E+01 -0.23360440405E+03  0.33313057801E+03  0.00000000000E+00 0. -1.
         -3    1    6    6    0  503  0.62570256984E+01  0.16540417916E+01  0.17891989382E+01  0.67147194788E+01  0.00000000000E+00 0.  1.
<mgrwt>
<rscale>  0 0.15731606E+04</rscale>
<asrwt>0</asrwt>
<pdfrwt beam="1">  1        2 0.61408236E-01 0.15731606E+04</pdfrwt>
<pdfrwt beam="2">  1       -1 0.23846947E+00 0.15731606E+04</pdfrwt>
<totfact> 0.72713773E+00</totfact>
</mgrwt>
</event>
<event>
12    6  0.1530859E-007  0.1165297E+04  0.7818608E-02  0.9143787E-01
          2   -1    0    0  501    0  0.00000000000E+00  0.00000000000E+00  0.92536276234E+03  0.92536276234E+03  0.00000000000E+00 0. -1.
         -1   -1    0    0    0  501 -0.00000000000E+00 -0.00000000000E+00 -0.36686058074E+03  0.36686058074E+03  0.00000000000E+00 0.  1.
         24    2    1    2    0    0  0.67822163174E+02  0.15677516337E+03  0.23613713573E+03  0.30174796725E+03  0.78184341168E+02 0.  0.
        254    2    1    2    0    0 -0.67822163174E+02 -0.15677516337E+03  0.32236504588E+03  0.99047537583E+03  0.92083872076E+03 0.  0.
         23    2    4    4    0    0  0.60984453088E+02  0.28364342044E+03 -0.13808591556E+03  0.33401641123E+03  0.91249928307E+02 0.  0.
         23    2    4    4    0    0 -0.12880661626E+03 -0.44041858381E+03  0.46045096144E+03  0.65645896460E+03  0.91452779917E+02 0.  0.
          4    1    3    3  502    0  0.65480787156E+02  0.15543425179E+03  0.24218300749E+03  0.29512734410E+03  0.00000000000E+00 0. -1.
         -3    1    3    3    0  502  0.23413760182E+01  0.13409115810E+01 -0.60458717664E+01  0.66206231536E+01  0.00000000000E+00 0.  1.
         11    1    5    5    0    0  0.41714651268E+02  0.26802157444E+03 -0.14591375651E+03  0.30800405977E+03  0.00000000000E+00 0.  1.
        -11    1    5    5    0    0  0.19269801820E+02  0.15621845995E+02  0.78278409433E+01  0.26012351457E+02  0.00000000000E+00 0. -1.
          3    1    6    6  503    0 -0.21740074072E+02 -0.23978617457E+02  0.63447489784E+02  0.71226321509E+02  0.00000000000E+00 0. -1.
         -3    1    6    6    0  503 -0.10706654219E+03 -0.41643996635E+03  0.39700347166E+03  0.58523264309E+03  0.00000000000E+00 0.  1.
<mgrwt>
<rscale>  0 0.11652967E+04</rscale>
<asrwt>0</asrwt>
<pdfrwt beam="1">  1        2 0.14236350E+00 0.11652967E+04</pdfrwt>
<pdfrwt beam="2">  1       -1 0.56440090E-01 0.11652967E+04</pdfrwt>
<totfact> 0.10104951E+02</totfact>
</mgrwt>
</event>
<event>
12    6  0.1530859E-007  0.1453534E+04  0.7818608E-02  0.8915954E-01
         -1   -1    0    0    0  501 -0.00000000000E+00  0.00000000000E+00  0.76811229278E+03  0.76811229278E+03  0.00000000000E+00 0.  1.
          2   -1    0    0  501    0  0.00000000000E+00 -0.00000000000E+00 -0.68764752596E+03  0.68764752596E+03  0.00000000000E+00 0. -1.
         24    2    1    2    0    0  0.31895936078E+03 -0.48623167479E+02  0.33867390235E+03  0.47483102854E+03  0.81640720811E+02 0.  0.
        254    2    1    2    0    0 -0.31895936078E+03  0.48623167479E+02 -0.25820913552E+03  0.98092879020E+03  0.88963478323E+03 0.  0.
         23    2    4    4    0    0  0.15811724998E+03  0.33266688338E+03 -0.14349978950E+03  0.40578271744E+03  0.91646626488E+02 0.  0.
         23    2    4    4    0    0 -0.47707661076E+03 -0.28404371590E+03 -0.11470934602E+03  0.57514607276E+03  0.96704942328E+02 0.  0.
          2    1    3    3  502    0  0.90130823578E+02 -0.25974415380E+02  0.51726656882E+02  0.10711621094E+03  0.00000000000E+00 0. -1.
         -1    1    3    3    0  502  0.22882853720E+03 -0.22648752098E+02  0.28694724547E+03  0.36771481761E+03  0.00000000000E+00 0.  1.
         11    1    5    5    0    0  0.43294864041E+02  0.14789083320E+03 -0.19360445420E+02  0.15530927417E+03  0.00000000000E+00 0. -1.
        -11    1    5    5    0    0  0.11482238594E+03  0.18477605017E+03 -0.12413934408E+03  0.25047344326E+03  0.00000000000E+00 0.  1.
          1    1    6    6  503    0 -0.20384446558E+03 -0.14046432761E+03 -0.97322149569E+02  0.26599698171E+03  0.00000000000E+00 0. -1.
         -1    1    6    6    0  503 -0.27323214518E+03 -0.14357938829E+03 -0.17387196454E+02  0.30914909105E+03  0.00000000000E+00 0.  1.
<mgrwt>
<rscale>  0 0.14535343E+04</rscale>
<asrwt>0</asrwt>
<pdfrwt beam="1">  1        2 0.10579193E+00 0.14535343E+04</pdfrwt>
<pdfrwt beam="2">  1       -1 0.11817112E+00 0.14535343E+04</pdfrwt>
<totfact> 0.29840548E+01</totfact>
</mgrwt>
</event>
<event>
12    6  0.1530859E-007  0.1290176E+04  0.7818608E-02  0.9037392E-01
          2   -1    0    0  501    0  0.00000000000E+00  0.00000000000E+00  0.30642236843E+04  0.30642236843E+04  0.00000000000E+00 0. -1.
         -1   -1    0    0    0  501 -0.00000000000E+00 -0.00000000000E+00 -0.13580557080E+03  0.13580557080E+03  0.00000000000E+00 0.  1.
         24    2    1    2    0    0  0.14697354697E+03  0.50261908831E+01  0.14299337218E+04  0.14396631572E+04  0.79328881232E+02 0.  0.
        254    2    1    2    0    0 -0.14697354697E+03 -0.50261908831E+01  0.14984843917E+04  0.17603660979E+04  0.91203445129E+03 0.  0.
         23    2    4    4    0    0 -0.10044106784E+03  0.14211803572E+03 -0.48528100123E+02  0.20296874339E+03  0.92495351808E+02 0.  0.
         23    2    4    4    0    0 -0.46532479129E+02 -0.14714422660E+03  0.15470124918E+04  0.15573973545E+04  0.91772408271E+02 0.  0.
          2    1    3    3  502    0  0.79221572158E+02 -0.11589532984E+02  0.10725796032E+04  0.10755637498E+04  0.00000000000E+00 0. -1.
         -1    1    3    3    0  502  0.67751974815E+02  0.16615723867E+02  0.35735411865E+03  0.36409940743E+03  0.00000000000E+00 0.  1.
         11    1    5    5    0    0 -0.26357570720E+02  0.10271816458E+03 -0.17134295495E-01  0.10604594836E+03  0.00000000000E+00 0.  1.
        -11    1    5    5    0    0 -0.74083497124E+02  0.39399871137E+02 -0.48510965827E+02  0.96922795034E+02  0.00000000000E+00 0. -1.
          4    1    6    6  503    0  0.21005915083E+02 -0.15161176697E+02  0.40076399098E+03  0.40160040614E+03  0.00000000000E+00 0. -1.
         -4    1    6    6    0  503 -0.67538394213E+02 -0.13198304991E+03  0.11462485008E+04  0.11557969484E+04  0.00000000000E+00 0.  1.
<mgrwt>
<rscale>  0 0.12901762E+04</rscale>
<asrwt>0</asrwt>
<pdfrwt beam="1">  1        2 0.47141898E+00 0.12901762E+04</pdfrwt>
<pdfrwt beam="2">  1       -1 0.20893167E-01 0.12901762E+04</pdfrwt>
<totfact> 0.34105882E+01</totfact>
</mgrwt>
</event>
<event>
12    6  0.1530859E-007  0.1423389E+04  0.7818608E-02  0.8937060E-01
         -1   -1    0    0    0  501 -0.00000000000E+00  0.00000000000E+00  0.28874709452E+03  0.28874709452E+03  0.00000000000E+00 0.  1.
          2   -1    0    0  501    0  0.00000000000E+00 -0.00000000000E+00 -0.17541614945E+04  0.17541614945E+04  0.00000000000E+00 0. -1.
         24    2    1    2    0    0  0.60593479896E+02  0.19899774696E+03  0.84796210188E+02  0.23817784151E+03  0.79161946829E+02 0.  0.
        254    2    1    2    0    0 -0.60593479896E+02 -0.19899774696E+03 -0.15502106102E+04  0.18047307475E+04  0.90034907787E+03 0.  0.
         23    2    4    4    0    0 -0.11080971568E+03  0.13280793144E+03 -0.14205225496E+04  0.14339299365E+04  0.91400267368E+02 0.  0.
         23    2    4    4    0    0  0.50216235785E+02 -0.33180567840E+03 -0.12968806057E+03  0.37080081109E+03  0.89763967688E+02 0.  0.
          4    1    3    3  502    0  0.47347995290E+02  0.16010034366E+03  0.29907731095E+02  0.16961257346E+03  0.00000000000E+00 0. -1.
         -1    1    3    3    0  502  0.13245484607E+02  0.38897403302E+02  0.54888479093E+02  0.68565268053E+02  0.00000000000E+00 0.  1.
         11    1    5    5    0    0 -0.84594516872E+02  0.58434801697E+02 -0.52708913269E+03  0.53702310205E+03  0.00000000000E+00 0.  1.
        -11    1    5    5    0    0 -0.26215198810E+02  0.74373129745E+02 -0.89343341696E+03  0.89690683441E+03  0.00000000000E+00 0. -1.
          1    1    6    6  503    0  0.18035108693E+02 -0.25387731373E+03 -0.60189256599E+02  0.26153719082E+03  0.00000000000E+00 0. -1.
         -1    1    6    6    0  503  0.32181127092E+02 -0.77928364671E+02 -0.69498803969E+02  0.10926362027E+03  0.00000000000E+00 0.  1.
<mgrwt>
<rscale>  0 0.14233890E+04</rscale>
<asrwt>0</asrwt>
<pdfrwt beam="1">  1        2 0.26987100E+00 0.14233890E+04</pdfrwt>
<pdfrwt beam="2">  1       -1 0.44422630E-01 0.14233890E+04</pdfrwt>
<totfact> 0.50814385E+01</totfact>
</mgrwt>
</event>
<event>
12    6  0.1530859E-007  0.1951058E+04  0.7818608E-02  0.8629851E-01
          2   -1    0    0  501    0  0.00000000000E+00  0.00000000000E+00  0.19037611740E+04  0.19037611740E+04  0.00000000000E+00 0. -1.
         -1   -1    0    0    0  501 -0.00000000000E+00 -0.00000000000E+00 -0.49988232656E+03  0.49988232656E+03  0.00000000000E+00 0.  1.
         24    2    1    2    0    0  0.42545275061E+03 -0.52168962746E+03  0.78876535848E+02  0.68240247813E+03  0.79256065034E+02 0.  0.
        254    2    1    2    0    0 -0.42545275061E+03  0.52168962746E+03  0.13250023116E+04  0.17212410224E+04  0.86825654107E+03 0.  0.
         23    2    4    4    0    0  0.22155762837E+03  0.69238440410E+02  0.57999376877E+03  0.63179869421E+03  0.94313699308E+02 0.  0.
         23    2    4    4    0    0 -0.64701037898E+03  0.45245118705E+03  0.74500854280E+03  0.10894423282E+04  0.92262399782E+02 0.  0.
          4    1    3    3  502    0  0.18194853676E+03 -0.18625379505E+03  0.61480103596E+02  0.26753607110E+03  0.00000000000E+00 0. -1.
         -3    1    3    3    0  502  0.24350421385E+03 -0.33543583241E+03  0.17396432252E+02  0.41486640703E+03  0.00000000000E+00 0.  1.
         11    1    5    5    0    0  0.26564592348E+02  0.44501536990E+01  0.15510441992E+02  0.31081429268E+02  0.00000000000E+00 0.  1.
        -11    1    5    5    0    0  0.19499303603E+03  0.64788286711E+02  0.56448332677E+03  0.60071726494E+03  0.00000000000E+00 0. -1.
          3    1    6    6  503    0 -0.36918177120E+03  0.31290479847E+03  0.44852930682E+03  0.65983568574E+03  0.00000000000E+00 0. -1.
         -3    1    6    6    0  503 -0.27782860778E+03  0.13954638859E+03  0.29647923598E+03  0.42960664245E+03  0.00000000000E+00 0.  1.
<mgrwt>
<rscale>  0 0.19510577E+04</rscale>
<asrwt>0</asrwt>
<pdfrwt beam="1">  1        2 0.29288633E+00 0.19510577E+04</pdfrwt>
<pdfrwt beam="2">  1       -1 0.76904975E-01 0.19510577E+04</pdfrwt>
<totfact> 0.13612683E+01</totfact>
</mgrwt>
</event>
<event>
12    6  0.1530859E-007  0.1018656E+04  0.7818608E-02  0.9288316E-01
         -1   -1    0    0    0  501 -0.00000000000E+00  0.00000000000E+00  0.13347542415E+03  0.13347542415E+03  0.00000000000E+00 0.  1.
          2   -1    0    0  501    0  0.00000000000E+00 -0.00000000000E+00 -0.19435428562E+04  0.19435428562E+04  0.00000000000E+00 0. -1.
         24    2    1    2    0    0  0.17754715028E+02 -0.36454563554E+02 -0.55407231395E+02  0.10404598974E+03  0.78175709652E+02 0.  0.
        254    2    1    2    0    0 -0.17754715028E+02  0.36454563554E+02 -0.17546602007E+04  0.19729722906E+04  0.90118981056E+03 0.  0.
         23    2    4    4    0    0  0.27767566853E+03  0.11676118770E+02 -0.15987593145E+04  0.16248784718E+04  0.83418185542E+02 0.  0.
         23    2    4    4    0    0 -0.29543038356E+03  0.24778444784E+02 -0.15590088613E+03  0.34809381882E+03  0.94716089176E+02 0.  0.
          4    1    3    3  502    0  0.13793754203E+02 -0.26954199217E+02 -0.75568729780E+02  0.81409025489E+02  0.00000000000E+00 0. -1.
         -3    1    3    3    0  502  0.39609608247E+01 -0.95003643372E+01  0.20161498385E+02  0.22636964247E+02  0.00000000000E+00 0.  1.
         11    1    5    5    0    0  0.17375142244E+03  0.19664015473E+02 -0.12021900771E+04  0.12148404059E+04  0.00000000000E+00 0. -1.
        -11    1    5    5    0    0  0.10392424609E+03 -0.79878967036E+01 -0.39656923742E+03  0.41003806590E+03  0.00000000000E+00 0.  1.
          4    1    6    6  503    0 -0.48439023676E+02 -0.31435901250E+02 -0.24433834005E+02  0.62702210059E+02  0.00000000000E+00 0.  1.
         -4    1    6    6    0  503 -0.24699135988E+03  0.56214346034E+02 -0.13146705213E+03  0.28539160876E+03  0.00000000000E+00 0. -1.
<mgrwt>
<rscale>  0 0.10186564E+04</rscale>
<asrwt>0</asrwt>
<pdfrwt beam="1">  1        2 0.29900656E+00 0.10186564E+04</pdfrwt>
<pdfrwt beam="2">  1       -1 0.20534683E-01 0.10186564E+04</pdfrwt>
<totfact> 0.16011650E+02</totfact>
</mgrwt>
</event>
<event>
12    6  0.1530859E-007  0.1528383E+04  0.7818608E-02  0.8865795E-01
          2   -1    0    0  501    0  0.00000000000E+00  0.00000000000E+00  0.24340478416E+04  0.24340478416E+04  0.00000000000E+00 0. -1.
         -1   -1    0    0    0  501 -0.00000000000E+00 -0.00000000000E+00 -0.23992479860E+03  0.23992479860E+03  0.00000000000E+00 0.  1.
         24    2    1    2    0    0  0.28001736325E+02  0.49296855506E+03  0.74398303332E+03  0.89660347424E+03  0.81147659382E+02 0.  0.
        254    2    1    2    0    0 -0.28001736325E+02 -0.49296855506E+03  0.14501400097E+04  0.17773691660E+04  0.90129518525E+03 0.  0.
         23    2    4    4    0    0 -0.17068102203E+03  0.47910006670E+02  0.10848484099E+04  0.11030530211E+04  0.91665232037E+02 0.  0.
         23    2    4    4    0    0  0.14267928570E+03 -0.54087856173E+03  0.36529159979E+03  0.67431614493E+03  0.91418342400E+02 0.  0.
          4    1    3    3  502    0  0.36222704893E+02  0.16487534496E+03  0.30363405488E+03  0.34740409181E+03  0.00000000000E+00 0. -1.
         -3    1    3    3    0  502 -0.82209685681E+01  0.32809321010E+03  0.44034897845E+03  0.54919938242E+03  0.00000000000E+00 0.  1.
         11    1    5    5    0    0  0.10184606949E+02 -0.46555383298E+01  0.65156066916E+02  0.66111370518E+02  0.00000000000E+00 0.  1.
        -11    1    5    5    0    0 -0.18086562898E+03  0.52565545000E+02  0.10196923430E+04  0.10369416505E+04  0.00000000000E+00 0. -1.
          2    1    6    6  503    0  0.14769819690E+03 -0.50061808713E+03  0.35842271528E+03  0.63316669950E+03  0.00000000000E+00 0. -1.
         -2    1    6    6    0  503 -0.50189111988E+01 -0.40260474598E+02  0.68688845118E+01  0.41149445427E+02  0.00000000000E+00 0.  1.
<mgrwt>
<rscale>  0 0.15283827E+04</rscale>
<asrwt>0</asrwt>
<pdfrwt beam="1">  1        2 0.37446888E+00 0.15283827E+04</pdfrwt>
<pdfrwt beam="2">  1       -1 0.36911509E-01 0.15283827E+04</pdfrwt>
<totfact> 0.29485302E+01</totfact>
</mgrwt>
</event>
<event>
12    6  0.1530859E-007  0.1362986E+04  0.7818608E-02  0.8981056E-01
          2   -1    0    0  501    0  0.00000000000E+00  0.00000000000E+00  0.13904659637E+04  0.13904659637E+04  0.00000000000E+00 0. -1.
         -1   -1    0    0    0  501 -0.00000000000E+00 -0.00000000000E+00 -0.33401209121E+03  0.33401209121E+03  0.00000000000E+00 0.  1.
         24    2    1    2    0    0  0.12486184061E+03 -0.27975456227E+03  0.26756499094E+02  0.31373984848E+03  0.62158570790E+02 0.  0.
        254    2    1    2    0    0 -0.12486184061E+03  0.27975456227E+03  0.10296973734E+04  0.14107382064E+04  0.91435907167E+03 0.  0.
         23    2    4    4    0    0 -0.42153845181E+03  0.24457687345E+03  0.97462611109E+03  0.10935764384E+04  0.92200091252E+02 0.  0.
         23    2    4    4    0    0  0.29667661120E+03  0.35177688824E+02  0.55071262297E+02  0.31716176802E+03  0.91127722122E+02 0.  0.
          4    1    3    3  502    0  0.44163775155E+01 -0.16155882967E+02  0.16849996115E+02  0.23757931599E+02  0.00000000000E+00 0. -1.
         -3    1    3    3    0  502  0.12044546310E+03 -0.26359867931E+03  0.99065029788E+01  0.28998191688E+03  0.00000000000E+00 0.  1.
         11    1    5    5    0    0 -0.28313796021E+03  0.13740385622E+03  0.53988544402E+03  0.62491856820E+03  0.00000000000E+00 0.  1.
        -11    1    5    5    0    0 -0.13840049160E+03  0.10717301723E+03  0.43474066707E+03  0.46865787020E+03  0.00000000000E+00 0. -1.
          1    1    6    6  503    0  0.29050201652E+03  0.50945421523E+02  0.48021114419E+02  0.29881915100E+03  0.00000000000E+00 0. -1.
         -1    1    6    6    0  503  0.61745946777E+01 -0.15767732698E+02  0.70501478780E+01  0.18342617016E+02  0.00000000000E+00 0.  1.
<mgrwt>
<rscale>  0 0.13629856E+04</rscale>
<asrwt>0</asrwt>
<pdfrwt beam="1">  1        2 0.21391784E+00 0.13629856E+04</pdfrwt>
<pdfrwt beam="2">  1       -1 0.51386476E-01 0.13629856E+04</pdfrwt>
<totfact> 0.62075282E+01</totfact>
</mgrwt>
</event>
<event>
12    6  0.1530859E-007  0.1453637E+04  0.7818608E-02  0.8915883E-01
         -1   -1    0    0    0  501 -0.00000000000E+00  0.00000000000E+00  0.16903765684E+03  0.16903765684E+03  0.00000000000E+00 0.  1.
          2   -1    0    0  501    0  0.00000000000E+00 -0.00000000000E+00 -0.31251334927E+04  0.31251334927E+04  0.00000000000E+00 0. -1.
         24    2    1    2    0    0 -0.77876135787E+02 -0.38897184229E+03 -0.74393266026E+03  0.84686613429E+03  0.79891550201E+02 0.  0.
        254    2    1    2    0    0  0.77876135787E+02  0.38897184229E+03 -0.22121631756E+04  0.24473050152E+04  0.96864448354E+03 0.  0.
         23    2    4    4    0    0 -0.33199770433E+03 -0.10959988439E+03 -0.51654893170E+03  0.63065458923E+03  0.93101029739E+02 0.  0.
         23    2    4    4    0    0  0.40987384012E+03  0.49857172668E+03 -0.16956142439E+04  0.18166504260E+04  0.92416312016E+02 0.  0.
          4    1    3    3  502    0 -0.40880784784E+02 -0.20163753360E+03 -0.30175552597E+03  0.36521956543E+03  0.00000000000E+00 0. -1.
         -3    1    3    3    0  502 -0.36995351003E+02 -0.18733430869E+03 -0.44217713429E+03  0.48164656886E+03  0.00000000000E+00 0.  1.
         11    1    5    5    0    0 -0.51105764584E+02 -0.32579034810E+02 -0.15469207440E+03  0.16614099604E+03  0.00000000000E+00 0.  1.
        -11    1    5    5    0    0 -0.28089193975E+03 -0.77020849582E+02 -0.36185685730E+03  0.46451359319E+03  0.00000000000E+00 0. -1.
          2    1    6    6  503    0  0.15235751153E+03  0.24034981454E+03 -0.82681006844E+03  0.87441165016E+03  0.00000000000E+00 0.  1.
         -2    1    6    6    0  503  0.25751632859E+03  0.25822191214E+03 -0.86880417545E+03  0.94223877583E+03  0.00000000000E+00 0. -1.
<mgrwt>
<rscale>  0 0.14536372E+04</rscale>
<asrwt>0</asrwt>
<pdfrwt beam="1">  1        2 0.48078971E+00 0.14536372E+04</pdfrwt>
<pdfrwt beam="2">  1       -1 0.26005796E-01 0.14536372E+04</pdfrwt>
<totfact> 0.21157207E+01</totfact>
</mgrwt>
</event>
<event>
12    6  0.1530859E-007  0.1560516E+04  0.7818608E-02  0.8845178E-01
          2   -1    0    0  501    0  0.00000000000E+00  0.00000000000E+00  0.21618341561E+04  0.21618341561E+04  0.00000000000E+00 0. -1.
         -1   -1    0    0    0  501 -0.00000000000E+00 -0.00000000000E+00 -0.28161407630E+03  0.28161407630E+03  0.00000000000E+00 0.  1.
         24    2    1    2    0    0 -0.43070687683E+03  0.24322365746E+03  0.38616865167E+03  0.63247711541E+03  0.78961463288E+02 0.  0.
        254    2    1    2    0    0  0.43070687683E+03 -0.24322365746E+03  0.14940514281E+04  0.18109711170E+04  0.89596905939E+03 0.  0.
         23    2    4    4    0    0  0.56147186096E+01 -0.12541663640E+03 -0.79370638877E+02  0.17441757233E+03  0.91438140135E+02 0.  0.
         23    2    4    4    0    0  0.42509215822E+03 -0.11780702106E+03  0.15734220670E+04  0.16365535447E+04  0.89825755761E+02 0.  0.
          4    1    3    3  502    0 -0.18230283595E+03  0.10233863568E+03  0.21322170291E+03  0.29861516194E+03  0.00000000000E+00 0. -1.
         -3    1    3    3    0  502 -0.24840404088E+03  0.14088502179E+03  0.17294694876E+03  0.33386195347E+03  0.00000000000E+00 0.  1.
         11    1    5    5    0    0 -0.24045046809E+02 -0.11666308887E+03 -0.42909894181E+02  0.12660844995E+03  0.00000000000E+00 0.  1.
        -11    1    5    5    0    0  0.29659765419E+02 -0.87535475317E+01 -0.36460744695E+02  0.47809122381E+02  0.00000000000E+00 0. -1.
          2    1    6    6  503    0  0.39821887045E+02 -0.38164584517E+02  0.15226670036E+03  0.16194896183E+03  0.00000000000E+00 0. -1.
         -2    1    6    6    0  503  0.38527027118E+03 -0.79642436548E+02  0.14211553667E+04  0.14746045828E+04  0.00000000000E+00 0.  1.
<mgrwt>
<rscale>  0 0.15605165E+04</rscale>
<asrwt>0</asrwt>
<pdfrwt beam="1">  1        2 0.33258986E+00 0.15605165E+04</pdfrwt>
<pdfrwt beam="2">  1       -1 0.43325244E-01 0.15605165E+04</pdfrwt>
<totfact> 0.31262351E+01</totfact>
</mgrwt>
</event>
<event>
12    6  0.1530859E-007  0.1474627E+04  0.7818608E-02  0.8901503E-01
         -1   -1    0    0    0  501 -0.00000000000E+00  0.00000000000E+00  0.63142516688E+03  0.63142516688E+03  0.00000000000E+00 0.  1.
          2   -1    0    0  501    0  0.00000000000E+00 -0.00000000000E+00 -0.86095943132E+03  0.86095943132E+03  0.00000000000E+00 0. -1.
         24    2    1    2    0    0 -0.21233672153E+03 -0.40780748196E+03 -0.73841126702E+02  0.47255386887E+03  0.80379234462E+02 0.  0.
        254    2    1    2    0    0  0.21233672153E+03  0.40780748196E+03 -0.15569313773E+03  0.10198307293E+04  0.89689494240E+03 0.  0.
         23    2    4    4    0    0 -0.26153137521E+03 -0.77186486452E+02 -0.17150090482E+03  0.33544500017E+03  0.93564811087E+02 0.  0.
         23    2    4    4    0    0  0.47386809674E+03  0.48499396841E+03  0.15807767090E+02  0.68438572916E+03  0.91453913383E+02 0.  0.
          2    1    3    3  502    0  0.27186044241E+00 -0.77464614338E+01 -0.13417646160E+02  0.15495638138E+02  0.00000000000E+00 0. -1.
         -1    1    3    3    0  502 -0.21260858197E+03 -0.40006102053E+03 -0.60423480542E+02  0.45705823073E+03  0.00000000000E+00 0.  1.
         11    1    5    5    0    0  0.28074098984E+00 -0.12292732649E+02 -0.26483298508E+02  0.29198547761E+02  0.00000000000E+00 0. -1.
        -11    1    5    5    0    0 -0.26181211620E+03 -0.64893753803E+02 -0.14501760631E+03  0.30624645241E+03  0.00000000000E+00 0.  1.
          2    1    6    6  503    0  0.21842022686E+02  0.55254043449E+01  0.11774774929E+02  0.25421435302E+02  0.00000000000E+00 0. -1.
         -2    1    6    6    0  503  0.45202607406E+03  0.47946856407E+03  0.40329921605E+01  0.65896429386E+03  0.00000000000E+00 0.  1.
<mgrwt>
<rscale>  0 0.14746273E+04</rscale>
<asrwt>0</asrwt>
<pdfrwt beam="1">  1        2 0.13245530E+00 0.14746273E+04</pdfrwt>
<pdfrwt beam="2">  1       -1 0.97142333E-01 0.14746273E+04</pdfrwt>
<totfact> 0.35097514E+01</totfact>
</mgrwt>
</event>
<event>
12    6  0.1530859E-007  0.1278726E+04  0.7818608E-02  0.9046608E-01
          2   -1    0    0  501    0  0.00000000000E+00  0.00000000000E+00  0.41586406926E+03  0.41586406926E+03  0.00000000000E+00 0. -1.
         -1   -1    0    0    0  501 -0.00000000000E+00 -0.00000000000E+00 -0.98297752093E+03  0.98297752093E+03  0.00000000000E+00 0.  1.
         24    2    1    2    0    0  0.96093030609E+01 -0.20497800591E+03  0.11567204799E+03  0.24883832686E+03  0.80200801873E+02 0.  0.
        254    2    1    2    0    0 -0.96093030609E+01  0.20497800591E+03 -0.68278549965E+03  0.11500032633E+04  0.90233205945E+03 0.  0.
         23    2    4    4    0    0 -0.25283252621E+03 -0.26391149405E+03 -0.19088291590E+03  0.42246908540E+03  0.92034110732E+02 0.  0.
         23    2    4    4    0    0  0.24322322315E+03  0.46888949995E+03 -0.49190258376E+03  0.72753417792E+03  0.91230086569E+02 0.  0.
          4    1    3    3  502    0  0.39709762995E+02 -0.14391019633E+03  0.97723841440E+02  0.17842914299E+03  0.00000000000E+00 0. -1.
         -3    1    3    3    0  502 -0.30100459934E+02 -0.61067809580E+02  0.17948206546E+02  0.70409183871E+02  0.00000000000E+00 0.  1.
         11    1    5    5    0    0 -0.85070525155E+02 -0.14435064603E+03 -0.57931428119E+02  0.17728551442E+03  0.00000000000E+00 0. -1.
        -11    1    5    5    0    0 -0.16776200106E+03 -0.11956084802E+03 -0.13295148778E+03  0.24518357098E+03  0.00000000000E+00 0.  1.
          2    1    6    6  503    0  0.99778378423E+02  0.11672795578E+03 -0.17235175499E+03  0.23083818555E+03  0.00000000000E+00 0. -1.
         -2    1    6    6    0  503  0.14344484473E+03  0.35216154417E+03 -0.31955082877E+03  0.49669599237E+03  0.00000000000E+00 0.  1.
<mgrwt>
<rscale>  0 0.12787260E+04</rscale>
<asrwt>0</asrwt>
<pdfrwt beam="1">  1        2 0.63979088E-01 0.12787260E+04</pdfrwt>
<pdfrwt beam="2">  1       -1 0.15122731E+00 0.12787260E+04</pdfrwt>
<totfact> 0.29172008E+01</totfact>
</mgrwt>
</event>
<event>
12    6  0.1530859E-007  0.1392393E+04  0.7818608E-02  0.8959344E-01
          2   -1    0    0  501    0  0.00000000000E+00  0.00000000000E+00  0.12821610000E+04  0.12821610000E+04  0.00000000000E+00 0. -1.
         -1   -1    0    0    0  501 -0.00000000000E+00 -0.00000000000E+00 -0.37802524519E+03  0.37802524519E+03  0.00000000000E+00 0.  1.
         24    2    1    2    0    0 -0.29749320876E+02  0.14412859583E+03 -0.17437229359E+03  0.24302202858E+03  0.83641708351E+02 0.  0.
        254    2    1    2    0    0  0.29749320876E+02 -0.14412859583E+03  0.10785080484E+04  0.14171642167E+04  0.90747822684E+03 0.  0.
         23    2    4    4    0    0  0.20058334131E+03 -0.46690690670E+03  0.78585329678E+03  0.94022077088E+03  0.90630886468E+02 0.  0.
         23    2    4    4    0    0 -0.17083402043E+03  0.32277831087E+03  0.29265475166E+03  0.47694344578E+03  0.91968180882E+02 0.  0.
          2    1    3    3  502    0 -0.34529043402E+02  0.26224073524E+02 -0.17579498299E+02  0.46786703569E+02  0.00000000000E+00 0. -1.
         -1    1    3    3    0  502  0.47797225255E+01  0.11790452231E+03 -0.15679279529E+03  0.19623532501E+03  0.00000000000E+00 0.  1.
         11    1    5    5    0    0 -0.90513037925E+01 -0.33727147981E+02  0.50758492930E+02  0.61610642066E+02  0.00000000000E+00 0. -1.
        -11    1    5    5    0    0  0.20963464510E+03 -0.43317975872E+03  0.73509480385E+03  0.87861012881E+03  0.00000000000E+00 0.  1.
          1    1    6    6  503    0 -0.13108499139E+03  0.17793917525E+03  0.13394187436E+03  0.25842997265E+03  0.00000000000E+00 0. -1.
         -1    1    6    6    0  503 -0.39749029041E+02  0.14483913562E+03  0.15871287730E+03  0.21851347313E+03  0.00000000000E+00 0.  1.
<mgrwt>
<rscale>  0 0.13923925E+04</rscale>
<asrwt>0</asrwt>
<pdfrwt beam="1">  1        2 0.19725554E+00 0.13923925E+04</pdfrwt>
<pdfrwt beam="2">  1       -1 0.58157730E-01 0.13923925E+04</pdfrwt>
<totfact> 0.56307925E+01</totfact>
</mgrwt>
</event>
<event>
12    6  0.1530859E-007  0.1239458E+04  0.7818608E-02  0.9079003E-01
          2   -1    0    0  501    0  0.00000000000E+00  0.00000000000E+00  0.24293270031E+04  0.24293270031E+04  0.00000000000E+00 0. -1.
         -1   -1    0    0    0  501 -0.00000000000E+00 -0.00000000000E+00 -0.15809485305E+03  0.15809485305E+03  0.00000000000E+00 0.  1.
         24    2    1    2    0    0 -0.26427989157E+03 -0.62694843050E+02  0.73399617228E+03  0.78667033836E+03  0.79531980374E+02 0.  0.
        254    2    1    2    0    0  0.26427989157E+03  0.62694843050E+02  0.15372359778E+04  0.18007515178E+04  0.89768428359E+03 0.  0.
         23    2    4    4    0    0  0.27158769817E+03 -0.16750533213E+03  0.15176849883E+04  0.15535078693E+04  0.90559716762E+02 0.  0.
         23    2    4    4    0    0 -0.73078066022E+01  0.23020017518E+03  0.19550989482E+02  0.24724364845E+03  0.87759078284E+02 0.  0.
          2    1    3    3  502    0 -0.26781647178E+03 -0.53480778097E+02  0.70569348369E+03  0.75669620662E+03  0.00000000000E+00 0. -1.
         -1    1    3    3    0  502  0.35365802095E+01 -0.92140649533E+01  0.28302688587E+02  0.29974131743E+02  0.00000000000E+00 0.  1.
         11    1    5    5    0    0  0.26164597875E+03 -0.16866219646E+03  0.15072032639E+04  0.15390150205E+04  0.00000000000E+00 0.  1.
        -11    1    5    5    0    0  0.99417194232E+01  0.11568643371E+01  0.10481724401E+02  0.14492848809E+02  0.00000000000E+00 0. -1.
          1    1    6    6  503    0 -0.31103518642E+01 -0.61316994289E+01 -0.64769375646E+01  0.94457793125E+01  0.00000000000E+00 0. -1.
         -1    1    6    6    0  503 -0.41974547380E+01  0.23633187460E+03  0.26027927046E+02  0.23779786914E+03  0.00000000000E+00 0.  1.
<mgrwt>
<rscale>  0 0.12394581E+04</rscale>
<asrwt>0</asrwt>
<pdfrwt beam="1">  1        2 0.37374259E+00 0.12394581E+04</pdfrwt>
<pdfrwt beam="2">  1       -1 0.24322287E-01 0.12394581E+04</pdfrwt>
<totfact> 0.63253542E+01</totfact>
</mgrwt>
</event>
<event>
12    6  0.1530859E-007  0.1203948E+04  0.7818608E-02  0.9109408E-01
         -1   -1    0    0    0  501 -0.00000000000E+00  0.00000000000E+00  0.14564095820E+03  0.14564095820E+03  0.00000000000E+00 0.  1.
          2   -1    0    0  501    0  0.00000000000E+00 -0.00000000000E+00 -0.24881248464E+04  0.24881248464E+04  0.00000000000E+00 0. -1.
         24    2    1    2    0    0  0.20551234500E+03  0.92798247121E+02 -0.75412274245E+03  0.79139829646E+03  0.82239372166E+02 0.  0.
        254    2    1    2    0    0 -0.20551234500E+03 -0.92798247121E+02 -0.15883611458E+04  0.18423675082E+04  0.90585874570E+03 0.  0.
         23    2    4    4    0    0  0.15147914716E+03  0.22102309257E+03 -0.14108496145E+03  0.31674208587E+03  0.92862495895E+02 0.  0.
         23    2    4    4    0    0 -0.35699149217E+03 -0.31382133969E+03 -0.14472761843E+04  0.15256254223E+04  0.83652954146E+02 0.  0.
          2    1    3    3  502    0  0.13877011258E+03  0.99563490556E+02 -0.49092914559E+03  0.51978982174E+03  0.00000000000E+00 0. -1.
         -1    1    3    3    0  502  0.66742232420E+02 -0.67652434351E+01 -0.26319359687E+03  0.27160847472E+03  0.00000000000E+00 0.  1.
         11    1    5    5    0    0  0.16253107293E+03  0.18673917455E+03 -0.12324752943E+03  0.27654623933E+03  0.00000000000E+00 0. -1.
        -11    1    5    5    0    0 -0.11051925770E+02  0.34283918021E+02 -0.17837432017E+02  0.40195846540E+02  0.00000000000E+00 0.  1.
          4    1    6    6  503    0 -0.61413866940E+02 -0.35335751991E+02 -0.31069636690E+03  0.31867304691E+03  0.00000000000E+00 0. -1.
         -4    1    6    6    0  503 -0.29557762523E+03 -0.27848558770E+03 -0.11365798174E+04  0.12069523754E+04  0.00000000000E+00 0.  1.
<mgrwt>
<rscale>  0 0.12039483E+04</rscale>
<asrwt>0</asrwt>
<pdfrwt beam="1">  1        2 0.38278839E+00 0.12039483E+04</pdfrwt>
<pdfrwt beam="2">  1       -1 0.22406304E-01 0.12039483E+04</pdfrwt>
<totfact> 0.67527630E+01</totfact>
</mgrwt>
</event>
<event>
12    6  0.1530859E-007  0.3176897E+04  0.7818608E-02  0.8194945E-01
          2   -1    0    0  501    0  0.00000000000E+00  0.00000000000E+00  0.10257535950E+04  0.10257535950E+04  0.00000000000E+00 0. -1.
         -1   -1    0    0    0  501 -0.00000000000E+00 -0.00000000000E+00 -0.24598199267E+04  0.24598199267E+04  0.00000000000E+00 0.  1.
         24    2    1    2    0    0 -0.49267456311E+02 -0.13724475930E+03 -0.22521482634E+04  0.22583643827E+04  0.82307218963E+02 0.  0.
        254    2    1    2    0    0  0.49267456311E+02  0.13724475930E+03  0.81808193168E+03  0.12272091391E+04  0.90306191256E+03 0.  0.
         23    2    4    4    0    0  0.26448338531E+03  0.33716609473E+03  0.80723106722E+03  0.91888187198E+03  0.95338671237E+02 0.  0.
         23    2    4    4    0    0 -0.21521592900E+03 -0.19992133543E+03  0.10850864464E+02  0.30832726711E+03  0.93067319361E+02 0.  0.
          4    1    3    3  502    0 -0.57292445608E+01 -0.36939021124E+02 -0.21073559101E+03  0.21402524347E+03  0.00000000000E+00 0. -1.
         -3    1    3    3    0  502 -0.43538211750E+02 -0.10030573818E+03 -0.20414126724E+04  0.20443391392E+04  0.00000000000E+00 0.  1.
         11    1    5    5    0    0 -0.83612757356E+00 -0.51881063541E+01  0.53359348375E+01  0.74891760195E+01  0.00000000000E+00 0. -1.
        -11    1    5    5    0    0  0.26531951288E+03  0.34235420108E+03  0.80189513238E+03  0.91139269596E+03  0.00000000000E+00 0.  1.
          4    1    6    6  503    0 -0.22065609425E+03 -0.17994091157E+03  0.20541486781E+02  0.28546417685E+03  0.00000000000E+00 0.  1.
         -4    1    6    6    0  503  0.54401652508E+01 -0.19980423863E+02 -0.96906223162E+01  0.22863090268E+02  0.00000000000E+00 0. -1.
<mgrwt>
<rscale>  0 0.31768973E+04</rscale>
<asrwt>0</asrwt>
<pdfrwt beam="1">  1        2 0.15780825E+00 0.31768973E+04</pdfrwt>
<pdfrwt beam="2">  1       -1 0.37843383E+00 0.31768973E+04</pdfrwt>
<totfact> 0.23358239E-01</totfact>
</mgrwt>
</event>
<event>
12    6  0.1530859E-007  0.1500067E+04  0.7818608E-02  0.8884408E-01
          2   -1    0    0  501    0  0.00000000000E+00  0.00000000000E+00  0.14483893977E+04  0.14483893977E+04  0.00000000000E+00 0. -1.
         -1   -1    0    0    0  501 -0.00000000000E+00 -0.00000000000E+00 -0.38839719892E+03  0.38839719892E+03  0.00000000000E+00 0.  1.
         24    2    1    2    0    0 -0.36703826558E+03 -0.11262333515E+03  0.11464947119E+02  0.39252127203E+03  0.80872739328E+02 0.  0.
        254    2    1    2    0    0  0.36703826558E+03  0.11262333515E+03  0.10485272517E+04  0.14442653246E+04  0.91601955564E+03 0.  0.
         23    2    4    4    0    0  0.10344784621E+03 -0.38065400540E+03  0.29435499812E+03  0.50099210510E+03  0.93537670160E+02 0.  0.
         23    2    4    4    0    0  0.26359041936E+03  0.49327734056E+03  0.75417225358E+03  0.94327321952E+03  0.90477260701E+02 0.  0.
          2    1    3    3  502    0 -0.87492363830E+01 -0.26455019112E+01  0.15174495198E+02  0.17714771298E+02  0.00000000000E+00 0. -1.
         -1    1    3    3    0  502 -0.35828902919E+03 -0.10997783324E+03 -0.37095480790E+01  0.37480650073E+03  0.00000000000E+00 0.  1.
         11    1    5    5    0    0  0.84447052144E+02 -0.25218322648E+03  0.24641596100E+03  0.36255828520E+03  0.00000000000E+00 0. -1.
        -11    1    5    5    0    0  0.19000794070E+02 -0.12847077892E+03  0.47939037130E+02  0.13843381990E+03  0.00000000000E+00 0.  1.
          4    1    6    6  503    0  0.10756897455E+03  0.23563910157E+03  0.27922421525E+03  0.38087141249E+03  0.00000000000E+00 0. -1.
         -4    1    6    6    0  503  0.15602144481E+03  0.25763823899E+03  0.47494803833E+03  0.56240180703E+03  0.00000000000E+00 0.  1.
<mgrwt>
<rscale>  0 0.15000672E+04</rscale>
<asrwt>0</asrwt>
<pdfrwt beam="1">  1        2 0.22282914E+00 0.15000672E+04</pdfrwt>
<pdfrwt beam="2">  1       -1 0.59753416E-01 0.15000672E+04</pdfrwt>
<totfact> 0.42453223E+01</totfact>
</mgrwt>
</event>
<event>
12    6  0.1530859E-007  0.2091497E+04  0.7818608E-02  0.8564998E-01
         -1   -1    0    0    0  501 -0.00000000000E+00  0.00000000000E+00  0.12984341631E+04  0.12984341631E+04  0.00000000000E+00 0.  1.
          2   -1    0    0  501    0  0.00000000000E+00 -0.00000000000E+00 -0.84223770668E+03  0.84223770668E+03  0.00000000000E+00 0. -1.
         24    2    1    2    0    0 -0.50819519092E+03  0.54565788510E+03  0.58090069395E+03  0.94859481854E+03  0.79885129287E+02 0.  0.
        254    2    1    2    0    0  0.50819519092E+03 -0.54565788510E+03 -0.12470423754E+03  0.11920770512E+04  0.92167872361E+03 0.  0.
         23    2    4    4    0    0  0.67869339200E+03 -0.66620210007E+03 -0.68668012304E+02  0.95792356473E+03  0.91936399026E+02 0.  0.
         23    2    4    4    0    0 -0.17049820108E+03  0.12054421497E+03 -0.56036225232E+02  0.23415348650E+03  0.89929151937E+02 0.  0.
          2    1    3    3  502    0 -0.24596282881E+03  0.26598153862E+03  0.23184291072E+03  0.43011048266E+03  0.00000000000E+00 0. -1.
         -1    1    3    3    0  502 -0.26223236210E+03  0.27967634648E+03  0.34905778323E+03  0.51848433587E+03  0.00000000000E+00 0.  1.
         11    1    5    5    0    0  0.11573246846E+03 -0.97582022471E+02 -0.42931778081E+02  0.15735117710E+03  0.00000000000E+00 0. -1.
        -11    1    5    5    0    0  0.56296092354E+03 -0.56862007760E+03 -0.25736234223E+02  0.80057238763E+03  0.00000000000E+00 0.  1.
          1    1    6    6  503    0 -0.19572982497E+02  0.44036641245E+02  0.15242825797E+02  0.50543754849E+02  0.00000000000E+00 0. -1.
         -1    1    6    6    0  503 -0.15092521858E+03  0.76507573726E+02 -0.71279051029E+02  0.18360973165E+03  0.00000000000E+00 0.  1.
<mgrwt>
<rscale>  0 0.20914973E+04</rscale>
<asrwt>0</asrwt>
<pdfrwt beam="1">  1        2 0.12957503E+00 0.20914973E+04</pdfrwt>
<pdfrwt beam="2">  1       -1 0.19975910E+00 0.20914973E+04</pdfrwt>
<totfact> 0.51087451E+00</totfact>
</mgrwt>
</event>
<event>
12    6  0.1530859E-007  0.1138051E+04  0.7818608E-02  0.9168879E-01
          2   -1    0    0  501    0  0.00000000000E+00  0.00000000000E+00  0.55858615075E+03  0.55858615075E+03  0.00000000000E+00 0. -1.
         -1   -1    0    0    0  501 -0.00000000000E+00 -0.00000000000E+00 -0.57965965939E+03  0.57965965939E+03  0.00000000000E+00 0.  1.
         24    2    1    2    0    0  0.22350878659E+00 -0.61221096846E+02  0.17424616247E+03  0.21178304138E+03  0.10364486878E+03 0.  0.
        254    2    1    2    0    0 -0.22350878659E+00  0.61221096846E+02 -0.19531967111E+03  0.92646276876E+03  0.90356815754E+03 0.  0.
         23    2    4    4    0    0  0.89997002888E+02  0.45818411700E+03 -0.33658229384E+02  0.47883857587E+03  0.10060496875E+03 0.  0.
         23    2    4    4    0    0 -0.90220511675E+02 -0.39696302016E+03 -0.16166144173E+03  0.44762419289E+03  0.92269259331E+02 0.  0.
          4    1    3    3  502    0  0.30173743851E+02 -0.53355069262E+02  0.16976811634E+03  0.18049496270E+03  0.00000000000E+00 0. -1.
         -3    1    3    3    0  502 -0.29950235064E+02 -0.78660275833E+01  0.44780461306E+01  0.31288078680E+02  0.00000000000E+00 0.  1.
         11    1    5    5    0    0  0.10495427022E+03  0.41148479763E+03 -0.10950991751E+02  0.42480002559E+03  0.00000000000E+00 0. -1.
        -11    1    5    5    0    0 -0.14957267334E+02  0.46699319367E+02 -0.22707237634E+02  0.54038550280E+02  0.00000000000E+00 0.  1.
          3    1    6    6  503    0 -0.10500854413E+03 -0.33583079934E+03 -0.15460913280E+03  0.38433462513E+03  0.00000000000E+00 0. -1.
         -3    1    6    6    0  503  0.14788032459E+02 -0.61132220815E+02 -0.70523089269E+01  0.63289567758E+02  0.00000000000E+00 0.  1.
<mgrwt>
<rscale>  0 0.11380507E+04</rscale>
<asrwt>0</asrwt>
<pdfrwt beam="1">  1        2 0.85936330E-01 0.11380507E+04</pdfrwt>
<pdfrwt beam="2">  1       -1 0.89178410E-01 0.11380507E+04</pdfrwt>
<totfact> 0.75484314E+01</totfact>
</mgrwt>
</event>
<event>
12    6  0.1530859E-007  0.1483239E+04  0.7818608E-02  0.8895676E-01
         -1   -1    0    0    0  501 -0.00000000000E+00  0.00000000000E+00  0.56750694425E+03  0.56750694425E+03  0.00000000000E+00 0.  1.
          2   -1    0    0  501    0  0.00000000000E+00 -0.00000000000E+00 -0.96915074740E+03  0.96915074740E+03  0.00000000000E+00 0. -1.
         24    2    1    2    0    0  0.38906146433E+02  0.30136593569E+03 -0.49597127606E+03  0.58705202965E+03  0.79419540523E+02 0.  0.
        254    2    1    2    0    0 -0.38906146433E+02 -0.30136593569E+03  0.94327472913E+02  0.94960566199E+03  0.89471678520E+03 0.  0.
         23    2    4    4    0    0  0.23566883761E+03 -0.50681026152E+03  0.16068726823E+03  0.58883309130E+03  0.92236484301E+02 0.  0.
         23    2    4    4    0    0 -0.27457498404E+03  0.20544432583E+03 -0.66359795317E+02  0.36077257069E+03  0.90301896176E+02 0.  0.
          2    1    3    3  502    0  0.26580188730E+02  0.22746716982E+03 -0.30126279434E+03  0.37842712777E+03  0.00000000000E+00 0. -1.
         -1    1    3    3    0  502  0.12325957704E+02  0.73898765864E+02 -0.19470848173E+03  0.20862490188E+03  0.00000000000E+00 0.  1.
         11    1    5    5    0    0  0.87062776467E+02 -0.11113909204E+03  0.15941642263E+02  0.14207730566E+03  0.00000000000E+00 0.  1.
        -11    1    5    5    0    0  0.14860606114E+03 -0.39567116948E+03  0.14474562597E+03  0.44675578564E+03  0.00000000000E+00 0. -1.
          3    1    6    6  503    0 -0.17851161569E+03  0.13090162217E+03 -0.86233369051E+02  0.23756646556E+03  0.00000000000E+00 0. -1.
         -3    1    6    6    0  503 -0.96063368354E+02  0.74542703656E+02  0.19873573734E+02  0.12320610513E+03  0.00000000000E+00 0.  1.
<mgrwt>
<rscale>  0 0.14832394E+04</rscale>
<asrwt>0</asrwt>
<pdfrwt beam="1">  1        2 0.14910011E+00 0.14832394E+04</pdfrwt>
<pdfrwt beam="2">  1       -1 0.87308761E-01 0.14832394E+04</pdfrwt>
<totfact> 0.37607456E+01</totfact>
</mgrwt>
</event>
<event>
12    6  0.1530859E-007  0.1796211E+04  0.7818608E-02  0.8708317E-01
          2   -1    0    0  501    0  0.00000000000E+00  0.00000000000E+00  0.29192241079E+04  0.29192241079E+04  0.00000000000E+00 0. -1.
         -1   -1    0    0    0  501 -0.00000000000E+00 -0.00000000000E+00 -0.27630399005E+03  0.27630399005E+03  0.00000000000E+00 0.  1.
         24    2    1    2    0    0 -0.58528193210E+03  0.54011696337E+02  0.42154759294E+03  0.72769076354E+03  0.79745036419E+02 0.  0.
        254    2    1    2    0    0  0.58528193210E+03 -0.54011696337E+02  0.22213725249E+04  0.24678373344E+04  0.90014055087E+03 0.  0.
         23    2    4    4    0    0  0.76582768174E+03  0.12770314156E+03  0.14204331355E+04  0.16213551035E+04  0.91443691431E+02 0.  0.
         23    2    4    4    0    0 -0.18054574964E+03 -0.18171483789E+03  0.80093938939E+03  0.84648223091E+03  0.97011400064E+02 0.  0.
          2    1    3    3  502    0 -0.19661860104E+03  0.49205779383E+02  0.11813919731E+03  0.23459955870E+03  0.00000000000E+00 0. -1.
         -1    1    3    3    0  502 -0.38866333107E+03  0.48059169546E+01  0.30340839563E+03  0.49309120484E+03  0.00000000000E+00 0.  1.
         11    1    5    5    0    0  0.68974319782E+03  0.94629606992E+02  0.12244872718E+04  0.14085700267E+04  0.00000000000E+00 0. -1.
        -11    1    5    5    0    0  0.76084483924E+02  0.33073534564E+02  0.19594586371E+03  0.21278507675E+03  0.00000000000E+00 0.  1.
          1    1    6    6  503    0 -0.14450618702E+03 -0.91104366574E+02  0.58730155986E+03  0.61164137034E+03  0.00000000000E+00 0. -1.
         -1    1    6    6    0  503 -0.36039562618E+02 -0.90610471318E+02  0.21363782953E+03  0.23484086057E+03  0.00000000000E+00 0.  1.
<mgrwt>
<rscale>  0 0.17962108E+04</rscale>
<asrwt>0</asrwt>
<pdfrwt beam="1">  1        2 0.44911138E+00 0.17962108E+04</pdfrwt>
<pdfrwt beam="2">  1       -1 0.42508308E-01 0.17962108E+04</pdfrwt>
<totfact> 0.11483299E+01</totfact>
</mgrwt>
</event>
<event>
12    6  0.1530859E-007  0.1750313E+04  0.7818608E-02  0.8733178E-01
          2   -1    0    0  501    0  0.00000000000E+00  0.00000000000E+00  0.20170401351E+04  0.20170401351E+04  0.00000000000E+00 0. -1.
         -1   -1    0    0    0  501 -0.00000000000E+00 -0.00000000000E+00 -0.37971441881E+03  0.37971441881E+03  0.00000000000E+00 0.  1.
         24    2    1    2    0    0 -0.23687806895E+03  0.43700370423E+03  0.11489555683E+04  0.12543238983E+04  0.78396982311E+02 0.  0.
        254    2    1    2    0    0  0.23687806895E+03 -0.43700370423E+03  0.48837014803E+03  0.11424306557E+04  0.90529494886E+03 0.  0.
         23    2    4    4    0    0  0.63624908257E+02 -0.69449127160E+03  0.27772121677E+03  0.75669510232E+03  0.95352757482E+02 0.  0.
         23    2    4    4    0    0  0.17325316069E+03  0.25748756737E+03  0.21064893126E+03  0.38573555333E+03  0.90013553570E+02 0.  0.
          2    1    3    3  502    0 -0.49440399074E+02  0.86682550069E+02  0.16033858468E+03  0.18885623973E+03  0.00000000000E+00 0. -1.
         -1    1    3    3    0  502 -0.18743766988E+03  0.35032115416E+03  0.98861698359E+03  0.10654676585E+04  0.00000000000E+00 0.  1.
         11    1    5    5    0    0  0.11873506575E+02 -0.93739325064E+02  0.42014133763E+01  0.94581674209E+02  0.00000000000E+00 0.  1.
        -11    1    5    5    0    0  0.51751401682E+02 -0.60075194653E+03  0.27351980340E+03  0.66211342811E+03  0.00000000000E+00 0. -1.
          2    1    6    6  503    0  0.16725372071E+03  0.26126228065E+03  0.18969483320E+03  0.36361506586E+03  0.00000000000E+00 0. -1.
         -2    1    6    6    0  503  0.59994399802E+01 -0.37747132784E+01  0.20954098061E+02  0.22120487471E+02  0.00000000000E+00 0.  1.
<mgrwt>
<rscale>  0 0.17503134E+04</rscale>
<asrwt>0</asrwt>
<pdfrwt beam="1">  1        2 0.31031386E+00 0.17503134E+04</pdfrwt>
<pdfrwt beam="2">  1       -1 0.58417604E-01 0.17503134E+04</pdfrwt>
<totfact> 0.20953486E+01</totfact>
</mgrwt>
</event>
<event>
12    6  0.1530859E-007  0.1846482E+04  0.7818608E-02  0.8681964E-01
         -1   -1    0    0    0  501 -0.00000000000E+00  0.00000000000E+00  0.95509437267E+03  0.95509437267E+03  0.00000000000E+00 0.  1.
          2   -1    0    0  501    0  0.00000000000E+00 -0.00000000000E+00 -0.89244970833E+03  0.89244970833E+03  0.00000000000E+00 0. -1.
         24    2    1    2    0    0  0.47957421631E+03 -0.36218720405E+03  0.38237391441E+03  0.71679146962E+03  0.80057484233E+02 0.  0.
        254    2    1    2    0    0 -0.47957421631E+03  0.36218720405E+03 -0.31972925008E+03  0.11307526114E+04  0.90288630239E+03 0.  0.
         23    2    4    4    0    0 -0.55806342087E+03  0.51903785725E+02  0.11876494595E+03  0.58010030544E+03  0.91008061704E+02 0.  0.
         23    2    4    4    0    0  0.78489204564E+02  0.31028341832E+03 -0.43849419603E+03  0.55065230593E+03  0.92219559542E+02 0.  0.
          4    1    3    3  502    0  0.56037778356E+02 -0.30492414537E+02  0.15545204655E+02  0.65663333262E+02  0.00000000000E+00 0. -1.
         -3    1    3    3    0  502  0.42353643795E+03 -0.33169478951E+03  0.36682870976E+03  0.65112813636E+03  0.00000000000E+00 0.  1.
         11    1    5    5    0    0 -0.50545438069E+03  0.22222986855E+02  0.92945055707E+02  0.51440915183E+03  0.00000000000E+00 0. -1.
        -11    1    5    5    0    0 -0.52609040178E+02  0.29680798870E+02  0.25819890244E+02  0.65691153607E+02  0.00000000000E+00 0.  1.
          4    1    6    6  503    0  0.38096997698E+02  0.17887037069E+03 -0.17334945950E+03  0.25198417778E+03  0.00000000000E+00 0. -1.
         -4    1    6    6    0  503  0.40392206866E+02  0.13141304763E+03 -0.26514473653E+03  0.29866812815E+03  0.00000000000E+00 0.  1.
<mgrwt>
<rscale>  0 0.18464817E+04</rscale>
<asrwt>0</asrwt>
<pdfrwt beam="1">  1        2 0.13729995E+00 0.18464817E+04</pdfrwt>
<pdfrwt beam="2">  1       -1 0.14693760E+00 0.18464817E+04</pdfrwt>
<totfact> 0.11745141E+01</totfact>
</mgrwt>
</event>
<event>
12    6  0.1530859E-007  0.1583140E+04  0.7818608E-02  0.8830973E-01
         -1   -1    0    0    0  501 -0.00000000000E+00  0.00000000000E+00  0.37533197414E+03  0.37533197414E+03  0.00000000000E+00 0.  1.
          2   -1    0    0  501    0  0.00000000000E+00 -0.00000000000E+00 -0.16694101017E+04  0.16694101017E+04  0.00000000000E+00 0. -1.
         24    2    1    2    0    0  0.43658564037E+03  0.29593749313E+03 -0.33263291332E+03  0.62873182901E+03  0.80455183627E+02 0.  0.
        254    2    1    2    0    0 -0.43658564037E+03 -0.29593749313E+03 -0.96144521420E+03  0.14160102468E+04  0.89583597712E+03 0.  0.
         23    2    4    4    0    0 -0.41397710205E+02  0.10724472531E+03  0.12195462174E+03  0.19097619325E+03  0.91562957071E+02 0.  0.
         23    2    4    4    0    0 -0.39518793017E+03 -0.40318221844E+03 -0.10833998359E+04  0.12250340535E+04  0.90685315301E+02 0.  0.
          2    1    3    3  502    0  0.27149449563E+03  0.19258547034E+03 -0.25390901862E+03  0.41865046791E+03  0.00000000000E+00 0. -1.
         -1    1    3    3    0  502  0.16509114474E+03  0.10335202279E+03 -0.78723894699E+02  0.21008136111E+03  0.00000000000E+00 0.  1.
         11    1    5    5    0    0  0.51747516517E+01 -0.80562232651E+01  0.42139632419E+02  0.43213764108E+02  0.00000000000E+00 0.  1.
        -11    1    5    5    0    0 -0.46572461857E+02  0.11530094858E+03  0.79814989321E+02  0.14776242914E+03  0.00000000000E+00 0. -1.
          1    1    6    6  503    0 -0.77924344140E+02 -0.13078053418E+03 -0.25245281991E+03  0.29480192979E+03  0.00000000000E+00 0. -1.
         -1    1    6    6    0  503 -0.31726358603E+03 -0.27240168426E+03 -0.83094701603E+03  0.93023212375E+03  0.00000000000E+00 0.  1.
<mgrwt>
<rscale>  0 0.15831399E+04</rscale>
<asrwt>0</asrwt>
<pdfrwt beam="1">  1        2 0.25683233E+00 0.15831399E+04</pdfrwt>
<pdfrwt beam="2">  1       -1 0.57743380E-01 0.15831399E+04</pdfrwt>
<totfact> 0.33892351E+01</totfact>
</mgrwt>
</event>
<event>
12    6  0.1530859E-007  0.2962821E+04  0.7818608E-02  0.8254428E-01
          2   -1    0    0  501    0  0.00000000000E+00  0.00000000000E+00  0.16106685671E+04  0.16106685671E+04  0.00000000000E+00 0. -1.
         -1   -1    0    0    0  501 -0.00000000000E+00 -0.00000000000E+00 -0.13625258590E+04  0.13625258590E+04  0.00000000000E+00 0.  1.
         24    2    1    2    0    0  0.84881226655E+03  0.21332767214E+03  0.11445404926E+04  0.14431327141E+04  0.81658629861E+02 0.  0.
        254    2    1    2    0    0 -0.84881226655E+03 -0.21332767214E+03 -0.89639778457E+03  0.15300617120E+04  0.87838994458E+03 0.  0.
         23    2    4    4    0    0 -0.50670364184E+03 -0.45135972079E+03 -0.20008051691E+03  0.71325085361E+03  0.90666359423E+02 0.  0.
         23    2    4    4    0    0 -0.34210862471E+03  0.23803204865E+03 -0.69631726766E+03  0.81681085836E+03  0.92869121960E+02 0.  0.
          4    1    3    3  502    0  0.54552058781E+03  0.16808981640E+03  0.70333107667E+03  0.90582641908E+03  0.00000000000E+00 0. -1.
         -3    1    3    3    0  502  0.30329167874E+03  0.45237855738E+02  0.44120941592E+03  0.53730629503E+03  0.00000000000E+00 0.  1.
         11    1    5    5    0    0 -0.48064201479E+03 -0.40714382938E+03 -0.20309159930E+03  0.66183762502E+03  0.00000000000E+00 0. -1.
        -11    1    5    5    0    0 -0.26061627048E+02 -0.44215891407E+02  0.30110823900E+01  0.51413228594E+02  0.00000000000E+00 0.  1.
          1    1    6    6  503    0 -0.26922299125E+03  0.15807835928E+03 -0.44909040750E+03  0.54694787759E+03  0.00000000000E+00 0. -1.
         -1    1    6    6    0  503 -0.72885633466E+02  0.79953689375E+02 -0.24722686016E+03  0.26986298078E+03  0.00000000000E+00 0.  1.
<mgrwt>
<rscale>  0 0.29628213E+04</rscale>
<asrwt>0</asrwt>
<pdfrwt beam="1">  1        2 0.24779516E+00 0.29628213E+04</pdfrwt>
<pdfrwt beam="2">  1       -1 0.20961936E+00 0.29628213E+04</pdfrwt>
<totfact> 0.13905697E+00</totfact>
</mgrwt>
</event>
<event>
12    6  0.1530859E-007  0.1545007E+04  0.7818608E-02  0.8855063E-01
         -1   -1    0    0    0  501 -0.00000000000E+00  0.00000000000E+00  0.46886443185E+03  0.46886443185E+03  0.00000000000E+00 0.  1.
          2   -1    0    0  501    0  0.00000000000E+00 -0.00000000000E+00 -0.12727806211E+04  0.12727806211E+04  0.00000000000E+00 0. -1.
         24    2    1    2    0    0  0.49478020378E+03 -0.28079317973E+02 -0.71445102432E+02  0.51153457865E+03  0.10472499384E+03 0.  0.
        254    2    1    2    0    0 -0.49478020378E+03  0.28079317973E+02 -0.73247108683E+03  0.12301104743E+04  0.85502163002E+03 0.  0.
         23    2    4    4    0    0 -0.23001330256E+03 -0.39960995975E+03 -0.42743942065E+03  0.63500294758E+03  0.89050804723E+02 0.  0.
         23    2    4    4    0    0 -0.26476690123E+03  0.42768927772E+03 -0.30503166617E+03  0.59510752673E+03  0.89938983396E+02 0.  0.
          2    1    3    3  502    0  0.26274618304E+03 -0.23505749728E+02  0.14148270401E+02  0.26417465913E+03  0.00000000000E+00 0. -1.
         -1    1    3    3    0  502  0.23203402074E+03 -0.45735682443E+01 -0.85593372833E+02  0.24735991951E+03  0.00000000000E+00 0.  1.
         11    1    5    5    0    0 -0.23429609400E+03 -0.36886819472E+03 -0.38479666229E+03  0.58226014465E+03  0.00000000000E+00 0.  1.
        -11    1    5    5    0    0  0.42827914453E+01 -0.30741765027E+02 -0.42642758368E+02  0.52742802929E+02  0.00000000000E+00 0. -1.
          2    1    6    6  503    0 -0.26622152342E+03  0.38423494210E+03 -0.27653674287E+03  0.54312333813E+03  0.00000000000E+00 0. -1.
         -2    1    6    6    0  503  0.14546221939E+01  0.43454335622E+02 -0.28494923307E+02  0.51984188600E+02  0.00000000000E+00 0.  1.
<mgrwt>
<rscale>  0 0.15450069E+04</rscale>
<asrwt>0</asrwt>
<pdfrwt beam="1">  1        2 0.19581240E+00 0.15450069E+04</pdfrwt>
<pdfrwt beam="2">  1       -1 0.72132989E-01 0.15450069E+04</pdfrwt>
<totfact> 0.36510741E+01</totfact>
</mgrwt>
</event>
<event>
12    6  0.1530859E-007  0.2774749E+04  0.7818608E-02  0.8311151E-01
          2   -1    0    0  501    0  0.00000000000E+00  0.00000000000E+00  0.14944843798E+04  0.14944843798E+04  0.00000000000E+00 0. -1.
         -1   -1    0    0    0  501 -0.00000000000E+00 -0.00000000000E+00 -0.12879408550E+04  0.12879408550E+04  0.00000000000E+00 0.  1.
         24    2    1    2    0    0  0.19639760619E+03 -0.90784363663E+03 -0.73094231041E+03  0.11852577287E+04  0.88357987140E+02 0.  0.
        254    2    1    2    0    0 -0.19639760619E+03  0.90784363663E+03  0.93748583522E+03  0.15971675061E+04  0.89961784285E+03 0.  0.
         23    2    4    4    0    0  0.65528260694E+02  0.12531213852E+03 -0.15262545428E+03  0.22719151052E+03  0.91237975362E+02 0.  0.
         23    2    4    4    0    0 -0.26192586689E+03  0.78253149811E+03  0.10901112895E+04  0.13699759956E+04  0.86780757284E+02 0.  0.
          2    1    3    3  502    0  0.46676656721E+02 -0.12830156629E+03 -0.14086367320E+03  0.19616976480E+03  0.00000000000E+00 0. -1.
         -1    1    3    3    0  502  0.14972094947E+03 -0.77954207034E+03 -0.59007863722E+03  0.98908796385E+03  0.00000000000E+00 0.  1.
         11    1    5    5    0    0  0.20281130594E+02  0.53778990327E+01 -0.73764124983E+02  0.76690235302E+02  0.00000000000E+00 0. -1.
        -11    1    5    5    0    0  0.45247130101E+02  0.11993423949E+03 -0.78861329294E+02  0.15050127522E+03  0.00000000000E+00 0.  1.
          2    1    6    6  503    0 -0.66582767276E+02  0.31924273507E+03  0.39876029758E+03  0.51513004544E+03  0.00000000000E+00 0. -1.
         -2    1    6    6    0  503 -0.19534309961E+03  0.46328876304E+03  0.69135099192E+03  0.85484595019E+03  0.00000000000E+00 0.  1.
<mgrwt>
<rscale>  0 0.27747486E+04</rscale>
<asrwt>0</asrwt>
<pdfrwt beam="1">  1        2 0.22992067E+00 0.27747486E+04</pdfrwt>
<pdfrwt beam="2">  1       -1 0.19814475E+00 0.27747486E+04</pdfrwt>
<totfact> 0.19681054E+00</totfact>
</mgrwt>
</event>
<event>
12    6  0.1530859E-007  0.1368958E+04  0.7818608E-02  0.8976600E-01
         -1   -1    0    0    0  501 -0.00000000000E+00  0.00000000000E+00  0.74478562234E+03  0.74478562234E+03  0.00000000000E+00 0.  1.
          2   -1    0    0  501    0  0.00000000000E+00 -0.00000000000E+00 -0.62905520191E+03  0.62905520191E+03  0.00000000000E+00 0. -1.
         24    2    1    2    0    0 -0.70178364514E+02 -0.21835485224E+03  0.34614782589E+03  0.42307462057E+03  0.81055369092E+02 0.  0.
        254    2    1    2    0    0  0.70178364514E+02  0.21835485224E+03 -0.23041740546E+03  0.95076620369E+03  0.89345416726E+03 0.  0.
         23    2    4    4    0    0 -0.32956272511E+03  0.32215844699E+02 -0.34366504592E+03  0.48630656762E+03  0.93482423435E+02 0.  0.
         23    2    4    4    0    0  0.39974108963E+03  0.18613900755E+03  0.11324764046E+03  0.46445963607E+03  0.91962256388E+02 0.  0.
          2    1    3    3  502    0  0.14057362359E+02 -0.76001865010E+02  0.12385881035E+03  0.14599622538E+03  0.00000000000E+00 0. -1.
         -1    1    3    3    0  502 -0.84235726873E+02 -0.14235298723E+03  0.22228901553E+03  0.27707839519E+03  0.00000000000E+00 0.  1.
         11    1    5    5    0    0 -0.17190128131E+03 -0.29223623183E+02 -0.16131817433E+03  0.23754499371E+03  0.00000000000E+00 0. -1.
        -11    1    5    5    0    0 -0.15766144380E+03  0.61439467882E+02 -0.18234687159E+03  0.24876157391E+03  0.00000000000E+00 0.  1.
          3    1    6    6  503    0  0.53161053113E+01 -0.96353500919E+00 -0.95432872733E+01  0.10966481084E+02  0.00000000000E+00 0. -1.
         -3    1    6    6    0  503  0.39442498431E+03  0.18710254255E+03  0.12279092774E+03  0.45349315498E+03  0.00000000000E+00 0.  1.
<mgrwt>
<rscale>  0 0.13689577E+04</rscale>
<asrwt>0</asrwt>
<pdfrwt beam="1">  1        2 0.96777724E-01 0.13689577E+04</pdfrwt>
<pdfrwt beam="2">  1       -1 0.11458240E+00 0.13689577E+04</pdfrwt>
<totfact> 0.36146176E+01</totfact>
</mgrwt>
</event>
<event>
12    6  0.1530859E-007  0.1468071E+04  0.7818608E-02  0.8905967E-01
         -3   -1    0    0    0  501 -0.00000000000E+00  0.00000000000E+00  0.16104341308E+04  0.16104341308E+04  0.00000000000E+00 0.  1.
          4   -1    0    0  501    0  0.00000000000E+00 -0.00000000000E+00 -0.33457343194E+03  0.33457343194E+03  0.00000000000E+00 0. -1.
         24    2    1    2    0    0  0.20065508436E+03 -0.15446318164E+03  0.89459196539E+03  0.93317860299E+03  0.80038635566E+02 0.  0.
        254    2    1    2    0    0 -0.20065508436E+03  0.15446318164E+03  0.38126873343E+03  0.10118289597E+04  0.90239163296E+03 0.  0.
         23    2    4    4    0    0 -0.42132214193E+03  0.40461221030E+03  0.23666435451E+03  0.63704283258E+03  0.92683147579E+02 0.  0.
         23    2    4    4    0    0  0.22066705757E+03 -0.25014902866E+03  0.14460437892E+03  0.37478612712E+03  0.91025973465E+02 0.  0.
          4    1    3    3  502    0  0.50119136842E+02 -0.72516693563E+02  0.40410530799E+03  0.41360814627E+03  0.00000000000E+00 0. -1.
         -3    1    3    3    0  502  0.15053594751E+03 -0.81946488079E+02  0.49048665740E+03  0.51957045672E+03  0.00000000000E+00 0.  1.
         11    1    5    5    0    0 -0.39995726123E+03  0.39167146672E+03  0.24450296033E+03  0.61086336137E+03  0.00000000000E+00 0.  1.
        -11    1    5    5    0    0 -0.21364880699E+02  0.12940743576E+02 -0.78386058219E+01  0.26179471209E+02  0.00000000000E+00 0. -1.
          3    1    6    6  503    0  0.82066968349E+01  0.79744122336E+01  0.52238010379E+01  0.12578919695E+02  0.00000000000E+00 0. -1.
         -3    1    6    6    0  503  0.21246036073E+03 -0.25812344089E+03  0.13938057788E+03  0.36220720742E+03  0.00000000000E+00 0.  1.
<mgrwt>
<rscale>  0 0.14680715E+04</rscale>
<asrwt>0</asrwt>
<pdfrwt beam="1">  1        4 0.51472837E-01 0.14680715E+04</pdfrwt>
<pdfrwt beam="2">  1       -3 0.24775909E+00 0.14680715E+04</pdfrwt>
<totfact> 0.60839478E-01</totfact>
</mgrwt>
</event>
<event>
12    6  0.1530859E-007  0.1740746E+04  0.7818608E-02  0.8738461E-01
         -1   -1    0    0    0  501 -0.00000000000E+00  0.00000000000E+00  0.31523340354E+03  0.31523340354E+03  0.00000000000E+00 0.  1.
          2   -1    0    0  501    0  0.00000000000E+00 -0.00000000000E+00 -0.24031365000E+04  0.24031365000E+04  0.00000000000E+00 0. -1.
         24    2    1    2    0    0 -0.44259253492E+03  0.42039852106E+03 -0.88395781470E+03  0.10772261650E+04  0.80073240596E+02 0.  0.
        254    2    1    2    0    0  0.44259253492E+03 -0.42039852106E+03 -0.12039452817E+04  0.16411437385E+04  0.93340530354E+03 0.  0.
         23    2    4    4    0    0 -0.27250865764E+03 -0.17548413852E+02 -0.30363208526E+03  0.41962682959E+03  0.96567684012E+02 0.  0.
         23    2    4    4    0    0  0.71510119256E+03 -0.40285010721E+03 -0.90031319647E+03  0.12215169090E+04  0.88779404342E+02 0.  0.
          2    1    3    3  502    0 -0.32968046824E+03  0.31716065269E+03 -0.59804697429E+03  0.75295436396E+03  0.00000000000E+00 0. -1.
         -1    1    3    3    0  502 -0.11291206668E+03  0.10323786837E+03 -0.28591084040E+03  0.32427180101E+03  0.00000000000E+00 0.  1.
         11    1    5    5    0    0 -0.21930201933E+03  0.26066479766E+02 -0.23104469339E+03  0.31961615634E+03  0.00000000000E+00 0.  1.
        -11    1    5    5    0    0 -0.53206638306E+02 -0.43614893618E+02 -0.72587391872E+02  0.10001067325E+03  0.00000000000E+00 0. -1.
          1    1    6    6  503    0  0.22203877627E+03 -0.79896638076E+02 -0.26846085700E+03  0.35742960521E+03  0.00000000000E+00 0. -1.
         -1    1    6    6    0  503  0.49306241629E+03 -0.32295346913E+03 -0.63185233947E+03  0.86408730374E+03  0.00000000000E+00 0.  1.
<mgrwt>
<rscale>  0 0.17407457E+04</rscale>
<asrwt>0</asrwt>
<pdfrwt beam="1">  1        2 0.36971332E+00 0.17407457E+04</pdfrwt>
<pdfrwt beam="2">  1       -1 0.48497445E-01 0.17407457E+04</pdfrwt>
<totfact> 0.18207942E+01</totfact>
</mgrwt>
</event>
<event>
12    6  0.1530859E-007  0.2856393E+04  0.7818608E-02  0.8285971E-01
         -1   -1    0    0    0  501 -0.00000000000E+00  0.00000000000E+00  0.11351575002E+04  0.11351575002E+04  0.00000000000E+00 0.  1.
          2   -1    0    0  501    0  0.00000000000E+00 -0.00000000000E+00 -0.17968829928E+04  0.17968829928E+04  0.00000000000E+00 0. -1.
         24    2    1    2    0    0  0.13301806253E+03  0.92093381731E+03 -0.12076673706E+04  0.15266554439E+04  0.80021657860E+02 0.  0.
        254    2    1    2    0    0 -0.13301806253E+03 -0.92093381731E+03  0.54594187799E+03  0.14053850491E+04  0.90068956982E+03 0.  0.
         23    2    4    4    0    0  0.83623821019E+02 -0.66661387297E+03 -0.86891130727E+02  0.68358112553E+03  0.91466318970E+02 0.  0.
         23    2    4    4    0    0 -0.21664188354E+03 -0.25431994434E+03  0.63283300872E+03  0.72180392354E+03  0.94397814151E+02 0.  0.
          4    1    3    3  502    0  0.70796210974E+02  0.62389165020E+03 -0.86577150510E+03  0.10694920260E+04  0.00000000000E+00 0. -1.
         -1    1    3    3    0  502  0.62221851551E+02  0.29704216710E+03 -0.34189586546E+03  0.45716341790E+03  0.00000000000E+00 0.  1.
         11    1    5    5    0    0  0.40419601766E+02 -0.78211946013E+02 -0.99562548653E+01  0.88600111270E+02  0.00000000000E+00 0.  1.
        -11    1    5    5    0    0  0.43204219253E+02 -0.58840192696E+03 -0.76934875862E+02  0.59498101426E+03  0.00000000000E+00 0. -1.
          3    1    6    6  503    0 -0.21391333115E+03 -0.25894106065E+03  0.63282947286E+03  0.71643738586E+03  0.00000000000E+00 0. -1.
         -3    1    6    6    0  503 -0.27285523966E+01  0.46211163147E+01  0.35358597812E-02  0.53665376806E+01  0.00000000000E+00 0.  1.
<mgrwt>
<rscale>  0 0.28563930E+04</rscale>
<asrwt>0</asrwt>
<pdfrwt beam="1">  1        2 0.27644354E+00 0.28563930E+04</pdfrwt>
<pdfrwt beam="2">  1       -1 0.17463962E+00 0.28563930E+04</pdfrwt>
<totfact> 0.19433357E+00</totfact>
</mgrwt>
</event>
<event>
12    6  0.1530859E-007  0.1753182E+04  0.7818608E-02  0.8731601E-01
          2   -1    0    0  501    0  0.00000000000E+00  0.00000000000E+00  0.43215646027E+03  0.43215646027E+03  0.00000000000E+00 0. -1.
         -1   -1    0    0    0  501 -0.00000000000E+00 -0.00000000000E+00 -0.17780876031E+04  0.17780876031E+04  0.00000000000E+00 0.  1.
         24    2    1    2    0    0  0.83738886440E+02 -0.18919439291E+03 -0.12663098035E+04  0.12856994816E+04  0.81706297479E+02 0.  0.
        254    2    1    2    0    0 -0.83738886440E+02  0.18919439291E+03 -0.79621339246E+02  0.92454458173E+03  0.89757250767E+03 0.  0.
         23    2    4    4    0    0 -0.63204774423E+02  0.54072545761E+03  0.16200321718E+01  0.55202413803E+03  0.91373740447E+02 0.  0.
         23    2    4    4    0    0 -0.20534112017E+02 -0.35153106470E+03 -0.81241371418E+02  0.37252044370E+03  0.90418921342E+02 0.  0.
          4    1    3    3  502    0  0.32134801160E+02 -0.47873715625E+02 -0.59245456093E+03  0.59525368110E+03  0.00000000000E+00 0. -1.
         -3    1    3    3    0  502  0.51604085281E+02 -0.14132067728E+03 -0.67385524260E+03  0.69044580050E+03  0.00000000000E+00 0.  1.
         11    1    5    5    0    0 -0.23834389970E+02  0.29378313571E+03  0.45199991695E+02  0.29819397750E+03  0.00000000000E+00 0.  1.
        -11    1    5    5    0    0 -0.39370384454E+02  0.24694232190E+03 -0.43579959523E+02  0.25383016052E+03  0.00000000000E+00 0. -1.
          1    1    6    6  503    0 -0.15371761114E+02 -0.23972374880E+03 -0.97826475052E+02  0.25937190672E+03  0.00000000000E+00 0. -1.
         -1    1    6    6    0  503 -0.51623509027E+01 -0.11180731591E+03  0.16585103634E+02  0.11314853697E+03  0.00000000000E+00 0.  1.
<mgrwt>
<rscale>  0 0.17531823E+04</rscale>
<asrwt>0</asrwt>
<pdfrwt beam="1">  1        2 0.66485609E-01 0.17531823E+04</pdfrwt>
<pdfrwt beam="2">  1       -1 0.27355194E+00 0.17531823E+04</pdfrwt>
<totfact> 0.38689864E+00</totfact>
</mgrwt>
</event>
<event>
12    6  0.1530859E-007  0.1210554E+04  0.7818608E-02  0.9103669E-01
          2   -1    0    0  501    0  0.00000000000E+00  0.00000000000E+00  0.14925206821E+04  0.14925206821E+04  0.00000000000E+00 0. -1.
         -1   -1    0    0    0  501 -0.00000000000E+00 -0.00000000000E+00 -0.24546405132E+03  0.24546405132E+03  0.00000000000E+00 0.  1.
         24    2    1    2    0    0 -0.26071601010E+03  0.81715412188E+01  0.15510788298E+03  0.31235220513E+03  0.73931269970E+02 0.  0.
        254    2    1    2    0    0  0.26071601010E+03 -0.81715412188E+01  0.10919487477E+04  0.14256325282E+04  0.87865603388E+03 0.  0.
         23    2    4    4    0    0 -0.12946915467E+03 -0.30899641843E+03  0.72904511435E+03  0.80697732077E+03  0.86397736427E+02 0.  0.
         23    2    4    4    0    0  0.39018516477E+03  0.30082487721E+03  0.36290363339E+03  0.61865520747E+03  0.91077708877E+02 0.  0.
          2    1    3    3  502    0 -0.32158529355E+02  0.19059821782E+02  0.44760059518E+02  0.58317327997E+02  0.00000000000E+00 0. -1.
         -1    1    3    3    0  502 -0.22855748074E+03 -0.10888280563E+02  0.11034782347E+03  0.25403487714E+03  0.00000000000E+00 0.  1.
         11    1    5    5    0    0 -0.58186111014E+02 -0.50971583760E+02  0.18935667883E+03  0.20454749493E+03  0.00000000000E+00 0.  1.
        -11    1    5    5    0    0 -0.71283043657E+02 -0.25802483467E+03  0.53968843552E+03  0.60242982584E+03  0.00000000000E+00 0. -1.
          1    1    6    6  503    0  0.29017150929E+03  0.18289765988E+03  0.21585447346E+03  0.40527054237E+03  0.00000000000E+00 0. -1.
         -1    1    6    6    0  503  0.10001365548E+03  0.11792721732E+03  0.14704915993E+03  0.21338466511E+03  0.00000000000E+00 0.  1.
<mgrwt>
<rscale>  0 0.12105539E+04</rscale>
<asrwt>0</asrwt>
<pdfrwt beam="1">  1        2 0.22961856E+00 0.12105539E+04</pdfrwt>
<pdfrwt beam="2">  1       -1 0.37763701E-01 0.12105539E+04</pdfrwt>
<totfact> 0.97380976E+01</totfact>
</mgrwt>
</event>
<event>
12    6  0.1530859E-007  0.2100170E+04  0.7818608E-02  0.8561168E-01
         -1   -1    0    0    0  501 -0.00000000000E+00  0.00000000000E+00  0.29784964173E+03  0.29784964173E+03  0.00000000000E+00 0.  1.
          2   -1    0    0  501    0  0.00000000000E+00 -0.00000000000E+00 -0.37021315304E+04  0.37021315304E+04  0.00000000000E+00 0. -1.
         24    2    1    2    0    0  0.25594536154E+03  0.44854178997E+03 -0.93560365410E+02  0.53108886667E+03  0.81265471638E+02 0.  0.
        254    2    1    2    0    0 -0.25594536154E+03 -0.44854178997E+03 -0.33107215232E+04  0.34688923054E+04  0.89757398407E+03 0.  0.
         23    2    4    4    0    0 -0.50842734947E+03 -0.80331237284E+02 -0.23229940133E+04  0.23810653427E+04  0.90661474305E+02 0.  0.
         23    2    4    4    0    0  0.25248198793E+03 -0.36821055269E+03 -0.98772750994E+03  0.10878269628E+04  0.91846076038E+02 0.  0.
          2    1    3    3  502    0  0.77577796287E+02  0.82849915461E+02 -0.41725642951E+02  0.12092746689E+03  0.00000000000E+00 0. -1.
         -1    1    3    3    0  502  0.17836756525E+03  0.36569187451E+03 -0.51834722459E+02  0.41016139978E+03  0.00000000000E+00 0.  1.
         11    1    5    5    0    0 -0.12560842982E+03 -0.51645876561E+02 -0.50205526428E+03  0.52010024284E+03  0.00000000000E+00 0.  1.
        -11    1    5    5    0    0 -0.38281891965E+03 -0.28685360723E+02 -0.18209387490E+04  0.18609650998E+04  0.00000000000E+00 0. -1.
          2    1    6    6  503    0  0.10822372870E+03 -0.17843528399E+03 -0.35654086278E+03  0.41312578333E+03  0.00000000000E+00 0.  1.
         -2    1    6    6    0  503  0.14425825923E+03 -0.18977526870E+03 -0.63118664717E+03  0.67470117943E+03  0.00000000000E+00 0. -1.
<mgrwt>
<rscale>  0 0.21001700E+04</rscale>
<asrwt>0</asrwt>
<pdfrwt beam="1">  1        2 0.56955869E+00 0.21001700E+04</pdfrwt>
<pdfrwt beam="2">  1       -1 0.45823022E-01 0.21001700E+04</pdfrwt>
<totfact> 0.29049427E+00</totfact>
</mgrwt>
</event>
<event>
12    6  0.1530859E-007  0.2392183E+04  0.7818608E-02  0.8442436E-01
          2   -1    0    0  501    0  0.00000000000E+00  0.00000000000E+00  0.20095690036E+04  0.20095690036E+04  0.00000000000E+00 0. -1.
         -1   -1    0    0    0  501 -0.00000000000E+00 -0.00000000000E+00 -0.71191137617E+03  0.71191137617E+03  0.00000000000E+00 0.  1.
         24    2    1    2    0    0  0.94405060293E+02  0.10150961078E+04  0.71890157557E+03  0.12499005976E+04  0.78099967770E+02 0.  0.
        254    2    1    2    0    0 -0.94405060293E+02 -0.10150961078E+04  0.57875605181E+03  0.14715797822E+04  0.88952575243E+03 0.  0.
         23    2    4    4    0    0 -0.30084147855E+03 -0.87106976423E+03  0.71642052123E+03  0.11706429603E+04  0.88760621864E+02 0.  0.
         23    2    4    4    0    0  0.20643641825E+03 -0.14402634357E+03 -0.13766446942E+03  0.30093682181E+03  0.90839870957E+02 0.  0.
          2    1    3    3  502    0  0.36433930620E+02  0.52029271303E+03  0.41309965969E+03  0.66534447272E+03  0.00000000000E+00 0. -1.
         -1    1    3    3    0  502  0.57971129673E+02  0.49480339477E+03  0.30580191588E+03  0.58455612485E+03  0.00000000000E+00 0.  1.
         11    1    5    5    0    0 -0.26241274009E+03 -0.64921070017E+03  0.55707414393E+03  0.89479974363E+03  0.00000000000E+00 0. -1.
        -11    1    5    5    0    0 -0.38428738457E+02 -0.22185906406E+03  0.15934637730E+03  0.27584321671E+03  0.00000000000E+00 0.  1.
          3    1    6    6  503    0  0.19734723801E+03 -0.14970113004E+03 -0.10954319803E+03  0.27084326264E+03  0.00000000000E+00 0. -1.
         -3    1    6    6    0  503  0.90891802465E+01  0.56747864645E+01 -0.28121271384E+02  0.30093559165E+02  0.00000000000E+00 0.  1.
<mgrwt>
<rscale>  0 0.23921831E+04</rscale>
<asrwt>0</asrwt>
<pdfrwt beam="1">  1        2 0.30916446E+00 0.23921831E+04</pdfrwt>
<pdfrwt beam="2">  1       -1 0.10952483E+00 0.23921831E+04</pdfrwt>
<totfact> 0.52102744E+00</totfact>
</mgrwt>
</event>
<event>
12    6  0.1530859E-007  0.1834934E+04  0.7818608E-02  0.8687939E-01
          2   -1    0    0  501    0  0.00000000000E+00  0.00000000000E+00  0.37477949897E+04  0.37477949897E+04  0.00000000000E+00 0. -1.
         -3   -1    0    0    0  501 -0.00000000000E+00 -0.00000000000E+00 -0.22459760207E+03  0.22459760207E+03  0.00000000000E+00 0.  1.
         24    2    1    2    0    0  0.44313492497E+03 -0.30902888368E+02  0.20792512137E+03  0.49677651109E+03  0.78933488676E+02 0.  0.
        254    2    1    2    0    0 -0.44313492497E+03  0.30902888368E+02  0.33152722662E+04  0.34756160806E+04  0.94422104962E+03 0.  0.
         23    2    4    4    0    0 -0.31766397331E+02  0.15558494145E+03  0.27671082087E+04  0.27731883794E+04  0.92033531482E+02 0.  0.
         23    2    4    4    0    0 -0.41136852764E+03 -0.12468205309E+03  0.54816405755E+03  0.70242770128E+03  0.90283783894E+02 0.  0.
          2    1    3    3  502    0  0.12633334777E+03 -0.31909263985E+02  0.31079577819E+02  0.13395617210E+03  0.00000000000E+00 0. -1.
         -1    1    3    3    0  502  0.31680157720E+03  0.10063756171E+01  0.17684554355E+03  0.36282033899E+03  0.00000000000E+00 0.  1.
         11    1    5    5    0    0 -0.27352321455E+02  0.24667288832E+02  0.25267666938E+03  0.25534706553E+03  0.00000000000E+00 0.  1.
        -11    1    5    5    0    0 -0.44140758764E+01  0.13091765262E+03  0.25144315393E+04  0.25178413138E+04  0.00000000000E+00 0. -1.
          4    1    6    6  503    0 -0.33233926103E+03 -0.13630911626E+03  0.44146858670E+03  0.56914327953E+03  0.00000000000E+00 0. -1.
         -4    1    6    6    0  503 -0.79029266607E+02  0.11627063168E+02  0.10669547085E+03  0.13328442174E+03  0.00000000000E+00 0.  1.
<mgrwt>
<rscale>  0 0.18349341E+04</rscale>
<asrwt>0</asrwt>
<pdfrwt beam="1">  1        2 0.57658380E+00 0.18349341E+04</pdfrwt>
<pdfrwt beam="2">  1       -3 0.34553480E-01 0.18349341E+04</pdfrwt>
<totfact> 0.27521689E+00</totfact>
</mgrwt>
</event>
<event>
12    6  0.1530859E-007  0.1831887E+04  0.7818608E-02  0.8689524E-01
         -1   -1    0    0    0  501 -0.00000000000E+00  0.00000000000E+00  0.72202497779E+03  0.72202497779E+03  0.00000000000E+00 0.  1.
          2   -1    0    0  501    0  0.00000000000E+00 -0.00000000000E+00 -0.11619436569E+04  0.11619436569E+04  0.00000000000E+00 0. -1.
         24    2    1    2    0    0 -0.24132779175E+03  0.28486416859E+03 -0.74389528797E+03  0.83617879489E+03  0.80175307476E+02 0.  0.
        254    2    1    2    0    0  0.24132779175E+03 -0.28486416859E+03  0.30397660883E+03  0.10477898398E+04  0.93063154478E+03 0.  0.
         23    2    4    4    0    0  0.54587864199E+03 -0.37336491390E+03  0.23249225792E+03  0.70731798547E+03  0.94134116380E+02 0.  0.
         23    2    4    4    0    0 -0.30455085024E+03  0.88500745304E+02  0.71484350911E+02  0.34047185437E+03  0.10113094923E+03 0.  0.
          2    1    3    3  502    0 -0.24143868931E+03  0.25462114959E+03 -0.69764501639E+03  0.78091813873E+03  0.00000000000E+00 0. -1.
         -1    1    3    3    0  502  0.11089755340E+00  0.30243019005E+02 -0.46250271584E+02  0.55260656152E+02  0.00000000000E+00 0.  1.
         11    1    5    5    0    0  0.31492559082E+03 -0.25463599250E+03  0.17588854225E+03  0.44153640362E+03  0.00000000000E+00 0. -1.
        -11    1    5    5    0    0  0.23095305117E+03 -0.11872892139E+03  0.56603715670E+02  0.26578158185E+03  0.00000000000E+00 0.  1.
          2    1    6    6  503    0 -0.22631415072E+03  0.10315505890E+03  0.29435691618E+02  0.25045063572E+03  0.00000000000E+00 0. -1.
         -2    1    6    6    0  503 -0.78236699519E+02 -0.14654313593E+02  0.42048659293E+02  0.90021218648E+02  0.00000000000E+00 0.  1.
<mgrwt>
<rscale>  0 0.18318868E+04</rscale>
<asrwt>0</asrwt>
<pdfrwt beam="1">  1        2 0.17876056E+00 0.18318868E+04</pdfrwt>
<pdfrwt beam="2">  1       -1 0.11108077E+00 0.18318868E+04</pdfrwt>
<totfact> 0.15989949E+01</totfact>
</mgrwt>
</event>
<event>
12    6  0.1530859E-007  0.2183250E+04  0.7818608E-02  0.8525432E-01
         -1   -1    0    0    0  501 -0.00000000000E+00  0.00000000000E+00  0.75847292148E+03  0.75847292148E+03  0.00000000000E+00 0.  1.
          2   -1    0    0  501    0  0.00000000000E+00 -0.00000000000E+00 -0.15711107582E+04  0.15711107582E+04  0.00000000000E+00 0. -1.
         24    2    1    2    0    0  0.28377813435E+03 -0.69690217109E+03  0.20484602013E+03  0.78417042163E+03  0.82211268057E+02 0.  0.
        254    2    1    2    0    0 -0.28377813435E+03  0.69690217109E+03 -0.10174838569E+04  0.15454132581E+04  0.88703217167E+03 0.  0.
         23    2    4    4    0    0  0.25701317708E+03 -0.77948778894E+00 -0.18697823556E+03  0.32996225120E+03  0.88644491371E+02 0.  0.
         23    2    4    4    0    0 -0.54079131143E+03  0.69768165888E+03 -0.83050562130E+03  0.12154510069E+04  0.91469248318E+02 0.  0.
          2    1    3    3  502    0  0.43054584868E+02 -0.19718531146E+03  0.42937958023E+02  0.20634779517E+03  0.00000000000E+00 0. -1.
         -1    1    3    3    0  502  0.24072354948E+03 -0.49971685964E+03  0.16190806211E+03  0.57782262646E+03  0.00000000000E+00 0.  1.
         11    1    5    5    0    0  0.85599615026E+01 -0.14018076459E+01 -0.40766237870E+02  0.41678821429E+02  0.00000000000E+00 0. -1.
        -11    1    5    5    0    0  0.24845321558E+03  0.62231985697E+00 -0.14621199769E+03  0.28828342977E+03  0.00000000000E+00 0.  1.
          1    1    6    6  503    0 -0.30676351298E+03  0.45217930993E+03 -0.55032165728E+03  0.77551525304E+03  0.00000000000E+00 0. -1.
         -1    1    6    6    0  503 -0.23402779845E+03  0.24550234895E+03 -0.28018396402E+03  0.43993575381E+03  0.00000000000E+00 0.  1.
<mgrwt>
<rscale>  0 0.21832498E+04</rscale>
<asrwt>0</asrwt>
<pdfrwt beam="1">  1        2 0.24170935E+00 0.21832498E+04</pdfrwt>
<pdfrwt beam="2">  1       -1 0.11668814E+00 0.21832498E+04</pdfrwt>
<totfact> 0.79982871E+00</totfact>
</mgrwt>
</event>
<event>
12    6  0.1530859E-007  0.1894205E+04  0.7818608E-02  0.8657746E-01
          2   -1    0    0  501    0  0.00000000000E+00  0.00000000000E+00  0.10820306165E+04  0.10820306165E+04  0.00000000000E+00 0. -1.
         -1   -1    0    0    0  501 -0.00000000000E+00 -0.00000000000E+00 -0.82899969140E+03  0.82899969140E+03  0.00000000000E+00 0.  1.
         24    2    1    2    0    0  0.46658778350E+03  0.11917947755E+03  0.65269604996E+03  0.81455354181E+03  0.74682201721E+02 0.  0.
        254    2    1    2    0    0 -0.46658778350E+03 -0.11917947755E+03 -0.39966512487E+03  0.10964767661E+04  0.90034503327E+03 0.  0.
         23    2    4    4    0    0 -0.40345171584E+03  0.35814949609E+02 -0.65663835039E+03  0.77623165351E+03  0.85473148308E+02 0.  0.
         23    2    4    4    0    0 -0.63136067665E+02 -0.15499442716E+03  0.25697322551E+03  0.32024511257E+03  0.92261898980E+02 0.  0.
          4    1    3    3  502    0  0.34411939438E+03  0.53495571048E+02  0.47396443059E+03  0.58815152400E+03  0.00000000000E+00 0. -1.
         -3    1    3    3    0  502  0.12246838912E+03  0.65683906504E+02  0.17873161937E+03  0.22640201781E+03  0.00000000000E+00 0.  1.
         11    1    5    5    0    0 -0.22231594976E+03 -0.14625122439E+02 -0.40318905244E+03  0.46065137331E+03  0.00000000000E+00 0. -1.
        -11    1    5    5    0    0 -0.18113576608E+03  0.50440072049E+02 -0.25344929795E+03  0.31558028020E+03  0.00000000000E+00 0.  1.
          1    1    6    6  503    0 -0.59795806504E+02 -0.44362039852E+02  0.14387626330E+03  0.16199971666E+03  0.00000000000E+00 0. -1.
         -1    1    6    6    0  503 -0.33402611607E+01 -0.11063238731E+03  0.11309696221E+03  0.15824539591E+03  0.00000000000E+00 0.  1.
<mgrwt>
<rscale>  0 0.18942049E+04</rscale>
<asrwt>0</asrwt>
<pdfrwt beam="1">  1        2 0.16646625E+00 0.18942049E+04</pdfrwt>
<pdfrwt beam="2">  1       -1 0.12753841E+00 0.18942049E+04</pdfrwt>
<totfact> 0.12713953E+01</totfact>
</mgrwt>
</event>
<event>
12    6  0.1530859E-007  0.1531909E+04  0.7818608E-02  0.8863507E-01
         -1   -1    0    0    0  501 -0.00000000000E+00  0.00000000000E+00  0.25160174398E+03  0.25160174398E+03  0.00000000000E+00 0.  1.
          2   -1    0    0  501    0  0.00000000000E+00 -0.00000000000E+00 -0.23318052975E+04  0.23318052975E+04  0.00000000000E+00 0. -1.
         24    2    1    2    0    0 -0.27610768733E+03  0.36283258024E+03 -0.31695882899E+03  0.56096501919E+03  0.79598474830E+02 0.  0.
        254    2    1    2    0    0  0.27610768733E+03 -0.36283258024E+03 -0.17632447245E+04  0.20224420223E+04  0.87940709494E+03 0.  0.
         23    2    4    4    0    0  0.40078950428E+03 -0.49597679275E+03 -0.16880869121E+04  0.18067480791E+04  0.89866527353E+02 0.  0.
         23    2    4    4    0    0 -0.12468181695E+03  0.13314421251E+03 -0.75157812420E+02  0.21569394320E+03  0.87190845640E+02 0.  0.
          4    1    3    3  502    0 -0.60805067561E+02  0.45293325855E+02 -0.79068067813E+02  0.10954679802E+03  0.00000000000E+00 0. -1.
         -3    1    3    3    0  502 -0.21530261977E+03  0.31753925438E+03 -0.23789076118E+03  0.45141822117E+03  0.00000000000E+00 0.  1.
         11    1    5    5    0    0  0.16264214248E+03 -0.16000001063E+03 -0.50840203660E+03  0.55724779114E+03  0.00000000000E+00 0.  1.
        -11    1    5    5    0    0  0.23814736180E+03 -0.33597678212E+03 -0.11796848755E+04  0.12495002879E+04  0.00000000000E+00 0. -1.
          1    1    6    6  503    0 -0.28635281124E+02  0.44901692942E+01 -0.43152429156E+02  0.51983392419E+02  0.00000000000E+00 0. -1.
         -1    1    6    6    0  503 -0.96046535830E+02  0.12865404321E+03 -0.32005383264E+02  0.16371055078E+03  0.00000000000E+00 0.  1.
<mgrwt>
<rscale>  0 0.15319090E+04</rscale>
<asrwt>0</asrwt>
<pdfrwt beam="1">  1        2 0.35873930E+00 0.15319090E+04</pdfrwt>
<pdfrwt beam="2">  1       -1 0.38707958E-01 0.15319090E+04</pdfrwt>
<totfact> 0.30924328E+01</totfact>
</mgrwt>
</event>
<event>
12    6  0.1530859E-007  0.1811116E+04  0.7818608E-02  0.8700410E-01
         -1   -1    0    0    0  501 -0.00000000000E+00  0.00000000000E+00  0.50003273733E+03  0.50003273733E+03  0.00000000000E+00 0.  1.
          2   -1    0    0  501    0  0.00000000000E+00 -0.00000000000E+00 -0.16399627378E+04  0.16399627378E+04  0.00000000000E+00 0. -1.
         24    2    1    2    0    0  0.47903376461E+03 -0.10519894525E+03  0.11987200257E+03  0.51107646795E+03  0.79307587087E+02 0.  0.
        254    2    1    2    0    0 -0.47903376461E+03  0.10519894525E+03 -0.12598020031E+04  0.16289190072E+04  0.90870010422E+03 0.  0.
         23    2    4    4    0    0 -0.35474542679E+03 -0.37602250024E+03 -0.69655580765E+03  0.87236897141E+03  0.92738290799E+02 0.  0.
         23    2    4    4    0    0 -0.12428833782E+03  0.48122144550E+03 -0.56324619542E+03  0.75655003581E+03  0.90000052809E+02 0.  0.
          4    1    3    3  502    0  0.24037347773E+02 -0.25183511555E+02  0.70374078815E+01  0.35518001801E+02  0.00000000000E+00 0. -1.
         -3    1    3    3    0  502  0.45499641684E+03 -0.80015433697E+02  0.11283459468E+03  0.47555846615E+03  0.00000000000E+00 0.  1.
         11    1    5    5    0    0 -0.24124964683E+03 -0.20566382322E+03 -0.37326730841E+03  0.48972184330E+03  0.00000000000E+00 0.  1.
        -11    1    5    5    0    0 -0.11349577996E+03 -0.17035867703E+03 -0.32328849924E+03  0.38264712811E+03  0.00000000000E+00 0. -1.
          1    1    6    6  503    0 -0.93714029089E+02  0.45527627589E+03 -0.52374442702E+03  0.70026211626E+03  0.00000000000E+00 0. -1.
         -1    1    6    6    0  503 -0.30574308733E+02  0.25945169606E+02 -0.39501768395E+02  0.56287919546E+02  0.00000000000E+00 0.  1.
<mgrwt>
<rscale>  0 0.18111157E+04</rscale>
<asrwt>0</asrwt>
<pdfrwt beam="1">  1        2 0.25230196E+00 0.18111157E+04</pdfrwt>
<pdfrwt beam="2">  1       -1 0.76928114E-01 0.18111157E+04</pdfrwt>
<totfact> 0.19291655E+01</totfact>
</mgrwt>
</event>
<event>
12    6  0.1751272E-007  0.1836699E+04  0.7818608E-02  0.8687023E-01
          2   -1    0    0  501    0  0.00000000000E+00  0.00000000000E+00  0.10490014454E+04  0.10490014454E+04  0.00000000000E+00 0. -1.
         -1   -1    0    0    0  501 -0.00000000000E+00 -0.00000000000E+00 -0.80397027366E+03  0.80397027366E+03  0.00000000000E+00 0.  1.
         24    2    1    2    0    0 -0.69143335049E+03  0.66152716628E+02  0.12468322219E+03  0.71118605819E+03  0.88223825525E+02 0.  0.
        254    2    1    2    0    0  0.69143335049E+03 -0.66152716628E+02  0.12034794957E+03  0.11417856609E+04  0.89818406040E+03 0.  0.
         23    2    4    4    0    0  0.64673080090E+03 -0.10839302194E+03 -0.28577221020E+03  0.72117371140E+03  0.91738704223E+02 0.  0.
         23    2    4    4    0    0  0.44702549585E+02  0.42240305309E+02  0.40612015977E+03  0.42061194948E+03  0.90544279488E+02 0.  0.
          2    1    3    3  502    0 -0.22426591812E+01  0.52248736092E+01  0.75670767566E+01  0.94651716876E+01  0.00000000000E+00 0. -1.
         -1    1    3    3    0  502 -0.68919069131E+03  0.60927843019E+02  0.11711614543E+03  0.70172088651E+03  0.00000000000E+00 0.  1.
         11    1    5    5    0    0  0.13983775806E+02 -0.17893061269E+02 -0.13457896366E+02  0.26397397636E+02  0.00000000000E+00 0. -1.
        -11    1    5    5    0    0  0.63274702510E+03 -0.90499960669E+02 -0.27231431383E+03  0.69477631376E+03  0.00000000000E+00 0.  1.
          3    1    6    6  503    0 -0.74424147280E+01  0.20043472222E+02  0.16807615653E+02  0.27196070666E+02  0.00000000000E+00 0. -1.
         -3    1    6    6    0  503  0.52144964313E+02  0.22196833087E+02  0.38931254411E+03  0.39341587882E+03  0.00000000000E+00 0.  1.
<mgrwt>
<rscale>  0 0.18366992E+04</rscale>
<asrwt>0</asrwt>
<pdfrwt beam="1">  1        2 0.16138484E+00 0.18366992E+04</pdfrwt>
<pdfrwt beam="2">  1       -1 0.12368773E+00 0.18366992E+04</pdfrwt>
<totfact> 0.14462744E+01</totfact>
</mgrwt>
</event>
<event>
12    6  0.1530859E-007  0.3440909E+04  0.7818608E-02  0.8127938E-01
          2   -1    0    0  501    0  0.00000000000E+00  0.00000000000E+00  0.46944206204E+04  0.46944206204E+04  0.00000000000E+00 0. -1.
         -1   -1    0    0    0  501 -0.00000000000E+00 -0.00000000000E+00 -0.63052799780E+03  0.63052799780E+03  0.00000000000E+00 0.  1.
         24    2    1    2    0    0  0.19175412341E+03 -0.15571706607E+04  0.14001872668E+04  0.21057841436E+04  0.11069041012E+03 0.  0.
        254    2    1    2    0    0 -0.19175412341E+03  0.15571706607E+04  0.26637053558E+04  0.32191644746E+04  0.89785498908E+03 0.  0.
         23    2    4    4    0    0 -0.31008509778E+02  0.14005633772E+04  0.26200186516E+04  0.29724897197E+04  0.93048898411E+02 0.  0.
         23    2    4    4    0    0 -0.16074561364E+03  0.15660728356E+03  0.43686704133E+02  0.24667475488E+03  0.92600826198E+02 0.  0.
          4    1    3    3  502    0  0.59181417737E+02 -0.37624041420E+03  0.40274531281E+03  0.55431315741E+03  0.00000000000E+00 0. -1.
         -3    1    3    3    0  502  0.13257270568E+03 -0.11809302465E+04  0.99744195399E+03  0.15514709862E+04  0.00000000000E+00 0.  1.
         11    1    5    5    0    0  0.13495070790E+02  0.80407806377E+03  0.14305922585E+04  0.16411331024E+04  0.00000000000E+00 0. -1.
        -11    1    5    5    0    0 -0.44503580567E+02  0.59648531340E+03  0.11894263931E+04  0.13313566173E+04  0.00000000000E+00 0.  1.
          3    1    6    6  503    0 -0.86765260555E+01  0.59140349094E+02 -0.38606774318E+01  0.59897978477E+02  0.00000000000E+00 0. -1.
         -3    1    6    6    0  503 -0.15206908758E+03  0.97466934461E+02  0.47547381565E+02  0.18677677641E+03  0.00000000000E+00 0.  1.
<mgrwt>
<rscale>  0 0.34409090E+04</rscale>
<asrwt>0</asrwt>
<pdfrwt beam="1">  1        2 0.72221853E+00 0.34409090E+04</pdfrwt>
<pdfrwt beam="2">  1       -1 0.97004310E-01 0.34409090E+04</pdfrwt>
<totfact> 0.74091019E-02</totfact>
</mgrwt>
</event>
<event>
12    6  0.1530859E-007  0.1861797E+04  0.7818608E-02  0.8674110E-01
         -1   -1    0    0    0  501 -0.00000000000E+00  0.00000000000E+00  0.17158305468E+04  0.17158305468E+04  0.00000000000E+00 0.  1.
          2   -1    0    0  501    0  0.00000000000E+00 -0.00000000000E+00 -0.50504513264E+03  0.50504513264E+03  0.00000000000E+00 0. -1.
         24    2    1    2    0    0 -0.29630246200E+03  0.52717127289E+02 -0.30146239921E+03  0.43331178186E+03  0.79405778508E+02 0.  0.
        254    2    1    2    0    0  0.29630246200E+03 -0.52717127289E+02  0.15122478134E+04  0.17875638976E+04  0.90438763505E+03 0.  0.
         23    2    4    4    0    0  0.30460633590E+03  0.29356673081E+03  0.13039953828E+04  0.13739284443E+04  0.91153531938E+02 0.  0.
         23    2    4    4    0    0 -0.83038738969E+01 -0.34628385810E+03  0.20825243061E+03  0.41363545332E+03  0.87998572080E+02 0.  0.
          4    1    3    3  502    0 -0.16007415637E+03  0.42729475974E+01 -0.11398342011E+03  0.19655587927E+03  0.00000000000E+00 0. -1.
         -3    1    3    3    0  502 -0.13622830563E+03  0.48444179692E+02 -0.18747897910E+03  0.23675590258E+03  0.00000000000E+00 0.  1.
         11    1    5    5    0    0  0.15258660816E+03  0.90505581523E+02  0.47797279504E+03  0.50983519501E+03  0.00000000000E+00 0.  1.
        -11    1    5    5    0    0  0.15201972774E+03  0.20306114929E+03  0.82602258776E+03  0.86409324928E+03  0.00000000000E+00 0. -1.
          1    1    6    6  503    0 -0.39139769869E+02 -0.26845414956E+03  0.13813715951E+03  0.30443624429E+03  0.00000000000E+00 0. -1.
         -1    1    6    6    0  503  0.30835895972E+02 -0.77829708546E+02  0.70115271093E+02  0.10919920903E+03  0.00000000000E+00 0.  1.
<mgrwt>
<rscale>  0 0.18617968E+04</rscale>
<asrwt>0</asrwt>
<pdfrwt beam="1">  1        2 0.77699252E-01 0.18617968E+04</pdfrwt>
<pdfrwt beam="2">  1       -1 0.26397393E+00 0.18617968E+04</pdfrwt>
<totfact> 0.36946555E+00</totfact>
</mgrwt>
</event>
<event>
12    6  0.1530859E-007  0.1666251E+04  0.7818608E-02  0.8780850E-01
          2   -1    0    0  501    0  0.00000000000E+00  0.00000000000E+00  0.28029530333E+04  0.28029530333E+04  0.00000000000E+00 0. -1.
         -1   -1    0    0    0  501 -0.00000000000E+00 -0.00000000000E+00 -0.24763105973E+03  0.24763105973E+03  0.00000000000E+00 0.  1.
         24    2    1    2    0    0 -0.19375397808E+03  0.25533004131E+02  0.18615952529E+04  0.18735363293E+04  0.80055940119E+02 0.  0.
        254    2    1    2    0    0  0.19375397808E+03 -0.25533004131E+02  0.69372672075E+03  0.11770477637E+04  0.93058698502E+03 0.  0.
         23    2    4    4    0    0  0.21004769069E+03 -0.41655804755E+03  0.59803259643E+03  0.76398983232E+03  0.91634263031E+02 0.  0.
         23    2    4    4    0    0 -0.16293712604E+02  0.39102504342E+03  0.95694124324E+02  0.41305793141E+03  0.91068214068E+02 0.  0.
          4    1    3    3  502    0 -0.69401671367E+02  0.20215396203E+02  0.10464146571E+04  0.10489084273E+04  0.00000000000E+00 0. -1.
         -3    1    3    3    0  502 -0.12435230672E+03  0.53176079274E+01  0.81518059573E+03  0.82462790202E+03  0.00000000000E+00 0.  1.
         11    1    5    5    0    0  0.19890807260E+03 -0.41589697572E+03  0.59445559476E+03  0.75227134061E+03  0.00000000000E+00 0. -1.
        -11    1    5    5    0    0  0.11139618090E+02 -0.66107183082E+00  0.35770016661E+01  0.11718491715E+02  0.00000000000E+00 0.  1.
          2    1    6    6  503    0  0.26415890575E+02  0.30071161994E+03  0.69148109614E+02  0.30968813136E+03  0.00000000000E+00 0. -1.
         -2    1    6    6    0  503 -0.42709603178E+02  0.90313423487E+02  0.26546014710E+02  0.10336980005E+03  0.00000000000E+00 0.  1.
<mgrwt>
<rscale>  0 0.16662512E+04</rscale>
<asrwt>0</asrwt>
<pdfrwt beam="1">  1        2 0.43122352E+00 0.16662512E+04</pdfrwt>
<pdfrwt beam="2">  1       -1 0.38097088E-01 0.16662512E+04</pdfrwt>
<totfact> 0.16716822E+01</totfact>
</mgrwt>
</event>
<event>
12    6  0.1530859E-007  0.1807952E+04  0.7818608E-02  0.8702082E-01
          4   -1    0    0  501    0  0.00000000000E+00  0.00000000000E+00  0.79360224108E+03  0.79360224108E+03  0.00000000000E+00 0. -1.
         -3   -1    0    0    0  501 -0.00000000000E+00 -0.00000000000E+00 -0.10297007359E+04  0.10297007359E+04  0.00000000000E+00 0.  1.
         24    2    1    2    0    0 -0.38638154857E+03  0.50442508543E+03 -0.33332988603E+03  0.72169570234E+03  0.77462932825E+02 0.  0.
        254    2    1    2    0    0  0.38638154857E+03 -0.50442508543E+03  0.97231391232E+02  0.11016072746E+04  0.89462242102E+03 0.  0.
         23    2    4    4    0    0  0.23155209795E+03 -0.64129677506E+02  0.44314283059E+03  0.51368447775E+03  0.98829068485E+02 0.  0.
         23    2    4    4    0    0  0.15482945062E+03 -0.44029540792E+03 -0.34591143936E+03  0.58792279688E+03  0.90367506263E+02 0.  0.
          4    1    3    3  502    0 -0.46212026801E+02  0.69289098320E+02 -0.74463509161E+02  0.11171993897E+03  0.00000000000E+00 0. -1.
         -3    1    3    3    0  502 -0.34016952177E+03  0.43513598711E+03 -0.25886637687E+03  0.60997576337E+03  0.00000000000E+00 0.  1.
         11    1    5    5    0    0  0.16437071486E+03  0.35831124072E+01  0.27887588453E+03  0.32373187914E+03  0.00000000000E+00 0. -1.
        -11    1    5    5    0    0  0.67181383083E+02 -0.67712789913E+02  0.16426694606E+03  0.18995259861E+03  0.00000000000E+00 0.  1.
          1    1    6    6  503    0  0.11054671855E+03 -0.38154391597E+03 -0.25973978251E+03  0.47461678375E+03  0.00000000000E+00 0. -1.
         -1    1    6    6    0  503  0.44282732076E+02 -0.58751491951E+02 -0.86171656853E+02  0.11330601313E+03  0.00000000000E+00 0.  1.
<mgrwt>
<rscale>  0 0.18079522E+04</rscale>
<asrwt>0</asrwt>
<pdfrwt beam="1">  1        4 0.12209265E+00 0.18079522E+04</pdfrwt>
<pdfrwt beam="2">  1       -3 0.15841550E+00 0.18079522E+04</pdfrwt>
<totfact> 0.30584027E-01</totfact>
</mgrwt>
</event>
<event>
12    6  0.1530859E-007  0.1659686E+04  0.7818608E-02  0.8784697E-01
          2   -1    0    0  501    0  0.00000000000E+00  0.00000000000E+00  0.39135005050E+03  0.39135005050E+03  0.00000000000E+00 0. -1.
         -1   -1    0    0    0  501 -0.00000000000E+00 -0.00000000000E+00 -0.17596514031E+04  0.17596514031E+04  0.00000000000E+00 0.  1.
         24    2    1    2    0    0 -0.16484528967E+03  0.14148053952E+03  0.21546735536E+03  0.31607307050E+03  0.79279834006E+02 0.  0.
        254    2    1    2    0    0  0.16484528967E+03 -0.14148053952E+03 -0.15837687080E+04  0.18349283831E+04  0.90080416196E+03 0.  0.
         23    2    4    4    0    0  0.43614453524E+03 -0.11831665263E+03 -0.14420838837E+04  0.15139627462E+04  0.90864643444E+02 0.  0.
         23    2    4    4    0    0 -0.27129924557E+03 -0.23163886889E+02 -0.14168482435E+03  0.32096563695E+03  0.93832320398E+02 0.  0.
          2    1    3    3  502    0 -0.76588165413E+02  0.11333659498E+03  0.14759198345E+03  0.20123201639E+03  0.00000000000E+00 0. -1.
         -1    1    3    3    0  502 -0.88257124261E+02  0.28143944543E+02  0.67875371911E+02  0.11484105411E+03  0.00000000000E+00 0.  1.
         11    1    5    5    0    0  0.10337566826E+02  0.11434125833E+02 -0.60862364508E+02  0.62784010186E+02  0.00000000000E+00 0.  1.
        -11    1    5    5    0    0  0.42580696842E+03 -0.12975077846E+03 -0.13812215191E+04  0.14511787360E+04  0.00000000000E+00 0. -1.
          4    1    6    6  503    0 -0.23738109162E+03 -0.48377968968E+02 -0.13733249755E+03  0.27847877015E+03  0.00000000000E+00 0. -1.
         -4    1    6    6    0  503 -0.33918153946E+02  0.25214082079E+02 -0.43523268050E+01  0.42486866804E+02  0.00000000000E+00 0.  1.
<mgrwt>
<rscale>  0 0.16596863E+04</rscale>
<asrwt>0</asrwt>
<pdfrwt beam="1">  1        2 0.60207700E-01 0.16596863E+04</pdfrwt>
<pdfrwt beam="2">  1       -1 0.27071560E+00 0.16596863E+04</pdfrwt>
<totfact> 0.45525431E+00</totfact>
</mgrwt>
</event>
<event>
12    6  0.1530859E-007  0.1993475E+04  0.7818608E-02  0.8609678E-01
          2   -1    0    0  501    0  0.00000000000E+00  0.00000000000E+00  0.19180439719E+04  0.19180439719E+04  0.00000000000E+00 0. -1.
         -1   -1    0    0    0  501 -0.00000000000E+00 -0.00000000000E+00 -0.51796799901E+03  0.51796799901E+03  0.00000000000E+00 0.  1.
         24    2    1    2    0    0  0.44973010937E+03  0.63555646099E+03  0.38800112384E+03  0.87349983911E+03  0.79170135989E+02 0.  0.
        254    2    1    2    0    0 -0.44973010937E+03 -0.63555646099E+03  0.10120748491E+04  0.15625121318E+04  0.90053288423E+03 0.  0.
         23    2    4    4    0    0 -0.33756232109E+02 -0.60160396594E+03  0.95302414090E+03  0.11314327111E+04  0.93905013377E+02 0.  0.
         23    2    4    4    0    0 -0.41597387727E+03 -0.33952495059E+02  0.59050708183E+02  0.43107942075E+03  0.90307487880E+02 0.  0.
          2    1    3    3  502    0  0.12883495861E+03  0.24237110531E+03  0.15258954726E+03  0.31404739957E+03  0.00000000000E+00 0. -1.
         -1    1    3    3    0  502  0.32089515076E+03  0.39318535569E+03  0.23541157658E+03  0.55945243953E+03  0.00000000000E+00 0.  1.
         11    1    5    5    0    0  0.15702756782E+02 -0.35415175989E+03  0.50089853546E+03  0.61365249810E+03  0.00000000000E+00 0.  1.
        -11    1    5    5    0    0 -0.49458988891E+02 -0.24745220605E+03  0.45212560544E+03  0.51778021298E+03  0.00000000000E+00 0. -1.
          3    1    6    6  503    0 -0.40553934387E+02 -0.29228684214E+02 -0.48749444161E+01  0.50226513498E+02  0.00000000000E+00 0. -1.
         -3    1    6    6    0  503 -0.37541994288E+03 -0.47238108444E+01  0.63925652599E+02  0.38085290725E+03  0.00000000000E+00 0.  1.
<mgrwt>
<rscale>  0 0.19934748E+04</rscale>
<asrwt>0</asrwt>
<pdfrwt beam="1">  1        2 0.29508368E+00 0.19934748E+04</pdfrwt>
<pdfrwt beam="2">  1       -1 0.79687386E-01 0.19934748E+04</pdfrwt>
<totfact> 0.12353143E+01</totfact>
</mgrwt>
</event>
<event>
12    6  0.1530859E-007  0.1814752E+04  0.7818608E-02  0.8698494E-01
          2   -1    0    0  501    0  0.00000000000E+00  0.00000000000E+00  0.25282285252E+04  0.25282285252E+04  0.00000000000E+00 0. -1.
         -1   -1    0    0    0  501 -0.00000000000E+00 -0.00000000000E+00 -0.32565537533E+03  0.32565537533E+03  0.00000000000E+00 0.  1.
         24    2    1    2    0    0  0.14034238599E+03 -0.21928726765E+03 -0.15655524987E+03  0.31566334218E+03  0.85737438024E+02 0.  0.
        254    2    1    2    0    0 -0.14034238599E+03  0.21928726765E+03  0.23591283997E+04  0.25382205583E+04  0.89960763965E+03 0.  0.
         23    2    4    4    0    0 -0.23242503661E+03  0.53451146448E+03  0.13629079340E+04  0.14853796697E+04  0.95450632706E+02 0.  0.
         23    2    4    4    0    0  0.92082650627E+02 -0.31522419683E+03  0.99622046570E+03  0.10528408886E+04  0.90405816456E+02 0.  0.
          2    1    3    3  502    0  0.11341026156E+02 -0.11010095014E+02  0.10643282249E+02  0.19055721543E+02  0.00000000000E+00 0. -1.
         -1    1    3    3    0  502  0.12900135983E+03 -0.20827717263E+03 -0.16719853212E+03  0.29660762064E+03  0.00000000000E+00 0.  1.
         11    1    5    5    0    0 -0.10781561639E+03  0.16201548239E+03  0.38102567263E+03  0.42784785482E+03  0.00000000000E+00 0. -1.
        -11    1    5    5    0    0 -0.12460942022E+03  0.37249598208E+03  0.98188226137E+03  0.10575318149E+04  0.00000000000E+00 0.  1.
          3    1    6    6  503    0  0.47124979673E+02 -0.22231952157E+03  0.55534807965E+03  0.60004851717E+03  0.00000000000E+00 0.  1.
         -3    1    6    6    0  503  0.44957670954E+02 -0.92904675255E+02  0.44087238605E+03  0.45279237145E+03  0.00000000000E+00 0. -1.
<mgrwt>
<rscale>  0 0.18147520E+04</rscale>
<asrwt>0</asrwt>
<pdfrwt beam="1">  1        2 0.38895822E+00 0.18147520E+04</pdfrwt>
<pdfrwt beam="2">  1       -1 0.50100829E-01 0.18147520E+04</pdfrwt>
<totfact> 0.14407720E+01</totfact>
</mgrwt>
</event>
<event>
12    6  0.1530859E-007  0.1562279E+04  0.7818608E-02  0.8844063E-01
          2   -1    0    0  501    0  0.00000000000E+00  0.00000000000E+00  0.15301922994E+04  0.15301922994E+04  0.00000000000E+00 0. -1.
         -1   -1    0    0    0  501 -0.00000000000E+00 -0.00000000000E+00 -0.39875947801E+03  0.39875947801E+03  0.00000000000E+00 0.  1.
         24    2    1    2    0    0  0.88532061029E+02 -0.43682617092E+03  0.53872354610E+02  0.45590061825E+03  0.79297627316E+02 0.  0.
        254    2    1    2    0    0 -0.88532061029E+02  0.43682617092E+03  0.10775604668E+04  0.14730511592E+04  0.90004895896E+03 0.  0.
         23    2    4    4    0    0  0.17027888554E+03 -0.75072615425E+02 -0.42180274902E+02  0.21161835348E+03  0.91500576458E+02 0.  0.
         23    2    4    4    0    0 -0.25881094657E+03  0.51189878634E+03  0.11197407417E+04  0.12614328057E+04  0.91487273024E+02 0.  0.
          4    1    3    3  502    0  0.51436428560E+01 -0.65605997353E+01  0.13376974793E+02  0.15762042550E+02  0.00000000000E+00 0. -1.
         -3    1    3    3    0  502  0.83388418173E+02 -0.43026557118E+03  0.40495379817E+02  0.44013857570E+03  0.00000000000E+00 0.  1.
         11    1    5    5    0    0  0.97574617392E+02 -0.89972824682E+02 -0.33574449842E+02  0.13690565665E+03  0.00000000000E+00 0.  1.
        -11    1    5    5    0    0  0.72704268152E+02  0.14900209258E+02 -0.86058250600E+01  0.74712696835E+02  0.00000000000E+00 0. -1.
          3    1    6    6  503    0 -0.94227529500E+02  0.12605769437E+03  0.37489002078E+03  0.40658565802E+03  0.00000000000E+00 0. -1.
         -3    1    6    6    0  503 -0.16458341707E+03  0.38584109197E+03  0.74485072092E+03  0.85484714768E+03  0.00000000000E+00 0.  1.
<mgrwt>
<rscale>  0 0.15622787E+04</rscale>
<asrwt>0</asrwt>
<pdfrwt beam="1">  1        2 0.23541420E+00 0.15622787E+04</pdfrwt>
<pdfrwt beam="2">  1       -1 0.61347613E-01 0.15622787E+04</pdfrwt>
<totfact> 0.36041616E+01</totfact>
</mgrwt>
</event>
<event>
12    6  0.1530859E-007  0.1353893E+04  0.7818608E-02  0.8987886E-01
          2   -1    0    0  501    0  0.00000000000E+00  0.00000000000E+00  0.21298612057E+04  0.21298612057E+04  0.00000000000E+00 0. -1.
         -1   -1    0    0    0  501 -0.00000000000E+00 -0.00000000000E+00 -0.21515793617E+03  0.21515793617E+03  0.00000000000E+00 0.  1.
         24    2    1    2    0    0 -0.20274349066E+03  0.27095714115E+03  0.82282564153E+03  0.89324693733E+03  0.79532127734E+02 0.  0.
        254    2    1    2    0    0  0.20274349066E+03 -0.27095714115E+03  0.10918776280E+04  0.14517722045E+04  0.89494306186E+03 0.  0.
         23    2    4    4    0    0  0.53064798200E+03 -0.37231029768E+02  0.55176098949E+03  0.77191769616E+03  0.91887484214E+02 0.  0.
         23    2    4    4    0    0 -0.32790449134E+03 -0.23372611138E+03  0.54011663848E+03  0.67985450834E+03  0.91251952129E+02 0.  0.
          2    1    3    3  502    0 -0.12021738226E+03  0.95355072362E+02  0.37692221081E+03  0.40695842763E+03  0.00000000000E+00 0. -1.
         -1    1    3    3    0  502 -0.82526108400E+02  0.17560206879E+03  0.44590343072E+03  0.48628850970E+03  0.00000000000E+00 0.  1.
         11    1    5    5    0    0  0.23901793650E+03 -0.58798475340E+02  0.22602639843E+03  0.33417774830E+03  0.00000000000E+00 0. -1.
        -11    1    5    5    0    0  0.29163004550E+03  0.21567445572E+02  0.32573459106E+03  0.43773994786E+03  0.00000000000E+00 0.  1.
          4    1    6    6  503    0 -0.68726643291E+02 -0.93673412492E+01  0.10664752920E+03  0.12721947204E+03  0.00000000000E+00 0. -1.
         -4    1    6    6    0  503 -0.25917784805E+03 -0.22435877013E+03  0.43346910928E+03  0.55263503631E+03  0.00000000000E+00 0.  1.
<mgrwt>
<rscale>  0 0.13538930E+04</rscale>
<asrwt>0</asrwt>
<pdfrwt beam="1">  1        2 0.32767094E+00 0.13538930E+04</pdfrwt>
<pdfrwt beam="2">  1       -1 0.33101222E-01 0.13538930E+04</pdfrwt>
<totfact> 0.53993902E+01</totfact>
</mgrwt>
</event>
<event>
12    6  0.1530859E-007  0.1128394E+04  0.7818608E-02  0.9177951E-01
         -1   -1    0    0    0  501 -0.00000000000E+00  0.00000000000E+00  0.31342478090E+03  0.31342478090E+03  0.00000000000E+00 0.  1.
          2   -1    0    0  501    0  0.00000000000E+00 -0.00000000000E+00 -0.10156121808E+04  0.10156121808E+04  0.00000000000E+00 0. -1.
         24    2    1    2    0    0  0.11278253992E+02  0.10036798227E+03 -0.43459569130E+03  0.45341542130E+03  0.80691997711E+02 0.  0.
        254    2    1    2    0    0 -0.11278253992E+02 -0.10036798227E+03 -0.26759170860E+03  0.87562154040E+03  0.82759097906E+03 0.  0.
         23    2    4    4    0    0  0.78209600964E+02 -0.55947803142E+02 -0.54795226562E+03  0.56403173192E+03  0.92915073328E+02 0.  0.
         23    2    4    4    0    0 -0.89487854955E+02 -0.44420179133E+02  0.28036055702E+03  0.31158980848E+03  0.92222222489E+02 0.  0.
          2    1    3    3  502    0 -0.32477904471E+02  0.39597537982E+02 -0.22760252433E+03  0.23329313829E+03  0.00000000000E+00 0. -1.
         -1    1    3    3    0  502  0.43756158462E+02  0.60770444292E+02 -0.20699316697E+03  0.22012228301E+03  0.00000000000E+00 0.  1.
         11    1    5    5    0    0 -0.14079814318E+02 -0.91105610453E+01 -0.20799373051E+03  0.20866872172E+03  0.00000000000E+00 0.  1.
        -11    1    5    5    0    0  0.92289415282E+02 -0.46837242096E+02 -0.33995853511E+03  0.35536301020E+03  0.00000000000E+00 0. -1.
          4    1    6    6  503    0 -0.82335513846E+02  0.79571524254E+01  0.15950038213E+03  0.17967421911E+03  0.00000000000E+00 0. -1.
         -4    1    6    6    0  503 -0.71523411097E+01 -0.52377331558E+02  0.12086017489E+03  0.13191558937E+03  0.00000000000E+00 0.  1.
<mgrwt>
<rscale>  0 0.11283936E+04</rscale>
<asrwt>0</asrwt>
<pdfrwt beam="1">  1        2 0.15624803E+00 0.11283936E+04</pdfrwt>
<pdfrwt beam="2">  1       -1 0.48219198E-01 0.11283936E+04</pdfrwt>
<totfact> 0.11960594E+02</totfact>
</mgrwt>
</event>
<event>
12    6  0.1615083E-007  0.2426921E+04  0.7818608E-02  0.8429493E-01
         -1   -1    0    0    0  501 -0.00000000000E+00  0.00000000000E+00  0.71493472743E+03  0.71493472743E+03  0.00000000000E+00 0.  1.
          2   -1    0    0  501    0  0.00000000000E+00 -0.00000000000E+00 -0.20596087534E+04  0.20596087534E+04  0.00000000000E+00 0. -1.
         24    2    1    2    0    0  0.80935147690E+03 -0.12539389699E+03 -0.12754050663E+04  0.15177274155E+04  0.77877995640E+02 0.  0.
        254    2    1    2    0    0 -0.80935147690E+03  0.12539389699E+03 -0.69268959662E+02  0.12568160653E+04  0.95079702911E+03 0.  0.
         23    2    4    4    0    0 -0.47085422746E+03 -0.39243828012E+03 -0.11350659643E+03  0.62988553249E+03  0.90335648449E+02 0.  0.
         23    2    4    4    0    0 -0.33849724943E+03  0.51783217711E+03  0.44237636773E+02  0.62693053278E+03  0.91402258711E+02 0.  0.
          2    1    3    3  502    0  0.73770033574E+03 -0.12678697634E+03 -0.11944879557E+04  0.14096376127E+04  0.00000000000E+00 0. -1.
         -1    1    3    3    0  502  0.71651141153E+02  0.13930793465E+01 -0.80917110550E+02  0.10808980284E+03  0.00000000000E+00 0.  1.
         11    1    5    5    0    0 -0.78660947593E+01  0.24847470659E+01  0.53686694432E+01  0.98423587790E+01  0.00000000000E+00 0. -1.
        -11    1    5    5    0    0 -0.46298813270E+03 -0.39492302718E+03 -0.11887526588E+03  0.62004317371E+03  0.00000000000E+00 0.  1.
          2    1    6    6  503    0 -0.60931146939E+01  0.54417002930E+02  0.94541399375E+01  0.55567229700E+02  0.00000000000E+00 0. -1.
         -2    1    6    6    0  503 -0.33240413474E+03  0.46341517418E+03  0.34783496835E+02  0.57136330308E+03  0.00000000000E+00 0.  1.
<mgrwt>
<rscale>  0 0.24269205E+04</rscale>
<asrwt>0</asrwt>
<pdfrwt beam="1">  1        2 0.31686288E+00 0.24269205E+04</pdfrwt>
<pdfrwt beam="2">  1       -1 0.10998996E+00 0.24269205E+04</pdfrwt>
<totfact> 0.48230944E+00</totfact>
</mgrwt>
</event>
<event>
12    6  0.1530859E-007  0.2255594E+04  0.7818608E-02  0.8495638E-01
         -1   -1    0    0    0  501 -0.00000000000E+00  0.00000000000E+00  0.30301985210E+03  0.30301985210E+03  0.00000000000E+00 0.  1.
          2   -1    0    0  501    0  0.00000000000E+00 -0.00000000000E+00 -0.41975011313E+04  0.41975011313E+04  0.00000000000E+00 0. -1.
         24    2    1    2    0    0  0.47860889700E+03  0.80191467229E+03 -0.14450245132E+04  0.17223463918E+04  0.79041960737E+02 0.  0.
        254    2    1    2    0    0 -0.47860889700E+03 -0.80191467229E+03 -0.24494567660E+04  0.27781745916E+04  0.91993586473E+03 0.  0.
         23    2    4    4    0    0 -0.26687922202E+03 -0.62921414887E+03 -0.62376328366E+03  0.92987034009E+03  0.91887164799E+02 0.  0.
         23    2    4    4    0    0 -0.21172967498E+03 -0.17270052342E+03 -0.18256934823E+04  0.18483042515E+04  0.91744148549E+02 0.  0.
          2    1    3    3  502    0  0.99522047543E+02  0.20013720211E+03 -0.40095847244E+03  0.45905036133E+03  0.00000000000E+00 0. -1.
         -1    1    3    3    0  502  0.37908684945E+03  0.60177747018E+03 -0.10440660408E+04  0.12632960305E+04  0.00000000000E+00 0.  1.
         11    1    5    5    0    0  0.17652607409E+01 -0.14820321371E+02 -0.13820923998E+01  0.14988937602E+02  0.00000000000E+00 0.  1.
        -11    1    5    5    0    0 -0.26864448276E+03 -0.61439382749E+03 -0.62238119126E+03  0.91488140249E+03  0.00000000000E+00 0. -1.
          3    1    6    6  503    0 -0.21056032265E+03 -0.14271971802E+03 -0.17084366962E+04  0.17272696698E+04  0.00000000000E+00 0. -1.
         -3    1    6    6    0  503 -0.11693523265E+01 -0.29980805404E+02 -0.11725678618E+03  0.12103458176E+03  0.00000000000E+00 0.  1.
<mgrwt>
<rscale>  0 0.22555941E+04</rscale>
<asrwt>0</asrwt>
<pdfrwt beam="1">  1        2 0.64576937E+00 0.22555941E+04</pdfrwt>
<pdfrwt beam="2">  1       -1 0.46618441E-01 0.22555941E+04</pdfrwt>
<totfact> 0.11176801E+00</totfact>
</mgrwt>
</event>
<event>
12    6  0.1530859E-007  0.3529374E+04  0.7818608E-02  0.8106864E-01
          2   -1    0    0  501    0  0.00000000000E+00  0.00000000000E+00  0.16362738629E+04  0.16362738629E+04  0.00000000000E+00 0. -1.
         -1   -1    0    0    0  501 -0.00000000000E+00 -0.00000000000E+00 -0.19031780832E+04  0.19031780832E+04  0.00000000000E+00 0.  1.
         24    2    1    2    0    0  0.48747634931E+03  0.78356785762E+03 -0.14938219199E+04  0.17575774542E+04  0.77219172332E+02 0.  0.
        254    2    1    2    0    0 -0.48747634931E+03 -0.78356785762E+03  0.12269176996E+04  0.17818744919E+04  0.90450974819E+03 0.  0.
         23    2    4    4    0    0 -0.18342261469E+03 -0.82315147083E+03  0.11871651156E+04  0.14592975847E+04  0.94690176398E+02 0.  0.
         23    2    4    4    0    0 -0.30405373462E+03  0.39583613214E+02  0.39752584048E+02  0.32257690721E+03  0.91978568987E+02 0.  0.
          2    1    3    3  502    0  0.38172619197E+03  0.66074411138E+03 -0.12605340134E+04  0.14735140533E+04  0.00000000000E+00 0. -1.
         -1    1    3    3    0  502  0.10575015734E+03  0.12282374623E+03 -0.23328790648E+03  0.28406340089E+03  0.00000000000E+00 0.  1.
         11    1    5    5    0    0 -0.18233903551E+03 -0.70066518704E+03  0.97666755744E+03  0.12157543938E+04  0.00000000000E+00 0.  1.
        -11    1    5    5    0    0 -0.10835791815E+01 -0.12248628379E+03  0.21049755815E+03  0.24354319093E+03  0.00000000000E+00 0. -1.
          4    1    6    6  503    0 -0.16281450679E+03 -0.23388171400E+02  0.33160359576E+02  0.16779505246E+03  0.00000000000E+00 0. -1.
         -4    1    6    6    0  503 -0.14123922783E+03  0.62971784613E+02  0.65922244727E+01  0.15478185475E+03  0.00000000000E+00 0.  1.
<mgrwt>
<rscale>  0 0.35293742E+04</rscale>
<asrwt>0</asrwt>
<pdfrwt beam="1">  1        2 0.25173444E+00 0.35293742E+04</pdfrwt>
<pdfrwt beam="2">  1       -1 0.29279663E+00 0.35293742E+04</pdfrwt>
<totfact> 0.36516056E-01</totfact>
</mgrwt>
</event>
<event>
12    6  0.1530859E-007  0.2474963E+04  0.7818608E-02  0.8411960E-01
          2   -1    0    0  501    0  0.00000000000E+00  0.00000000000E+00  0.10620752603E+04  0.10620752603E+04  0.00000000000E+00 0. -1.
         -1   -1    0    0    0  501 -0.00000000000E+00 -0.00000000000E+00 -0.14418565959E+04  0.14418565959E+04  0.00000000000E+00 0.  1.
         24    2    1    2    0    0  0.61680852393E+03  0.59004919239E+03  0.49190913524E+03  0.98843502779E+03  0.80114931226E+02 0.  0.
        254    2    1    2    0    0 -0.61680852393E+03 -0.59004919239E+03 -0.87169047088E+03  0.15154968284E+04  0.89904146472E+03 0.  0.
         23    2    4    4    0    0 -0.79966898308E+02  0.21953700280E+03 -0.27922296654E+03  0.37379244738E+03  0.84641173543E+02 0.  0.
         23    2    4    4    0    0 -0.53684162562E+03 -0.80958619518E+03 -0.59246750434E+03  0.11417043810E+04  0.94034097702E+02 0.  0.
          2    1    3    3  502    0  0.43510646919E+03  0.36598379699E+03  0.31398487075E+03  0.64949848210E+03  0.00000000000E+00 0. -1.
         -1    1    3    3    0  502  0.18170205474E+03  0.22406539540E+03  0.17792426449E+03  0.33893654570E+03  0.00000000000E+00 0.  1.
         11    1    5    5    0    0 -0.21465341114E+02  0.17888070897E+02 -0.78480251065E+02  0.83306024733E+02  0.00000000000E+00 0.  1.
        -11    1    5    5    0    0 -0.58501557193E+02  0.20164893190E+03 -0.20074271547E+03  0.29048642265E+03  0.00000000000E+00 0. -1.
          3    1    6    6  503    0 -0.49436596668E+03 -0.73548838279E+03 -0.56896770182E+03  0.10531216055E+04  0.00000000000E+00 0. -1.
         -3    1    6    6    0  503 -0.42475658935E+02 -0.74097812395E+02 -0.23499802518E+02  0.88582775538E+02  0.00000000000E+00 0.  1.
<mgrwt>
<rscale>  0 0.24749628E+04</rscale>
<asrwt>0</asrwt>
<pdfrwt beam="1">  1        2 0.16339619E+00 0.24749628E+04</pdfrwt>
<pdfrwt beam="2">  1       -1 0.22182409E+00 0.24749628E+04</pdfrwt>
<totfact> 0.25075582E+00</totfact>
</mgrwt>
</event>
<event>
12    6  0.1530859E-007  0.2109699E+04  0.7818608E-02  0.8556983E-01
         -1   -1    0    0    0  501 -0.00000000000E+00  0.00000000000E+00  0.85181979345E+03  0.85181979345E+03  0.00000000000E+00 0.  1.
          2   -1    0    0  501    0  0.00000000000E+00 -0.00000000000E+00 -0.13062710345E+04  0.13062710345E+04  0.00000000000E+00 0. -1.
         24    2    1    2    0    0  0.15265674843E+03 -0.76757256348E+03  0.18179778155E+03  0.80663644195E+03  0.71695139647E+02 0.  0.
        254    2    1    2    0    0 -0.15265674843E+03  0.76757256348E+03 -0.63624902256E+03  0.13514543860E+04  0.89952454973E+03 0.  0.
         23    2    4    4    0    0 -0.66056255565E+02 -0.15337888092E+03 -0.31397212814E+03  0.36706250189E+03  0.90927845208E+02 0.  0.
         23    2    4    4    0    0 -0.86600492870E+02  0.92095144440E+03 -0.32227689442E+03  0.98439188407E+03  0.97538589438E+02 0.  0.
          4    1    3    3  502    0  0.40414407632E+02 -0.25732699516E+03  0.27760562758E+02  0.26195640024E+03  0.00000000000E+00 0. -1.
         -3    1    3    3    0  502  0.11224234080E+03 -0.51024556832E+03  0.15403721879E+03  0.54468004171E+03  0.00000000000E+00 0.  1.
         11    1    5    5    0    0  0.59912307963E+01 -0.91009172305E+02 -0.11790300501E+03  0.14906268105E+03  0.00000000000E+00 0.  1.
        -11    1    5    5    0    0 -0.72047486362E+02 -0.62369708613E+02 -0.19606912313E+03  0.21799982084E+03  0.00000000000E+00 0. -1.
          1    1    6    6  503    0  0.18121126900E+01  0.46688992798E+03 -0.14334624632E+03  0.48840314796E+03  0.00000000000E+00 0. -1.
         -1    1    6    6    0  503 -0.88412605560E+02  0.45406151642E+03 -0.17893064810E+03  0.49598873611E+03  0.00000000000E+00 0.  1.
<mgrwt>
<rscale>  0 0.21096991E+04</rscale>
<asrwt>0</asrwt>
<pdfrwt beam="1">  1        2 0.20096477E+00 0.21096991E+04</pdfrwt>
<pdfrwt beam="2">  1       -1 0.13104920E+00 0.21096991E+04</pdfrwt>
<totfact> 0.85500246E+00</totfact>
</mgrwt>
</event>
<event>
12    6  0.1530859E-007  0.5032062E+04  0.7818608E-02  0.7823580E-01
          2   -1    0    0  501    0  0.00000000000E+00  0.00000000000E+00  0.24094322775E+04  0.24094322775E+04  0.00000000000E+00 0. -1.
         -1   -1    0    0    0  501 -0.00000000000E+00 -0.00000000000E+00 -0.26273462408E+04  0.26273462408E+04  0.00000000000E+00 0.  1.
         24    2    1    2    0    0  0.10143051705E+03 -0.20929846705E+04  0.11367239189E+04  0.23853729794E+04  0.83606231215E+02 0.  0.
        254    2    1    2    0    0 -0.10143051705E+03  0.20929846705E+04 -0.13546378823E+04  0.26514055389E+04  0.89667974140E+03 0.  0.
         23    2    4    4    0    0 -0.17814891219E+03  0.77369701054E+02 -0.30828355923E+03  0.37718155936E+03  0.97488821288E+02 0.  0.
         23    2    4    4    0    0  0.76718395141E+02  0.20156149695E+04 -0.10463543231E+04  0.22742239796E+04  0.92994205846E+02 0.  0.
          2    1    3    3  502    0  0.94189272464E+02 -0.11122138429E+04  0.59255366693E+03  0.12637290451E+04  0.00000000000E+00 0. -1.
         -1    1    3    3    0  502  0.72412445841E+01 -0.98077082766E+03  0.54417025201E+03  0.11216439342E+04  0.00000000000E+00 0.  1.
         11    1    5    5    0    0 -0.78230175541E+02  0.47935220762E+02 -0.64717968678E+02  0.11227716252E+03  0.00000000000E+00 0. -1.
        -11    1    5    5    0    0 -0.99918736648E+02  0.29434480292E+02 -0.24356559055E+03  0.26490439684E+03  0.00000000000E+00 0.  1.
          1    1    6    6  503    0 -0.10341388381E+02  0.91240345975E+03 -0.46086174380E+03  0.10222429088E+04  0.00000000000E+00 0. -1.
         -1    1    6    6    0  503  0.87059783522E+02  0.11032115097E+04 -0.58549257929E+03  0.12519810708E+04  0.00000000000E+00 0.  1.
<mgrwt>
<rscale>  0 0.50320623E+04</rscale>
<asrwt>0</asrwt>
<pdfrwt beam="1">  1        2 0.37068189E+00 0.50320623E+04</pdfrwt>
<pdfrwt beam="2">  1       -1 0.40420711E+00 0.50320623E+04</pdfrwt>
<totfact> 0.21735011E-02</totfact>
</mgrwt>
</event>
<event>
12    6  0.1530859E-007  0.1844132E+04  0.7818608E-02  0.8683176E-01
          2   -1    0    0  501    0  0.00000000000E+00  0.00000000000E+00  0.66532947039E+03  0.66532947039E+03  0.00000000000E+00 0. -1.
         -1   -1    0    0    0  501 -0.00000000000E+00 -0.00000000000E+00 -0.12778715281E+04  0.12778715281E+04  0.00000000000E+00 0.  1.
         24    2    1    2    0    0 -0.33146336358E+03 -0.75166651123E+02 -0.87594735564E+03  0.94484576161E+03  0.99658198514E+02 0.  0.
        254    2    1    2    0    0  0.33146336358E+03  0.75166651123E+02  0.26340529793E+03  0.99835523688E+03  0.90100657112E+03 0.  0.
         23    2    4    4    0    0  0.35291616759E+03  0.37275771485E+03 -0.87707659454E+02  0.52878364156E+03  0.91768026694E+02 0.  0.
         23    2    4    4    0    0 -0.21452804007E+02 -0.29759106373E+03  0.35111295738E+03  0.46957159532E+03  0.90534580599E+02 0.  0.
          4    1    3    3  502    0 -0.23609462747E+03 -0.27445181839E+02 -0.69835343010E+03  0.73769331328E+03  0.00000000000E+00 0. -1.
         -3    1    3    3    0  502 -0.95368736106E+02 -0.47721469285E+02 -0.17759392554E+03  0.20715244832E+03  0.00000000000E+00 0.  1.
         11    1    5    5    0    0  0.75850877707E+02  0.14029011416E+03 -0.18527418421E+02  0.16055509028E+03  0.00000000000E+00 0.  1.
        -11    1    5    5    0    0  0.27706528988E+03  0.23246760069E+03 -0.69180241032E+02  0.36822855128E+03  0.00000000000E+00 0. -1.
          3    1    6    6  503    0 -0.49368508993E+02 -0.17119035753E+03  0.24048041175E+03  0.29928951974E+03  0.00000000000E+00 0. -1.
         -3    1    6    6    0  503  0.27915704986E+02 -0.12640070620E+03  0.11063254563E+03  0.17028207559E+03  0.00000000000E+00 0.  1.
<mgrwt>
<rscale>  0 0.18441319E+04</rscale>
<asrwt>0</asrwt>
<pdfrwt beam="1">  1        2 0.10235838E+00 0.18441319E+04</pdfrwt>
<pdfrwt beam="2">  1       -1 0.19659562E+00 0.18441319E+04</pdfrwt>
<totfact> 0.74546670E+00</totfact>
</mgrwt>
</event>
<event>
12    6  0.1530859E-007  0.1686658E+04  0.7818608E-02  0.8769010E-01
         -1   -1    0    0    0  501 -0.00000000000E+00  0.00000000000E+00  0.21773073007E+03  0.21773073007E+03  0.00000000000E+00 0.  1.
          2   -1    0    0  501    0  0.00000000000E+00 -0.00000000000E+00 -0.32664389659E+04  0.32664389659E+04  0.00000000000E+00 0. -1.
         24    2    1    2    0    0  0.19057137618E+03  0.31428940094E+02 -0.22640564494E+04  0.22735883714E+04  0.77118406881E+02 0.  0.
        254    2    1    2    0    0 -0.19057137618E+03 -0.31428940094E+02 -0.78465178641E+03  0.12105813246E+04  0.90140084858E+03 0.  0.
         23    2    4    4    0    0 -0.16455415546E+03  0.43040033278E+01  0.16641785277E+03  0.25419740571E+03  0.99120254371E+02 0.  0.
         23    2    4    4    0    0 -0.26017220725E+02 -0.35732943422E+02 -0.95106963918E+03  0.95638391887E+03  0.90459950767E+02 0.  0.
          2    1    3    3  502    0  0.15936119035E+03  0.44279860275E+02 -0.15646160586E+04  0.15733340732E+04  0.00000000000E+00 0. -1.
         -1    1    3    3    0  502  0.31210185832E+02 -0.12850920181E+02 -0.69944039079E+03  0.70025429818E+03  0.00000000000E+00 0.  1.
         11    1    5    5    0    0 -0.14875899894E+03  0.38000074796E+02  0.14540063895E+03  0.21145824944E+03  0.00000000000E+00 0. -1.
        -11    1    5    5    0    0 -0.15795156518E+02 -0.33696071468E+02  0.21017213820E+02  0.42739156268E+02  0.00000000000E+00 0.  1.
          2    1    6    6  503    0  0.28948659604E+02 -0.11031533997E+02 -0.15676764336E+03  0.15979929174E+03  0.00000000000E+00 0. -1.
         -2    1    6    6    0  503 -0.54965880329E+02 -0.24701409425E+02 -0.79430199582E+03  0.79658462714E+03  0.00000000000E+00 0.  1.
<mgrwt>
<rscale>  0 0.16866584E+04</rscale>
<asrwt>0</asrwt>
<pdfrwt beam="1">  1        2 0.50252909E+00 0.16866584E+04</pdfrwt>
<pdfrwt beam="2">  1       -1 0.33497034E-01 0.16866584E+04</pdfrwt>
<totfact> 0.10755317E+01</totfact>
</mgrwt>
</event>
<event>
12    6  0.1530859E-007  0.1546433E+04  0.7818608E-02  0.8854149E-01
          2   -1    0    0  501    0  0.00000000000E+00  0.00000000000E+00  0.19113669375E+04  0.19113669375E+04  0.00000000000E+00 0. -1.
         -1   -1    0    0    0  501 -0.00000000000E+00 -0.00000000000E+00 -0.31279372867E+03  0.31279372867E+03  0.00000000000E+00 0.  1.
         24    2    1    2    0    0 -0.56960936734E+02 -0.44227996030E+02 -0.19351302489E+03  0.22143978725E+03  0.79922616503E+02 0.  0.
        254    2    1    2    0    0  0.56960936734E+02  0.44227996030E+02  0.17920862337E+04  0.20027208789E+04  0.89113252990E+03 0.  0.
         23    2    4    4    0    0 -0.15351363582E+03  0.12684813204E+03  0.26503318535E+02  0.22029152157E+03  0.90382761628E+02 0.  0.
         23    2    4    4    0    0  0.21047457255E+03 -0.82620136008E+02  0.17655829151E+04  0.17824293573E+04  0.92982530653E+02 0.  0.
          4    1    3    3  502    0 -0.64980715992E+01 -0.31744206400E+02 -0.15055649365E+03  0.15400382253E+03  0.00000000000E+00 0. -1.
         -3    1    3    3    0  502 -0.50462865134E+02 -0.12483789630E+02 -0.42956531238E+02  0.67435964715E+02  0.00000000000E+00 0.  1.
         11    1    5    5    0    0 -0.12341061996E+03  0.46117457916E+02  0.25122926458E+02  0.13411995555E+03  0.00000000000E+00 0. -1.
        -11    1    5    5    0    0 -0.30103015858E+02  0.80730674122E+02  0.13803920770E+01  0.86171566019E+02  0.00000000000E+00 0.  1.
          2    1    6    6  503    0  0.17858467825E+03 -0.61447851251E+02  0.11282287035E+04  0.11439267167E+04  0.00000000000E+00 0. -1.
         -2    1    6    6    0  503  0.31889894306E+02 -0.21172284757E+02  0.63735421167E+03  0.63850264066E+03  0.00000000000E+00 0.  1.
<mgrwt>
<rscale>  0 0.15464328E+04</rscale>
<asrwt>0</asrwt>
<pdfrwt beam="1">  1        2 0.29405645E+00 0.15464328E+04</pdfrwt>
<pdfrwt beam="2">  1       -1 0.48122113E-01 0.15464328E+04</pdfrwt>
<totfact> 0.35436539E+01</totfact>
</mgrwt>
</event>
<event>
12    6  0.1530859E-007  0.2952907E+04  0.7818608E-02  0.8257308E-01
          4   -1    0    0  501    0  0.00000000000E+00  0.00000000000E+00  0.23109150450E+04  0.23109150450E+04  0.00000000000E+00 0. -1.
         -3   -1    0    0    0  501 -0.00000000000E+00 -0.00000000000E+00 -0.94331227537E+03  0.94331227537E+03  0.00000000000E+00 0.  1.
         24    2    1    2    0    0 -0.10413767751E+04  0.23073618720E+03  0.15079933062E+04  0.18487578582E+04  0.78466751515E+02 0.  0.
        254    2    1    2    0    0  0.10413767751E+04 -0.23073618720E+03 -0.14039053650E+03  0.14054694622E+04  0.90439489745E+03 0.  0.
         23    2    4    4    0    0  0.48303821741E+03 -0.11381276105E+03 -0.51161901676E+03  0.71872234009E+03  0.92349985232E+02 0.  0.
         23    2    4    4    0    0  0.55833855770E+03 -0.11692342615E+03  0.37122848026E+03  0.68674712208E+03  0.91640561656E+02 0.  0.
          4    1    3    3  502    0 -0.59039609211E+03  0.16104136344E+03  0.90716938740E+03  0.10942843158E+04  0.00000000000E+00 0. -1.
         -3    1    3    3    0  502 -0.45098068300E+03  0.69694823762E+02  0.60082391877E+03  0.75447354245E+03  0.00000000000E+00 0.  1.
         11    1    5    5    0    0  0.84556703261E+01 -0.12169253857E+02 -0.19760948389E+01  0.14949717420E+02  0.00000000000E+00 0. -1.
        -11    1    5    5    0    0  0.47458254709E+03 -0.10164350719E+03 -0.50964292192E+03  0.70377262267E+03  0.00000000000E+00 0.  1.
          2    1    6    6  503    0  0.36991594572E+02 -0.84953003907E+01  0.59881000272E+00  0.37959277800E+02  0.00000000000E+00 0. -1.
         -2    1    6    6    0  503  0.52134696312E+03 -0.10842812576E+03  0.37062967025E+03  0.64878784428E+03  0.00000000000E+00 0.  1.
<mgrwt>
<rscale>  0 0.29529067E+04</rscale>
<asrwt>0</asrwt>
<pdfrwt beam="1">  1        4 0.35552539E+00 0.29529067E+04</pdfrwt>
<pdfrwt beam="2">  1       -3 0.14512497E+00 0.29529067E+04</pdfrwt>
<totfact> 0.93122361E-03</totfact>
</mgrwt>
</event>
<event>
12    6  0.1530859E-007  0.1396150E+04  0.7818608E-02  0.8956610E-01
         -1   -1    0    0    0  501 -0.00000000000E+00  0.00000000000E+00  0.21166551799E+03  0.21166551799E+03  0.00000000000E+00 0.  1.
          2   -1    0    0  501    0  0.00000000000E+00 -0.00000000000E+00 -0.23022596858E+04  0.23022596858E+04  0.00000000000E+00 0. -1.
         24    2    1    2    0    0 -0.10128395989E+03 -0.13049283275E+03 -0.12716210889E+04  0.12853520841E+04  0.88447533648E+02 0.  0.
        254    2    1    2    0    0  0.10128395989E+03  0.13049283275E+03 -0.81897307888E+03  0.12285731198E+04  0.90077088470E+03 0.  0.
         23    2    4    4    0    0 -0.63502452455E+01 -0.37674622940E+03 -0.31937026696E+03  0.50259605531E+03  0.92883692952E+02 0.  0.
         23    2    4    4    0    0  0.10763420514E+03  0.50723906215E+03 -0.49960281193E+03  0.72597706444E+03  0.92537236440E+02 0.  0.
          4    1    3    3  502    0 -0.10316792190E+03 -0.68216965765E+02 -0.91635717989E+03  0.92466624014E+03  0.00000000000E+00 0. -1.
         -3    1    3    3    0  502  0.18839620084E+01 -0.62275866980E+02 -0.35526390906E+03  0.36068584392E+03  0.00000000000E+00 0.  1.
         11    1    5    5    0    0 -0.38975665967E+02 -0.98179124933E+02 -0.65501643182E+02  0.12429283314E+03  0.00000000000E+00 0.  1.
        -11    1    5    5    0    0  0.32625420722E+02 -0.27856710447E+03 -0.25386862377E+03  0.37830322217E+03  0.00000000000E+00 0. -1.
          3    1    6    6  503    0 -0.95269111525E+01  0.33812154656E+02 -0.59269738870E+02  0.68897937446E+02  0.00000000000E+00 0.  1.
         -3    1    6    6    0  503  0.11716111629E+03  0.47342690749E+03 -0.44033307306E+03  0.65707912700E+03  0.00000000000E+00 0. -1.
<mgrwt>
<rscale>  0 0.13961504E+04</rscale>
<asrwt>0</asrwt>
<pdfrwt beam="1">  1        2 0.35419381E+00 0.13961504E+04</pdfrwt>
<pdfrwt beam="2">  1       -1 0.32563925E-01 0.13961504E+04</pdfrwt>
<totfact> 0.44341791E+01</totfact>
</mgrwt>
</event>
<event>
12    6  0.1530859E-007  0.2124025E+04  0.7818608E-02  0.8550733E-01
         -1   -1    0    0    0  501 -0.00000000000E+00  0.00000000000E+00  0.46157540852E+03  0.46157540852E+03  0.00000000000E+00 0.  1.
          2   -1    0    0  501    0  0.00000000000E+00 -0.00000000000E+00 -0.24435247542E+04  0.24435247542E+04  0.00000000000E+00 0. -1.
         24    2    1    2    0    0  0.10752542998E+03 -0.48809015840E+03 -0.17878076776E+04  0.18582005560E+04  0.82820850970E+02 0.  0.
        254    2    1    2    0    0 -0.10752542998E+03  0.48809015840E+03 -0.19414166815E+03  0.10468996068E+04  0.89917410916E+03 0.  0.
         23    2    4    4    0    0  0.35728076806E+02  0.49430997220E+03 -0.49176553920E+03  0.70396685026E+03  0.90095153174E+02 0.  0.
         23    2    4    4    0    0 -0.14325350678E+03 -0.62198138036E+01  0.29762387106E+03  0.34293275654E+03  0.91992682287E+02 0.  0.
          4    1    3    3  502    0  0.65749672587E+02 -0.42178399380E+03 -0.15566066303E+04  0.16140783619E+04  0.00000000000E+00 0. -1.
         -3    1    3    3    0  502  0.41775757391E+02 -0.66306164600E+02 -0.23120104723E+03  0.24412219401E+03  0.00000000000E+00 0.  1.
         11    1    5    5    0    0 -0.23349599173E+02  0.21541819179E+03 -0.18187696260E+03  0.28289473423E+03  0.00000000000E+00 0. -1.
        -11    1    5    5    0    0  0.59077675979E+02  0.27889178042E+03 -0.30988857661E+03  0.42107211602E+03  0.00000000000E+00 0.  1.
          4    1    6    6  503    0 -0.66721671998E+02  0.40245040334E+02  0.10736325582E+03  0.13265863517E+03  0.00000000000E+00 0. -1.
         -4    1    6    6    0  503 -0.76531834786E+02 -0.46464854137E+02  0.19026061524E+03  0.21027412136E+03  0.00000000000E+00 0.  1.
<mgrwt>
<rscale>  0 0.21240254E+04</rscale>
<asrwt>0</asrwt>
<pdfrwt beam="1">  1        2 0.37592688E+00 0.21240254E+04</pdfrwt>
<pdfrwt beam="2">  1       -1 0.71011602E-01 0.21240254E+04</pdfrwt>
<totfact> 0.78705784E+00</totfact>
</mgrwt>
</event>
<event>
12    6  0.1530859E-007  0.1513775E+04  0.7818608E-02  0.8875344E-01
         -1   -1    0    0    0  501 -0.00000000000E+00  0.00000000000E+00  0.35630679737E+03  0.35630679737E+03  0.00000000000E+00 0.  1.
          2   -1    0    0  501    0  0.00000000000E+00 -0.00000000000E+00 -0.16078250046E+04  0.16078250046E+04  0.00000000000E+00 0. -1.
         24    2    1    2    0    0  0.40422743942E+02  0.45940162020E+03 -0.21935605146E+03  0.51694621044E+03  0.80202620340E+02 0.  0.
        254    2    1    2    0    0 -0.40422743942E+02 -0.45940162020E+03 -0.10321621557E+04  0.14471855915E+04  0.90349519846E+03 0.  0.
         23    2    4    4    0    0  0.77295551500E+02 -0.56326002618E+02 -0.10065911681E+04  0.10152340836E+04  0.91253733218E+02 0.  0.
         23    2    4    4    0    0 -0.11771829544E+03 -0.40307561758E+03 -0.25570987593E+02  0.43195150792E+03  0.97983055789E+02 0.  0.
          4    1    3    3  502    0  0.47677567260E+02  0.20695292432E+03 -0.13025531400E+03  0.24913672979E+03  0.00000000000E+00 0. -1.
         -1    1    3    3    0  502 -0.72548233178E+01  0.25244869587E+03 -0.89100737460E+02  0.26780948065E+03  0.00000000000E+00 0.  1.
         11    1    5    5    0    0  0.56515052899E+02 -0.48179001229E+02 -0.96649465665E+03  0.96934363808E+03  0.00000000000E+00 0.  1.
        -11    1    5    5    0    0  0.20780498601E+02 -0.81470013895E+01 -0.40096511488E+02  0.45890445490E+02  0.00000000000E+00 0. -1.
          2    1    6    6  503    0 -0.19469932970E+02 -0.37835844770E+02 -0.32693933565E+02  0.53661184587E+02  0.00000000000E+00 0. -1.
         -2    1    6    6    0  503 -0.98248362472E+02 -0.36523977281E+03  0.71229459727E+01  0.37829032333E+03  0.00000000000E+00 0.  1.
<mgrwt>
<rscale>  0 0.15137754E+04</rscale>
<asrwt>0</asrwt>
<pdfrwt beam="1">  1        2 0.24735770E+00 0.15137754E+04</pdfrwt>
<pdfrwt beam="2">  1       -1 0.54816429E-01 0.15137754E+04</pdfrwt>
<totfact> 0.40824104E+01</totfact>
</mgrwt>
</event>
<event>
12    6  0.1530859E-007  0.1095141E+04  0.7818608E-02  0.9209940E-01
         -1   -1    0    0    0  501 -0.00000000000E+00  0.00000000000E+00  0.29214189444E+03  0.29214189444E+03  0.00000000000E+00 0.  1.
          2   -1    0    0  501    0  0.00000000000E+00 -0.00000000000E+00 -0.10263286994E+04  0.10263286994E+04  0.00000000000E+00 0. -1.
         24    2    1    2    0    0  0.11097598419E+03  0.12302467322E+03 -0.12556069184E+03  0.23185802158E+03  0.10267383088E+03 0.  0.
        254    2    1    2    0    0 -0.11097598419E+03 -0.12302467322E+03 -0.60862611312E+03  0.10866125723E+04  0.88478833476E+03 0.  0.
         23    2    4    4    0    0  0.29248288302E+03 -0.18653590448E+03 -0.55994673234E+03  0.66534495465E+03  0.93817296430E+02 0.  0.
         23    2    4    4    0    0 -0.40345886721E+03  0.63511231251E+02 -0.48679380775E+02  0.42126761760E+03  0.91016424365E+02 0.  0.
          2    1    3    3  502    0 -0.96480826863E+01  0.50213991785E+02 -0.51948821385E+02  0.72891772608E+02  0.00000000000E+00 0. -1.
         -1    1    3    3    0  502  0.12062406688E+03  0.72810681439E+02 -0.73611870454E+02  0.15896624898E+03  0.00000000000E+00 0.  1.
         11    1    5    5    0    0  0.47377149798E+02 -0.77646053633E+02 -0.13226354826E+03  0.16052149441E+03  0.00000000000E+00 0. -1.
        -11    1    5    5    0    0  0.24510573322E+03 -0.10888985084E+03 -0.42768318408E+03  0.50482346025E+03  0.00000000000E+00 0.  1.
          2    1    6    6  503    0 -0.89140755412E+02  0.30503909511E+02 -0.46838045779E+02  0.10521580349E+03  0.00000000000E+00 0. -1.
         -2    1    6    6    0  503 -0.31431811180E+03  0.33007321740E+02 -0.18413349953E+01  0.31605181412E+03  0.00000000000E+00 0.  1.
<mgrwt>
<rscale>  0 0.10951413E+04</rscale>
<asrwt>0</asrwt>
<pdfrwt beam="1">  1        2 0.15789672E+00 0.10951413E+04</pdfrwt>
<pdfrwt beam="2">  1       -1 0.44944908E-01 0.10951413E+04</pdfrwt>
<totfact> 0.13462566E+02</totfact>
</mgrwt>
</event>
<event>
12    6  0.1530859E-007  0.1882561E+04  0.7818608E-02  0.8663586E-01
         -1   -1    0    0    0  501 -0.00000000000E+00  0.00000000000E+00  0.16268895705E+04  0.16268895705E+04  0.00000000000E+00 0.  1.
          2   -1    0    0  501    0  0.00000000000E+00 -0.00000000000E+00 -0.54460296249E+03  0.54460296249E+03  0.00000000000E+00 0. -1.
         24    2    1    2    0    0 -0.23787608406E+02  0.58011636774E+03  0.90894142434E+03  0.10814460423E+04  0.79058074227E+02 0.  0.
        254    2    1    2    0    0  0.23787608406E+02 -0.58011636774E+03  0.17334518364E+03  0.10900464907E+04  0.90611916912E+03 0.  0.
         23    2    4    4    0    0  0.33432331037E+03 -0.17970493754E+02  0.26362025450E+03  0.43575943176E+03  0.91080345191E+02 0.  0.
         23    2    4    4    0    0 -0.31053570196E+03 -0.56214587399E+03 -0.90275070856E+02  0.65428705890E+03  0.86611553402E+02 0.  0.
          4    1    3    3  502    0 -0.16767366561E+02  0.27945585473E+03  0.36624693973E+03  0.46099190902E+03  0.00000000000E+00 0. -1.
         -3    1    3    3    0  502 -0.70202418456E+01  0.30066051302E+03  0.54269448461E+03  0.62045413328E+03  0.00000000000E+00 0.  1.
         11    1    5    5    0    0  0.24294844346E+03  0.25531043517E+02  0.16758403095E+03  0.29624346033E+03  0.00000000000E+00 0. -1.
        -11    1    5    5    0    0  0.91374866912E+02 -0.43501537270E+02  0.96036223552E+02  0.13951597142E+03  0.00000000000E+00 0.  1.
          4    1    6    6  503    0 -0.55470462367E+02 -0.98706589055E+02  0.17090445217E+02  0.11450784356E+03  0.00000000000E+00 0. -1.
         -4    1    6    6    0  503 -0.25506523960E+03 -0.46343928494E+03 -0.10736551607E+03  0.53977921534E+03  0.00000000000E+00 0.  1.
<mgrwt>
<rscale>  0 0.18825609E+04</rscale>
<asrwt>0</asrwt>
<pdfrwt beam="1">  1        2 0.83785072E-01 0.18825609E+04</pdfrwt>
<pdfrwt beam="2">  1       -1 0.25029070E+00 0.18825609E+04</pdfrwt>
<totfact> 0.41426827E+00</totfact>
</mgrwt>
</event>
<event>
12    6  0.1530859E-007  0.2463444E+04  0.7818608E-02  0.8416126E-01
          2   -1    0    0  501    0  0.00000000000E+00  0.00000000000E+00  0.16686679780E+04  0.16686679780E+04  0.00000000000E+00 0. -1.
         -1   -1    0    0    0  501 -0.00000000000E+00 -0.00000000000E+00 -0.90919172480E+03  0.90919172480E+03  0.00000000000E+00 0.  1.
         24    2    1    2    0    0  0.86466177908E+02 -0.76302864309E+03  0.10856064024E+04  0.13320328386E+04  0.77981484535E+02 0.  0.
        254    2    1    2    0    0 -0.86466177908E+02  0.76302864309E+03 -0.32613014924E+03  0.12458268642E+04  0.92522137419E+03 0.  0.
         23    2    4    4    0    0 -0.12031409569E+03  0.96255070847E+03 -0.31068449657E+03  0.10225816342E+04  0.90382488670E+02 0.  0.
         23    2    4    4    0    0  0.33847917783E+02 -0.19952206538E+03 -0.15445652667E+02  0.22324522998E+03  0.92979182669E+02 0.  0.
          2    1    3    3  502    0  0.99817238745E+02 -0.67539981693E+03  0.94525334029E+03  0.11660327059E+04  0.00000000000E+00 0. -1.
         -1    1    3    3    0  502 -0.13351060837E+02 -0.87628826164E+02  0.14035306213E+03  0.16600013268E+03  0.00000000000E+00 0.  1.
         11    1    5    5    0    0 -0.62187390842E+02  0.21382680451E+03 -0.85969816515E+02  0.23870480359E+03  0.00000000000E+00 0.  1.
        -11    1    5    5    0    0 -0.58126704849E+02  0.74872390397E+03 -0.22471468006E+03  0.78387683064E+03  0.00000000000E+00 0. -1.
          1    1    6    6  503    0  0.29296622699E+02 -0.10441238784E+03 -0.53229567406E+02  0.12080407975E+03  0.00000000000E+00 0. -1.
         -1    1    6    6    0  503  0.45512950842E+01 -0.95109677537E+02  0.37783914739E+02  0.10244115023E+03  0.00000000000E+00 0.  1.
<mgrwt>
<rscale>  0 0.24634440E+04</rscale>
<asrwt>0</asrwt>
<pdfrwt beam="1">  1        2 0.25671815E+00 0.24634440E+04</pdfrwt>
<pdfrwt beam="2">  1       -1 0.13987565E+00 0.24634440E+04</pdfrwt>
<totfact> 0.43689441E+00</totfact>
</mgrwt>
</event>
<event>
12    6  0.1530859E-007  0.1140884E+04  0.7818608E-02  0.9166235E-01
          2   -1    0    0  501    0  0.00000000000E+00  0.00000000000E+00  0.29522968449E+04  0.29522968449E+04  0.00000000000E+00 0. -1.
         -1   -1    0    0    0  501 -0.00000000000E+00 -0.00000000000E+00 -0.11022065265E+03  0.11022065265E+03  0.00000000000E+00 0.  1.
         24    2    1    2    0    0 -0.31459504219E+02 -0.80551669632E+02  0.62011523513E+03  0.63130121575E+03  0.80746815930E+02 0.  0.
        254    2    1    2    0    0  0.31459504219E+02  0.80551669632E+02  0.22219609571E+04  0.24312162818E+04  0.98296685703E+03 0.  0.
         23    2    4    4    0    0  0.24606383316E+03  0.46706575251E+03  0.11535660942E+04  0.12714139221E+04  0.84147493176E+02 0.  0.
         23    2    4    4    0    0 -0.21460432895E+03 -0.38651408288E+03  0.10683948630E+04  0.11598023597E+04  0.90696064137E+02 0.  0.
          4    1    3    3  502    0  0.59157905718E+01 -0.72980267879E+02  0.29472307187E+03  0.30368207910E+03  0.00000000000E+00 0. -1.
         -3    1    3    3    0  502 -0.37375294790E+02 -0.75714017527E+01  0.32539216326E+03  0.32761913664E+03  0.00000000000E+00 0.  1.
         11    1    5    5    0    0  0.10677643253E+03  0.13917611179E+03  0.44515747544E+03  0.47847296117E+03  0.00000000000E+00 0.  1.
        -11    1    5    5    0    0  0.13928740063E+03  0.32788964072E+03  0.70840861873E+03  0.79294096095E+03  0.00000000000E+00 0. -1.
          2    1    6    6  503    0 -0.52812341899E+02 -0.18330380393E+03  0.41877321242E+03  0.46017434895E+03  0.00000000000E+00 0. -1.
         -2    1    6    6    0  503 -0.16179198705E+03 -0.20321027894E+03  0.64962165053E+03  0.69962801072E+03  0.00000000000E+00 0.  1.
<mgrwt>
<rscale>  0 0.11408840E+04</rscale>
<asrwt>0</asrwt>
<pdfrwt beam="1">  1        2 0.45419945E+00 0.11408840E+04</pdfrwt>
<pdfrwt beam="2">  1       -1 0.16957026E-01 0.11408840E+04</pdfrwt>
<totfact> 0.57520133E+01</totfact>
</mgrwt>
</event>
<event>
12    6  0.1530859E-007  0.1336329E+04  0.7818608E-02  0.9001242E-01
          2   -1    0    0  501    0  0.00000000000E+00  0.00000000000E+00  0.18438039762E+04  0.18438039762E+04  0.00000000000E+00 0. -1.
         -1   -1    0    0    0  501 -0.00000000000E+00 -0.00000000000E+00 -0.24213195493E+03  0.24213195493E+03  0.00000000000E+00 0.  1.
         24    2    1    2    0    0 -0.51155805480E+02  0.23059388560E+03  0.85540164686E+03  0.89054102806E+03  0.74571366433E+02 0.  0.
        254    2    1    2    0    0  0.51155805480E+02 -0.23059388560E+03  0.74627037446E+03  0.11953949031E+04  0.90347055630E+03 0.  0.
         23    2    4    4    0    0 -0.14156557125E+03 -0.27590394195E+03  0.88139676427E+03  0.93876089100E+03  0.90818270527E+02 0.  0.
         23    2    4    4    0    0  0.19272137673E+03  0.45310056354E+02 -0.13512638981E+03  0.25663401211E+03  0.91691573739E+02 0.  0.
          2    1    3    3  502    0 -0.58229909516E+02  0.21754838987E+03  0.83768811698E+03  0.86743265192E+03  0.00000000000E+00 0. -1.
         -1    1    3    3    0  502  0.70741040360E+01  0.13045495724E+02  0.17713529885E+02  0.23108376134E+02  0.00000000000E+00 0.  1.
         11    1    5    5    0    0 -0.52524260547E+02 -0.15972852713E+03  0.57699867149E+03  0.60099872481E+03  0.00000000000E+00 0.  1.
        -11    1    5    5    0    0 -0.89041310704E+02 -0.11617541483E+03  0.30439809278E+03  0.33776216619E+03  0.00000000000E+00 0. -1.
          1    1    6    6  503    0  0.59523566570E+02  0.53892918309E+02 -0.26538820799E+02  0.84568378431E+02  0.00000000000E+00 0. -1.
         -1    1    6    6    0  503  0.13319781016E+03 -0.85828619545E+01 -0.10858756901E+03  0.17206563368E+03  0.00000000000E+00 0.  1.
<mgrwt>
<rscale>  0 0.13363291E+04</rscale>
<asrwt>0</asrwt>
<pdfrwt beam="1">  1        2 0.28366214E+00 0.13363291E+04</pdfrwt>
<pdfrwt beam="2">  1       -1 0.37251071E-01 0.13363291E+04</pdfrwt>
<totfact> 0.63032987E+01</totfact>
</mgrwt>
</event>
<event>
12    6  0.1530859E-007  0.1690714E+04  0.7818608E-02  0.8766678E-01
          2   -1    0    0  501    0  0.00000000000E+00  0.00000000000E+00  0.13631634919E+04  0.13631634919E+04  0.00000000000E+00 0. -1.
         -1   -1    0    0    0  501 -0.00000000000E+00 -0.00000000000E+00 -0.52424244127E+03  0.52424244127E+03  0.00000000000E+00 0.  1.
         24    2    1    2    0    0 -0.15005377278E+03  0.22062911368E+03  0.91166169476E+03  0.95335050977E+03  0.80974120903E+02 0.  0.
        254    2    1    2    0    0  0.15005377278E+03 -0.22062911368E+03 -0.72740644163E+02  0.93405542337E+03  0.89217430589E+03 0.  0.
         23    2    4    4    0    0  0.27065242099E+03 -0.38756547697E+03 -0.33643385272E+03  0.58719397583E+03  0.90273451580E+02 0.  0.
         23    2    4    4    0    0 -0.12059864821E+03  0.16693636329E+03  0.26369320856E+03  0.34686144754E+03  0.91471155081E+02 0.  0.
          2    1    3    3  502    0 -0.66974449285E+02  0.16704553343E+03  0.58565873240E+03  0.61268747166E+03  0.00000000000E+00 0. -1.
         -1    1    3    3    0  502 -0.83079323496E+02  0.53583580253E+02  0.32600296236E+03  0.34066303810E+03  0.00000000000E+00 0.  1.
         11    1    5    5    0    0  0.11977286399E+03 -0.24121179590E+03 -0.21360285372E+03  0.34373659762E+03  0.00000000000E+00 0.  1.
        -11    1    5    5    0    0  0.15087955701E+03 -0.14635368107E+03 -0.12283099900E+03  0.24345737820E+03  0.00000000000E+00 0. -1.
          1    1    6    6  503    0 -0.53553009070E+02  0.21381200149E+02  0.34490098954E+02  0.67191126097E+02  0.00000000000E+00 0. -1.
         -1    1    6    6    0  503 -0.67045639144E+02  0.14555516314E+03  0.22920310961E+03  0.27967032145E+03  0.00000000000E+00 0.  1.
<mgrwt>
<rscale>  0 0.16907136E+04</rscale>
<asrwt>0</asrwt>
<pdfrwt beam="1">  1        2 0.20971746E+00 0.16907136E+04</pdfrwt>
<pdfrwt beam="2">  1       -1 0.80652684E-01 0.16907136E+04</pdfrwt>
<totfact> 0.25282777E+01</totfact>
</mgrwt>
</event>
<event>
12    6  0.1530859E-007  0.1652624E+04  0.7818608E-02  0.8788856E-01
          2   -1    0    0  501    0  0.00000000000E+00  0.00000000000E+00  0.54033645493E+03  0.54033645493E+03  0.00000000000E+00 0. -1.
         -1   -1    0    0    0  501 -0.00000000000E+00 -0.00000000000E+00 -0.12636417992E+04  0.12636417992E+04  0.00000000000E+00 0.  1.
         24    2    1    2    0    0  0.15574935386E+03  0.25338793864E+03  0.28668917955E+03  0.42098791255E+03  0.81097645894E+02 0.  0.
        254    2    1    2    0    0 -0.15574935386E+03 -0.25338793864E+03 -0.10099945238E+04  0.13829903415E+04  0.89672182871E+03 0.  0.
         23    2    4    4    0    0 -0.41146791267E+03 -0.39917911216E+03 -0.86732163525E+03  0.10435689360E+04  0.90219168638E+02 0.  0.
         23    2    4    4    0    0  0.25571855881E+03  0.14579117353E+03 -0.14267288851E+03  0.33942140557E+03  0.90577534991E+02 0.  0.
          2    1    3    3  502    0  0.87781456887E+02  0.71763665137E+02  0.12218437008E+03  0.16668721636E+03  0.00000000000E+00 0. -1.
         -1    1    3    3    0  502  0.67967896972E+02  0.18162427350E+03  0.16450480947E+03  0.25430069618E+03  0.00000000000E+00 0.  1.
         11    1    5    5    0    0 -0.25447419726E+03 -0.21973106104E+03 -0.57788089828E+03  0.66856950937E+03  0.00000000000E+00 0. -1.
        -11    1    5    5    0    0 -0.15699371541E+03 -0.17944805112E+03 -0.28944073697E+03  0.37499942660E+03  0.00000000000E+00 0.  1.
          1    1    6    6  503    0  0.15984054801E+03  0.50243856722E+02 -0.48172060055E+02  0.17433873149E+03  0.00000000000E+00 0. -1.
         -1    1    6    6    0  503  0.95878010798E+02  0.95547316804E+02 -0.94500828454E+02  0.16508267408E+03  0.00000000000E+00 0.  1.
<mgrwt>
<rscale>  0 0.16526243E+04</rscale>
<asrwt>0</asrwt>
<pdfrwt beam="1">  1        2 0.83128685E-01 0.16526243E+04</pdfrwt>
<pdfrwt beam="2">  1       -1 0.19440643E+00 0.16526243E+04</pdfrwt>
<totfact> 0.10097009E+01</totfact>
</mgrwt>
</event>
<event>
12    6  0.1530859E-007  0.2281607E+04  0.7818608E-02  0.8485209E-01
         -1   -1    0    0    0  501 -0.00000000000E+00  0.00000000000E+00  0.70991636958E+03  0.70991636958E+03  0.00000000000E+00 0.  1.
          2   -1    0    0  501    0  0.00000000000E+00 -0.00000000000E+00 -0.18332190456E+04  0.18332190456E+04  0.00000000000E+00 0. -1.
         24    2    1    2    0    0  0.39820968106E+03  0.51074246598E+03  0.32789023516E+03  0.73030924598E+03  0.80067295444E+02 0.  0.
        254    2    1    2    0    0 -0.39820968106E+03 -0.51074246598E+03 -0.14511929112E+04  0.18128261692E+04  0.87232392930E+03 0.  0.
         23    2    4    4    0    0  0.22350881820E+03 -0.35077754790E+03 -0.71502524484E+03  0.83186327602E+03  0.87945035767E+02 0.  0.
         23    2    4    4    0    0 -0.62171849926E+03 -0.15996491808E+03 -0.73616766633E+03  0.98096289317E+03  0.90679090699E+02 0.  0.
          4    1    3    3  502    0  0.25401826489E+03  0.31584034877E+03  0.16172315157E+03  0.43638833917E+03  0.00000000000E+00 0. -1.
         -3    1    3    3    0  502  0.14419141617E+03  0.19490211721E+03  0.16616708359E+03  0.29392090681E+03  0.00000000000E+00 0.  1.
         11    1    5    5    0    0  0.22383206339E+03 -0.30611550289E+03 -0.65767486109E+03  0.75917304787E+03  0.00000000000E+00 0. -1.
        -11    1    5    5    0    0 -0.32324519230E+00 -0.44662045013E+02 -0.57350383752E+02  0.72690228152E+02  0.00000000000E+00 0.  1.
          3    1    6    6  503    0 -0.49676665058E+03 -0.14215337672E+03 -0.63844605838E+03  0.82133918518E+03  0.00000000000E+00 0. -1.
         -3    1    6    6    0  503 -0.12495184868E+03 -0.17811541364E+02 -0.97721607945E+02  0.15962370799E+03  0.00000000000E+00 0.  1.
<mgrwt>
<rscale>  0 0.22816066E+04</rscale>
<asrwt>0</asrwt>
<pdfrwt beam="1">  1        2 0.28203370E+00 0.22816066E+04</pdfrwt>
<pdfrwt beam="2">  1       -1 0.10921790E+00 0.22816066E+04</pdfrwt>
<totfact> 0.66347081E+00</totfact>
</mgrwt>
</event>
<event>
12    6  0.1530859E-007  0.2327723E+04  0.7818608E-02  0.8467070E-01
         -1   -1    0    0    0  501 -0.00000000000E+00  0.00000000000E+00  0.19745720917E+04  0.19745720917E+04  0.00000000000E+00 0.  1.
          2   -1    0    0  501    0  0.00000000000E+00 -0.00000000000E+00 -0.68600851285E+03  0.68600851285E+03  0.00000000000E+00 0. -1.
         24    2    1    2    0    0  0.33057071603E+03  0.86168709792E+03  0.10559974264E+03  0.93296265398E+03  0.86523725376E+02 0.  0.
        254    2    1    2    0    0 -0.33057071603E+03 -0.86168709792E+03  0.11829638362E+04  0.17276179506E+04  0.85643370574E+03 0.  0.
         23    2    4    4    0    0 -0.54559174621E+03 -0.27169837512E+03  0.48507458462E+03  0.78440280995E+03  0.92195743052E+02 0.  0.
         23    2    4    4    0    0  0.21502103018E+03 -0.58998872281E+03  0.69788925158E+03  0.94321514062E+03  0.91020094205E+02 0.  0.
          4    1    3    3  502    0  0.32995256825E+03  0.80423464942E+03  0.94091114444E+02  0.87436560228E+03  0.00000000000E+00 0. -1.
         -3    1    3    3    0  502  0.61814777734E+00  0.57452448501E+02  0.11508628194E+02  0.58597051703E+02  0.00000000000E+00 0.  1.
         11    1    5    5    0    0 -0.30393412481E+03 -0.18839949779E+03  0.32201203503E+03  0.48120897092E+03  0.00000000000E+00 0.  1.
        -11    1    5    5    0    0 -0.24165762140E+03 -0.83298877328E+02  0.16306254959E+03  0.30319383902E+03  0.00000000000E+00 0. -1.
          2    1    6    6  503    0 -0.22244044384E+01 -0.19169913889E+02  0.46147824486E+02  0.50020548562E+02  0.00000000000E+00 0. -1.
         -2    1    6    6    0  503  0.21724543462E+03 -0.57081880892E+03  0.65174142710E+03  0.89319459206E+03  0.00000000000E+00 0.  1.
<mgrwt>
<rscale>  0 0.23277227E+04</rscale>
<asrwt>0</asrwt>
<pdfrwt beam="1">  1        2 0.10553977E+00 0.23277227E+04</pdfrwt>
<pdfrwt beam="2">  1       -1 0.30378032E+00 0.23277227E+04</pdfrwt>
<totfact> 0.13544718E+00</totfact>
</mgrwt>
</event>
<event>
12    6  0.1530859E-007  0.1764662E+04  0.7818608E-02  0.8725321E-01
          2   -1    0    0  501    0  0.00000000000E+00  0.00000000000E+00  0.20856200549E+04  0.20856200549E+04  0.00000000000E+00 0. -1.
         -1   -1    0    0    0  501 -0.00000000000E+00 -0.00000000000E+00 -0.37327394553E+03  0.37327394553E+03  0.00000000000E+00 0.  1.
         24    2    1    2    0    0 -0.18656163907E+03 -0.50596560381E+03  0.13046016303E+03  0.56108142332E+03  0.83582725812E+02 0.  0.
        254    2    1    2    0    0  0.18656163907E+03  0.50596560381E+03  0.15818859464E+04  0.18978125771E+04  0.89917906626E+03 0.  0.
         23    2    4    4    0    0  0.60153423499E+02 -0.16010050830E+03  0.24736249876E+02  0.19707286433E+03  0.94737662415E+02 0.  0.
         23    2    4    4    0    0  0.12640821557E+03  0.66606611211E+03  0.15571496965E+04  0.17007397128E+04  0.90428373646E+02 0.  0.
          4    1    3    3  502    0 -0.73707253079E+01 -0.16690093620E+01  0.99505308010E+01  0.12495048901E+02  0.00000000000E+00 0. -1.
         -3    1    3    3    0  502 -0.17919091376E+03 -0.50429659444E+03  0.12050963223E+03  0.54858637442E+03  0.00000000000E+00 0.  1.
         11    1    5    5    0    0  0.64727497020E+02 -0.11251901881E+03 -0.20314369898E+02  0.13138817332E+03  0.00000000000E+00 0. -1.
        -11    1    5    5    0    0 -0.45740735207E+01 -0.47581489495E+02  0.45050619774E+02  0.65684691011E+02  0.00000000000E+00 0.  1.
          3    1    6    6  503    0  0.11374801204E+03  0.59411880224E+03  0.14493443147E+04  0.15705141527E+04  0.00000000000E+00 0. -1.
         -3    1    6    6    0  503  0.12660203531E+02  0.71947309864E+02  0.10780538184E+03  0.13022556010E+03  0.00000000000E+00 0.  1.
<mgrwt>
<rscale>  0 0.17646616E+04</rscale>
<asrwt>0</asrwt>
<pdfrwt beam="1">  1        2 0.32086462E+00 0.17646616E+04</pdfrwt>
<pdfrwt beam="2">  1       -1 0.57426762E-01 0.17646616E+04</pdfrwt>
<totfact> 0.19821253E+01</totfact>
</mgrwt>
</event>
<event>
12    6  0.1530859E-007  0.1920313E+04  0.7818608E-02  0.8644811E-01
         -1   -1    0    0    0  501 -0.00000000000E+00  0.00000000000E+00  0.39881997359E+03  0.39881997359E+03  0.00000000000E+00 0.  1.
          2   -1    0    0  501    0  0.00000000000E+00 -0.00000000000E+00 -0.23115716663E+04  0.23115716663E+04  0.00000000000E+00 0. -1.
         24    2    1    2    0    0 -0.40031148388E+03  0.75676377744E+02 -0.16292338024E+04  0.16813502418E+04  0.80991692383E+02 0.  0.
        254    2    1    2    0    0  0.40031148388E+03 -0.75676377744E+02 -0.28351789024E+03  0.10290413981E+04  0.90142531948E+03 0.  0.
         23    2    4    4    0    0 -0.11653199395E+03 -0.29103766294E+03  0.10014840699E+03  0.34422706526E+03  0.10089569947E+03 0.  0.
         23    2    4    4    0    0  0.51684347783E+03  0.21536128520E+03 -0.38366629723E+03  0.68481433282E+03  0.90902030042E+02 0.  0.
          4    1    3    3  502    0 -0.90474261500E+02  0.96291051330E+01 -0.51412735375E+03  0.52211612457E+03  0.00000000000E+00 0. -1.
         -3    1    3    3    0  502 -0.30983722238E+03  0.66047272611E+02 -0.11151064487E+04  0.11592341172E+04  0.00000000000E+00 0.  1.
         11    1    5    5    0    0 -0.10756939835E+03 -0.24180708598E+03  0.42759886314E+02  0.26808627374E+03  0.00000000000E+00 0.  1.
        -11    1    5    5    0    0 -0.89625955977E+01 -0.49230576961E+02  0.57388520676E+02  0.76140791519E+02  0.00000000000E+00 0. -1.
          2    1    6    6  503    0  0.43884071953E+03  0.17529475255E+03 -0.28098359034E+03  0.54978287117E+03  0.00000000000E+00 0.  1.
         -2    1    6    6    0  503  0.78002758299E+02  0.40066532643E+02 -0.10268270690E+03  0.13503146165E+03  0.00000000000E+00 0. -1.
<mgrwt>
<rscale>  0 0.19203135E+04</rscale>
<asrwt>0</asrwt>
<pdfrwt beam="1">  1        2 0.35562642E+00 0.19203135E+04</pdfrwt>
<pdfrwt beam="2">  1       -1 0.61356918E-01 0.19203135E+04</pdfrwt>
<totfact> 0.12810966E+01</totfact>
</mgrwt>
</event>
<event>
12    6  0.1530859E-007  0.1285686E+04  0.7818608E-02  0.9040994E-01
          2   -1    0    0  501    0  0.00000000000E+00  0.00000000000E+00  0.16716624457E+04  0.16716624457E+04  0.00000000000E+00 0. -1.
         -1   -1    0    0    0  501 -0.00000000000E+00 -0.00000000000E+00 -0.24720736034E+03  0.24720736034E+03  0.00000000000E+00 0.  1.
         24    2    1    2    0    0  0.22946021151E+03  0.16994490821E+03  0.13265207593E+03  0.32482487066E+03  0.79883432939E+02 0.  0.
        254    2    1    2    0    0 -0.22946021151E+03 -0.16994490821E+03  0.12918030094E+04  0.15940449353E+04  0.88920806355E+03 0.  0.
         23    2    4    4    0    0  0.17652269568E+03  0.16772013487E+02 -0.25315931947E+02  0.20013445976E+03  0.89282378140E+02 0.  0.
         23    2    4    4    0    0 -0.40598290719E+03 -0.18671692170E+03  0.13171189414E+04  0.13939104756E+04  0.92188819754E+02 0.  0.
          2    1    3    3  502    0  0.12375674005E+03  0.87039764215E+02  0.11347689312E+03  0.18912603347E+03  0.00000000000E+00 0. -1.
         -1    1    3    3    0  502  0.10570347146E+03  0.82905143994E+02  0.19175182805E+02  0.13569883719E+03  0.00000000000E+00 0.  1.
         11    1    5    5    0    0  0.15273917401E+03  0.44985345851E+02 -0.32581780815E+02  0.16252541050E+03  0.00000000000E+00 0.  1.
        -11    1    5    5    0    0  0.23783521672E+02 -0.28213332364E+02  0.72658488678E+01  0.37609049257E+02  0.00000000000E+00 0. -1.
          1    1    6    6  503    0 -0.54231347253E+02 -0.15006163081E+02  0.27517470420E+03  0.28086890499E+03  0.00000000000E+00 0. -1.
         -1    1    6    6    0  503 -0.35175155994E+03 -0.17171075861E+03  0.10419442372E+04  0.11130415706E+04  0.00000000000E+00 0.  1.
<mgrwt>
<rscale>  0 0.12856862E+04</rscale>
<asrwt>0</asrwt>
<pdfrwt beam="1">  1        2 0.25717883E+00 0.12856862E+04</pdfrwt>
<pdfrwt beam="2">  1       -1 0.38031903E-01 0.12856862E+04</pdfrwt>
<totfact> 0.75908756E+01</totfact>
</mgrwt>
</event>
<event>
12    6  0.1530859E-007  0.2009697E+04  0.7818608E-02  0.8602101E-01
          2   -1    0    0  501    0  0.00000000000E+00  0.00000000000E+00  0.81478021176E+03  0.81478021176E+03  0.00000000000E+00 0. -1.
         -1   -1    0    0    0  501 -0.00000000000E+00 -0.00000000000E+00 -0.12392546600E+04  0.12392546600E+04  0.00000000000E+00 0.  1.
         24    2    1    2    0    0 -0.64905189768E+01 -0.41076467938E+03 -0.87619669442E+03  0.97113666904E+03  0.81339006469E+02 0.  0.
        254    2    1    2    0    0  0.64905189768E+01  0.41076467938E+03  0.45172224619E+03  0.10828982027E+04  0.89434097583E+03 0.  0.
         23    2    4    4    0    0  0.16414333518E+02  0.55189378588E+03  0.62602827383E+03  0.84078737273E+03  0.10077611460E+03 0.  0.
         23    2    4    4    0    0 -0.99238145412E+01 -0.14112910650E+03 -0.17430602764E+03  0.24211082997E+03  0.90659560553E+02 0.  0.
          2    1    3    3  502    0  0.26822598462E+02 -0.57354719661E+02 -0.15033438151E+03  0.16312400780E+03  0.00000000000E+00 0. -1.
         -1    1    3    3    0  502 -0.33313117439E+02 -0.35340995972E+03 -0.72586231291E+03  0.80801266124E+03  0.00000000000E+00 0.  1.
         11    1    5    5    0    0  0.25187307092E+02  0.40085770670E+02  0.74946362752E+02  0.88646639747E+02  0.00000000000E+00 0. -1.
        -11    1    5    5    0    0 -0.87729735737E+01  0.51180801521E+03  0.55108191108E+03  0.75214073299E+03  0.00000000000E+00 0.  1.
          1    1    6    6  503    0 -0.22931298383E+02 -0.45673520234E+02 -0.10649780329E+02  0.52204719300E+02  0.00000000000E+00 0. -1.
         -1    1    6    6    0  503  0.13007483842E+02 -0.95455586267E+02 -0.16365624731E+03  0.18990611067E+03  0.00000000000E+00 0.  1.
<mgrwt>
<rscale>  0 0.20096967E+04</rscale>
<asrwt>0</asrwt>
<pdfrwt beam="1">  1        2 0.12535080E+00 0.20096967E+04</pdfrwt>
<pdfrwt beam="2">  1       -1 0.19065456E+00 0.20096967E+04</pdfrwt>
<totfact> 0.62254432E+00</totfact>
</mgrwt>
</event>
<event>
12    6  0.1530859E-007  0.2146090E+04  0.7818608E-02  0.8541208E-01
          2   -1    0    0  501    0  0.00000000000E+00  0.00000000000E+00  0.13063486031E+04  0.13063486031E+04  0.00000000000E+00 0. -1.
         -1   -1    0    0    0  501 -0.00000000000E+00 -0.00000000000E+00 -0.88140788608E+03  0.88140788608E+03  0.00000000000E+00 0.  1.
         24    2    1    2    0    0 -0.18750424672E+03 -0.61342557908E+03 -0.43771704645E+03  0.78066510428E+03  0.79956292261E+02 0.  0.
        254    2    1    2    0    0  0.18750424672E+03  0.61342557908E+03  0.86265776347E+03  0.14070913849E+04  0.90789810277E+03 0.  0.
         23    2    4    4    0    0  0.43266068712E+03 -0.17103389870E+01  0.31329963268E+03  0.54212004561E+03  0.92408271115E+02 0.  0.
         23    2    4    4    0    0 -0.24515644040E+03  0.61513591807E+03  0.54935813079E+03  0.86497133931E+03  0.88809819250E+02 0.  0.
          2    1    3    3  502    0 -0.65498122840E+02 -0.26436118038E+03 -0.23042688140E+03  0.35675395647E+03  0.00000000000E+00 0. -1.
         -1    1    3    3    0  502 -0.12200612388E+03 -0.34906439870E+03 -0.20729016505E+03  0.42391114780E+03  0.00000000000E+00 0.  1.
         11    1    5    5    0    0  0.14527166435E+03 -0.18935087576E+02  0.58815964559E+02  0.15786611952E+03  0.00000000000E+00 0. -1.
        -11    1    5    5    0    0  0.28738902277E+03  0.17224748589E+02  0.25448366812E+03  0.38425392609E+03  0.00000000000E+00 0.  1.
          3    1    6    6  503    0 -0.17190793574E+02  0.77945105366E+01  0.10213145257E+02  0.21461270099E+02  0.00000000000E+00 0. -1.
         -3    1    6    6    0  503 -0.22796564682E+03  0.60734140753E+03  0.53914498553E+03  0.84351006921E+03  0.00000000000E+00 0.  1.
<mgrwt>
<rscale>  0 0.21460904E+04</rscale>
<asrwt>0</asrwt>
<pdfrwt beam="1">  1        2 0.20097671E+00 0.21460904E+04</pdfrwt>
<pdfrwt beam="2">  1       -1 0.13560121E+00 0.21460904E+04</pdfrwt>
<totfact> 0.78115381E+00</totfact>
</mgrwt>
</event>
<event>
12    6  0.1530859E-007  0.1570664E+04  0.7818608E-02  0.8838776E-01
          2   -1    0    0  501    0  0.00000000000E+00  0.00000000000E+00  0.15436627021E+04  0.15436627021E+04  0.00000000000E+00 0. -1.
         -1   -1    0    0    0  501 -0.00000000000E+00 -0.00000000000E+00 -0.39953434505E+03  0.39953434505E+03  0.00000000000E+00 0.  1.
         24    2    1    2    0    0 -0.84325273373E+02  0.67999446791E+02  0.10168807320E+04  0.10257541905E+04  0.79940976253E+02 0.  0.
        254    2    1    2    0    0  0.84325273373E+02 -0.67999446791E+02  0.12724762511E+03  0.91744285673E+03  0.90209465178E+03 0.  0.
         23    2    4    4    0    0 -0.24105940076E+03  0.22767192895E+03 -0.16506830185E+03  0.38167506053E+03  0.92109530622E+02 0.  0.
         23    2    4    4    0    0  0.32538467413E+03 -0.29567137574E+03  0.29231592696E+03  0.53576779620E+03  0.91114113632E+02 0.  0.
          4    1    3    3  502    0 -0.72340959837E+02  0.33814960958E+02  0.89628992422E+03  0.89984014931E+03  0.00000000000E+00 0. -1.
         -3    1    3    3    0  502 -0.11984313536E+02  0.34184485834E+02  0.12059080777E+03  0.12591404116E+03  0.00000000000E+00 0.  1.
         11    1    5    5    0    0 -0.14106232483E+03  0.80302841265E+02 -0.10675872577E+03  0.19427957003E+03  0.00000000000E+00 0. -1.
        -11    1    5    5    0    0 -0.99997075929E+02  0.14736908768E+03 -0.58309576074E+02  0.18739549050E+03  0.00000000000E+00 0.  1.
          3    1    6    6  503    0  0.18400262754E+03 -0.10764408661E+03  0.15245327378E+03  0.26208055443E+03  0.00000000000E+00 0. -1.
         -3    1    6    6    0  503  0.14138204659E+03 -0.18802728912E+03  0.13986265317E+03  0.27368724177E+03  0.00000000000E+00 0.  1.
<mgrwt>
<rscale>  0 0.15706639E+04</rscale>
<asrwt>0</asrwt>
<pdfrwt beam="1">  1        2 0.23748657E+00 0.15706639E+04</pdfrwt>
<pdfrwt beam="2">  1       -1 0.61466823E-01 0.15706639E+04</pdfrwt>
<totfact> 0.35257816E+01</totfact>
</mgrwt>
</event>
<event>
12    6  0.1530859E-007  0.1483600E+04  0.7818608E-02  0.8895433E-01
          2   -1    0    0  501    0  0.00000000000E+00  0.00000000000E+00  0.18448154337E+04  0.18448154337E+04  0.00000000000E+00 0. -1.
         -1   -1    0    0    0  501 -0.00000000000E+00 -0.00000000000E+00 -0.29827746725E+03  0.29827746725E+03  0.00000000000E+00 0.  1.
         24    2    1    2    0    0 -0.58223295467E+02 -0.12624756638E+03 -0.17388896871E+03  0.23677035158E+03  0.80588000317E+02 0.  0.
        254    2    1    2    0    0  0.58223295467E+02  0.12624756638E+03  0.17204269352E+04  0.19063225494E+04  0.80923941010E+03 0.  0.
         23    2    4    4    0    0 -0.15800868756E+03 -0.23741949373E+03  0.11628040432E+04  0.12003815095E+04  0.86416225363E+02 0.  0.
         23    2    4    4    0    0  0.21623198303E+03  0.36366706012E+03  0.55762289194E+03  0.70594103990E+03  0.91648573917E+02 0.  0.
          2    1    3    3  502    0 -0.13635843284E+02 -0.10952374663E+03 -0.10041104422E+03  0.14921047248E+03  0.00000000000E+00 0. -1.
         -1    1    3    3    0  502 -0.44587452183E+02 -0.16723819752E+02 -0.73477924493E+02  0.87559879094E+02  0.00000000000E+00 0.  1.
         11    1    5    5    0    0 -0.11031797796E+02 -0.78216556921E+01  0.13203969842E+02  0.18900361900E+02  0.00000000000E+00 0. -1.
        -11    1    5    5    0    0 -0.14697688976E+03 -0.22959783804E+03  0.11496000734E+04  0.11814811476E+04  0.00000000000E+00 0.  1.
          4    1    6    6  503    0  0.31639376816E+01  0.35367152910E+02  0.19402020248E+02  0.40463371044E+02  0.00000000000E+00 0. -1.
         -4    1    6    6    0  503  0.21306804534E+03  0.32829990721E+03  0.53822087169E+03  0.66547766886E+03  0.00000000000E+00 0.  1.
<mgrwt>
<rscale>  0 0.14835995E+04</rscale>
<asrwt>0</asrwt>
<pdfrwt beam="1">  1        2 0.28381775E+00 0.14835995E+04</pdfrwt>
<pdfrwt beam="2">  1       -1 0.45888842E-01 0.14835995E+04</pdfrwt>
<totfact> 0.42398132E+01</totfact>
</mgrwt>
</event>
<event>
12    6  0.1530859E-007  0.2797031E+04  0.7818608E-02  0.8304191E-01
         -3   -1    0    0    0  501 -0.00000000000E+00  0.00000000000E+00  0.15223365557E+04  0.15223365557E+04  0.00000000000E+00 0.  1.
          4   -1    0    0  501    0  0.00000000000E+00 -0.00000000000E+00 -0.12847651637E+04  0.12847651637E+04  0.00000000000E+00 0. -1.
         24    2    1    2    0    0  0.98639989722E+03 -0.33525418909E+02  0.88529943744E+03  0.13282462753E+04  0.79839608575E+02 0.  0.
        254    2    1    2    0    0 -0.98639989722E+03  0.33525418909E+02 -0.64772804538E+03  0.14788554441E+04  0.89070370646E+03 0.  0.
         23    2    4    4    0    0  0.51037873145E+02 -0.13978807418E+03 -0.33359156635E+03  0.37671414851E+03  0.92112140178E+02 0.  0.
         23    2    4    4    0    0 -0.10374377704E+04  0.17331349309E+03 -0.31413647903E+03  0.11021412955E+04  0.98585057851E+02 0.  0.
          2    1    3    3  502    0  0.47873624646E+03 -0.23836999783E+02  0.37742531874E+03  0.61008726217E+03  0.00000000000E+00 0. -1.
         -1    1    3    3    0  502  0.50766365076E+03 -0.96884191256E+01  0.50787411870E+03  0.71815901318E+03  0.00000000000E+00 0.  1.
         11    1    5    5    0    0  0.66452808943E+02 -0.13467163983E+03 -0.25063061390E+03  0.29217825213E+03  0.00000000000E+00 0. -1.
        -11    1    5    5    0    0 -0.15414935798E+02 -0.51164343529E+01 -0.82960952446E+02  0.84535896381E+02  0.00000000000E+00 0.  1.
          1    1    6    6  503    0 -0.46215594261E+03  0.10093870872E+03 -0.18620558660E+03  0.50837905021E+03  0.00000000000E+00 0. -1.
         -1    1    6    6    0  503 -0.57528182775E+03  0.72374784376E+02 -0.12793089243E+03  0.59376224534E+03  0.00000000000E+00 0.  1.
<mgrwt>
<rscale>  0 0.27970305E+04</rscale>
<asrwt>0</asrwt>
<pdfrwt beam="1">  1        4 0.19765618E+00 0.27970305E+04</pdfrwt>
<pdfrwt beam="2">  1       -3 0.23420563E+00 0.27970305E+04</pdfrwt>
<totfact> 0.24416166E-02</totfact>
</mgrwt>
</event>
<event>
12    6  0.1530859E-007  0.1756219E+04  0.7818608E-02  0.8729934E-01
         -1   -1    0    0    0  501 -0.00000000000E+00  0.00000000000E+00  0.29802408715E+03  0.29802408715E+03  0.00000000000E+00 0.  1.
          2   -1    0    0  501    0  0.00000000000E+00 -0.00000000000E+00 -0.25872960213E+04  0.25872960213E+04  0.00000000000E+00 0. -1.
         24    2    1    2    0    0  0.38505327354E+03 -0.25582491854E+03 -0.10825949166E+03  0.48176980640E+03  0.81667719533E+02 0.  0.
        254    2    1    2    0    0 -0.38505327354E+03  0.25582491854E+03 -0.21810124425E+04  0.24035503020E+04  0.89806813093E+03 0.  0.
         23    2    4    4    0    0 -0.31811078095E+03  0.46367803754E+03 -0.69274806534E+03  0.89663300151E+03  0.88651372832E+02 0.  0.
         23    2    4    4    0    0 -0.66942492597E+02 -0.20785311901E+03 -0.14882643771E+04  0.15069173005E+04  0.90469210199E+02 0.  0.
          2    1    3    3  502    0  0.93133806078E+02 -0.27079203771E+02 -0.65590397720E+01  0.97212191181E+02  0.00000000000E+00 0. -1.
         -1    1    3    3    0  502  0.29191946747E+03 -0.22874571476E+03 -0.10170045189E+03  0.38455761522E+03  0.00000000000E+00 0.  1.
         11    1    5    5    0    0 -0.99505820037E+01  0.57438749735E+02 -0.55413576748E+02  0.80429400976E+02  0.00000000000E+00 0. -1.
        -11    1    5    5    0    0 -0.30816019894E+03  0.40623928781E+03 -0.63733448859E+03  0.81620360053E+03  0.00000000000E+00 0.  1.
          4    1    6    6  503    0 -0.90484023570E+01 -0.53776926161E+02 -0.17292761881E+03  0.18132234479E+03  0.00000000000E+00 0. -1.
         -4    1    6    6    0  503 -0.57894090240E+02 -0.15407619285E+03 -0.13153367583E+04  0.13255949557E+04  0.00000000000E+00 0.  1.
<mgrwt>
<rscale>  0 0.17562193E+04</rscale>
<asrwt>0</asrwt>
<pdfrwt beam="1">  1        2 0.39804553E+00 0.17562193E+04</pdfrwt>
<pdfrwt beam="2">  1       -1 0.45849860E-01 0.17562193E+04</pdfrwt>
<totfact> 0.15819709E+01</totfact>
</mgrwt>
</event>
<event>
12    6  0.1530859E-007  0.1182346E+04  0.7818608E-02  0.9128451E-01
         -1   -1    0    0    0  501 -0.00000000000E+00  0.00000000000E+00  0.25351044865E+03  0.25351044865E+03  0.00000000000E+00 0.  1.
          2   -1    0    0  501    0  0.00000000000E+00 -0.00000000000E+00 -0.13785837289E+04  0.13785837289E+04  0.00000000000E+00 0. -1.
         24    2    1    2    0    0  0.91102350513E+02 -0.19339677540E+03 -0.67200108034E+02  0.23759320884E+03  0.78947624202E+02 0.  0.
        254    2    1    2    0    0 -0.91102350513E+02  0.19339677540E+03 -0.10578731722E+04  0.13945009687E+04  0.88308286826E+03 0.  0.
         23    2    4    4    0    0  0.26295960316E+03 -0.48694751015E+02 -0.87534776620E+03  0.91988065422E+03  0.91802911428E+02 0.  0.
         23    2    4    4    0    0 -0.35406195367E+03  0.24209152641E+03 -0.18252540601E+03  0.47462031447E+03  0.89335014815E+02 0.  0.
          2    1    3    3  502    0  0.35746238415E+02 -0.12746506331E+03 -0.73241557269E+02  0.15129263577E+03  0.00000000000E+00 0. -1.
         -3    1    3    3    0  502  0.55356112098E+02 -0.65931712083E+02  0.60414492348E+01  0.86300573079E+02  0.00000000000E+00 0.  1.
         11    1    5    5    0    0  0.56912659395E+01  0.15986115985E+02 -0.40859857568E+02  0.44243353996E+02  0.00000000000E+00 0.  1.
        -11    1    5    5    0    0  0.25726833722E+03 -0.64680867000E+02 -0.83448790864E+03  0.87563730023E+03  0.00000000000E+00 0. -1.
          4    1    6    6  503    0 -0.21751459441E+03  0.12981620418E+03 -0.62373269437E+02  0.26087405082E+03  0.00000000000E+00 0. -1.
         -4    1    6    6    0  503 -0.13654735926E+03  0.11227532223E+03 -0.12015213657E+03  0.21374626365E+03  0.00000000000E+00 0.  1.
<mgrwt>
<rscale>  0 0.11823458E+04</rscale>
<asrwt>0</asrwt>
<pdfrwt beam="1">  1        2 0.21208980E+00 0.11823458E+04</pdfrwt>
<pdfrwt beam="2">  1       -1 0.39001607E-01 0.11823458E+04</pdfrwt>
<totfact> 0.10683873E+02</totfact>
</mgrwt>
</event>
<event>
12    6  0.1530859E-007  0.1808225E+04  0.7818608E-02  0.8701938E-01
         -1   -1    0    0    0  501 -0.00000000000E+00  0.00000000000E+00  0.28803157967E+03  0.28803157967E+03  0.00000000000E+00 0.  1.
          2   -1    0    0  501    0  0.00000000000E+00 -0.00000000000E+00 -0.28379513507E+04  0.28379513507E+04  0.00000000000E+00 0. -1.
         24    2    1    2    0    0  0.13294080424E+03  0.46305543871E+03 -0.17303993116E+04  0.17980743966E+04  0.81830074601E+02 0.  0.
        254    2    1    2    0    0 -0.13294080424E+03 -0.46305543871E+03 -0.81952045942E+03  0.13279085338E+04  0.92716432959E+03 0.  0.
         23    2    4    4    0    0 -0.59411773661E+02 -0.72116726702E+03 -0.72717354180E+03  0.10302231521E+04  0.94691062735E+02 0.  0.
         23    2    4    4    0    0 -0.73529030584E+02  0.25811182831E+03 -0.92346917613E+02  0.29768538173E+03  0.89779725173E+02 0.  0.
          4    1    3    3  502    0  0.24486914487E+02  0.20938242152E+03 -0.67057159527E+03  0.70292735884E+03  0.00000000000E+00 0. -1.
         -3    1    3    3    0  502  0.10845388976E+03  0.25367301719E+03 -0.10598277164E+04  0.10951470377E+04  0.00000000000E+00 0.  1.
         11    1    5    5    0    0 -0.32956535843E+01 -0.49500592527E+03 -0.52701931236E+03  0.72304293301E+03  0.00000000000E+00 0.  1.
        -11    1    5    5    0    0 -0.56116120077E+02 -0.22616134175E+03 -0.20015422945E+03  0.30718021909E+03  0.00000000000E+00 0. -1.
          1    1    6    6  503    0 -0.18155050274E+01  0.15663717336E+03 -0.33464170189E+02  0.16018224254E+03  0.00000000000E+00 0. -1.
         -1    1    6    6    0  503 -0.71713525556E+02  0.10147465495E+03 -0.58882747424E+02  0.13750313919E+03  0.00000000000E+00 0.  1.
<mgrwt>
<rscale>  0 0.18082252E+04</rscale>
<asrwt>0</asrwt>
<pdfrwt beam="1">  1        2 0.43660791E+00 0.18082252E+04</pdfrwt>
<pdfrwt beam="2">  1       -1 0.44312550E-01 0.18082252E+04</pdfrwt>
<totfact> 0.11904662E+01</totfact>
</mgrwt>
</event>
<event>
12    6  0.1530859E-007  0.1535731E+04  0.7818608E-02  0.8861034E-01
          2   -1    0    0  501    0  0.00000000000E+00  0.00000000000E+00  0.98717719159E+03  0.98717719159E+03  0.00000000000E+00 0. -1.
         -1   -1    0    0    0  501 -0.00000000000E+00 -0.00000000000E+00 -0.59727634840E+03  0.59727634840E+03  0.00000000000E+00 0.  1.
         24    2    1    2    0    0  0.57596967916E+02 -0.33865234148E+02  0.64365934815E+03  0.65226070100E+03  0.81745952888E+02 0.  0.
        254    2    1    2    0    0 -0.57596967916E+02  0.33865234148E+02 -0.25375850496E+03  0.93219283900E+03  0.89449753797E+03 0.  0.
         23    2    4    4    0    0  0.28851486202E+03  0.14222064956E+03 -0.40947222824E+03  0.52851746706E+03  0.90529931619E+02 0.  0.
         23    2    4    4    0    0 -0.34611182993E+03 -0.10835541541E+03  0.15571372328E+03  0.40367537194E+03  0.84692074152E+02 0.  0.
          2    1    3    3  502    0 -0.10253866272E+02 -0.36198993931E+02  0.21878095221E+03  0.22199237371E+03  0.00000000000E+00 0. -1.
         -1    1    3    3    0  502  0.67850834187E+02  0.23337597832E+01  0.42487839594E+03  0.43026832729E+03  0.00000000000E+00 0.  1.
         11    1    5    5    0    0  0.10324887446E+03  0.97684762873E+02 -0.19979587075E+03  0.24519590728E+03  0.00000000000E+00 0. -1.
        -11    1    5    5    0    0  0.18526598755E+03  0.44535886685E+02 -0.20967635749E+03  0.28332155978E+03  0.00000000000E+00 0.  1.
          1    1    6    6  503    0 -0.12299976451E+03 -0.50868534226E+02  0.10041641243E+03  0.16673333719E+03  0.00000000000E+00 0. -1.
         -1    1    6    6    0  503 -0.22311206543E+03 -0.57486881184E+02  0.55297310849E+02  0.23694203475E+03  0.00000000000E+00 0.  1.
<mgrwt>
<rscale>  0 0.15357312E+04</rscale>
<asrwt>0</asrwt>
<pdfrwt beam="1">  1        2 0.15187341E+00 0.15357312E+04</pdfrwt>
<pdfrwt beam="2">  1       -1 0.91888669E-01 0.15357312E+04</pdfrwt>
<totfact> 0.32569076E+01</totfact>
</mgrwt>
</event>
<event>
12    6  0.1530859E-007  0.1888635E+04  0.7818608E-02  0.8660534E-01
         -1   -1    0    0    0  501 -0.00000000000E+00  0.00000000000E+00  0.93293385180E+03  0.93293385180E+03  0.00000000000E+00 0.  1.
          2   -1    0    0  501    0  0.00000000000E+00 -0.00000000000E+00 -0.95583966748E+03  0.95583966748E+03  0.00000000000E+00 0. -1.
         24    2    1    2    0    0  0.58687584625E+03  0.12230895215E+03 -0.41880907043E+03  0.73556953316E+03  0.79238639259E+02 0.  0.
        254    2    1    2    0    0 -0.58687584625E+03 -0.12230895215E+03  0.39590325475E+03  0.11532039861E+04  0.90208497815E+03 0.  0.
         23    2    4    4    0    0 -0.16112823549E+03  0.30479512599E+03 -0.96076566177E+02  0.36961607582E+03  0.92319877808E+02 0.  0.
         23    2    4    4    0    0 -0.42574761075E+03 -0.42710407814E+03  0.49197982092E+03  0.78358791030E+03  0.91032671891E+02 0.  0.
          4    1    3    3  502    0  0.46816700214E+03  0.10803390275E+03 -0.29683520422E+03  0.56476792092E+03  0.00000000000E+00 0. -1.
         -3    1    3    3    0  502  0.11870884411E+03  0.14275049394E+02 -0.12197386621E+03  0.17080161224E+03  0.00000000000E+00 0.  1.
         11    1    5    5    0    0 -0.33394095513E+02  0.21120135274E+02 -0.34541716958E+02  0.52481958228E+02  0.00000000000E+00 0. -1.
        -11    1    5    5    0    0 -0.12773413998E+03  0.28367499072E+03 -0.61534849219E+02  0.31713411759E+03  0.00000000000E+00 0.  1.
          2    1    6    6  503    0 -0.41321281167E+03 -0.39904046477E+03  0.48562227653E+03  0.75220151270E+03  0.00000000000E+00 0.  1.
         -2    1    6    6    0  503 -0.12534799086E+02 -0.28063613369E+02  0.63575443882E+01  0.31386397597E+02  0.00000000000E+00 0. -1.
<mgrwt>
<rscale>  0 0.18886346E+04</rscale>
<asrwt>0</asrwt>
<pdfrwt beam="1">  1        2 0.14705226E+00 0.18886346E+04</pdfrwt>
<pdfrwt beam="2">  1       -1 0.14352829E+00 0.18886346E+04</pdfrwt>
<totfact> 0.11299519E+01</totfact>
</mgrwt>
</event>
<event>
12    6  0.1530859E-007  0.2895297E+04  0.7818608E-02  0.8274278E-01
         -1   -1    0    0    0  501 -0.00000000000E+00  0.00000000000E+00  0.71224825004E+03  0.71224825004E+03  0.00000000000E+00 0.  1.
          2   -1    0    0  501    0  0.00000000000E+00 -0.00000000000E+00 -0.29423535567E+04  0.29423535567E+04  0.00000000000E+00 0. -1.
         24    2    1    2    0    0 -0.11037902121E+04  0.68344166804E+03 -0.10986253446E+04  0.17042855179E+04  0.11030019428E+03 0.  0.
        254    2    1    2    0    0  0.11037902121E+04 -0.68344166804E+03 -0.11314799621E+04  0.19503162888E+04  0.91544599847E+03 0.  0.
         23    2    4    4    0    0  0.10533953861E+03 -0.55859377251E+03 -0.35970825453E+03  0.67893561746E+03  0.91870143135E+02 0.  0.
         23    2    4    4    0    0  0.99845067345E+03 -0.12484789554E+03 -0.77177170755E+03  0.12713806714E+04  0.91030207490E+02 0.  0.
          4    1    3    3  502    0 -0.16309326551E+03  0.92306119115E+02 -0.11131385957E+03  0.21796928273E+03  0.00000000000E+00 0. -1.
         -3    1    3    3    0  502 -0.94069694655E+03  0.59113554893E+03 -0.98731148501E+03  0.14863162352E+04  0.00000000000E+00 0.  1.
         11    1    5    5    0    0  0.36915740526E+02 -0.82774386878E+02 -0.90007149956E+02  0.12773276034E+03  0.00000000000E+00 0.  1.
        -11    1    5    5    0    0  0.68423798083E+02 -0.47581938563E+03 -0.26970110457E+03  0.55120285711E+03  0.00000000000E+00 0. -1.
          2    1    6    6  503    0  0.27763630327E+03 -0.73499520925E+02 -0.20172418550E+03  0.35096544486E+03  0.00000000000E+00 0. -1.
         -2    1    6    6    0  503  0.72081437019E+03 -0.51348374610E+02 -0.57004752205E+03  0.92041522654E+03  0.00000000000E+00 0.  1.
<mgrwt>
<rscale>  0 0.28952970E+04</rscale>
<asrwt>0</asrwt>
<pdfrwt beam="1">  1        2 0.45266978E+00 0.28952970E+04</pdfrwt>
<pdfrwt beam="2">  1       -1 0.10957665E+00 0.28952970E+04</pdfrwt>
<totfact> 0.14286276E+00</totfact>
</mgrwt>
</event>
<event>
12    6  0.1530859E-007  0.1649425E+04  0.7818608E-02  0.8790747E-01
         -1   -1    0    0    0  501 -0.00000000000E+00  0.00000000000E+00  0.11676797269E+04  0.11676797269E+04  0.00000000000E+00 0.  1.
          2   -1    0    0  501    0  0.00000000000E+00 -0.00000000000E+00 -0.58248021845E+03  0.58248021845E+03  0.00000000000E+00 0. -1.
         24    2    1    2    0    0  0.51050428995E+03 -0.16110114983E+03 -0.18516404328E+02  0.54136617435E+03  0.78525581637E+02 0.  0.
        254    2    1    2    0    0 -0.51050428995E+03  0.16110114983E+03  0.60371591275E+03  0.12087937710E+04  0.90007847818E+03 0.  0.
         23    2    4    4    0    0 -0.25339255479E+02 -0.33444174155E+03  0.22184866481E+03  0.41257089572E+03  0.92220158130E+02 0.  0.
         23    2    4    4    0    0 -0.48516503447E+03  0.49554289138E+03  0.38186724794E+03  0.79622287524E+03  0.84855195108E+02 0.  0.
          2    1    3    3  502    0  0.23738830202E+03 -0.48092437319E+02 -0.37901397476E+02  0.24515832515E+03  0.00000000000E+00 0. -1.
         -1    1    3    3    0  502  0.27311598793E+03 -0.11300871251E+03  0.19384993148E+02  0.29620784920E+03  0.00000000000E+00 0.  1.
         11    1    5    5    0    0  0.13765680105E+01  0.45363528328E+01  0.12241762700E+02  0.13127611760E+02  0.00000000000E+00 0. -1.
        -11    1    5    5    0    0 -0.26715823490E+02 -0.33897809438E+03  0.20960690210E+03  0.39944328396E+03  0.00000000000E+00 0.  1.
          4    1    6    6  503    0 -0.45638227311E+03  0.42991311975E+03  0.34482039724E+03  0.71554956229E+03  0.00000000000E+00 0.  1.
         -4    1    6    6    0  503 -0.28782761363E+02  0.65629771624E+02  0.37046850701E+02  0.80673312948E+02  0.00000000000E+00 0. -1.
<mgrwt>
<rscale>  0 0.16494246E+04</rscale>
<asrwt>0</asrwt>
<pdfrwt beam="1">  1        2 0.89612342E-01 0.16494246E+04</pdfrwt>
<pdfrwt beam="2">  1       -1 0.17964303E+00 0.16494246E+04</pdfrwt>
<totfact> 0.11744197E+01</totfact>
</mgrwt>
</event>
<event>
12    6  0.1530859E-007  0.2014447E+04  0.7818608E-02  0.8599896E-01
         -1   -1    0    0    0  501 -0.00000000000E+00  0.00000000000E+00  0.65249308286E+03  0.65249308286E+03  0.00000000000E+00 0.  1.
          2   -1    0    0  501    0  0.00000000000E+00 -0.00000000000E+00 -0.15548045650E+04  0.15548045650E+04  0.00000000000E+00 0. -1.
         24    2    1    2    0    0  0.17293054386E+03  0.78564616241E+03 -0.41351469101E+03  0.90767280816E+03  0.75701132675E+02 0.  0.
        254    2    1    2    0    0 -0.17293054386E+03 -0.78564616241E+03 -0.48879679117E+03  0.12996248397E+04  0.89607898954E+03 0.  0.
         23    2    4    4    0    0  0.21946606496E+03 -0.57109460034E+03 -0.56398967318E+03  0.83715862945E+03  0.91846737503E+02 0.  0.
         23    2    4    4    0    0 -0.39239660881E+03 -0.21455156207E+03  0.75192882013E+02  0.46246621029E+03  0.90628664124E+02 0.  0.
          4    1    3    3  502    0 -0.62999422501E+00  0.28491701830E+02 -0.29951504987E+02  0.41343277771E+02  0.00000000000E+00 0. -1.
         -1    1    3    3    0  502  0.17356053808E+03  0.75715446058E+03 -0.38356318602E+03  0.86632953039E+03  0.00000000000E+00 0.  1.
         11    1    5    5    0    0  0.15176023964E+03 -0.47983795222E+03 -0.43448890388E+03  0.66487309941E+03  0.00000000000E+00 0.  1.
        -11    1    5    5    0    0  0.67705825322E+02 -0.91256648120E+02 -0.12950076931E+03  0.17228553004E+03  0.00000000000E+00 0. -1.
          3    1    6    6  503    0 -0.16822113135E+03 -0.14257745099E+03  0.27295956991E+02  0.22219754236E+03  0.00000000000E+00 0. -1.
         -3    1    6    6    0  503 -0.22417547747E+03 -0.71974111077E+02  0.47896925023E+02  0.24026866793E+03  0.00000000000E+00 0.  1.
<mgrwt>
<rscale>  0 0.20144470E+04</rscale>
<asrwt>0</asrwt>
<pdfrwt beam="1">  1        2 0.23920070E+00 0.20144470E+04</pdfrwt>
<pdfrwt beam="2">  1       -1 0.10038355E+00 0.20144470E+04</pdfrwt>
<totfact> 0.11808350E+01</totfact>
</mgrwt>
</event>
<event>
12    6  0.1530859E-007  0.2406249E+04  0.7818608E-02  0.8437168E-01
         -1   -1    0    0    0  501 -0.00000000000E+00  0.00000000000E+00  0.12760192436E+04  0.12760192436E+04  0.00000000000E+00 0.  1.
          2   -1    0    0  501    0  0.00000000000E+00 -0.00000000000E+00 -0.11343936905E+04  0.11343936905E+04  0.00000000000E+00 0. -1.
         24    2    1    2    0    0  0.36277145000E+03  0.20294265238E+03 -0.87893133291E+03  0.97553476226E+03  0.79742957811E+02 0.  0.
        254    2    1    2    0    0 -0.36277145000E+03 -0.20294265238E+03  0.10205568861E+04  0.14348781718E+04  0.91899410507E+03 0.  0.
         23    2    4    4    0    0  0.13886831801E+03  0.10937090280E+03  0.75536213461E+03  0.78109239310E+03  0.91032785516E+02 0.  0.
         23    2    4    4    0    0 -0.50163976801E+03 -0.31231355519E+03  0.26519475147E+03  0.65378577872E+03  0.89024573310E+02 0.  0.
          2    1    3    3  502    0  0.27766515297E+03  0.18555255817E+03 -0.65211537367E+03  0.73265418145E+03  0.00000000000E+00 0. -1.
         -3    1    3    3    0  502  0.85106297030E+02  0.17390094217E+02 -0.22681595924E+03  0.24288058082E+03  0.00000000000E+00 0.  1.
         11    1    5    5    0    0  0.10381596366E+03  0.67701577239E+02  0.33451752388E+03  0.35673972537E+03  0.00000000000E+00 0.  1.
        -11    1    5    5    0    0  0.35052354350E+02  0.41669325563E+02  0.42084461072E+03  0.42435266773E+03  0.00000000000E+00 0. -1.
          1    1    6    6  503    0 -0.36568151352E+03 -0.21442008641E+03  0.14667528048E+03  0.44856725325E+03  0.00000000000E+00 0. -1.
         -1    1    6    6    0  503 -0.13595825449E+03 -0.97893468771E+02  0.11851947100E+03  0.20521852547E+03  0.00000000000E+00 0.  1.
<mgrwt>
<rscale>  0 0.24062487E+04</rscale>
<asrwt>0</asrwt>
<pdfrwt beam="1">  1        2 0.17452211E+00 0.24062487E+04</pdfrwt>
<pdfrwt beam="2">  1       -1 0.19631065E+00 0.24062487E+04</pdfrwt>
<totfact> 0.33938269E+00</totfact>
</mgrwt>
</event>
<event>
12    6  0.1530859E-007  0.1500127E+04  0.7818608E-02  0.8884369E-01
         -1   -1    0    0    0  501 -0.00000000000E+00  0.00000000000E+00  0.31377328359E+03  0.31377328359E+03  0.00000000000E+00 0.  1.
          2   -1    0    0  501    0  0.00000000000E+00 -0.00000000000E+00 -0.17929983074E+04  0.17929983074E+04  0.00000000000E+00 0. -1.
         24    2    1    2    0    0 -0.24112309183E+03 -0.91974353012E+02  0.87988246002E+02  0.28399174318E+03  0.79433945734E+02 0.  0.
        254    2    1    2    0    0  0.24112309183E+03  0.91974353012E+02 -0.15672132699E+04  0.18227798478E+04  0.89429822402E+03 0.  0.
         23    2    4    4    0    0  0.56586309463E+03 -0.48741535772E+00 -0.10789909584E+04  0.12222642079E+04  0.97503980487E+02 0.  0.
         23    2    4    4    0    0 -0.32474000280E+03  0.92461768369E+02 -0.48822231146E+03  0.60051563994E+03  0.90844704710E+02 0.  0.
          4    1    3    3  502    0 -0.34927014917E+01 -0.20025103501E+02  0.14803164455E+02  0.25146320045E+02  0.00000000000E+00 0. -1.
         -1    1    3    3    0  502 -0.23763039033E+03 -0.71949249511E+02  0.73185081547E+02  0.25884542313E+03  0.00000000000E+00 0.  1.
         11    1    5    5    0    0  0.48245625268E+03 -0.34532088534E+02 -0.89192964114E+03  0.10146403233E+04  0.00000000000E+00 0. -1.
        -11    1    5    5    0    0  0.83406841946E+02  0.34044673176E+02 -0.18706131725E+03  0.20762388462E+03  0.00000000000E+00 0.  1.
          2    1    6    6  503    0 -0.19061523977E+03  0.98661314121E+02 -0.31924195690E+03  0.38468643280E+03  0.00000000000E+00 0. -1.
         -2    1    6    6    0  503 -0.13412476303E+03 -0.61995457514E+01 -0.16898035456E+03  0.21582920714E+03  0.00000000000E+00 0.  1.
<mgrwt>
<rscale>  0 0.15001266E+04</rscale>
<asrwt>0</asrwt>
<pdfrwt beam="1">  1        2 0.27584589E+00 0.15001266E+04</pdfrwt>
<pdfrwt beam="2">  1       -1 0.48272814E-01 0.15001266E+04</pdfrwt>
<totfact> 0.41122667E+01</totfact>
</mgrwt>
</event>
<event>
12    6  0.1530859E-007  0.1579270E+04  0.7818608E-02  0.8833386E-01
         -1   -1    0    0    0  501 -0.00000000000E+00  0.00000000000E+00  0.27245876312E+03  0.27245876312E+03  0.00000000000E+00 0.  1.
          2   -1    0    0  501    0  0.00000000000E+00 -0.00000000000E+00 -0.22885043100E+04  0.22885043100E+04  0.00000000000E+00 0. -1.
         24    2    1    2    0    0 -0.14479760664E+03 -0.51026556736E+03 -0.63738466928E+03  0.83156724255E+03  0.62510528129E+02 0.  0.
        254    2    1    2    0    0  0.14479760664E+03  0.51026556736E+03 -0.13786608776E+04  0.17293958305E+04  0.89931464306E+03 0.  0.
         23    2    4    4    0    0 -0.19451636391E+03  0.63443734464E+03 -0.84130353847E+03  0.10752876272E+04  0.90024870002E+02 0.  0.
         23    2    4    4    0    0  0.33931397055E+03 -0.12417177727E+03 -0.53735733911E+03  0.65410820337E+03  0.92477191455E+02 0.  0.
          2    1    3    3  502    0 -0.12829278002E+03 -0.44707953168E+03 -0.52344078460E+03  0.70023524621E+03  0.00000000000E+00 0. -1.
         -1    1    3    3    0  502 -0.16504826617E+02 -0.63186035684E+02 -0.11394388468E+03  0.13133199634E+03  0.00000000000E+00 0.  1.
         11    1    5    5    0    0 -0.45535238498E+01  0.65671248784E+02 -0.51187004523E+02  0.83387990313E+02  0.00000000000E+00 0.  1.
        -11    1    5    5    0    0 -0.18996284006E+03  0.56876609585E+03 -0.79011653394E+03  0.99189963686E+03  0.00000000000E+00 0. -1.
          4    1    6    6  503    0  0.62392381382E+02 -0.63315355196E+02 -0.14376720809E+03  0.16902855848E+03  0.00000000000E+00 0. -1.
         -4    1    6    6    0  503  0.27692158917E+03 -0.60856422076E+02 -0.39359013101E+03  0.48507964489E+03  0.00000000000E+00 0.  1.
<mgrwt>
<rscale>  0 0.15792695E+04</rscale>
<asrwt>0</asrwt>
<pdfrwt beam="1">  1        2 0.35207759E+00 0.15792695E+04</pdfrwt>
<pdfrwt beam="2">  1       -1 0.41916732E-01 0.15792695E+04</pdfrwt>
<totfact> 0.28164528E+01</totfact>
</mgrwt>
</event>
<event>
12    6  0.1530859E-007  0.1868204E+04  0.7818608E-02  0.8670847E-01
         -1   -1    0    0    0  501 -0.00000000000E+00  0.00000000000E+00  0.12586563456E+04  0.12586563456E+04  0.00000000000E+00 0.  1.
          2   -1    0    0  501    0  0.00000000000E+00 -0.00000000000E+00 -0.69323660450E+03  0.69323660450E+03  0.00000000000E+00 0. -1.
         24    2    1    2    0    0  0.68719928841E+02 -0.39750298433E+03 -0.39930794621E+03  0.57332101241E+03  0.80740920173E+02 0.  0.
        254    2    1    2    0    0 -0.68719928841E+02  0.39750298433E+03  0.96472768726E+03  0.13785719377E+04  0.89834849894E+03 0.  0.
         23    2    4    4    0    0  0.22392033388E+03  0.40559539385E+03  0.96206608131E+03  0.10717021950E+04  0.91249715619E+02 0.  0.
         23    2    4    4    0    0 -0.29264026272E+03 -0.80924095162E+01  0.26616059523E+01  0.30686974262E+03  0.91968170212E+02 0.  0.
          4    1    3    3  502    0  0.26308072575E+02 -0.33400370160E+03 -0.32457888965E+03  0.46647834137E+03  0.00000000000E+00 0. -1.
         -3    1    3    3    0  502  0.42411856266E+02 -0.63499282733E+02 -0.74729056560E+02  0.10684267104E+03  0.00000000000E+00 0.  1.
         11    1    5    5    0    0  0.19976703331E+03  0.27961135013E+03  0.71676843892E+03  0.79488764599E+03  0.00000000000E+00 0. -1.
        -11    1    5    5    0    0  0.24153300575E+02  0.12598404372E+03  0.24529764239E+03  0.27681454905E+03  0.00000000000E+00 0.  1.
          3    1    6    6  503    0 -0.24014256432E+03 -0.41013437341E+02 -0.91342387178E+01  0.24379086849E+03  0.00000000000E+00 0. -1.
         -3    1    6    6    0  503 -0.52497698403E+02  0.32921027824E+02  0.11795844670E+02  0.63078874134E+02  0.00000000000E+00 0.  1.
<mgrwt>
<rscale>  0 0.18682041E+04</rscale>
<asrwt>0</asrwt>
<pdfrwt beam="1">  1        2 0.10665179E+00 0.18682041E+04</pdfrwt>
<pdfrwt beam="2">  1       -1 0.19363944E+00 0.18682041E+04</pdfrwt>
<totfact> 0.74085680E+00</totfact>
</mgrwt>
</event>
<event>
12    6  0.1530859E-007  0.1720020E+04  0.7818608E-02  0.8750028E-01
          2   -1    0    0  501    0  0.00000000000E+00  0.00000000000E+00  0.10048804976E+04  0.10048804976E+04  0.00000000000E+00 0. -1.
         -1   -1    0    0    0  501 -0.00000000000E+00 -0.00000000000E+00 -0.73602540697E+03  0.73602540697E+03  0.00000000000E+00 0.  1.
         24    2    1    2    0    0  0.36377417218E+03 -0.11790232959E+03  0.59605008906E+03  0.71261275795E+03  0.79426862263E+02 0.  0.
        254    2    1    2    0    0 -0.36377417218E+03  0.11790232959E+03 -0.32719499847E+03  0.10282931466E+04  0.89671490487E+03 0.  0.
         23    2    4    4    0    0 -0.32492202073E+03  0.23445874120E+03  0.21561334156E+03  0.46398277155E+03  0.90805717641E+02 0.  0.
         23    2    4    4    0    0 -0.38852151448E+02 -0.11655641161E+03 -0.54280834003E+03  0.56431037503E+03  0.93329623399E+02 0.  0.
          2    1    3    3  502    0  0.25451715396E+03 -0.10863093877E+03  0.47117304056E+03  0.54642812580E+03  0.00000000000E+00 0. -1.
         -1    1    3    3    0  502  0.10925701822E+03 -0.92713908177E+01  0.12487704850E+03  0.16618463214E+03  0.00000000000E+00 0.  1.
         11    1    5    5    0    0 -0.16880477862E+03  0.15801232621E+03  0.84217913612E+02  0.24608048580E+03  0.00000000000E+00 0. -1.
        -11    1    5    5    0    0 -0.15611724211E+03  0.76446414988E+02  0.13139542795E+03  0.21790228575E+03  0.00000000000E+00 0.  1.
          3    1    6    6  503    0  0.14792278342E+02 -0.82168856673E+02 -0.22078966410E+03  0.23604789404E+03  0.00000000000E+00 0. -1.
         -3    1    6    6    0  503 -0.53644429790E+02 -0.34387554934E+02 -0.32201867593E+03  0.32826248099E+03  0.00000000000E+00 0.  1.
<mgrwt>
<rscale>  0 0.17200204E+04</rscale>
<asrwt>0</asrwt>
<pdfrwt beam="1">  1        2 0.15459700E+00 0.17200204E+04</pdfrwt>
<pdfrwt beam="2">  1       -1 0.11323468E+00 0.17200204E+04</pdfrwt>
<totfact> 0.19311308E+01</totfact>
</mgrwt>
</event>
<event>
12    6  0.1530859E-007  0.3875896E+04  0.7818608E-02  0.8030061E-01
         -1   -1    0    0    0  501 -0.00000000000E+00  0.00000000000E+00  0.21898795250E+04  0.21898795250E+04  0.00000000000E+00 0.  1.
          2   -1    0    0  501    0  0.00000000000E+00 -0.00000000000E+00 -0.17149994464E+04  0.17149994464E+04  0.00000000000E+00 0. -1.
         24    2    1    2    0    0  0.49782052891E+03 -0.36172620817E+03  0.19596547206E+04  0.20555812953E+04  0.80602164582E+02 0.  0.
        254    2    1    2    0    0 -0.49782052891E+03  0.36172620817E+03 -0.14847746420E+04  0.18492976761E+04  0.91469941982E+03 0.  0.
         23    2    4    4    0    0 -0.19944168772E+03 -0.26684653611E+03 -0.78597203871E+03  0.85884664456E+03  0.94241459042E+02 0.  0.
         23    2    4    4    0    0 -0.29837884120E+03  0.62857274428E+03 -0.69880260327E+03  0.99045103152E+03  0.92382572972E+02 0.  0.
          2    1    3    3  502    0  0.75312639168E+02 -0.87308861508E+02  0.42388240469E+03  0.43928478681E+03  0.00000000000E+00 0. -1.
         -1    1    3    3    0  502  0.42250788974E+03 -0.27441734666E+03  0.15357723159E+04  0.16162965085E+04  0.00000000000E+00 0.  1.
         11    1    5    5    0    0 -0.39815485764E+02 -0.46310366210E+02 -0.25424109215E+03  0.26147362365E+03  0.00000000000E+00 0.  1.
        -11    1    5    5    0    0 -0.15962620195E+03 -0.22053616990E+03 -0.53173094656E+03  0.59737302091E+03  0.00000000000E+00 0. -1.
          4    1    6    6  503    0 -0.24657008232E+03  0.50017671349E+03 -0.60730047775E+03  0.82449221979E+03  0.00000000000E+00 0. -1.
         -4    1    6    6    0  503 -0.51808758875E+02  0.12839603079E+03 -0.91502125513E+02  0.16595881174E+03  0.00000000000E+00 0.  1.
<mgrwt>
<rscale>  0 0.38758959E+04</rscale>
<asrwt>0</asrwt>
<pdfrwt beam="1">  1        2 0.26384607E+00 0.38758959E+04</pdfrwt>
<pdfrwt beam="2">  1       -1 0.33690454E+00 0.38758959E+04</pdfrwt>
<totfact> 0.16543152E-01</totfact>
</mgrwt>
</event>
<event>
12    6  0.1530859E-007  0.2486129E+04  0.7818608E-02  0.8407944E-01
          2   -1    0    0  501    0  0.00000000000E+00  0.00000000000E+00  0.83360948878E+03  0.83360948878E+03  0.00000000000E+00 0. -1.
         -1   -1    0    0    0  501 -0.00000000000E+00 -0.00000000000E+00 -0.18536367539E+04  0.18536367539E+04  0.00000000000E+00 0.  1.
         24    2    1    2    0    0  0.27017724034E+03 -0.11725234083E+03  0.68238491811E+03  0.74754619726E+03  0.80201545740E+02 0.  0.
        254    2    1    2    0    0 -0.27017724034E+03  0.11725234083E+03 -0.17024121832E+04  0.19397000454E+04  0.88175119618E+03 0.  0.
         23    2    4    4    0    0 -0.70503326115E+02 -0.34154729949E+02  0.76142306345E+02  0.14125663442E+03  0.89546196902E+02 0.  0.
         23    2    4    4    0    0 -0.19967391422E+03  0.15140707078E+03 -0.17785544896E+04  0.17984434110E+04  0.91372080503E+02 0.  0.
          2    1    3    3  502    0  0.67040101820E+02 -0.50164487641E+02  0.27419162258E+03  0.28669129210E+03  0.00000000000E+00 0. -1.
         -1    1    3    3    0  502  0.20313713852E+03 -0.67087853188E+02  0.40819329553E+03  0.46085490516E+03  0.00000000000E+00 0.  1.
         11    1    5    5    0    0 -0.72305004562E+02 -0.33640192406E+02  0.16314203630E+02  0.81399198214E+02  0.00000000000E+00 0.  1.
        -11    1    5    5    0    0  0.18016784467E+01 -0.51453754325E+00  0.59828102715E+02  0.59857436201E+02  0.00000000000E+00 0. -1.
          2    1    6    6  503    0 -0.31473038292E+02 -0.10067167517E+01 -0.40865420630E+03  0.40986561938E+03  0.00000000000E+00 0. -1.
         -2    1    6    6    0  503 -0.16820087593E+03  0.15241378753E+03 -0.13699002833E+04  0.13885777916E+04  0.00000000000E+00 0.  1.
<mgrwt>
<rscale>  0 0.24861289E+04</rscale>
<asrwt>0</asrwt>
<pdfrwt beam="1">  1        2 0.12824761E+00 0.24861289E+04</pdfrwt>
<pdfrwt beam="2">  1       -1 0.28517488E+00 0.24861289E+04</pdfrwt>
<totfact> 0.13675462E+00</totfact>
</mgrwt>
</event>
<event>
12    6  0.1530859E-007  0.2176998E+04  0.7818608E-02  0.8528064E-01
          2   -1    0    0  501    0  0.00000000000E+00  0.00000000000E+00  0.14666322285E+04  0.14666322285E+04  0.00000000000E+00 0. -1.
         -1   -1    0    0    0  501 -0.00000000000E+00 -0.00000000000E+00 -0.80785750445E+03  0.80785750445E+03  0.00000000000E+00 0.  1.
         24    2    1    2    0    0 -0.68148626592E+03 -0.59861877926E+03  0.46697073052E+02  0.91167600714E+03  0.78768977576E+02 0.  0.
        254    2    1    2    0    0  0.68148626592E+03  0.59861877926E+03  0.61207765102E+03  0.13628137258E+04  0.81231411837E+03 0.  0.
         23    2    4    4    0    0 -0.14824390478E+03  0.26584125288E+03  0.18791033738E+03  0.36923700289E+03  0.91530554324E+02 0.  0.
         23    2    4    4    0    0  0.82973017070E+03  0.33277752639E+03  0.42416731364E+03  0.99357672294E+03  0.89909711202E+02 0.  0.
          2    1    3    3  502    0 -0.56469410057E+03 -0.49830562618E+03  0.68300119250E+02  0.75620951501E+03  0.00000000000E+00 0. -1.
         -1    1    3    3    0  502 -0.11679216535E+03 -0.10031315309E+03 -0.21603046197E+02  0.15546649213E+03  0.00000000000E+00 0.  1.
         11    1    5    5    0    0  0.61171744495E+01  0.55988866133E+02  0.45079231678E+02  0.72140904366E+02  0.00000000000E+00 0.  1.
        -11    1    5    5    0    0 -0.15436107923E+03  0.20985238674E+03  0.14283110570E+03  0.29709609852E+03  0.00000000000E+00 0. -1.
          3    1    6    6  503    0  0.62936310698E+03  0.28549829679E+03  0.35077366071E+03  0.77501571529E+03  0.00000000000E+00 0. -1.
         -3    1    6    6    0  503  0.20036706372E+03  0.47279229598E+02  0.73393652937E+02  0.21856100765E+03  0.00000000000E+00 0.  1.
<mgrwt>
<rscale>  0 0.21769978E+04</rscale>
<asrwt>0</asrwt>
<pdfrwt beam="1">  1        2 0.22563573E+00 0.21769978E+04</pdfrwt>
<pdfrwt beam="2">  1       -1 0.12428577E+00 0.21769978E+04</pdfrwt>
<totfact> 0.78530426E+00</totfact>
</mgrwt>
</event>
<event>
12    6  0.1530859E-007  0.1967795E+04  0.7818608E-02  0.8621827E-01
          2   -1    0    0  501    0  0.00000000000E+00  0.00000000000E+00  0.19974806283E+04  0.19974806283E+04  0.00000000000E+00 0. -1.
         -1   -1    0    0    0  501 -0.00000000000E+00 -0.00000000000E+00 -0.48463750468E+03  0.48463750468E+03  0.00000000000E+00 0.  1.
         24    2    1    2    0    0  0.68126836362E+03 -0.33417849368E+03  0.38895677628E+03  0.85640053260E+03  0.79577946218E+02 0.  0.
        254    2    1    2    0    0 -0.68126836362E+03  0.33417849368E+03  0.11238863473E+04  0.16257176004E+04  0.89668018018E+03 0.  0.
         23    2    4    4    0    0 -0.84591520443E+03  0.39405457240E+03  0.10579051397E+04  0.14131247596E+04  0.83106932993E+02 0.  0.
         23    2    4    4    0    0  0.16464684081E+03 -0.59876078720E+02  0.65981207600E+02  0.21259284081E+03  0.10073961095E+03 0.  0.
          2    1    3    3  502    0  0.19494860549E+03 -0.70448726634E+02  0.75943125686E+02  0.22076082126E+03  0.00000000000E+00 0. -1.
         -1    1    3    3    0  502  0.48631975813E+03 -0.26372976705E+03  0.31301365059E+03  0.63563971134E+03  0.00000000000E+00 0.  1.
         11    1    5    5    0    0 -0.77274597671E+03  0.37213015172E+03  0.99897944474E+03  0.13166537606E+04  0.00000000000E+00 0. -1.
        -11    1    5    5    0    0 -0.73169227719E+02  0.21924420687E+02  0.58925694985E+02  0.96470998942E+02  0.00000000000E+00 0.  1.
          3    1    6    6  503    0  0.13442082564E+03 -0.76309131709E+02  0.21042099468E+02  0.15599619193E+03  0.00000000000E+00 0. -1.
         -3    1    6    6    0  503  0.30226015169E+02  0.16433052990E+02  0.44939108132E+02  0.56596648870E+02  0.00000000000E+00 0.  1.
<mgrwt>
<rscale>  0 0.19677947E+04</rscale>
<asrwt>0</asrwt>
<pdfrwt beam="1">  1        2 0.30730471E+00 0.19677947E+04</pdfrwt>
<pdfrwt beam="2">  1       -1 0.74559617E-01 0.19677947E+04</pdfrwt>
<totfact> 0.12867224E+01</totfact>
</mgrwt>
</event>
<event>
12    6  0.1530859E-007  0.1123199E+04  0.7818608E-02  0.9182871E-01
         -3   -1    0    0    0  501 -0.00000000000E+00  0.00000000000E+00  0.97381757093E+03  0.97381757093E+03  0.00000000000E+00 0.  1.
          4   -1    0    0  501    0  0.00000000000E+00 -0.00000000000E+00 -0.32387364661E+03  0.32387364661E+03  0.00000000000E+00 0. -1.
         24    2    1    2    0    0 -0.62774574488E+02 -0.11892567335E+03 -0.32512384746E+02  0.16004071937E+03  0.80448826671E+02 0.  0.
        254    2    1    2    0    0  0.62774574488E+02  0.11892567335E+03  0.68245630907E+03  0.11376504982E+04  0.90023223626E+03 0.  0.
         23    2    4    4    0    0 -0.77615213392E+01 -0.59083091681E+02  0.85635617227E+03  0.86347471276E+03  0.93228927143E+02 0.  0.
         23    2    4    4    0    0  0.70536095828E+02  0.17800876503E+03 -0.17389986320E+03  0.27417578541E+03  0.90932599458E+02 0.  0.
          4    1    3    3  502    0 -0.45111596244E+02 -0.12736949570E+03 -0.36705792954E+02  0.14001914079E+03  0.00000000000E+00 0. -1.
         -3    1    3    3    0  502 -0.17662978245E+02  0.84438223588E+01  0.41934082078E+01  0.20021578582E+02  0.00000000000E+00 0.  1.
         11    1    5    5    0    0  0.36593716113E+02 -0.58323662060E+00  0.33005769472E+03  0.33208059574E+03  0.00000000000E+00 0.  1.
        -11    1    5    5    0    0 -0.44355237452E+02 -0.58499855061E+02  0.52629847755E+03  0.53139411702E+03  0.00000000000E+00 0. -1.
          4    1    6    6  503    0  0.20221505584E+02  0.50905337777E+02 -0.11083272372E+03  0.12362910397E+03  0.00000000000E+00 0. -1.
         -4    1    6    6    0  503  0.50314590244E+02  0.12710342725E+03 -0.63067139481E+02  0.15054668144E+03  0.00000000000E+00 0.  1.
<mgrwt>
<rscale>  0 0.11231987E+04</rscale>
<asrwt>0</asrwt>
<pdfrwt beam="1">  1        4 0.49826715E-01 0.11231987E+04</pdfrwt>
<pdfrwt beam="2">  1       -3 0.14981809E+00 0.11231987E+04</pdfrwt>
<totfact> 0.28505119E+00</totfact>
</mgrwt>
</event>
<event>
12    6  0.1530859E-007  0.1379198E+04  0.7818608E-02  0.8969015E-01
          2   -1    0    0  501    0  0.00000000000E+00  0.00000000000E+00  0.72234141956E+03  0.72234141956E+03  0.00000000000E+00 0. -1.
         -1   -1    0    0    0  501 -0.00000000000E+00 -0.00000000000E+00 -0.65834098833E+03  0.65834098833E+03  0.00000000000E+00 0.  1.
         24    2    1    2    0    0 -0.13183400465E+03 -0.31191079848E+03  0.26206720107E+03  0.43520535015E+03  0.77819842796E+02 0.  0.
        254    2    1    2    0    0  0.13183400465E+03  0.31191079848E+03 -0.19806676983E+03  0.94547705773E+03  0.86024872589E+03 0.  0.
         23    2    4    4    0    0  0.12906374193E+03  0.59258303488E+03 -0.21476488611E+03  0.64986082029E+03  0.91558870379E+02 0.  0.
         23    2    4    4    0    0  0.27702627268E+01 -0.28067223639E+03  0.16698116274E+02  0.29561623744E+03  0.91244474430E+02 0.  0.
          4    1    3    3  502    0 -0.13392778588E+03 -0.29263669092E+03  0.22283415065E+03  0.39144341021E+03  0.00000000000E+00 0. -1.
         -3    1    3    3    0  502  0.20937812255E+01 -0.19274107563E+02  0.39233050420E+02  0.43761939941E+02  0.00000000000E+00 0.  1.
         11    1    5    5    0    0  0.11539083237E+03  0.58690880439E+03 -0.21306676507E+03  0.63496018398E+03  0.00000000000E+00 0. -1.
        -11    1    5    5    0    0  0.13672909560E+02  0.56742304837E+01 -0.16981210433E+01  0.14900636312E+02  0.00000000000E+00 0.  1.
          4    1    6    6  503    0 -0.21850949202E+01 -0.29198625952E+02  0.32317723854E+02  0.43609284246E+02  0.00000000000E+00 0.  1.
         -4    1    6    6    0  503  0.49553576470E+01 -0.25147361044E+03 -0.15619607580E+02  0.25200695319E+03  0.00000000000E+00 0. -1.
<mgrwt>
<rscale>  0 0.13791983E+04</rscale>
<asrwt>0</asrwt>
<pdfrwt beam="1">  1        2 0.11112945E+00 0.13791983E+04</pdfrwt>
<pdfrwt beam="2">  1       -1 0.10128323E+00 0.13791983E+04</pdfrwt>
<totfact> 0.40579399E+01</totfact>
</mgrwt>
</event>
<event>
12    6  0.1530859E-007  0.1724205E+04  0.7818608E-02  0.8747679E-01
          2   -1    0    0  501    0  0.00000000000E+00  0.00000000000E+00  0.52854902431E+03  0.52854902431E+03  0.00000000000E+00 0. -1.
         -1   -1    0    0    0  501 -0.00000000000E+00 -0.00000000000E+00 -0.14061527553E+04  0.14061527553E+04  0.00000000000E+00 0.  1.
         24    2    1    2    0    0 -0.47539285610E+03 -0.25693602455E+03  0.46313463318E+02  0.54834763472E+03  0.80781825189E+02 0.  0.
        254    2    1    2    0    0  0.47539285610E+03  0.25693602455E+03 -0.92391719433E+03  0.13863541449E+04  0.88110177891E+03 0.  0.
         23    2    4    4    0    0  0.40815321333E+03  0.53959738984E+03 -0.43202054982E+03  0.80790250133E+03  0.91160888048E+02 0.  0.
         23    2    4    4    0    0  0.67239642764E+02 -0.28266136530E+03 -0.49189664451E+03  0.57845164358E+03  0.90693870200E+02 0.  0.
          4    1    3    3  502    0 -0.46867047139E+02 -0.19131215675E+02 -0.18704259876E+02  0.53966404904E+02  0.00000000000E+00 0. -1.
         -3    1    3    3    0  502 -0.42852580896E+03 -0.23780480887E+03  0.65017723194E+02  0.49438122982E+03  0.00000000000E+00 0.  1.
         11    1    5    5    0    0  0.29706180237E+02  0.68230005904E+02 -0.75976015356E+02  0.10634916906E+03  0.00000000000E+00 0.  1.
        -11    1    5    5    0    0  0.37844703310E+03  0.47136738394E+03 -0.35604453446E+03  0.70155333227E+03  0.00000000000E+00 0. -1.
          3    1    6    6  503    0  0.86716192361E+02 -0.26091745465E+03 -0.45105885742E+03  0.52825345149E+03  0.00000000000E+00 0. -1.
         -3    1    6    6    0  503 -0.19476549597E+02 -0.21743910643E+02 -0.40837787093E+02  0.50198192088E+02  0.00000000000E+00 0.  1.
<mgrwt>
<rscale>  0 0.17242049E+04</rscale>
<asrwt>0</asrwt>
<pdfrwt beam="1">  1        2 0.81315234E-01 0.17242049E+04</pdfrwt>
<pdfrwt beam="2">  1       -1 0.21633119E+00 0.17242049E+04</pdfrwt>
<totfact> 0.72936140E+00</totfact>
</mgrwt>
</event>
<event>
12    6  0.1530859E-007  0.1728757E+04  0.7818608E-02  0.8745131E-01
          2   -1    0    0  501    0  0.00000000000E+00  0.00000000000E+00  0.13125878878E+04  0.13125878878E+04  0.00000000000E+00 0. -1.
         -1   -1    0    0    0  501 -0.00000000000E+00 -0.00000000000E+00 -0.56921927417E+03  0.56921927417E+03  0.00000000000E+00 0.  1.
         24    2    1    2    0    0  0.42745312528E+03  0.45058869665E+03  0.36008011575E+03  0.72311628658E+03  0.86562845961E+02 0.  0.
        254    2    1    2    0    0 -0.42745312528E+03 -0.45058869665E+03  0.38328849791E+03  0.11586908754E+04  0.89994895647E+03 0.  0.
         23    2    4    4    0    0 -0.21971971813E+03 -0.27294847765E+03  0.66413586822E+03  0.75638351855E+03  0.90895267708E+02 0.  0.
         23    2    4    4    0    0 -0.20773340715E+03 -0.17764021900E+03 -0.28084737031E+03  0.40230735686E+03  0.90921659233E+02 0.  0.
          4    1    3    3  502    0  0.20186293098E+03  0.18577679615E+03  0.20377962035E+03  0.34174229261E+03  0.00000000000E+00 0. -1.
         -3    1    3    3    0  502  0.22559019430E+03  0.26481190051E+03  0.15630049539E+03  0.38137399397E+03  0.00000000000E+00 0.  1.
         11    1    5    5    0    0 -0.13542763736E+03 -0.99539484492E+02  0.27992253864E+03  0.32650479563E+03  0.00000000000E+00 0.  1.
        -11    1    5    5    0    0 -0.84292080768E+02 -0.17340899316E+03  0.38421332958E+03  0.42987872292E+03  0.00000000000E+00 0. -1.
          2    1    6    6  503    0 -0.20086313223E+03 -0.13346438584E+03 -0.21737033502E+03  0.32466691042E+03  0.00000000000E+00 0. -1.
         -2    1    6    6    0  503 -0.68702749184E+01 -0.44175833162E+02 -0.63477035289E+02  0.77640446432E+02  0.00000000000E+00 0.  1.
<mgrwt>
<rscale>  0 0.17287572E+04</rscale>
<asrwt>0</asrwt>
<pdfrwt beam="1">  1        2 0.20193660E+00 0.17287572E+04</pdfrwt>
<pdfrwt beam="2">  1       -1 0.87572196E-01 0.17287572E+04</pdfrwt>
<totfact> 0.22569585E+01</totfact>
</mgrwt>
</event>
<event>
12    6  0.1530859E-007  0.2499051E+04  0.7818608E-02  0.8403324E-01
          2   -1    0    0  501    0  0.00000000000E+00  0.00000000000E+00  0.23643710630E+04  0.23643710630E+04  0.00000000000E+00 0. -1.
         -1   -1    0    0    0  501 -0.00000000000E+00 -0.00000000000E+00 -0.66035039053E+03  0.66035039053E+03  0.00000000000E+00 0.  1.
         24    2    1    2    0    0 -0.64922650659E+03  0.64193258575E+03  0.14547281338E+04  0.17197217976E+04  0.87387736326E+02 0.  0.
        254    2    1    2    0    0  0.64922650659E+03 -0.64193258575E+03  0.24929253864E+03  0.13049996559E+04  0.89850143603E+03 0.  0.
         23    2    4    4    0    0  0.12421400734E+03 -0.54565248363E+03  0.45393398272E+03  0.72624434118E+03  0.90603697051E+02 0.  0.
         23    2    4    4    0    0  0.52501249925E+03 -0.96280102118E+02 -0.20464144407E+03  0.57875531471E+03  0.90396964766E+02 0.  0.
          4    1    3    3  502    0 -0.63810999888E+03  0.63472076802E+03  0.14074328573E+04  0.16706053011E+04  0.00000000000E+00 0. -1.
         -3    1    3    3    0  502 -0.11116507703E+02  0.72118177295E+01  0.47295276496E+02  0.49116496590E+02  0.00000000000E+00 0.  1.
         11    1    5    5    0    0  0.50885219893E+02 -0.75404340252E+02  0.72499008248E+02  0.11632379950E+03  0.00000000000E+00 0.  1.
        -11    1    5    5    0    0  0.73328787445E+02 -0.47024814338E+03  0.38143497447E+03  0.60992054169E+03  0.00000000000E+00 0. -1.
          3    1    6    6  503    0  0.36634421228E+03 -0.26645047439E+02 -0.12444400964E+03  0.38781999943E+03  0.00000000000E+00 0. -1.
         -3    1    6    6    0  503  0.15866828697E+03 -0.69635054679E+02 -0.80197434433E+02  0.19093531527E+03  0.00000000000E+00 0.  1.
<mgrwt>
<rscale>  0 0.24990505E+04</rscale>
<asrwt>0</asrwt>
<pdfrwt beam="1">  1        2 0.36374939E+00 0.24990505E+04</pdfrwt>
<pdfrwt beam="2">  1       -1 0.10159237E+00 0.24990505E+04</pdfrwt>
<totfact> 0.38845734E+00</totfact>
</mgrwt>
</event>
<event>
12    6  0.1530859E-007  0.1694878E+04  0.7818608E-02  0.8764291E-01
         -1   -1    0    0    0  501 -0.00000000000E+00  0.00000000000E+00  0.52417760070E+03  0.52417760070E+03  0.00000000000E+00 0.  1.
          2   -1    0    0  501    0  0.00000000000E+00 -0.00000000000E+00 -0.13700567142E+04  0.13700567142E+04  0.00000000000E+00 0. -1.
         24    2    1    2    0    0  0.88322936766E+02  0.29468505577E+03  0.27917541672E+03  0.42286494175E+03  0.78965957250E+02 0.  0.
        254    2    1    2    0    0 -0.88322936766E+02 -0.29468505577E+03 -0.11250545302E+04  0.14713693732E+04  0.89696148917E+03 0.  0.
         23    2    4    4    0    0 -0.34955094987E+03  0.18957786245E+02 -0.11699814134E+03  0.38006233363E+03  0.90628627651E+02 0.  0.
         23    2    4    4    0    0  0.26122801310E+03 -0.31364284202E+03 -0.10080563889E+04  0.10913070395E+04  0.90340822392E+02 0.  0.
          4    1    3    3  502    0  0.16779953718E+02  0.89403583838E+01  0.33214313987E+01  0.19301004154E+02  0.00000000000E+00 0. -1.
         -3    1    3    3    0  502  0.71542983048E+02  0.28574469739E+03  0.27585398532E+03  0.40356393759E+03  0.00000000000E+00 0.  1.
         11    1    5    5    0    0 -0.88353901445E+02 -0.20769614125E+02  0.85778737192E+00  0.90766318481E+02  0.00000000000E+00 0. -1.
        -11    1    5    5    0    0 -0.26119704843E+03  0.39727400370E+02 -0.11785592871E+03  0.28929601515E+03  0.00000000000E+00 0.  1.
          4    1    6    6  503    0  0.63670188493E+02 -0.33525353377E+02 -0.23245236251E+03  0.24333504280E+03  0.00000000000E+00 0. -1.
         -4    1    6    6    0  503  0.19755782461E+03 -0.28011748864E+03 -0.77560402639E+03  0.84797199674E+03  0.00000000000E+00 0.  1.
<mgrwt>
<rscale>  0 0.16948782E+04</rscale>
<asrwt>0</asrwt>
<pdfrwt beam="1">  1        2 0.21077795E+00 0.16948782E+04</pdfrwt>
<pdfrwt beam="2">  1       -1 0.80642709E-01 0.16948782E+04</pdfrwt>
<totfact> 0.25050575E+01</totfact>
</mgrwt>
</event>
<event>
12    6  0.1530859E-007  0.1407461E+04  0.7818608E-02  0.8948435E-01
          2   -1    0    0  501    0  0.00000000000E+00  0.00000000000E+00  0.12871235043E+04  0.12871235043E+04  0.00000000000E+00 0. -1.
         -1   -1    0    0    0  501 -0.00000000000E+00 -0.00000000000E+00 -0.38476255921E+03  0.38476255921E+03  0.00000000000E+00 0.  1.
         24    2    1    2    0    0 -0.18745493613E+03 -0.26556599142E+03 -0.36348832296E+02  0.33684468700E+03  0.80488860545E+02 0.  0.
        254    2    1    2    0    0  0.18745493613E+03  0.26556599142E+03  0.93870977743E+03  0.13350413766E+04  0.89190514182E+03 0.  0.
         23    2    4    4    0    0 -0.23098048235E+03  0.34834989056E+03  0.74154095223E+03  0.85597850304E+03  0.90092088195E+02 0.  0.
         23    2    4    4    0    0  0.41843541848E+03 -0.82783899137E+02  0.19716882519E+03  0.47906287352E+03  0.93189686951E+02 0.  0.
          4    1    3    3  502    0 -0.78929845570E+02 -0.11043061546E+03  0.24599721087E+02  0.13794922120E+03  0.00000000000E+00 0. -1.
         -3    1    3    3    0  502 -0.10852509056E+03 -0.15513537596E+03 -0.60948553383E+02  0.19889546580E+03  0.00000000000E+00 0.  1.
         11    1    5    5    0    0 -0.18820282116E+03  0.20648512770E+03  0.48738153775E+03  0.56178036028E+03  0.00000000000E+00 0.  1.
        -11    1    5    5    0    0 -0.42777661197E+02  0.14186476285E+03  0.25415941449E+03  0.29419814277E+03  0.00000000000E+00 0. -1.
          3    1    6    6  503    0  0.77334907677E+02 -0.40314768169E+02  0.10303007168E+02  0.87818679304E+02  0.00000000000E+00 0. -1.
         -3    1    6    6    0  503  0.34110051081E+03 -0.42469130969E+02  0.18686581802E+03  0.39124419421E+03  0.00000000000E+00 0.  1.
<mgrwt>
<rscale>  0 0.14074615E+04</rscale>
<asrwt>0</asrwt>
<pdfrwt beam="1">  1        2 0.19801900E+00 0.14074615E+04</pdfrwt>
<pdfrwt beam="2">  1       -1 0.59194240E-01 0.14074615E+04</pdfrwt>
<totfact> 0.53958684E+01</totfact>
</mgrwt>
</event>
<event>
12    6  0.1530859E-007  0.1439735E+04  0.7818608E-02  0.8925548E-01
          2   -1    0    0  501    0  0.00000000000E+00  0.00000000000E+00  0.13413750894E+04  0.13413750894E+04  0.00000000000E+00 0. -1.
         -1   -1    0    0    0  501 -0.00000000000E+00 -0.00000000000E+00 -0.38632677684E+03  0.38632677684E+03  0.00000000000E+00 0.  1.
         24    2    1    2    0    0 -0.50607761599E+02  0.40402981628E+03  0.11702482127E+03  0.43088223158E+03  0.78507647551E+02 0.  0.
        254    2    1    2    0    0  0.50607761599E+02 -0.40402981628E+03  0.83802349127E+03  0.12968196346E+04  0.90202913195E+03 0.  0.
         23    2    4    4    0    0  0.15869641802E+03 -0.32478617625E+03  0.99983298252E+03  0.10681991727E+04  0.10350297666E+03 0.  0.
         23    2    4    4    0    0 -0.10808865642E+03 -0.79243640026E+02 -0.16180949126E+03  0.22862046196E+03  0.90123759553E+02 0.  0.
          2    1    3    3  502    0  0.83732837482E+01  0.44077649983E+02  0.35296139495E+02  0.57085624916E+02  0.00000000000E+00 0. -1.
         -1    1    3    3    0  502 -0.58981045347E+02  0.35995216629E+03  0.81728681777E+02  0.37379660667E+03  0.00000000000E+00 0.  1.
         11    1    5    5    0    0 -0.14333942393E+02 -0.28305352054E+02  0.10863501769E+03  0.11317341529E+03  0.00000000000E+00 0. -1.
        -11    1    5    5    0    0  0.17303036041E+03 -0.29648082420E+03  0.89119796483E+03  0.95502575738E+03  0.00000000000E+00 0.  1.
          2    1    6    6  503    0 -0.21810153730E+02 -0.19987164493E+02 -0.10590379325E+03  0.10995809645E+03  0.00000000000E+00 0. -1.
         -2    1    6    6    0  503 -0.86278502689E+02 -0.59256475533E+02 -0.55905698004E+02  0.11866236551E+03  0.00000000000E+00 0.  1.
<mgrwt>
<rscale>  0 0.14397349E+04</rscale>
<asrwt>0</asrwt>
<pdfrwt beam="1">  1        2 0.20636540E+00 0.14397349E+04</pdfrwt>
<pdfrwt beam="2">  1       -1 0.59434889E-01 0.14397349E+04</pdfrwt>
<totfact> 0.49650661E+01</totfact>
</mgrwt>
</event>
<event>
12    6  0.1530859E-007  0.1471681E+04  0.7818608E-02  0.8903506E-01
         -1   -1    0    0    0  501 -0.00000000000E+00  0.00000000000E+00  0.35147876976E+03  0.35147876976E+03  0.00000000000E+00 0.  1.
          2   -1    0    0  501    0  0.00000000000E+00 -0.00000000000E+00 -0.15405233231E+04  0.15405233231E+04  0.00000000000E+00 0. -1.
         24    2    1    2    0    0 -0.38238727856E+03  0.57035057148E+02 -0.73295962909E+03  0.83248930165E+03  0.79596425311E+02 0.  0.
        254    2    1    2    0    0  0.38238727856E+03 -0.57035057148E+02 -0.45608492428E+03  0.10595127912E+04  0.87468901223E+03 0.  0.
         23    2    4    4    0    0  0.39121895961E+02 -0.40055773241E+03 -0.37812155944E+03  0.55958525025E+03  0.90458381873E+02 0.  0.
         23    2    4    4    0    0  0.34326538260E+03  0.34352267526E+03 -0.77963364843E+02  0.49992754100E+03  0.89500327812E+02 0.  0.
          2    1    3    3  502    0 -0.28761139841E+03  0.56869918699E+02 -0.61388640809E+03  0.68030215801E+03  0.00000000000E+00 0. -1.
         -1    1    3    3    0  502 -0.94775880150E+02  0.16513844875E+00 -0.11907322100E+03  0.15218714364E+03  0.00000000000E+00 0.  1.
         11    1    5    5    0    0  0.13433244626E+02 -0.75685740585E+02 -0.12583705428E+03  0.14745761296E+03  0.00000000000E+00 0. -1.
        -11    1    5    5    0    0  0.25688651335E+02 -0.32487199182E+03 -0.25228450516E+03  0.41212763729E+03  0.00000000000E+00 0.  1.
          3    1    6    6  503    0  0.44137857967E+02  0.57197777891E+02  0.18886856401E+02  0.74675629534E+02  0.00000000000E+00 0. -1.
         -3    1    6    6    0  503  0.29912752463E+03  0.28632489737E+03 -0.96850221244E+02  0.42525191146E+03  0.00000000000E+00 0.  1.
<mgrwt>
<rscale>  0 0.14716810E+04</rscale>
<asrwt>0</asrwt>
<pdfrwt beam="1">  1        2 0.23700359E+00 0.14716810E+04</pdfrwt>
<pdfrwt beam="2">  1       -1 0.54073657E-01 0.14716810E+04</pdfrwt>
<totfact> 0.45874263E+01</totfact>
</mgrwt>
</event>
<event>
12    6  0.1530859E-007  0.1499878E+04  0.7818608E-02  0.8884534E-01
         -1   -1    0    0    0  501 -0.00000000000E+00  0.00000000000E+00  0.97507117635E+03  0.97507117635E+03  0.00000000000E+00 0.  1.
          2   -1    0    0  501    0  0.00000000000E+00 -0.00000000000E+00 -0.57678700111E+03  0.57678700111E+03  0.00000000000E+00 0. -1.
         24    2    1    2    0    0  0.25536498361E+03 -0.70630835416E+02 -0.26873951880E+03  0.38579957263E+03  0.80127345567E+02 0.  0.
        254    2    1    2    0    0 -0.25536498361E+03  0.70630835416E+02  0.66702369405E+03  0.11660586048E+04  0.91900602377E+03 0.  0.
         23    2    4    4    0    0 -0.48445243215E+03  0.38308615631E+02  0.75412290307E+03  0.90157758425E+03  0.89325687437E+02 0.  0.
         23    2    4    4    0    0  0.22908744853E+03  0.32322219786E+02 -0.87099209021E+02  0.26448102059E+03  0.94011451814E+02 0.  0.
          2    1    3    3  502    0  0.14772892802E+03 -0.52218528401E+02 -0.20935921542E+03  0.26149931541E+03  0.00000000000E+00 0. -1.
         -1    1    3    3    0  502  0.10763605560E+03 -0.18412307015E+02 -0.59380303388E+02  0.12430025722E+03  0.00000000000E+00 0.  1.
         11    1    5    5    0    0 -0.57030383856E+02 -0.17721020937E+02  0.61221029850E+02  0.85524930644E+02  0.00000000000E+00 0. -1.
        -11    1    5    5    0    0 -0.42742204829E+03  0.56029636568E+02  0.69290187322E+03  0.81605265360E+03  0.00000000000E+00 0.  1.
          4    1    6    6  503    0  0.14090582437E+03  0.64277174581E+02 -0.65961246429E+02  0.16833565441E+03  0.00000000000E+00 0. -1.
         -4    1    6    6    0  503  0.88181624161E+02 -0.31954954795E+02 -0.21137962591E+02  0.96145366181E+02  0.00000000000E+00 0.  1.
<mgrwt>
<rscale>  0 0.14998778E+04</rscale>
<asrwt>0</asrwt>
<pdfrwt beam="1">  1        2 0.88736462E-01 0.14998778E+04</pdfrwt>
<pdfrwt beam="2">  1       -1 0.15001095E+00 0.14998778E+04</pdfrwt>
<totfact> 0.20035745E+01</totfact>
</mgrwt>
</event>
<event>
12    6  0.1530859E-007  0.1279930E+04  0.7818608E-02  0.9045634E-01
          2   -1    0    0  501    0  0.00000000000E+00  0.00000000000E+00  0.12717777310E+04  0.12717777310E+04  0.00000000000E+00 0. -1.
         -1   -1    0    0    0  501 -0.00000000000E+00 -0.00000000000E+00 -0.32203375730E+03  0.32203375730E+03  0.00000000000E+00 0.  1.
         24    2    1    2    0    0 -0.34953746953E+02 -0.19980133187E+03  0.52823961203E+03  0.57155649780E+03  0.80606487430E+02 0.  0.
        254    2    1    2    0    0  0.34953746953E+02  0.19980133187E+03  0.42150436172E+03  0.10222549905E+04  0.90895379536E+03 0.  0.
         23    2    4    4    0    0 -0.32921318256E+03  0.38386213319E+03  0.23270096514E+03  0.56423360076E+03  0.92078011344E+02 0.  0.
         23    2    4    4    0    0  0.36416692952E+03 -0.18406080132E+03  0.18880339658E+03  0.45802138979E+03  0.87412469404E+02 0.  0.
          2    1    3    3  502    0  0.16686103313E+02 -0.99529555348E+02  0.30807419152E+03  0.32418245775E+03  0.00000000000E+00 0. -1.
         -1    1    3    3    0  502 -0.51639850266E+02 -0.10027177652E+03  0.22016542051E+03  0.24737404005E+03  0.00000000000E+00 0.  1.
         11    1    5    5    0    0 -0.28709185217E+03  0.35722890750E+03  0.23358828763E+03  0.51439062205E+03  0.00000000000E+00 0. -1.
        -11    1    5    5    0    0 -0.42121330394E+02  0.26633225693E+02 -0.88732249318E+00  0.49842978705E+02  0.00000000000E+00 0.  1.
          3    1    6    6  503    0  0.11542242004E+03 -0.21874486346E+02  0.78295402855E+02  0.14117718764E+03  0.00000000000E+00 0. -1.
         -3    1    6    6    0  503  0.24874450948E+03 -0.16218631498E+03  0.11050799372E+03  0.31684420215E+03  0.00000000000E+00 0.  1.
<mgrwt>
<rscale>  0 0.12799302E+04</rscale>
<asrwt>0</asrwt>
<pdfrwt beam="1">  1        2 0.19565811E+00 0.12799302E+04</pdfrwt>
<pdfrwt beam="2">  1       -1 0.49543656E-01 0.12799302E+04</pdfrwt>
<totfact> 0.78458891E+01</totfact>
</mgrwt>
</event>
<event>
12    6  0.1530859E-007  0.1570851E+04  0.7818608E-02  0.8838658E-01
          2   -1    0    0  501    0  0.00000000000E+00  0.00000000000E+00  0.74269888878E+03  0.74269888878E+03  0.00000000000E+00 0. -1.
         -1   -1    0    0    0  501 -0.00000000000E+00 -0.00000000000E+00 -0.83061048083E+03  0.83061048083E+03  0.00000000000E+00 0.  1.
         24    2    1    2    0    0 -0.29596153438E+03  0.11176349207E+03 -0.43948615420E+03  0.54743084170E+03  0.80300303357E+02 0.  0.
        254    2    1    2    0    0  0.29596153438E+03 -0.11176349207E+03  0.35157456215E+03  0.10258785279E+04  0.91035035743E+03 0.  0.
         23    2    4    4    0    0  0.28286995957E+03  0.17258773668E+03  0.56244789583E+03  0.65960788664E+03  0.94514484145E+02 0.  0.
         23    2    4    4    0    0  0.13091574810E+02 -0.28435122875E+03 -0.21087333368E+03  0.36627064127E+03  0.93057021103E+02 0.  0.
          2    1    3    3  502    0 -0.34330580626E+02  0.33156076975E+02 -0.10662220673E+03  0.11681699010E+03  0.00000000000E+00 0. -1.
         -1    1    3    3    0  502 -0.26163095376E+03  0.78607415095E+02 -0.33286394746E+03  0.43061385160E+03  0.00000000000E+00 0.  1.
         11    1    5    5    0    0  0.56078378089E+02 -0.12894158973E+01  0.12602279024E+03  0.13794270819E+03  0.00000000000E+00 0.  1.
        -11    1    5    5    0    0  0.22679158148E+03  0.17387715257E+03  0.43642510559E+03  0.52166517845E+03  0.00000000000E+00 0. -1.
          1    1    6    6  503    0 -0.18185783486E+02 -0.20834024624E+03 -0.18734501652E+03  0.28077488517E+03  0.00000000000E+00 0. -1.
         -1    1    6    6    0  503  0.31277358296E+02 -0.76010982502E+02 -0.23528317164E+02  0.85495756102E+02  0.00000000000E+00 0.  1.
<mgrwt>
<rscale>  0 0.15708513E+04</rscale>
<asrwt>0</asrwt>
<pdfrwt beam="1">  1        2 0.11426137E+00 0.15708513E+04</pdfrwt>
<pdfrwt beam="2">  1       -1 0.12778623E+00 0.15708513E+04</pdfrwt>
<totfact> 0.22078401E+01</totfact>
</mgrwt>
</event>
<event>
12    6  0.1530859E-007  0.3401844E+04  0.7818608E-02  0.8137454E-01
         -1   -1    0    0    0  501 -0.00000000000E+00  0.00000000000E+00  0.95684215603E+03  0.95684215603E+03  0.00000000000E+00 0.  1.
          2   -1    0    0  501    0  0.00000000000E+00 -0.00000000000E+00 -0.30236298160E+04  0.30236298160E+04  0.00000000000E+00 0. -1.
         24    2    1    2    0    0  0.15436009993E+04  0.21093045860E+02 -0.55342034434E+03  0.16418844378E+04  0.79758811177E+02 0.  0.
        254    2    1    2    0    0 -0.15436009993E+04 -0.21093045860E+02 -0.15133673156E+04  0.23385875342E+04  0.89194285786E+03 0.  0.
         23    2    4    4    0    0 -0.62181918603E+03  0.41983842827E+03 -0.67132579957E+03  0.10109877274E+04  0.92165339281E+02 0.  0.
         23    2    4    4    0    0 -0.92178181325E+03 -0.44093147413E+03 -0.84204151605E+03  0.13275998069E+04  0.96876500212E+02 0.  0.
          4    1    3    3  502    0  0.90611004325E+03 -0.56646702650E+01 -0.36169945608E+03  0.97565054988E+03  0.00000000000E+00 0. -1.
         -3    1    3    3    0  502  0.63749095603E+03  0.26757716125E+02 -0.19172088827E+03  0.66623388791E+03  0.00000000000E+00 0.  1.
         11    1    5    5    0    0 -0.49713779917E+03  0.30043885825E+03 -0.48233909023E+03  0.75502350750E+03  0.00000000000E+00 0.  1.
        -11    1    5    5    0    0 -0.12468138687E+03  0.11939957002E+03 -0.18898670933E+03  0.25596421988E+03  0.00000000000E+00 0. -1.
          3    1    6    6  503    0 -0.91504777515E+02 -0.27174240632E+02 -0.49710260955E+02  0.10762283078E+03  0.00000000000E+00 0. -1.
         -3    1    6    6    0  503 -0.83027703573E+03 -0.41375723350E+03 -0.79233125509E+03  0.12199769761E+04  0.00000000000E+00 0.  1.
<mgrwt>
<rscale>  0 0.34018445E+04</rscale>
<asrwt>0</asrwt>
<pdfrwt beam="1">  1        2 0.46517380E+00 0.34018445E+04</pdfrwt>
<pdfrwt beam="2">  1       -1 0.14720649E+00 0.34018445E+04</pdfrwt>
<totfact> 0.58042275E-01</totfact>
</mgrwt>
</event>
<event>
12    6  0.1530859E-007  0.2282970E+04  0.7818608E-02  0.8484666E-01
          2   -1    0    0  501    0  0.00000000000E+00  0.00000000000E+00  0.14307708146E+04  0.14307708146E+04  0.00000000000E+00 0. -1.
         -1   -1    0    0    0  501 -0.00000000000E+00 -0.00000000000E+00 -0.91068966271E+03  0.91068966271E+03  0.00000000000E+00 0.  1.
         24    2    1    2    0    0  0.67793598920E+03  0.57175961773E+03  0.60053139255E+03  0.10740275885E+04  0.79943989286E+02 0.  0.
        254    2    1    2    0    0 -0.67793598920E+03 -0.57175961773E+03 -0.80450240627E+02  0.12674328889E+04  0.90189113573E+03 0.  0.
         23    2    4    4    0    0 -0.25360223125E+02  0.14203248919E+03  0.19361777507E+03  0.25805932011E+03  0.91051639055E+02 0.  0.
         23    2    4    4    0    0 -0.65257576608E+03 -0.71379210691E+03 -0.27406801569E+03  0.10093735688E+04  0.91473612316E+02 0.  0.
          2    1    3    3  502    0  0.66483888092E+03  0.57245122653E+03  0.59183897225E+03  0.10582932077E+04  0.00000000000E+00 0. -1.
         -3    1    3    3    0  502  0.13097108281E+02 -0.69160880344E+00  0.86924203078E+01  0.15734380791E+02  0.00000000000E+00 0.  1.
         11    1    5    5    0    0  0.15449813335E+02  0.10597442920E+03  0.16454493329E+03  0.19632705226E+03  0.00000000000E+00 0.  1.
        -11    1    5    5    0    0 -0.40810036461E+02  0.36058059988E+02  0.29072841777E+02  0.61732267859E+02  0.00000000000E+00 0. -1.
          1    1    6    6  503    0 -0.13702553075E+03 -0.19287595151E+03 -0.39645665945E+02  0.23989353383E+03  0.00000000000E+00 0. -1.
         -1    1    6    6    0  503 -0.51555023533E+03 -0.52091615541E+03 -0.23442234975E+03  0.76948003494E+03  0.00000000000E+00 0.  1.
<mgrwt>
<rscale>  0 0.22829702E+04</rscale>
<asrwt>0</asrwt>
<pdfrwt beam="1">  1        2 0.22011859E+00 0.22829702E+04</pdfrwt>
<pdfrwt beam="2">  1       -1 0.14010610E+00 0.22829702E+04</pdfrwt>
<totfact> 0.60132798E+00</totfact>
</mgrwt>
</event>
<event>
12    6  0.1530859E-007  0.1787471E+04  0.7818608E-02  0.8712991E-01
          2   -1    0    0  501    0  0.00000000000E+00  0.00000000000E+00  0.73831928371E+03  0.73831928371E+03  0.00000000000E+00 0. -1.
         -1   -1    0    0    0  501 -0.00000000000E+00 -0.00000000000E+00 -0.10818671894E+04  0.10818671894E+04  0.00000000000E+00 0.  1.
         24    2    1    2    0    0  0.28972491701E+03 -0.47421630627E+03 -0.50189606301E+03  0.75294186272E+03  0.78741081472E+02 0.  0.
        254    2    1    2    0    0 -0.28972491701E+03  0.47421630627E+03  0.15834815729E+03  0.10672446104E+04  0.89728216682E+03 0.  0.
         23    2    4    4    0    0  0.40175974695E+02  0.37880478365E+03 -0.29573524309E+03  0.49079543799E+03  0.91179245916E+02 0.  0.
         23    2    4    4    0    0 -0.32990089170E+03  0.95411522623E+02  0.45408340038E+03  0.57644917244E+03  0.90354617560E+02 0.  0.
          4    1    3    3  502    0  0.12426108956E+02 -0.62367816447E+02 -0.73277250569E+02  0.97024265847E+02  0.00000000000E+00 0. -1.
         -3    1    3    3    0  502  0.27729880805E+03 -0.41184848982E+03 -0.42861881244E+03  0.65591759688E+03  0.00000000000E+00 0.  1.
         11    1    5    5    0    0  0.84350311056E+01  0.53114131684E+01 -0.29199511262E+02  0.30854048641E+02  0.00000000000E+00 0. -1.
        -11    1    5    5    0    0  0.31740943590E+02  0.37349337048E+03 -0.26653573183E+03  0.45994138935E+03  0.00000000000E+00 0.  1.
          4    1    6    6  503    0 -0.12013055568E+02  0.12374059004E+02  0.64762206582E+02  0.67019208005E+02  0.00000000000E+00 0. -1.
         -4    1    6    6    0  503 -0.31788783613E+03  0.83037463619E+02  0.38932119379E+03  0.50942996443E+03  0.00000000000E+00 0.  1.
<mgrwt>
<rscale>  0 0.17874713E+04</rscale>
<asrwt>0</asrwt>
<pdfrwt beam="1">  1        2 0.11358758E+00 0.17874713E+04</pdfrwt>
<pdfrwt beam="2">  1       -1 0.16644111E+00 0.17874713E+04</pdfrwt>
<totfact> 0.10795073E+01</totfact>
</mgrwt>
</event>
<event>
12    6  0.1530859E-007  0.1644135E+04  0.7818608E-02  0.8793884E-01
          2   -1    0    0  501    0  0.00000000000E+00  0.00000000000E+00  0.36375719867E+04  0.36375719867E+04  0.00000000000E+00 0. -1.
         -1   -1    0    0    0  501 -0.00000000000E+00 -0.00000000000E+00 -0.18578190497E+03  0.18578190497E+03  0.00000000000E+00 0.  1.
         24    2    1    2    0    0  0.45073390730E+03 -0.35467336003E+03  0.12856435879E+04  0.14101314935E+04  0.81468682667E+02 0.  0.
        254    2    1    2    0    0 -0.45073390730E+03  0.35467336003E+03  0.21661464937E+04  0.24132223981E+04  0.89582222731E+03 0.  0.
         23    2    4    4    0    0  0.61313631340E+01 -0.54595683830E+02 -0.45767885911E+02  0.11604235695E+03  0.91393910730E+02 0.  0.
         23    2    4    4    0    0 -0.45686527043E+03  0.40926904386E+03  0.22119143797E+04  0.22971800412E+04  0.90795886818E+02 0.  0.
          4    1    3    3  502    0  0.96386611226E+02 -0.99115716378E+02  0.38609027672E+03  0.41009755649E+03  0.00000000000E+00 0. -1.
         -3    1    3    3    0  502  0.35434729607E+03 -0.25555764365E+03  0.89955331122E+03  0.10000339370E+04  0.00000000000E+00 0.  1.
         11    1    5    5    0    0  0.12203025626E+02 -0.58454515767E+02 -0.69274629476E+02  0.91459381897E+02  0.00000000000E+00 0. -1.
        -11    1    5    5    0    0 -0.60716624919E+01  0.38588319372E+01  0.23506743565E+02  0.24582975051E+02  0.00000000000E+00 0.  1.
          1    1    6    6  503    0 -0.24154718291E+03  0.20943296863E+03  0.13186704784E+04  0.13568710479E+04  0.00000000000E+00 0. -1.
         -1    1    6    6    0  503 -0.21531808752E+03  0.19983607523E+03  0.89324390122E+03  0.94030899328E+03  0.00000000000E+00 0.  1.
<mgrwt>
<rscale>  0 0.16441351E+04</rscale>
<asrwt>0</asrwt>
<pdfrwt beam="1">  1        2 0.55962641E+00 0.16441351E+04</pdfrwt>
<pdfrwt beam="2">  1       -1 0.28581834E-01 0.16441351E+04</pdfrwt>
<totfact> 0.79406367E+00</totfact>
</mgrwt>
</event>
<event>
12    6  0.1530859E-007  0.1605510E+04  0.7818608E-02  0.8817170E-01
          2   -1    0    0  501    0  0.00000000000E+00  0.00000000000E+00  0.16533495183E+04  0.16533495183E+04  0.00000000000E+00 0. -1.
         -1   -1    0    0    0  501 -0.00000000000E+00 -0.00000000000E+00 -0.38976360807E+03  0.38976360807E+03  0.00000000000E+00 0.  1.
         24    2    1    2    0    0 -0.40171961342E+03  0.35106994160E+03  0.59871934014E+03  0.80597033190E+03  0.80588931852E+02 0.  0.
        254    2    1    2    0    0  0.40171961342E+03 -0.35106994160E+03  0.66486657007E+03  0.12371427945E+04  0.89657458484E+03 0.  0.
         23    2    4    4    0    0  0.65542548482E+03 -0.31209135267E+03  0.32939541243E+03  0.80253213995E+03  0.92590060815E+02 0.  0.
         23    2    4    4    0    0 -0.25370587140E+03 -0.38978588928E+02  0.33547115764E+03  0.43461065451E+03  0.10227181346E+03 0.  0.
          2    1    3    3  502    0 -0.21128738166E+03  0.18192511285E+03  0.25253627952E+03  0.37618303631E+03  0.00000000000E+00 0. -1.
         -1    1    3    3    0  502 -0.19043223176E+03  0.16914482876E+03  0.34618306062E+03  0.42978729559E+03  0.00000000000E+00 0.  1.
         11    1    5    5    0    0  0.22702942674E+03 -0.62882287917E+02  0.12180163239E+03  0.26520215005E+03  0.00000000000E+00 0.  1.
        -11    1    5    5    0    0  0.42839605808E+03 -0.24920906476E+03  0.20759378005E+03  0.53732998991E+03  0.00000000000E+00 0. -1.
          4    1    6    6  503    0 -0.18836783055E+03 -0.62727886192E+02  0.19711587980E+03  0.27977115177E+03  0.00000000000E+00 0. -1.
         -4    1    6    6    0  503 -0.65338040842E+02  0.23749297264E+02  0.13835527784E+03  0.15483950274E+03  0.00000000000E+00 0.  1.
<mgrwt>
<rscale>  0 0.16055099E+04</rscale>
<asrwt>0</asrwt>
<pdfrwt beam="1">  1        2 0.25436146E+00 0.16055099E+04</pdfrwt>
<pdfrwt beam="2">  1       -1 0.59963633E-01 0.16055099E+04</pdfrwt>
<totfact> 0.32061139E+01</totfact>
</mgrwt>
</event>
<event>
12    6  0.1530859E-007  0.1533840E+04  0.7818608E-02  0.8862256E-01
          2   -1    0    0  501    0  0.00000000000E+00  0.00000000000E+00  0.74313468533E+03  0.74313468533E+03  0.00000000000E+00 0. -1.
         -1   -1    0    0    0  501 -0.00000000000E+00 -0.00000000000E+00 -0.79146673071E+03  0.79146673071E+03  0.00000000000E+00 0.  1.
         24    2    1    2    0    0  0.36180437444E+03 -0.24869123871E+03  0.19916834355E+03  0.48818585590E+03  0.76861324837E+02 0.  0.
        254    2    1    2    0    0 -0.36180437444E+03  0.24869123871E+03 -0.24750038893E+03  0.10464155601E+04  0.91704925953E+03 0.  0.
         23    2    4    4    0    0  0.22987339548E+03  0.15736283095E+03  0.14284911093E+03  0.32662276189E+03  0.93122078899E+02 0.  0.
         23    2    4    4    0    0 -0.59167776992E+03  0.91328407760E+02 -0.39034949987E+03  0.71979279825E+03  0.85472094192E+02 0.  0.
          4    1    3    3  502    0  0.24290672496E+03 -0.17942604712E+03  0.17327447910E+03  0.34816867826E+03  0.00000000000E+00 0. -1.
         -3    1    3    3    0  502  0.11889764948E+03 -0.69265191591E+02  0.25893864449E+02  0.14001717764E+03  0.00000000000E+00 0.  1.
         11    1    5    5    0    0  0.13202353085E+03  0.35615865490E+02  0.78653489464E+02  0.15775003638E+03  0.00000000000E+00 0.  1.
        -11    1    5    5    0    0  0.97849864625E+02  0.12174696546E+03  0.64195621467E+02  0.16887272551E+03  0.00000000000E+00 0. -1.
          2    1    6    6  503    0 -0.67215965836E+02  0.90665599003E+01 -0.14549531347E+02  0.69367697339E+02  0.00000000000E+00 0. -1.
         -2    1    6    6    0  503 -0.52446180408E+03  0.82261847860E+02 -0.37579996852E+03  0.65042510091E+03  0.00000000000E+00 0.  1.
<mgrwt>
<rscale>  0 0.15338401E+04</rscale>
<asrwt>0</asrwt>
<pdfrwt beam="1">  1        2 0.11432841E+00 0.15338401E+04</pdfrwt>
<pdfrwt beam="2">  1       -1 0.12176411E+00 0.15338401E+04</pdfrwt>
<totfact> 0.24951001E+01</totfact>
</mgrwt>
</event>
<event>
12    6  0.1530859E-007  0.1686867E+04  0.7818608E-02  0.8768890E-01
         -1   -1    0    0    0  501 -0.00000000000E+00  0.00000000000E+00  0.43393022748E+03  0.43393022748E+03  0.00000000000E+00 0.  1.
          2   -1    0    0  501    0  0.00000000000E+00 -0.00000000000E+00 -0.16393886750E+04  0.16393886750E+04  0.00000000000E+00 0. -1.
         24    2    1    2    0    0 -0.57652852443E+03  0.16511147524E+03 -0.36102167111E+03  0.70460096753E+03  0.80491848628E+02 0.  0.
        254    2    1    2    0    0  0.57652852443E+03 -0.16511147524E+03 -0.84443677643E+03  0.13687179350E+04  0.89480074730E+03 0.  0.
         23    2    4    4    0    0  0.91263438835E+02 -0.33076599527E+03  0.23811319966E+02  0.35605957190E+03  0.92066719762E+02 0.  0.
         23    2    4    4    0    0  0.48526508559E+03  0.16565452003E+03 -0.86824809639E+03  0.10126583631E+04  0.93266178687E+02 0.  0.
          4    1    3    3  502    0 -0.53850827098E+03  0.17260177567E+03 -0.32830511192E+03  0.65388590548E+03  0.00000000000E+00 0. -1.
         -3    1    3    3    0  502 -0.38020253449E+02 -0.74903004311E+01 -0.32716559194E+02  0.50715062046E+02  0.00000000000E+00 0.  1.
         11    1    5    5    0    0  0.87641575540E+02 -0.26879584695E+03  0.52696908515E+02  0.28759210223E+03  0.00000000000E+00 0. -1.
        -11    1    5    5    0    0  0.36218632942E+01 -0.61970148327E+02 -0.28885588548E+02  0.68467469672E+02  0.00000000000E+00 0.  1.
          2    1    6    6  503    0  0.45123159202E+03  0.13030360807E+03 -0.75397261546E+03  0.88829256711E+03  0.00000000000E+00 0. -1.
         -2    1    6    6    0  503  0.34033493573E+02  0.35350911959E+02 -0.11427548093E+03  0.12436579595E+03  0.00000000000E+00 0.  1.
<mgrwt>
<rscale>  0 0.16868673E+04</rscale>
<asrwt>0</asrwt>
<pdfrwt beam="1">  1        2 0.25221365E+00 0.16868673E+04</pdfrwt>
<pdfrwt beam="2">  1       -1 0.66758496E-01 0.16868673E+04</pdfrwt>
<totfact> 0.26149709E+01</totfact>
</mgrwt>
</event>
<event>
12    6  0.1530859E-007  0.1425870E+04  0.7818608E-02  0.8935303E-01
          2   -1    0    0  501    0  0.00000000000E+00  0.00000000000E+00  0.11654836278E+04  0.11654836278E+04  0.00000000000E+00 0. -1.
         -1   -1    0    0    0  501 -0.00000000000E+00 -0.00000000000E+00 -0.43610739467E+03  0.43610739467E+03  0.00000000000E+00 0.  1.
         24    2    1    2    0    0  0.27525710085E+03  0.14117754804E+03 -0.16166900616E+03  0.35692455410E+03  0.74570088671E+02 0.  0.
        254    2    1    2    0    0 -0.27525710085E+03 -0.14117754804E+03  0.89104523925E+03  0.12446664683E+04  0.81211786544E+03 0.  0.
         23    2    4    4    0    0 -0.28992892711E+03 -0.23124131040E+03  0.10020734368E+04  0.10723427855E+04  0.90755443292E+02 0.  0.
         23    2    4    4    0    0  0.14671826255E+02  0.90063762356E+02 -0.11102819753E+03  0.17232368284E+03  0.95086525051E+02 0.  0.
          2    1    3    3  502    0  0.99939723836E+01  0.15963753692E+02 -0.29943496001E+02  0.35374197781E+02  0.00000000000E+00 0. -1.
         -1    1    3    3    0  502  0.26526312847E+03  0.12521379435E+03 -0.13172551016E+03  0.32155035631E+03  0.00000000000E+00 0.  1.
         11    1    5    5    0    0 -0.22911812179E+03 -0.22158969013E+03  0.80235088442E+03  0.86334468564E+03  0.00000000000E+00 0. -1.
        -11    1    5    5    0    0 -0.60810805315E+02 -0.96516202631E+01  0.19972255237E+03  0.20899809985E+03  0.00000000000E+00 0.  1.
          2    1    6    6  503    0  0.22281480226E+02  0.70069274324E+02 -0.16434538118E+02  0.75340968991E+02  0.00000000000E+00 0. -1.
         -2    1    6    6    0  503 -0.76096539713E+01  0.19994488032E+02 -0.94593659411E+02  0.96982713851E+02  0.00000000000E+00 0.  1.
<mgrwt>
<rscale>  0 0.14258696E+04</rscale>
<asrwt>0</asrwt>
<pdfrwt beam="1">  1        2 0.17930517E+00 0.14258696E+04</pdfrwt>
<pdfrwt beam="2">  1       -1 0.67093446E-01 0.14258696E+04</pdfrwt>
<totfact> 0.49533380E+01</totfact>
</mgrwt>
</event>
<event>
12    6  0.1530859E-007  0.2686676E+04  0.7818608E-02  0.8339341E-01
          2   -1    0    0  501    0  0.00000000000E+00  0.00000000000E+00  0.28975324163E+04  0.28975324163E+04  0.00000000000E+00 0. -1.
         -1   -1    0    0    0  501 -0.00000000000E+00 -0.00000000000E+00 -0.62279094252E+03  0.62279094252E+03  0.00000000000E+00 0.  1.
         24    2    1    2    0    0 -0.89372944962E+03 -0.25446474201E+03  0.34898081356E+02  0.93378480096E+03  0.85038487567E+02 0.  0.
        254    2    1    2    0    0  0.89372944962E+03  0.25446474201E+03  0.22398433924E+04  0.25865385579E+04  0.89987702201E+03 0.  0.
         23    2    4    4    0    0  0.80018460939E+03  0.27540920822E+03  0.89480254210E+03  0.12350031104E+04  0.91735773649E+02 0.  0.
         23    2    4    4    0    0  0.93544840235E+02 -0.20944466210E+02  0.13450408503E+04  0.13515354475E+04  0.91235240257E+02 0.  0.
          2    1    3    3  502    0 -0.10482672386E+03 -0.52940989672E+02  0.21806176124E+02  0.11944412811E+03  0.00000000000E+00 0. -1.
         -1    1    3    3    0  502 -0.78890272576E+03 -0.20152375233E+03  0.13091905232E+02  0.81434067284E+03  0.00000000000E+00 0.  1.
         11    1    5    5    0    0  0.96732285868E+02  0.45138892097E+01  0.11661341238E+03  0.15157901660E+03  0.00000000000E+00 0.  1.
        -11    1    5    5    0    0  0.70345232352E+03  0.27089531901E+03  0.77818912972E+03  0.10834240938E+04  0.00000000000E+00 0. -1.
          1    1    6    6  503    0  0.43521203791E+02 -0.48775060891E+02  0.45700049067E+03  0.46165197954E+03  0.00000000000E+00 0. -1.
         -1    1    6    6    0  503  0.50023636444E+02  0.27830594681E+02  0.88804035967E+03  0.88988346799E+03  0.00000000000E+00 0.  1.
<mgrwt>
<rscale>  0 0.26866760E+04</rscale>
<asrwt>0</asrwt>
<pdfrwt beam="1">  1        2 0.44577421E+00 0.26866760E+04</pdfrwt>
<pdfrwt beam="2">  1       -1 0.95813993E-01 0.26866760E+04</pdfrwt>
<totfact> 0.21136972E+00</totfact>
</mgrwt>
</event>
<event>
12    6  0.1530859E-007  0.1977988E+04  0.7818608E-02  0.8616982E-01
          2   -1    0    0  501    0  0.00000000000E+00  0.00000000000E+00  0.36310214417E+04  0.36310214417E+04  0.00000000000E+00 0. -1.
         -1   -1    0    0    0  501 -0.00000000000E+00 -0.00000000000E+00 -0.26937571275E+03  0.26937571275E+03  0.00000000000E+00 0.  1.
         24    2    1    2    0    0  0.23806370520E+03 -0.50981098430E+03  0.24154761231E+04  0.24814236151E+04  0.79728845350E+02 0.  0.
        254    2    1    2    0    0 -0.23806370520E+03  0.50981098430E+03  0.94616960584E+03  0.14189735394E+04  0.89535881911E+03 0.  0.
         23    2    4    4    0    0  0.27242404798E+03 -0.25076890351E+02  0.13580440502E+03  0.31803852674E+03  0.88667670083E+02 0.  0.
         23    2    4    4    0    0 -0.51048775318E+03  0.53488787465E+03  0.81036520082E+03  0.11009350126E+04  0.93077165548E+02 0.  0.
          4    1    3    3  502    0  0.22423573100E+03 -0.40955411907E+03  0.20064860804E+04  0.20600977235E+04  0.00000000000E+00 0. -1.
         -3    1    3    3    0  502  0.13827974197E+02 -0.10025686523E+03  0.40899004272E+03  0.42132589160E+03  0.00000000000E+00 0.  1.
         11    1    5    5    0    0  0.26903043490E+03 -0.40220176268E+02  0.12975186227E+03  0.30138112622E+03  0.00000000000E+00 0.  1.
        -11    1    5    5    0    0  0.33936130801E+01  0.15143285916E+02  0.60525427532E+01  0.16657400513E+02  0.00000000000E+00 0. -1.
          3    1    6    6  503    0 -0.22925470732E+02  0.61563424814E+02  0.69724782407E+02  0.95797587469E+02  0.00000000000E+00 0. -1.
         -3    1    6    6    0  503 -0.48756228245E+03  0.47332444984E+03  0.74064041841E+03  0.10051374252E+04  0.00000000000E+00 0.  1.
<mgrwt>
<rscale>  0 0.19779879E+04</rscale>
<asrwt>0</asrwt>
<pdfrwt beam="1">  1        2 0.55861865E+00 0.19779879E+04</pdfrwt>
<pdfrwt beam="2">  1       -1 0.41442420E-01 0.19779879E+04</pdfrwt>
<totfact> 0.39919844E+00</totfact>
</mgrwt>
</event>
<event>
12    6  0.1530859E-007  0.1470981E+04  0.7818608E-02  0.8903983E-01
         -1   -1    0    0    0  501 -0.00000000000E+00  0.00000000000E+00  0.28647722961E+03  0.28647722961E+03  0.00000000000E+00 0.  1.
          2   -1    0    0  501    0  0.00000000000E+00 -0.00000000000E+00 -0.18882699560E+04  0.18882699560E+04  0.00000000000E+00 0. -1.
         24    2    1    2    0    0 -0.31891374105E+02 -0.20094735339E+02 -0.11693321837E+04  0.11727265819E+04  0.80802363662E+02 0.  0.
        254    2    1    2    0    0  0.31891374105E+02  0.20094735339E+02 -0.43246054264E+03  0.10020206036E+04  0.90310703189E+03 0.  0.
         23    2    4    4    0    0 -0.11001631306E+03 -0.39393675918E+03 -0.34957145726E+03  0.54591414901E+03  0.92370422653E+02 0.  0.
         23    2    4    4    0    0  0.14190768716E+03  0.41403149452E+03 -0.82889085377E+02  0.45610645463E+03  0.97992996422E+02 0.  0.
          2    1    3    3  502    0 -0.35604294386E+02 -0.14211099843E+02 -0.11619515330E+04  0.11625837545E+04  0.00000000000E+00 0. -1.
         -1    1    3    3    0  502  0.37129202812E+01 -0.58836354953E+01 -0.73806506862E+01  0.10142827427E+02  0.00000000000E+00 0.  1.
         11    1    5    5    0    0 -0.72525895134E+02 -0.22784060791E+03 -0.14454316274E+03  0.27939948814E+03  0.00000000000E+00 0. -1.
        -11    1    5    5    0    0 -0.37490417922E+02 -0.16609615127E+03 -0.20502829452E+03  0.26651466087E+03  0.00000000000E+00 0.  1.
          4    1    6    6  503    0  0.12727249474E+03  0.28925923450E+03 -0.94752150594E+02  0.32991993378E+03  0.00000000000E+00 0. -1.
         -4    1    6    6    0  503  0.14635192417E+02  0.12477226002E+03  0.11863065217E+02  0.12618652085E+03  0.00000000000E+00 0.  1.
<mgrwt>
<rscale>  0 0.14709811E+04</rscale>
<asrwt>0</asrwt>
<pdfrwt beam="1">  1        2 0.29050307E+00 0.14709811E+04</pdfrwt>
<pdfrwt beam="2">  1       -1 0.44073419E-01 0.14709811E+04</pdfrwt>
<totfact> 0.43296032E+01</totfact>
</mgrwt>
</event>
<event>
12    6  0.1530859E-007  0.1401103E+04  0.7818608E-02  0.8953020E-01
         -1   -1    0    0    0  501 -0.00000000000E+00  0.00000000000E+00  0.89501778374E+03  0.89501778374E+03  0.00000000000E+00 0.  1.
          2   -1    0    0  501    0  0.00000000000E+00 -0.00000000000E+00 -0.54833830464E+03  0.54833830464E+03  0.00000000000E+00 0. -1.
         24    2    1    2    0    0 -0.31337730449E+03  0.67131410545E+01 -0.19223048491E+03  0.37632073336E+03  0.80089536135E+02 0.  0.
        254    2    1    2    0    0  0.31337730449E+03 -0.67131410545E+01  0.53890996401E+03  0.10670353550E+04  0.86596194968E+03 0.  0.
         23    2    4    4    0    0  0.50024367377E+02  0.12100289192E+03  0.70177329647E+03  0.71962093025E+03  0.90688402938E+02 0.  0.
         23    2    4    4    0    0  0.26335293711E+03 -0.12771603298E+03 -0.16286333246E+03  0.34741442476E+03  0.92228861580E+02 0.  0.
          2    1    3    3  502    0 -0.28543625655E+03  0.26555808858E+02 -0.15566613509E+03  0.32620700966E+03  0.00000000000E+00 0. -1.
         -1    1    3    3    0  502 -0.27941047939E+02 -0.19842667804E+02 -0.36564349825E+02  0.50113723705E+02  0.00000000000E+00 0.  1.
         11    1    5    5    0    0  0.36630470963E+02  0.16245492189E+02  0.35139047535E+03  0.35366788599E+03  0.00000000000E+00 0.  1.
        -11    1    5    5    0    0  0.13393896414E+02  0.10475739973E+03  0.35038282112E+03  0.36595304425E+03  0.00000000000E+00 0. -1.
          3    1    6    6  503    0  0.17544573598E+03 -0.12233004404E+03 -0.86023386587E+02  0.23053387818E+03  0.00000000000E+00 0. -1.
         -3    1    6    6    0  503  0.87907201127E+02 -0.53859889333E+01 -0.76839945869E+02  0.11688054658E+03  0.00000000000E+00 0.  1.
<mgrwt>
<rscale>  0 0.14011032E+04</rscale>
<asrwt>0</asrwt>
<pdfrwt beam="1">  1        2 0.84359739E-01 0.14011032E+04</pdfrwt>
<pdfrwt beam="2">  1       -1 0.13769504E+00 0.14011032E+04</pdfrwt>
<totfact> 0.26909624E+01</totfact>
</mgrwt>
</event>
<event>
12    6  0.1530859E-007  0.1574395E+04  0.7818608E-02  0.8836434E-01
         -1   -1    0    0    0  501 -0.00000000000E+00  0.00000000000E+00  0.44289575148E+03  0.44289575148E+03  0.00000000000E+00 0.  1.
          2   -1    0    0  501    0  0.00000000000E+00 -0.00000000000E+00 -0.13991552836E+04  0.13991552836E+04  0.00000000000E+00 0. -1.
         24    2    1    2    0    0  0.44331940492E+03  0.25792616426E+03 -0.27817214679E+03  0.58943668995E+03  0.83653255897E+02 0.  0.
        254    2    1    2    0    0 -0.44331940492E+03 -0.25792616426E+03 -0.67808738535E+03  0.12526143451E+04  0.91988161984E+03 0.  0.
         23    2    4    4    0    0 -0.12277654219E+03 -0.54835018679E+03 -0.55213620083E+03  0.79283378788E+03  0.89269391588E+02 0.  0.
         23    2    4    4    0    0 -0.32054286273E+03  0.29042402253E+03 -0.12595118452E+03  0.45978055727E+03  0.91872848256E+02 0.  0.
          4    1    3    3  502    0  0.27768650122E+03  0.13151840658E+03 -0.20141734160E+03  0.36739056837E+03  0.00000000000E+00 0. -1.
         -3    1    3    3    0  502  0.16563290370E+03  0.12640775768E+03 -0.76754805188E+02  0.22204612158E+03  0.00000000000E+00 0.  1.
         11    1    5    5    0    0 -0.83461621617E+02 -0.45077356867E+03 -0.40337569780E+03  0.61063459292E+03  0.00000000000E+00 0.  1.
        -11    1    5    5    0    0 -0.39314920571E+02 -0.97576618125E+02 -0.14876050303E+03  0.18219919496E+03  0.00000000000E+00 0. -1.
          3    1    6    6  503    0 -0.22525329401E+03  0.21176890341E+03 -0.45901437456E+02  0.31255728575E+03  0.00000000000E+00 0. -1.
         -3    1    6    6    0  503 -0.95289568723E+02  0.78655119120E+02 -0.80049747067E+02  0.14722327152E+03  0.00000000000E+00 0.  1.
<mgrwt>
<rscale>  0 0.15743950E+04</rscale>
<asrwt>0</asrwt>
<pdfrwt beam="1">  1        2 0.21525465E+00 0.15743950E+04</pdfrwt>
<pdfrwt beam="2">  1       -1 0.68137810E-01 0.15743950E+04</pdfrwt>
<totfact> 0.34591084E+01</totfact>
</mgrwt>
</event>
<event>
12    6  0.1530859E-007  0.2580172E+04  0.7818608E-02  0.8374968E-01
          2   -1    0    0  501    0  0.00000000000E+00  0.00000000000E+00  0.11954182242E+04  0.11954182242E+04  0.00000000000E+00 0. -1.
         -1   -1    0    0    0  501 -0.00000000000E+00 -0.00000000000E+00 -0.13922506084E+04  0.13922506084E+04  0.00000000000E+00 0.  1.
         24    2    1    2    0    0  0.57271216375E+03  0.90488864183E+03  0.32992254423E+03  0.11230296543E+04  0.74323904076E+02 0.  0.
        254    2    1    2    0    0 -0.57271216375E+03 -0.90488864183E+03 -0.52675492844E+03  0.14646391782E+04  0.84904327993E+03 0.  0.
         23    2    4    4    0    0 -0.15230748558E+02  0.42378306566E+02 -0.32821276757E+03  0.34400050982E+03  0.92654375982E+02 0.  0.
         23    2    4    4    0    0 -0.55748141519E+03 -0.94726694839E+03 -0.19854216087E+03  0.11206386684E+04  0.91169269625E+02 0.  0.
          2    1    3    3  502    0  0.30714563372E+03  0.54906615463E+03  0.20730210660E+03  0.66240942465E+03  0.00000000000E+00 0. -1.
         -1    1    3    3    0  502  0.26556653003E+03  0.35582248720E+03  0.12262043763E+03  0.46062022968E+03  0.00000000000E+00 0.  1.
         11    1    5    5    0    0  0.31279953558E+02  0.43442390691E+02 -0.13408905534E+03  0.14437988629E+03  0.00000000000E+00 0. -1.
        -11    1    5    5    0    0 -0.46510702116E+02 -0.10640841248E+01 -0.19412371223E+03  0.19962062353E+03  0.00000000000E+00 0.  1.
          1    1    6    6  503    0 -0.39725218519E+03 -0.63874972225E+03 -0.17440549675E+03  0.77215787479E+03  0.00000000000E+00 0. -1.
         -1    1    6    6    0  503 -0.16022923001E+03 -0.30851722614E+03 -0.24136664123E+02  0.34848079363E+03  0.00000000000E+00 0.  1.
<mgrwt>
<rscale>  0 0.25801719E+04</rscale>
<asrwt>0</asrwt>
<pdfrwt beam="1">  1        2 0.18391050E+00 0.25801719E+04</pdfrwt>
<pdfrwt beam="2">  1       -1 0.21419240E+00 0.25801719E+04</pdfrwt>
<totfact> 0.23175240E+00</totfact>
</mgrwt>
</event>
<event>
12    6  0.1530859E-007  0.1546066E+04  0.7818608E-02  0.8854385E-01
         -1   -1    0    0    0  501 -0.00000000000E+00  0.00000000000E+00  0.48794485606E+03  0.48794485606E+03  0.00000000000E+00 0.  1.
          2   -1    0    0  501    0  0.00000000000E+00 -0.00000000000E+00 -0.12246870614E+04  0.12246870614E+04  0.00000000000E+00 0. -1.
         24    2    1    2    0    0 -0.28463466344E+03 -0.37260639970E+03 -0.45768090592E+03  0.65999193790E+03  0.79152547117E+02 0.  0.
        254    2    1    2    0    0  0.28463466344E+03  0.37260639970E+03 -0.27906129938E+03  0.10526399795E+04  0.90017959149E+03 0.  0.
         23    2    4    4    0    0 -0.11192277131E+03 -0.14986938546E+03  0.15603789397E+03  0.26031115930E+03  0.91796164761E+02 0.  0.
         23    2    4    4    0    0  0.39655743475E+03  0.52247578517E+03 -0.43509919335E+03  0.79232882022E+03  0.90746383738E+02 0.  0.
          2    1    3    3  502    0 -0.24447496139E+03 -0.32696990166E+03 -0.43081045479E+03  0.59352756574E+03  0.00000000000E+00 0. -1.
         -1    1    3    3    0  502 -0.40159702056E+02 -0.45636498038E+02 -0.26870451135E+02  0.66464372160E+02  0.00000000000E+00 0.  1.
         11    1    5    5    0    0  0.77624052536E+01 -0.37716608521E+01 -0.67639130402E+01  0.10964984292E+02  0.00000000000E+00 0. -1.
        -11    1    5    5    0    0 -0.11968517657E+03 -0.14609772461E+03  0.16280180701E+03  0.24934617501E+03  0.00000000000E+00 0.  1.
          2    1    6    6  503    0  0.18163707141E+03  0.31157592650E+03 -0.25090101916E+03  0.43934372091E+03  0.00000000000E+00 0. -1.
         -2    1    6    6    0  503  0.21492036334E+03  0.21089985866E+03 -0.18419817418E+03  0.35298509931E+03  0.00000000000E+00 0.  1.
<mgrwt>
<rscale>  0 0.15460657E+04</rscale>
<asrwt>0</asrwt>
<pdfrwt beam="1">  1        2 0.18841339E+00 0.15460657E+04</pdfrwt>
<pdfrwt beam="2">  1       -1 0.75068440E-01 0.15460657E+04</pdfrwt>
<totfact> 0.35872683E+01</totfact>
</mgrwt>
</event>
<event>
12    6  0.1530859E-007  0.2464918E+04  0.7818608E-02  0.8415591E-01
         -1   -1    0    0    0  501 -0.00000000000E+00  0.00000000000E+00  0.80783138608E+03  0.80783138608E+03  0.00000000000E+00 0.  1.
          2   -1    0    0  501    0  0.00000000000E+00 -0.00000000000E+00 -0.18802867385E+04  0.18802867385E+04  0.00000000000E+00 0. -1.
         24    2    1    2    0    0 -0.24795157494E+02 -0.65564503931E+03 -0.13927397133E+04  0.15414429530E+04  0.76401902938E+02 0.  0.
        254    2    1    2    0    0  0.24795157494E+02  0.65564503931E+03  0.32028436094E+03  0.11466751716E+04  0.88419265991E+03 0.  0.
         23    2    4    4    0    0  0.22861670507E+03 -0.72892402574E+02 -0.10075996059E+03  0.27629305662E+03  0.92770594958E+02 0.  0.
         23    2    4    4    0    0 -0.20382154757E+03  0.72853744189E+03  0.42104432153E+03  0.87038211496E+03  0.89312249204E+02 0.  0.
          2    1    3    3  502    0 -0.37100348038E+02 -0.63365100713E+03 -0.13511142790E+04  0.14927825795E+04  0.00000000000E+00 0. -1.
         -1    1    3    3    0  502  0.12305190543E+02 -0.21994032180E+02 -0.41625434331E+02  0.48660373500E+02  0.00000000000E+00 0.  1.
         11    1    5    5    0    0  0.21153171447E+03 -0.80423534805E+02 -0.64188904300E+02  0.23523143202E+03  0.00000000000E+00 0.  1.
        -11    1    5    5    0    0  0.17084990601E+02  0.75311322306E+01 -0.36571056288E+02  0.41061624597E+02  0.00000000000E+00 0. -1.
          4    1    6    6  503    0 -0.15902529810E+02  0.15085809182E+03  0.56229803614E+02  0.16178023717E+03  0.00000000000E+00 0.  1.
         -4    1    6    6    0  503 -0.18791901776E+03  0.57767935006E+03  0.36481451791E+03  0.70860187779E+03  0.00000000000E+00 0. -1.
<mgrwt>
<rscale>  0 0.24649176E+04</rscale>
<asrwt>0</asrwt>
<pdfrwt beam="1">  1        2 0.28927488E+00 0.24649176E+04</pdfrwt>
<pdfrwt beam="2">  1       -1 0.12428175E+00 0.24649176E+04</pdfrwt>
<totfact> 0.45004937E+00</totfact>
</mgrwt>
</event>
<event>
12    6  0.1530859E-007  0.2581801E+04  0.7818608E-02  0.8374409E-01
         -1   -1    0    0    0  501 -0.00000000000E+00  0.00000000000E+00  0.51876420309E+03  0.51876420309E+03  0.00000000000E+00 0.  1.
          2   -1    0    0  501    0  0.00000000000E+00 -0.00000000000E+00 -0.32122966719E+04  0.32122966719E+04  0.00000000000E+00 0. -1.
         24    2    1    2    0    0  0.69363146379E+03  0.83704889814E+03 -0.16435111325E+04  0.19721624578E+04  0.80749315474E+02 0.  0.
        254    2    1    2    0    0 -0.69363146379E+03 -0.83704889814E+03 -0.10500213363E+04  0.17588984172E+04  0.89966847774E+03 0.  0.
         23    2    4    4    0    0  0.20157259785E+03 -0.23537987726E+03 -0.17803063271E+03  0.36891620182E+03  0.91482560932E+02 0.  0.
         23    2    4    4    0    0 -0.89520406165E+03 -0.60166902087E+03 -0.87199070363E+03  0.13899822154E+04  0.91032132793E+02 0.  0.
          2    1    3    3  502    0  0.43775883548E+03  0.46603500484E+03 -0.96765886611E+03  0.11598211521E+04  0.00000000000E+00 0. -1.
         -1    1    3    3    0  502  0.25587262831E+03  0.37101389330E+03 -0.67585226636E+03  0.81234130566E+03  0.00000000000E+00 0.  1.
         11    1    5    5    0    0  0.49888062258E+02 -0.25130904003E+02 -0.66069411378E+02  0.86519062706E+02  0.00000000000E+00 0. -1.
        -11    1    5    5    0    0  0.15168453560E+03 -0.21024897326E+03 -0.11196122133E+03  0.28239713911E+03  0.00000000000E+00 0.  1.
          4    1    6    6  503    0 -0.19504783613E+03 -0.15742235549E+03 -0.16289328711E+03  0.29893089397E+03  0.00000000000E+00 0. -1.
         -4    1    6    6    0  503 -0.70015622552E+03 -0.44424666539E+03 -0.70909741653E+03  0.10910513214E+04  0.00000000000E+00 0.  1.
<mgrwt>
<rscale>  0 0.25818013E+04</rscale>
<asrwt>0</asrwt>
<pdfrwt beam="1">  1        2 0.49419949E+00 0.25818013E+04</pdfrwt>
<pdfrwt beam="2">  1       -1 0.79809877E-01 0.25818013E+04</pdfrwt>
<totfact> 0.20107983E+00</totfact>
</mgrwt>
</event>
<event>
12    6  0.1642013E-007  0.2696912E+04  0.7818608E-02  0.8336008E-01
          2   -1    0    0  501    0  0.00000000000E+00  0.00000000000E+00  0.25365115725E+04  0.25365115725E+04  0.00000000000E+00 0. -1.
         -1   -1    0    0    0  501 -0.00000000000E+00 -0.00000000000E+00 -0.71686404196E+03  0.71686404196E+03  0.00000000000E+00 0.  1.
         24    2    1    2    0    0 -0.24674437496E+02  0.93993080317E+03  0.17078297669E+04  0.19512058377E+04  0.80268087320E+02 0.  0.
        254    2    1    2    0    0  0.24674437496E+02 -0.93993080317E+03  0.11181776370E+03  0.13021697768E+04  0.89390389457E+03 0.  0.
         23    2    4    4    0    0 -0.23144520764E+03  0.62288120648E+02 -0.11979068766E+02  0.25675165009E+03  0.91275503963E+02 0.  0.
         23    2    4    4    0    0  0.25611964514E+03 -0.10022189238E+04  0.12379683247E+03  0.10454181267E+04  0.86794930998E+02 0.  0.
          2    1    3    3  502    0 -0.33512799247E+02  0.88480585166E+03  0.15695264251E+04  0.18020592948E+04  0.00000000000E+00 0. -1.
         -1    1    3    3    0  502  0.88383617511E+01  0.55124951508E+02  0.13830334174E+03  0.14914654288E+03  0.00000000000E+00 0.  1.
         11    1    5    5    0    0 -0.22250830263E+03  0.80145356261E+02 -0.11264364245E+02  0.23677016022E+03  0.00000000000E+00 0. -1.
        -11    1    5    5    0    0 -0.89369050091E+01 -0.17857235614E+02 -0.71470452101E+00  0.19981489871E+02  0.00000000000E+00 0.  1.
          4    1    6    6  503    0  0.23298483179E+03 -0.95664059463E+03  0.10207378068E+03  0.98987989971E+03  0.00000000000E+00 0. -1.
         -4    1    6    6    0  503  0.23134813343E+02 -0.45578329182E+02  0.21723051788E+02  0.55538227001E+02  0.00000000000E+00 0.  1.
<mgrwt>
<rscale>  0 0.26969123E+04</rscale>
<asrwt>0</asrwt>
<pdfrwt beam="1">  1        2 0.39023254E+00 0.26969123E+04</pdfrwt>
<pdfrwt beam="2">  1       -1 0.11028678E+00 0.26969123E+04</pdfrwt>
<totfact> 0.25080162E+00</totfact>
</mgrwt>
</event>
<event>
12    6  0.1530859E-007  0.1275906E+04  0.7818608E-02  0.9048893E-01
          4   -1    0    0  501    0  0.00000000000E+00  0.00000000000E+00  0.27238397776E+03  0.27238397776E+03  0.00000000000E+00 0. -1.
         -3   -1    0    0    0  501 -0.00000000000E+00 -0.00000000000E+00 -0.14941559695E+04  0.14941559695E+04  0.00000000000E+00 0.  1.
         24    2    1    2    0    0  0.85074158611E+02 -0.16125498053E+03 -0.13280904093E+03  0.23987060510E+03  0.81601989138E+02 0.  0.
        254    2    1    2    0    0 -0.85074158611E+02  0.16125498053E+03 -0.10889629508E+04  0.15266693421E+04  0.10543425396E+04 0.  0.
         23    2    4    4    0    0 -0.15827623439E+03  0.30700086230E+03 -0.12373815242E+04  0.12879853479E+04  0.92153806859E+02 0.  0.
         23    2    4    4    0    0  0.73202075781E+02 -0.14574588177E+03  0.14841857346E+03  0.23868399420E+03  0.91332196870E+02 0.  0.
          2    1    3    3  502    0  0.21489266537E+02 -0.60342664665E+02 -0.37919034505E+01  0.64167003101E+02  0.00000000000E+00 0. -1.
         -1    1    3    3    0  502  0.63584892075E+02 -0.10091231586E+03 -0.12901713748E+03  0.17570360200E+03  0.00000000000E+00 0.  1.
         11    1    5    5    0    0 -0.21748863145E+02  0.22401735169E+01 -0.50747687354E+02  0.55257209459E+02  0.00000000000E+00 0. -1.
        -11    1    5    5    0    0 -0.13652737125E+03  0.30476068878E+03 -0.11866338369E+04  0.12327281385E+04  0.00000000000E+00 0.  1.
          3    1    6    6  503    0 -0.13309477423E+02 -0.60972169681E+01 -0.33667810128E+01  0.15021766155E+02  0.00000000000E+00 0. -1.
         -3    1    6    6    0  503  0.86511553205E+02 -0.13964866481E+03  0.15178535448E+03  0.22366222804E+03  0.00000000000E+00 0.  1.
<mgrwt>
<rscale>  0 0.12759062E+04</rscale>
<asrwt>0</asrwt>
<pdfrwt beam="1">  1        4 0.41905228E-01 0.12759062E+04</pdfrwt>
<pdfrwt beam="2">  1       -3 0.22987015E+00 0.12759062E+04</pdfrwt>
<totfact> 0.12013094E+00</totfact>
</mgrwt>
</event>
<event>
12    6  0.1530859E-007  0.1849568E+04  0.7818608E-02  0.8680375E-01
          2   -1    0    0  501    0  0.00000000000E+00  0.00000000000E+00  0.78448417418E+03  0.78448417418E+03  0.00000000000E+00 0. -1.
         -1   -1    0    0    0  501 -0.00000000000E+00 -0.00000000000E+00 -0.10901756783E+04  0.10901756783E+04  0.00000000000E+00 0.  1.
         24    2    1    2    0    0  0.42305918066E+03  0.47444426875E+03  0.11954975336E+03  0.65171824306E+03  0.79800315267E+02 0.  0.
        254    2    1    2    0    0 -0.42305918066E+03 -0.47444426875E+03 -0.42524125743E+03  0.12229416094E+04  0.95429535177E+03 0.  0.
         23    2    4    4    0    0 -0.47896711909E+02 -0.43604771635E+03 -0.63902115572E+03  0.78038644790E+03  0.90682218001E+02 0.  0.
         23    2    4    4    0    0 -0.37516246875E+03 -0.38396552396E+02  0.21377989828E+03  0.44255516147E+03  0.89062072972E+02 0.  0.
          2    1    3    3  502    0  0.12357609266E+03  0.12204149619E+03  0.67469162020E+02  0.18632569682E+03  0.00000000000E+00 0. -1.
         -1    1    3    3    0  502  0.29948308800E+03  0.35240277256E+03  0.52080591338E+02  0.46539254624E+03  0.00000000000E+00 0.  1.
         11    1    5    5    0    0 -0.37998917962E+02 -0.43461539195E+03 -0.63277500346E+03  0.76859525219E+03  0.00000000000E+00 0.  1.
        -11    1    5    5    0    0 -0.98977939465E+01 -0.14323244038E+01 -0.62461522552E+01  0.11791195707E+02  0.00000000000E+00 0. -1.
          1    1    6    6  503    0 -0.10225748735E+03 -0.47333855778E+02  0.82049551145E+02  0.13938872431E+03  0.00000000000E+00 0. -1.
         -1    1    6    6    0  503 -0.27290498140E+03  0.89373033814E+01  0.13173034714E+03  0.30316643716E+03  0.00000000000E+00 0.  1.
<mgrwt>
<rscale>  0 0.18495681E+04</rscale>
<asrwt>0</asrwt>
<pdfrwt beam="1">  1        2 0.12068987E+00 0.18495681E+04</pdfrwt>
<pdfrwt beam="2">  1       -1 0.16771933E+00 0.18495681E+04</pdfrwt>
<totfact> 0.97066438E+00</totfact>
</mgrwt>
</event>
<event>
12    6  0.1530859E-007  0.4245400E+04  0.7818608E-02  0.7956792E-01
          2   -1    0    0  501    0  0.00000000000E+00  0.00000000000E+00  0.13244441703E+04  0.13244441703E+04  0.00000000000E+00 0. -1.
         -3   -1    0    0    0  501 -0.00000000000E+00 -0.00000000000E+00 -0.34020728893E+04  0.34020728893E+04  0.00000000000E+00 0.  1.
         24    2    1    2    0    0 -0.13322392907E+04 -0.12667407582E+04 -0.19428019030E+04  0.26763479809E+04  0.94157337712E+02 0.  0.
        254    2    1    2    0    0  0.13322392907E+04  0.12667407582E+04 -0.13482681602E+03  0.20501690788E+04  0.89750838705E+03 0.  0.
         23    2    4    4    0    0 -0.88807140737E+02  0.29088157223E+03  0.16226144071E+02  0.31730842223E+03  0.89008706094E+02 0.  0.
         23    2    4    4    0    0  0.14210464315E+04  0.97585918600E+03 -0.15105296009E+03  0.17328606565E+04  0.91186330425E+02 0.  0.
          4    1    3    3  502    0 -0.11022893353E+04 -0.10113892601E+04 -0.16158934848E+04  0.22020585297E+04  0.00000000000E+00 0. -1.
         -1    1    3    3    0  502 -0.22994995547E+03 -0.25535149809E+03 -0.32690841819E+03  0.47428945116E+03  0.00000000000E+00 0.  1.
         11    1    5    5    0    0 -0.90268478449E+02  0.29709690509E+03  0.16002987965E+02  0.31091970803E+03  0.00000000000E+00 0.  1.
        -11    1    5    5    0    0  0.14613377120E+01 -0.62153328645E+01  0.22315610586E+00  0.63887142034E+01  0.00000000000E+00 0. -1.
          4    1    6    6  503    0  0.12921355173E+04  0.87256710171E+03 -0.16050327042E+03  0.15674019401E+04  0.00000000000E+00 0.  1.
         -4    1    6    6    0  503  0.12891091421E+03  0.10329208429E+03  0.94503103283E+01  0.16545871644E+03  0.00000000000E+00 0. -1.
<mgrwt>
<rscale>  0 0.42454001E+04</rscale>
<asrwt>0</asrwt>
<pdfrwt beam="1">  1        2 0.20376065E+00 0.42454001E+04</pdfrwt>
<pdfrwt beam="2">  1       -3 0.52339582E+00 0.42454001E+04</pdfrwt>
<totfact> 0.17614947E-02</totfact>
</mgrwt>
</event>
<event>
12    6  0.1530859E-007  0.1570715E+04  0.7818608E-02  0.8838744E-01
          2   -1    0    0  501    0  0.00000000000E+00  0.00000000000E+00  0.93561479380E+03  0.93561479380E+03  0.00000000000E+00 0. -1.
         -1   -1    0    0    0  501 -0.00000000000E+00 -0.00000000000E+00 -0.65923087827E+03  0.65923087827E+03  0.00000000000E+00 0.  1.
         24    2    1    2    0    0  0.20928766419E+03  0.30690442083E+03 -0.28831277320E+03  0.47680326762E+03  0.78901526686E+02 0.  0.
        254    2    1    2    0    0 -0.20928766419E+03 -0.30690442083E+03  0.56469668873E+03  0.11180424044E+04  0.89058678295E+03 0.  0.
         23    2    4    4    0    0 -0.28057890152E+03 -0.50711521740E+03  0.64699790343E+03  0.87326144323E+03  0.89938298197E+02 0.  0.
         23    2    4    4    0    0  0.71291237328E+02  0.20021079657E+03 -0.82301214701E+02  0.24478096122E+03  0.89316434382E+02 0.  0.
          4    1    3    3  502    0  0.16304447053E+03  0.23151799765E+03 -0.25866861979E+03  0.38352775320E+03  0.00000000000E+00 0. -1.
         -3    1    3    3    0  502  0.46243193660E+02  0.75386423176E+02 -0.29644153411E+02  0.93275514421E+02  0.00000000000E+00 0.  1.
         11    1    5    5    0    0  0.67722624207E+01 -0.17791311130E+02  0.21481589004E+02  0.28702838817E+02  0.00000000000E+00 0.  1.
        -11    1    5    5    0    0 -0.28735116394E+03 -0.48932390627E+03  0.62551631443E+03  0.84455860441E+03  0.00000000000E+00 0. -1.
          4    1    6    6  503    0  0.83889599991E+02  0.13988978908E+03 -0.34333129976E+02  0.16668947744E+03  0.00000000000E+00 0. -1.
         -4    1    6    6    0  503 -0.12598362663E+02  0.60321007489E+02 -0.47968084724E+02  0.78091483776E+02  0.00000000000E+00 0.  1.
<mgrwt>
<rscale>  0 0.15707147E+04</rscale>
<asrwt>0</asrwt>
<pdfrwt beam="1">  1        2 0.14394074E+00 0.15707147E+04</pdfrwt>
<pdfrwt beam="2">  1       -1 0.10142014E+00 0.15707147E+04</pdfrwt>
<totfact> 0.28090909E+01</totfact>
</mgrwt>
</event>
<event>
12    6  0.1530859E-007  0.1731729E+04  0.7818608E-02  0.8743472E-01
         -1   -1    0    0    0  501 -0.00000000000E+00  0.00000000000E+00  0.17159356216E+04  0.17159356216E+04  0.00000000000E+00 0.  1.
          2   -1    0    0  501    0  0.00000000000E+00 -0.00000000000E+00 -0.43691715199E+03  0.43691715199E+03  0.00000000000E+00 0. -1.
         24    2    1    2    0    0  0.43516425569E+03 -0.24924130676E+03 -0.10932116115E+02  0.50846558249E+03  0.83238086126E+02 0.  0.
        254    2    1    2    0    0 -0.43516425569E+03  0.24924130676E+03  0.12899505858E+04  0.16443871911E+04  0.88800200577E+03 0.  0.
         23    2    4    4    0    0 -0.17624836759E+02  0.47363072470E+03  0.90967220529E+03  0.10299063262E+04  0.92557124913E+02 0.  0.
         23    2    4    4    0    0 -0.41753941894E+03 -0.22438941794E+03  0.38027838046E+03  0.61448086496E+03  0.91023675485E+02 0.  0.
          4    1    3    3  502    0  0.34687775627E+03 -0.18196821679E+03 -0.39941783897E+02  0.39374097554E+03  0.00000000000E+00 0. -1.
         -3    1    3    3    0  502  0.88286499419E+02 -0.67273089972E+02  0.29009667782E+02  0.11472460695E+03  0.00000000000E+00 0.  1.
         11    1    5    5    0    0 -0.32658304184E+02  0.73446495354E+02  0.19026747293E+03  0.20654942210E+03  0.00000000000E+00 0.  1.
        -11    1    5    5    0    0  0.15033467426E+02  0.40018422935E+03  0.71940473235E+03  0.82335690408E+03  0.00000000000E+00 0. -1.
          2    1    6    6  503    0 -0.28554539788E+03 -0.15157606878E+03  0.31095918346E+03  0.44856113592E+03  0.00000000000E+00 0. -1.
         -2    1    6    6    0  503 -0.13199402106E+03 -0.72813349158E+02  0.69319197002E+02  0.16591972904E+03  0.00000000000E+00 0.  1.
<mgrwt>
<rscale>  0 0.17317294E+04</rscale>
<asrwt>0</asrwt>
<pdfrwt beam="1">  1        2 0.67218024E-01 0.17317294E+04</pdfrwt>
<pdfrwt beam="2">  1       -1 0.26399009E+00 0.17317294E+04</pdfrwt>
<totfact> 0.44145068E+00</totfact>
</mgrwt>
</event>
<event>
12    6  0.1530859E-007  0.1506196E+04  0.7818608E-02  0.8880343E-01
         -1   -1    0    0    0  501 -0.00000000000E+00  0.00000000000E+00  0.35091581177E+03  0.35091581177E+03  0.00000000000E+00 0.  1.
          2   -1    0    0  501    0  0.00000000000E+00 -0.00000000000E+00 -0.16162183703E+04  0.16162183703E+04  0.00000000000E+00 0. -1.
         24    2    1    2    0    0 -0.10350122654E+03 -0.27680146557E+03  0.51681677229E+02  0.31037265017E+03  0.79552693065E+02 0.  0.
        254    2    1    2    0    0  0.10350122654E+03  0.27680146557E+03 -0.13169842358E+04  0.16567615320E+04  0.96077038941E+03 0.  0.
         23    2    4    4    0    0  0.65607944894E+02 -0.87335229385E+02  0.11045064563E+03  0.18025469363E+03  0.91436123771E+02 0.  0.
         23    2    4    4    0    0  0.37893281644E+02  0.36413669496E+03 -0.14274348814E+04  0.14765068383E+04  0.92036240164E+02 0.  0.
          4    1    3    3  502    0 -0.96448321474E+01  0.29962689027E+01  0.59739869168E+01  0.11734092814E+02  0.00000000000E+00 0. -1.
         -3    1    3    3    0  502 -0.93856394391E+02 -0.27979773447E+03  0.45707690312E+02  0.29863855735E+03  0.00000000000E+00 0.  1.
         11    1    5    5    0    0  0.82811841247E+02 -0.47562979125E+02  0.56151099287E+02  0.11078350051E+03  0.00000000000E+00 0. -1.
        -11    1    5    5    0    0 -0.17203896353E+02 -0.39772250260E+02  0.54299546339E+02  0.69471193117E+02  0.00000000000E+00 0.  1.
          1    1    6    6  503    0  0.62649139185E+02  0.28140030597E+03 -0.11690442333E+04  0.12040662217E+04  0.00000000000E+00 0. -1.
         -1    1    6    6    0  503 -0.24755857540E+02  0.82736388984E+02 -0.25839064809E+03  0.27244061659E+03  0.00000000000E+00 0.  1.
<mgrwt>
<rscale>  0 0.15061960E+04</rscale>
<asrwt>0</asrwt>
<pdfrwt beam="1">  1        2 0.24864898E+00 0.15061960E+04</pdfrwt>
<pdfrwt beam="2">  1       -1 0.53987048E-01 0.15061960E+04</pdfrwt>
<totfact> 0.41620170E+01</totfact>
</mgrwt>
</event>
<event>
12    6  0.1530859E-007  0.2197912E+04  0.7818608E-02  0.8519298E-01
          2   -1    0    0  501    0  0.00000000000E+00  0.00000000000E+00  0.12850318200E+04  0.12850318200E+04  0.00000000000E+00 0. -1.
         -1   -1    0    0    0  501 -0.00000000000E+00 -0.00000000000E+00 -0.93982412369E+03  0.93982412369E+03  0.00000000000E+00 0.  1.
         24    2    1    2    0    0 -0.73902577376E+03 -0.32419336784E+03 -0.29407314986E+03  0.86259741572E+03  0.79591771656E+02 0.  0.
        254    2    1    2    0    0  0.73902577376E+03  0.32419336784E+03  0.63928084617E+03  0.13622585280E+04  0.89208063688E+03 0.  0.
         23    2    4    4    0    0  0.12584673054E+03  0.31854222387E+03  0.65133010756E+03  0.74158812915E+03  0.91736014148E+02 0.  0.
         23    2    4    4    0    0  0.61317904321E+03  0.56511439675E+01 -0.12049261392E+02  0.62067039882E+03  0.95215990267E+02 0.  0.
          2    1    3    3  502    0 -0.29835358066E+02 -0.16181305696E+02  0.35014950038E+01  0.34121015698E+02  0.00000000000E+00 0. -1.
         -1    1    3    3    0  502 -0.70919041569E+03 -0.30801206215E+03 -0.29757464486E+03  0.82847640002E+03  0.00000000000E+00 0.  1.
         11    1    5    5    0    0  0.41627125312E+02  0.22213506282E+03  0.39553104429E+03  0.45554539915E+03  0.00000000000E+00 0. -1.
        -11    1    5    5    0    0  0.84219605232E+02  0.96407161055E+02  0.25579906328E+03  0.28604272999E+03  0.00000000000E+00 0.  1.
          4    1    6    6  503    0  0.52233453222E+03 -0.25927459848E+02  0.49609659149E+01  0.52300115479E+03  0.00000000000E+00 0. -1.
         -4    1    6    6    0  503  0.90844510990E+02  0.31578603816E+02 -0.17010227307E+02  0.97669244028E+02  0.00000000000E+00 0.  1.
<mgrwt>
<rscale>  0 0.21979116E+04</rscale>
<asrwt>0</asrwt>
<pdfrwt beam="1">  1        2 0.19769720E+00 0.21979116E+04</pdfrwt>
<pdfrwt beam="2">  1       -1 0.14458833E+00 0.21979116E+04</pdfrwt>
<totfact> 0.67668605E+00</totfact>
</mgrwt>
</event>
<event>
12    6  0.1530859E-007  0.1331838E+04  0.7818608E-02  0.9004691E-01
         -1   -1    0    0    0  501 -0.00000000000E+00  0.00000000000E+00  0.32332090588E+03  0.32332090588E+03  0.00000000000E+00 0.  1.
          2   -1    0    0  501    0  0.00000000000E+00 -0.00000000000E+00 -0.13715425671E+04  0.13715425671E+04  0.00000000000E+00 0. -1.
         24    2    1    2    0    0 -0.34498228975E+03  0.26874447563E+02 -0.43062884642E+03  0.55816774987E+03  0.79843706353E+02 0.  0.
        254    2    1    2    0    0  0.34498228975E+03 -0.26874447563E+02 -0.61759281479E+03  0.11366957231E+04  0.88933754327E+03 0.  0.
         23    2    4    4    0    0  0.18180863818E+03 -0.44761130674E+03 -0.30823976876E+03  0.58219006431E+03  0.10258290843E+03 0.  0.
         23    2    4    4    0    0  0.16317365157E+03  0.42073685918E+03 -0.30935304603E+03  0.55450565879E+03  0.90178008998E+02 0.  0.
          2    1    3    3  502    0 -0.13675973698E+03  0.41768214907E+01 -0.23294781840E+03  0.27015802338E+03  0.00000000000E+00 0. -1.
         -1    1    3    3    0  502 -0.20822255278E+03  0.22697626073E+02 -0.19768102802E+03  0.28800972649E+03  0.00000000000E+00 0.  1.
         11    1    5    5    0    0  0.11373027216E+03 -0.24724151189E+03 -0.11440202922E+03  0.29521308287E+03  0.00000000000E+00 0. -1.
        -11    1    5    5    0    0  0.68078366022E+02 -0.20036979485E+03 -0.19383773955E+03  0.28697698145E+03  0.00000000000E+00 0.  1.
          2    1    6    6  503    0  0.54016546396E+02  0.21032533277E+03 -0.19266519532E+03  0.29030055181E+03  0.00000000000E+00 0. -1.
         -2    1    6    6    0  503  0.10915710518E+03  0.21041152640E+03 -0.11668785071E+03  0.26420510698E+03  0.00000000000E+00 0.  1.
<mgrwt>
<rscale>  0 0.13318384E+04</rscale>
<asrwt>0</asrwt>
<pdfrwt beam="1">  1        2 0.21100655E+00 0.13318384E+04</pdfrwt>
<pdfrwt beam="2">  1       -1 0.49741677E-01 0.13318384E+04</pdfrwt>
<totfact> 0.67878956E+01</totfact>
</mgrwt>
</event>
<event>
12    6  0.1530859E-007  0.2157911E+04  0.7818608E-02  0.8536154E-01
         -1   -1    0    0    0  501 -0.00000000000E+00  0.00000000000E+00  0.11158706654E+04  0.11158706654E+04  0.00000000000E+00 0.  1.
          2   -1    0    0  501    0  0.00000000000E+00 -0.00000000000E+00 -0.10432612793E+04  0.10432612793E+04  0.00000000000E+00 0. -1.
         24    2    1    2    0    0  0.65149777811E+03 -0.61007987220E+03 -0.20906405717E+01  0.89638927629E+03  0.82840560960E+02 0.  0.
        254    2    1    2    0    0 -0.65149777811E+03  0.61007987220E+03  0.74700026624E+02  0.12627426685E+04  0.89010794144E+03 0.  0.
         23    2    4    4    0    0 -0.74284217790E+03  0.12478939057E+03  0.46505633707E+02  0.76031912189E+03  0.92387769061E+02 0.  0.
         23    2    4    4    0    0  0.91344399797E+02  0.48529048162E+03  0.28194392917E+02  0.50242354656E+03  0.88226103969E+02 0.  0.
          2    1    3    3  502    0  0.56636575111E+03 -0.55284346720E+03 -0.22575150201E+02  0.79178008352E+03  0.00000000000E+00 0. -1.
         -1    1    3    3    0  502  0.85132026998E+02 -0.57236404993E+02  0.20484509629E+02  0.10460919277E+03  0.00000000000E+00 0.  1.
         11    1    5    5    0    0 -0.22563704847E+03  0.79611504221E+02  0.24995713863E+01  0.23928292271E+03  0.00000000000E+00 0. -1.
        -11    1    5    5    0    0 -0.51720512943E+03  0.45177886353E+02  0.44006062321E+02  0.52103619917E+03  0.00000000000E+00 0.  1.
          2    1    6    6  503    0  0.13698680568E+02  0.59802637834E+02 -0.25792598569E+02  0.66552742109E+02  0.00000000000E+00 0. -1.
         -2    1    6    6    0  503  0.77645719229E+02  0.42548784379E+03  0.53986991486E+02  0.43587080445E+03  0.00000000000E+00 0.  1.
<mgrwt>
<rscale>  0 0.21579107E+04</rscale>
<asrwt>0</asrwt>
<pdfrwt beam="1">  1        2 0.16050174E+00 0.21579107E+04</pdfrwt>
<pdfrwt beam="2">  1       -1 0.17167241E+00 0.21579107E+04</pdfrwt>
<totfact> 0.59145756E+00</totfact>
</mgrwt>
</event>
<event>
12    6  0.1530859E-007  0.1172191E+04  0.7818608E-02  0.9137552E-01
         -1   -1    0    0    0  501 -0.00000000000E+00  0.00000000000E+00  0.16185951978E+03  0.16185951978E+03  0.00000000000E+00 0.  1.
          2   -1    0    0  501    0  0.00000000000E+00 -0.00000000000E+00 -0.21222613587E+04  0.21222613587E+04  0.00000000000E+00 0. -1.
         24    2    1    2    0    0 -0.33177082986E+02  0.86223102341E+02 -0.82166054527E+03  0.83083497499E+03  0.81397554016E+02 0.  0.
        254    2    1    2    0    0  0.33177082986E+02 -0.86223102341E+02 -0.11387412936E+04  0.14532859035E+04  0.89820545600E+03 0.  0.
         23    2    4    4    0    0  0.33579803755E+03  0.19634323789E+03 -0.85308886429E+03  0.94204248636E+03  0.91501074578E+02 0.  0.
         23    2    4    4    0    0 -0.30262095456E+03 -0.28256634023E+03 -0.28565242932E+03  0.51124341709E+03  0.91374735958E+02 0.  0.
          2    1    3    3  502    0 -0.42882901601E+02  0.58427856977E+02 -0.74808561570E+03  0.75158821581E+03  0.00000000000E+00 0. -1.
         -1    1    3    3    0  502  0.97058186142E+01  0.27795245365E+02 -0.73574929561E+02  0.79246759176E+02  0.00000000000E+00 0.  1.
         11    1    5    5    0    0  0.23281268599E+03  0.85764069004E+02 -0.50983920151E+03  0.56700373339E+03  0.00000000000E+00 0.  1.
        -11    1    5    5    0    0  0.10298535156E+03  0.11057916888E+03 -0.34324966278E+03  0.37503875297E+03  0.00000000000E+00 0. -1.
          1    1    6    6  503    0 -0.19545182816E+02 -0.52918126613E+02 -0.18696981932E+02  0.59429953970E+02  0.00000000000E+00 0. -1.
         -1    1    6    6    0  503 -0.28307577175E+03 -0.22964821362E+03 -0.26695544739E+03  0.45181346312E+03  0.00000000000E+00 0.  1.
<mgrwt>
<rscale>  0 0.11721915E+04</rscale>
<asrwt>0</asrwt>
<pdfrwt beam="1">  1        2 0.32650172E+00 0.11721915E+04</pdfrwt>
<pdfrwt beam="2">  1       -1 0.24901467E-01 0.11721915E+04</pdfrwt>
<totfact> 0.90900973E+01</totfact>
</mgrwt>
</event>
<event>
12    6  0.1530859E-007  0.1922356E+04  0.7818608E-02  0.8643808E-01
         -1   -1    0    0    0  501 -0.00000000000E+00  0.00000000000E+00  0.28113421137E+03  0.28113421137E+03  0.00000000000E+00 0.  1.
          2   -1    0    0  501    0  0.00000000000E+00 -0.00000000000E+00 -0.32861998798E+04  0.32861998798E+04  0.00000000000E+00 0. -1.
         24    2    1    2    0    0  0.43113552807E+03 -0.52303506323E+03 -0.16944121243E+04  0.18270301473E+04  0.86966608324E+02 0.  0.
        254    2    1    2    0    0 -0.43113552807E+03  0.52303506323E+03 -0.13106535441E+04  0.17403039439E+04  0.92271424809E+03 0.  0.
         23    2    4    4    0    0  0.33783920709E+02  0.78432600295E+02 -0.10215997852E+04  0.10291890562E+04  0.90944851408E+02 0.  0.
         23    2    4    4    0    0 -0.46491944878E+03  0.44460246293E+03 -0.28905375881E+03  0.71111488774E+03  0.91163941209E+02 0.  0.
          4    1    3    3  502    0  0.26038505248E+03 -0.26722181453E+03 -0.10090117582E+04  0.10757846448E+04  0.00000000000E+00 0. -1.
         -3    1    3    3    0  502  0.17075047559E+03 -0.25581324870E+03 -0.68540036612E+03  0.75124550248E+03  0.00000000000E+00 0.  1.
         11    1    5    5    0    0  0.45272406755E+02  0.31745905329E+01 -0.27522264582E+03  0.27893937264E+03  0.00000000000E+00 0. -1.
        -11    1    5    5    0    0 -0.11488486045E+02  0.75258009763E+02 -0.74637713943E+03  0.75024968351E+03  0.00000000000E+00 0.  1.
          2    1    6    6  503    0 -0.44924350555E+03  0.40858735410E+03 -0.25319418714E+03  0.65792906123E+03  0.00000000000E+00 0. -1.
         -2    1    6    6    0  503 -0.15675943227E+02  0.36015108826E+02 -0.35859571678E+02  0.53185826502E+02  0.00000000000E+00 0.  1.
<mgrwt>
<rscale>  0 0.19223561E+04</rscale>
<asrwt>0</asrwt>
<pdfrwt beam="1">  1        2 0.50556924E+00 0.19223561E+04</pdfrwt>
<pdfrwt beam="2">  1       -1 0.43251415E-01 0.19223561E+04</pdfrwt>
<totfact> 0.64147668E+00</totfact>
</mgrwt>
</event>
<event>
12    6  0.1530859E-007  0.1333752E+04  0.7818608E-02  0.9003220E-01
         -1   -1    0    0    0  501 -0.00000000000E+00  0.00000000000E+00  0.26693329184E+03  0.26693329184E+03  0.00000000000E+00 0.  1.
          2   -1    0    0  501    0  0.00000000000E+00 -0.00000000000E+00 -0.16660475275E+04  0.16660475275E+04  0.00000000000E+00 0. -1.
         24    2    1    2    0    0  0.35391733645E+02  0.32735762408E+03 -0.62014753151E+03  0.70586910614E+03  0.72475135735E+02 0.  0.
        254    2    1    2    0    0 -0.35391733645E+02 -0.32735762408E+03 -0.77896670410E+03  0.12271117132E+04  0.88915602772E+03 0.  0.
         23    2    4    4    0    0  0.21350034735E+03  0.23003670499E+03 -0.32568875000E+03  0.46163872201E+03  0.92400561792E+02 0.  0.
         23    2    4    4    0    0 -0.24889208100E+03 -0.55739432907E+03 -0.45327795410E+03  0.76547299115E+03  0.88613150571E+02 0.  0.
          4    1    3    3  502    0  0.21552846016E+02  0.99365094774E+02 -0.26253069875E+03  0.28153208523E+03  0.00000000000E+00 0. -1.
         -3    1    3    3    0  502  0.13838887629E+02  0.22799252931E+03 -0.35761683277E+03  0.42433702090E+03  0.00000000000E+00 0.  1.
         11    1    5    5    0    0  0.20113914756E+02  0.55220347388E+01 -0.60457564796E+02  0.63954511769E+02  0.00000000000E+00 0.  1.
        -11    1    5    5    0    0  0.19338643260E+03  0.22451467025E+03 -0.26523118520E+03  0.39768421024E+03  0.00000000000E+00 0. -1.
          3    1    6    6  503    0 -0.25375278732E+03 -0.55441322593E+03 -0.45330702535E+03  0.75977086111E+03  0.00000000000E+00 0. -1.
         -3    1    6    6    0  503  0.48607063237E+01 -0.29811031403E+01  0.29071255532E-01  0.57021300438E+01  0.00000000000E+00 0.  1.
<mgrwt>
<rscale>  0 0.13337519E+04</rscale>
<asrwt>0</asrwt>
<pdfrwt beam="1">  1        2 0.25631500E+00 0.13337519E+04</pdfrwt>
<pdfrwt beam="2">  1       -1 0.41066661E-01 0.13337519E+04</pdfrwt>
<totfact> 0.66222327E+01</totfact>
</mgrwt>
</event>
<event>
12    6  0.1530859E-007  0.2256887E+04  0.7818608E-02  0.8495117E-01
          2   -1    0    0  501    0  0.00000000000E+00  0.00000000000E+00  0.85107772384E+03  0.85107772384E+03  0.00000000000E+00 0. -1.
         -1   -1    0    0    0  501 -0.00000000000E+00 -0.00000000000E+00 -0.14962020928E+04  0.14962020928E+04  0.00000000000E+00 0.  1.
         24    2    1    2    0    0  0.18641510641E+03 -0.57035654984E+03  0.49722324073E+03  0.78341647873E+03  0.80332074419E+02 0.  0.
        254    2    1    2    0    0 -0.18641510641E+03  0.57035654984E+03 -0.11423476097E+04  0.15638633379E+04  0.88354586323E+03 0.  0.
         23    2    4    4    0    0  0.17816008195E+02  0.10424383040E+03 -0.10242627176E+04  0.10336571409E+04  0.90270615410E+02 0.  0.
         23    2    4    4    0    0 -0.20423111461E+03  0.46611271945E+03 -0.11808489213E+03  0.53020619702E+03  0.90571265881E+02 0.  0.
          2    1    3    3  502    0  0.17021522872E+03 -0.56150885591E+03  0.48538389197E+03  0.76148732224E+03  0.00000000000E+00 0. -1.
         -1    1    3    3    0  502  0.16199877697E+02 -0.88476939338E+01  0.11839348759E+02  0.21929156491E+02  0.00000000000E+00 0.  1.
         11    1    5    5    0    0  0.34759512108E+02  0.11211268360E+03 -0.79283717376E+03  0.80147879673E+03  0.00000000000E+00 0. -1.
        -11    1    5    5    0    0 -0.16943503913E+02 -0.78688532046E+01 -0.23142554380E+03  0.23217834416E+03  0.00000000000E+00 0.  1.
          1    1    6    6  503    0 -0.18154035216E+03  0.33161259189E+03 -0.10924013708E+03  0.39351901874E+03  0.00000000000E+00 0. -1.
         -1    1    6    6    0  503 -0.22690762447E+02  0.13450012756E+03 -0.88447550541E+01  0.13668717828E+03  0.00000000000E+00 0.  1.
<mgrwt>
<rscale>  0 0.22568866E+04</rscale>
<asrwt>0</asrwt>
<pdfrwt beam="1">  1        2 0.13093504E+00 0.22568866E+04</pdfrwt>
<pdfrwt beam="2">  1       -1 0.23018493E+00 0.22568866E+04</pdfrwt>
<totfact> 0.30949349E+00</totfact>
</mgrwt>
</event>
<event>
12    6  0.1530859E-007  0.1407063E+04  0.7818608E-02  0.8948722E-01
          2   -1    0    0  501    0  0.00000000000E+00  0.00000000000E+00  0.79308233858E+03  0.79308233858E+03  0.00000000000E+00 0. -1.
         -1   -1    0    0    0  501 -0.00000000000E+00 -0.00000000000E+00 -0.62409191370E+03  0.62409191370E+03  0.00000000000E+00 0.  1.
         24    2    1    2    0    0 -0.12334498587E+02 -0.18482938720E+03 -0.31850106068E+03  0.37695381305E+03  0.79606590740E+02 0.  0.
        254    2    1    2    0    0  0.12334498587E+02  0.18482938720E+03  0.48749148556E+03  0.10402204392E+04  0.90005364922E+03 0.  0.
         23    2    4    4    0    0  0.86274601870E+01 -0.14343695494E+03  0.64343348128E+03  0.66563067613E+03  0.91700376532E+02 0.  0.
         23    2    4    4    0    0  0.37070384000E+01  0.32826634215E+03 -0.15594199572E+03  0.37458976311E+03  0.90703092973E+02 0.  0.
          4    1    3    3  502    0  0.27139190546E+02 -0.98874014945E+02 -0.12579832767E+03  0.16228932725E+03  0.00000000000E+00 0. -1.
         -3    1    3    3    0  502 -0.39473689133E+02 -0.85955372258E+02 -0.19270273301E+03  0.21466448580E+03  0.00000000000E+00 0.  1.
         11    1    5    5    0    0 -0.66382183552E+01 -0.18429231026E+02  0.14917426086E+02  0.24621781011E+02  0.00000000000E+00 0. -1.
        -11    1    5    5    0    0  0.15265678542E+02 -0.12500772392E+03  0.62851605520E+03  0.64100889512E+03  0.00000000000E+00 0.  1.
          2    1    6    6  503    0 -0.15483745547E+02  0.15986613216E+03 -0.29907086719E+02  0.16337490757E+03  0.00000000000E+00 0.  1.
         -2    1    6    6    0  503  0.19190783947E+02  0.16840020999E+03 -0.12603490900E+03  0.21121485554E+03  0.00000000000E+00 0. -1.
<mgrwt>
<rscale>  0 0.14070626E+04</rscale>
<asrwt>0</asrwt>
<pdfrwt beam="1">  1        2 0.12201267E+00 0.14070626E+04</pdfrwt>
<pdfrwt beam="2">  1       -1 0.96014141E-01 0.14070626E+04</pdfrwt>
<totfact> 0.40480178E+01</totfact>
</mgrwt>
</event>
<event>
12    6  0.1530859E-007  0.2303746E+04  0.7818608E-02  0.8476446E-01
         -1   -1    0    0    0  501 -0.00000000000E+00  0.00000000000E+00  0.41854125145E+03  0.41854125145E+03  0.00000000000E+00 0.  1.
          2   -1    0    0  501    0  0.00000000000E+00 -0.00000000000E+00 -0.31700852597E+04  0.31700852597E+04  0.00000000000E+00 0. -1.
         24    2    1    2    0    0  0.61044818581E+03 -0.71512358341E+03 -0.74434134066E+03  0.12020752729E+04  0.83019293943E+02 0.  0.
        254    2    1    2    0    0 -0.61044818581E+03  0.71512358341E+03 -0.20072026676E+04  0.23865512383E+04  0.88471212094E+03 0.  0.
         23    2    4    4    0    0 -0.32553458970E+03  0.76965035512E+03 -0.18680640191E+04  0.20485649572E+04  0.92848082115E+02 0.  0.
         23    2    4    4    0    0 -0.28491359611E+03 -0.54526771709E+02 -0.13913864849E+03  0.33798628101E+03  0.10356754592E+03 0.  0.
          2    1    3    3  502    0  0.38536326567E+01 -0.10694068703E+02 -0.29940908778E+00  0.11371158071E+02  0.00000000000E+00 0. -1.
         -1    1    3    3    0  502  0.60659455315E+03 -0.70442951470E+03 -0.74404193157E+03  0.11907041148E+04  0.00000000000E+00 0.  1.
         11    1    5    5    0    0 -0.26675198884E+03  0.61283120561E+03 -0.13979379015E+04  0.15494996246E+04  0.00000000000E+00 0.  1.
        -11    1    5    5    0    0 -0.58782600858E+02  0.15681914951E+03 -0.47012611757E+03  0.49906533263E+03  0.00000000000E+00 0. -1.
          4    1    6    6  503    0  0.47509739438E+01 -0.14237735323E+02 -0.26117051781E+01  0.15235020987E+02  0.00000000000E+00 0. -1.
         -4    1    6    6    0  503 -0.28966457005E+03 -0.40289036386E+02 -0.13652694331E+03  0.32275126002E+03  0.00000000000E+00 0.  1.
<mgrwt>
<rscale>  0 0.23037460E+04</rscale>
<asrwt>0</asrwt>
<pdfrwt beam="1">  1        2 0.48770545E+00 0.23037460E+04</pdfrwt>
<pdfrwt beam="2">  1       -1 0.64390959E-01 0.23037460E+04</pdfrwt>
<totfact> 0.34245715E+00</totfact>
</mgrwt>
</event>
<event>
12    6  0.1530859E-007  0.2022598E+04  0.7818608E-02  0.8596127E-01
         -3   -1    0    0    0  501 -0.00000000000E+00  0.00000000000E+00  0.85133619535E+03  0.85133619535E+03  0.00000000000E+00 0.  1.
          2   -1    0    0  501    0  0.00000000000E+00 -0.00000000000E+00 -0.12013187088E+04  0.12013187088E+04  0.00000000000E+00 0. -1.
         24    2    1    2    0    0  0.39938526656E+03  0.54692848192E+03 -0.56624538123E+03  0.88638542357E+03  0.80037065640E+02 0.  0.
        254    2    1    2    0    0 -0.39938526656E+03 -0.54692848192E+03  0.21626286774E+03  0.11662694806E+04  0.92454070651E+03 0.  0.
         23    2    4    4    0    0 -0.30488499300E+03  0.13156368808E+03  0.31624449787E+03  0.46783695130E+03  0.92719833857E+02 0.  0.
         23    2    4    4    0    0 -0.94500273561E+02 -0.67849217000E+03 -0.99981630130E+02  0.69843252932E+03  0.92356619693E+02 0.  0.
          4    1    3    3  502    0  0.35195042590E+03  0.51244135239E+03 -0.53360365788E+03  0.81926680980E+03  0.00000000000E+00 0. -1.
         -3    1    3    3    0  502  0.47434840660E+02  0.34487129521E+02 -0.32641723343E+02  0.67118613766E+02  0.00000000000E+00 0.  1.
         11    1    5    5    0    0 -0.50351855861E+02  0.18231699542E+02  0.11220928087E+02  0.54713924042E+02  0.00000000000E+00 0. -1.
        -11    1    5    5    0    0 -0.25453313714E+03  0.11333198854E+03  0.30502356979E+03  0.41312302726E+03  0.00000000000E+00 0.  1.
          2    1    6    6  503    0 -0.78902261455E+02 -0.65797859930E+03 -0.83718581440E+02  0.66795973298E+03  0.00000000000E+00 0.  1.
         -2    1    6    6    0  503 -0.15598012106E+02 -0.20513570696E+02 -0.16263048690E+02  0.30472796344E+02  0.00000000000E+00 0. -1.
<mgrwt>
<rscale>  0 0.20225984E+04</rscale>
<asrwt>0</asrwt>
<pdfrwt beam="1">  1        2 0.18481826E+00 0.20225984E+04</pdfrwt>
<pdfrwt beam="2">  1       -3 0.13097480E+00 0.20225984E+04</pdfrwt>
<totfact> 0.50587220E+00</totfact>
</mgrwt>
</event>
<event>
12    6  0.1530859E-007  0.2093705E+04  0.7818608E-02  0.8564021E-01
          2   -1    0    0  501    0  0.00000000000E+00  0.00000000000E+00  0.53850012164E+03  0.53850012164E+03  0.00000000000E+00 0. -1.
         -1   -1    0    0    0  501 -0.00000000000E+00 -0.00000000000E+00 -0.20350978242E+04  0.20350978242E+04  0.00000000000E+00 0.  1.
         24    2    1    2    0    0 -0.68843390119E+03 -0.23616539825E+02  0.21435808999E+01  0.69333334712E+03  0.78788057642E+02 0.  0.
        254    2    1    2    0    0  0.68843390119E+03  0.23616539825E+02 -0.14987412835E+04  0.18802645988E+04  0.90259101990E+03 0.  0.
         23    2    4    4    0    0  0.86209772810E+03  0.99482618498E+02 -0.13944793107E+04  0.16450057420E+04  0.91444295091E+02 0.  0.
         23    2    4    4    0    0 -0.17366382691E+03 -0.75866078673E+02 -0.10426197281E+03  0.23525885675E+03  0.92527747379E+02 0.  0.
          4    1    3    3  502    0 -0.50617044834E+03 -0.45416243906E+02 -0.18988422970E+02  0.50855847077E+03  0.00000000000E+00 0. -1.
         -3    1    3    3    0  502 -0.18226345285E+03  0.21799704081E+02  0.21132003870E+02  0.18477487635E+03  0.00000000000E+00 0.  1.
         11    1    5    5    0    0  0.85360379893E+03  0.10685428107E+03 -0.13843397004E+04  0.16298630890E+04  0.00000000000E+00 0. -1.
        -11    1    5    5    0    0  0.84939291747E+01 -0.73716625687E+01 -0.10139610290E+02  0.15142652961E+02  0.00000000000E+00 0.  1.
          3    1    6    6  503    0 -0.15817187282E+03 -0.51632841576E+02 -0.11740374899E+03  0.20363676474E+03  0.00000000000E+00 0. -1.
         -3    1    6    6    0  503 -0.15491954096E+02 -0.24233237097E+02  0.13141776176E+02  0.31622092008E+02  0.00000000000E+00 0.  1.
<mgrwt>
<rscale>  0 0.20937053E+04</rscale>
<asrwt>0</asrwt>
<pdfrwt beam="1">  1        2 0.82846175E-01 0.20937053E+04</pdfrwt>
<pdfrwt beam="2">  1       -1 0.31309196E+00 0.20937053E+04</pdfrwt>
<totfact> 0.16148239E+00</totfact>
</mgrwt>
</event>
<event>
12    6  0.1530859E-007  0.2503840E+04  0.7818608E-02  0.8401619E-01
          2   -1    0    0  501    0  0.00000000000E+00  0.00000000000E+00  0.19160912426E+04  0.19160912426E+04  0.00000000000E+00 0. -1.
         -1   -1    0    0    0  501 -0.00000000000E+00 -0.00000000000E+00 -0.81796941970E+03  0.81796941970E+03  0.00000000000E+00 0.  1.
         24    2    1    2    0    0 -0.10046121305E+04 -0.35568159357E+03  0.72043433000E+03  0.12889362137E+04  0.81092603420E+02 0.  0.
        254    2    1    2    0    0  0.10046121305E+04  0.35568159357E+03  0.37768749294E+03  0.14451244487E+04  0.89998994494E+03 0.  0.
         23    2    4    4    0    0  0.59435731805E+03  0.59719884939E+02  0.62948247799E+03  0.87248277004E+03  0.90282377808E+02 0.  0.
         23    2    4    4    0    0  0.41025481246E+03  0.29596170863E+03 -0.25179498505E+03  0.57264167861E+03  0.92819359305E+02 0.  0.
          2    1    3    3  502    0 -0.46566661614E+03 -0.12886788248E+03  0.35236764834E+03  0.59800943815E+03  0.00000000000E+00 0. -1.
         -1    1    3    3    0  502 -0.53894551437E+03 -0.22681371109E+03  0.36806668166E+03  0.69092677553E+03  0.00000000000E+00 0.  1.
         11    1    5    5    0    0  0.54709905931E+03  0.41294845016E+02  0.60304752406E+03  0.81528458908E+03  0.00000000000E+00 0.  1.
        -11    1    5    5    0    0  0.47258258741E+02  0.18425039923E+02  0.26434953930E+02  0.57198180956E+02  0.00000000000E+00 0. -1.
          1    1    6    6  503    0  0.33811694398E+03  0.24130170247E+03 -0.24411063912E+03  0.48180865865E+03  0.00000000000E+00 0. -1.
         -1    1    6    6    0  503  0.72137868477E+02  0.54660006168E+02 -0.76843459351E+01  0.90833019960E+02  0.00000000000E+00 0.  1.
<mgrwt>
<rscale>  0 0.25038403E+04</rscale>
<asrwt>0</asrwt>
<pdfrwt beam="1">  1        2 0.29478327E+00 0.25038403E+04</pdfrwt>
<pdfrwt beam="2">  1       -1 0.12584145E+00 0.25038403E+04</pdfrwt>
<totfact> 0.41537968E+00</totfact>
</mgrwt>
</event>
<event>
12    6  0.1530859E-007  0.1546720E+04  0.7818608E-02  0.8853966E-01
         -1   -1    0    0    0  501 -0.00000000000E+00  0.00000000000E+00  0.21505649626E+03  0.21505649626E+03  0.00000000000E+00 0.  1.
          2   -1    0    0  501    0  0.00000000000E+00 -0.00000000000E+00 -0.27810616935E+04  0.27810616935E+04  0.00000000000E+00 0. -1.
         24    2    1    2    0    0  0.46599842898E+03 -0.15239965677E+02 -0.12418069344E+04  0.13288485730E+04  0.79795208046E+02 0.  0.
        254    2    1    2    0    0 -0.46599842898E+03  0.15239965677E+02 -0.13241982628E+04  0.16672696168E+04  0.89938876097E+03 0.  0.
         23    2    4    4    0    0 -0.12499644788E+03  0.30630924933E+03 -0.11109824981E+04  0.11627723018E+04  0.91147388935E+02 0.  0.
         23    2    4    4    0    0 -0.34100198110E+03 -0.29106928366E+03 -0.21321576474E+03  0.50449731499E+03  0.89737949040E+02 0.  0.
          2    1    3    3  502    0  0.28590587232E+03  0.37242863625E+01 -0.85970804655E+03  0.90600991354E+03  0.00000000000E+00 0. -1.
         -1    1    3    3    0  502  0.18009255666E+03 -0.18964252039E+02 -0.38209888784E+03  0.42283865943E+03  0.00000000000E+00 0.  1.
         11    1    5    5    0    0 -0.12772936831E+03  0.24115016291E+03 -0.80758015042E+03  0.85243996384E+03  0.00000000000E+00 0.  1.
        -11    1    5    5    0    0  0.27329204349E+01  0.65159086430E+02 -0.30340234768E+03  0.31033233795E+03  0.00000000000E+00 0. -1.
          2    1    6    6  503    0 -0.23397938159E+02 -0.84987655124E+01  0.68293427031E+01  0.25813416029E+02  0.00000000000E+00 0. -1.
         -2    1    6    6    0  503 -0.31760404294E+03 -0.28257051815E+03 -0.22004510745E+03  0.47868389897E+03  0.00000000000E+00 0.  1.
<mgrwt>
<rscale>  0 0.15467196E+04</rscale>
<asrwt>0</asrwt>
<pdfrwt beam="1">  1        2 0.42785565E+00 0.15467196E+04</pdfrwt>
<pdfrwt beam="2">  1       -1 0.33085615E-01 0.15467196E+04</pdfrwt>
<totfact> 0.22438995E+01</totfact>
</mgrwt>
</event>
<event>
12    6  0.1530859E-007  0.2179724E+04  0.7818608E-02  0.8526915E-01
         -1   -1    0    0    0  501 -0.00000000000E+00  0.00000000000E+00  0.27976741324E+03  0.27976741324E+03  0.00000000000E+00 0.  1.
          2   -1    0    0  501    0  0.00000000000E+00 -0.00000000000E+00 -0.42456656639E+04  0.42456656639E+04  0.00000000000E+00 0. -1.
         24    2    1    2    0    0 -0.29594221003E+03  0.60643816465E+03 -0.40498768452E+03  0.79143734019E+03  0.83719768401E+02 0.  0.
        254    2    1    2    0    0  0.29594221003E+03 -0.60643816465E+03 -0.35609105662E+04  0.37339957370E+04  0.89849377530E+03 0.  0.
         23    2    4    4    0    0 -0.89612794044E+02  0.65661109462E+02 -0.71082477242E+02  0.15804988271E+03  0.87093126597E+02 0.  0.
         23    2    4    4    0    0  0.38555500407E+03 -0.67209927411E+03 -0.34898280889E+04  0.35759458543E+04  0.90103090702E+02 0.  0.
          2    1    3    3  502    0 -0.24087516337E+03  0.40597440999E+03 -0.27807213510E+03  0.54786876003E+03  0.00000000000E+00 0. -1.
         -1    1    3    3    0  502 -0.55067046656E+02  0.20046375465E+03 -0.12691554943E+03  0.24356858016E+03  0.00000000000E+00 0.  1.
         11    1    5    5    0    0 -0.43801113621E+02  0.43813421055E+02  0.96387681967E+01  0.62698160031E+02  0.00000000000E+00 0. -1.
        -11    1    5    5    0    0 -0.45811680424E+02  0.21847688407E+02 -0.80721245439E+02  0.95351722675E+02  0.00000000000E+00 0.  1.
          2    1    6    6  503    0  0.32379495534E+03 -0.61634848012E+03 -0.30706171330E+04  0.31485581143E+04  0.00000000000E+00 0. -1.
         -2    1    6    6    0  503  0.61760048730E+02 -0.55750793991E+02 -0.41921095596E+03  0.42738773994E+03  0.00000000000E+00 0.  1.
<mgrwt>
<rscale>  0 0.21797237E+04</rscale>
<asrwt>0</asrwt>
<pdfrwt beam="1">  1        2 0.65317926E+00 0.21797237E+04</pdfrwt>
<pdfrwt beam="2">  1       -1 0.43041145E-01 0.21797237E+04</pdfrwt>
<totfact> 0.11870408E+00</totfact>
</mgrwt>
</event>
<event>
12    6  0.1530859E-007  0.2386311E+04  0.7818608E-02  0.8444646E-01
          2   -1    0    0  501    0  0.00000000000E+00  0.00000000000E+00  0.14864969169E+04  0.14864969169E+04  0.00000000000E+00 0. -1.
         -1   -1    0    0    0  501 -0.00000000000E+00 -0.00000000000E+00 -0.95770157784E+03  0.95770157784E+03  0.00000000000E+00 0.  1.
         24    2    1    2    0    0 -0.37211195094E+03  0.84725216178E+03  0.78035949906E+03  0.12128439476E+04  0.75670098660E+02 0.  0.
        254    2    1    2    0    0  0.37211195094E+03 -0.84725216178E+03 -0.25156416004E+03  0.12313545471E+04  0.77242861437E+03 0.  0.
         23    2    4    4    0    0  0.22914828792E+03 -0.84111853365E+03 -0.43697250191E+03  0.97971881277E+03  0.94417472823E+02 0.  0.
         23    2    4    4    0    0  0.14296366302E+03 -0.61336281357E+01  0.18540834187E+03  0.25163573430E+03  0.92022058242E+02 0.  0.
          2    1    3    3  502    0 -0.31323413605E+03  0.73830491598E+03  0.70542484018E+03  0.10680982998E+04  0.00000000000E+00 0. -1.
         -1    1    3    3    0  502 -0.58877814891E+02  0.10894724581E+03  0.74934658877E+02  0.14474564780E+03  0.00000000000E+00 0.  1.
         11    1    5    5    0    0  0.20077813168E+03 -0.63414451066E+03 -0.36516667672E+03  0.75881342921E+03  0.00000000000E+00 0. -1.
        -11    1    5    5    0    0  0.28370156242E+02 -0.20697402299E+03 -0.71805825192E+02  0.22090538357E+03  0.00000000000E+00 0.  1.
          4    1    6    6  503    0  0.90760292219E+02 -0.41566606102E+02  0.14726036888E+03  0.17790680040E+03  0.00000000000E+00 0. -1.
         -4    1    6    6    0  503  0.52203370798E+02  0.35432977966E+02  0.38147972992E+02  0.73728933897E+02  0.00000000000E+00 0.  1.
<mgrwt>
<rscale>  0 0.23863113E+04</rscale>
<asrwt>0</asrwt>
<pdfrwt beam="1">  1        2 0.22869183E+00 0.23863113E+04</pdfrwt>
<pdfrwt beam="2">  1       -1 0.14733870E+00 0.23863113E+04</pdfrwt>
<totfact> 0.48504720E+00</totfact>
</mgrwt>
</event>
<event>
12    6  0.1530859E-007  0.1522033E+04  0.7818608E-02  0.8869932E-01
          2   -1    0    0  501    0  0.00000000000E+00  0.00000000000E+00  0.20861296743E+04  0.20861296743E+04  0.00000000000E+00 0. -1.
         -3   -1    0    0    0  501 -0.00000000000E+00 -0.00000000000E+00 -0.27761755224E+03  0.27761755224E+03  0.00000000000E+00 0.  1.
         24    2    1    2    0    0  0.19428584246E+03 -0.51707887384E+02 -0.11473926388E+03  0.24474137772E+03  0.79451551876E+02 0.  0.
        254    2    1    2    0    0 -0.19428584246E+03  0.51707887384E+02  0.19232513859E+04  0.21190058488E+04  0.86652709111E+03 0.  0.
         23    2    4    4    0    0  0.12272674773E+03 -0.34135882412E+03  0.72267702025E+03  0.81341098548E+03  0.88247687162E+02 0.  0.
         23    2    4    4    0    0 -0.31701259018E+03  0.39306671151E+03  0.12005743656E+04  0.13055948633E+04  0.90557813575E+02 0.  0.
          2    1    3    3  502    0  0.75679377839E+02 -0.20918385228E+02 -0.24807483519E+01  0.78556356733E+02  0.00000000000E+00 0. -1.
         -3    1    3    3    0  502  0.11860646462E+03 -0.30789502156E+02 -0.11225851553E+03  0.16618502099E+03  0.00000000000E+00 0.  1.
         11    1    5    5    0    0  0.12962188191E+03 -0.32734598423E+03  0.71258288151E+03  0.79481544316E+03  0.00000000000E+00 0. -1.
        -11    1    5    5    0    0 -0.68951341825E+01 -0.14012839897E+02  0.10094138734E+02  0.18595542319E+02  0.00000000000E+00 0.  1.
          4    1    6    6  503    0 -0.28349993108E+03  0.37094066917E+03  0.10384774691E+04  0.11385976659E+04  0.00000000000E+00 0. -1.
         -4    1    6    6    0  503 -0.33512659098E+02  0.22126042337E+02  0.16209689652E+03  0.16699719737E+03  0.00000000000E+00 0.  1.
<mgrwt>
<rscale>  0 0.15220331E+04</rscale>
<asrwt>0</asrwt>
<pdfrwt beam="1">  1        2 0.32094302E+00 0.15220331E+04</pdfrwt>
<pdfrwt beam="2">  1       -3 0.42710394E-01 0.15220331E+04</pdfrwt>
<totfact> 0.20288785E+01</totfact>
</mgrwt>
</event>
<event>
12    6  0.1530859E-007  0.1742042E+04  0.7818608E-02  0.8737743E-01
          2   -1    0    0  501    0  0.00000000000E+00  0.00000000000E+00  0.81647091036E+03  0.81647091036E+03  0.00000000000E+00 0. -1.
         -1   -1    0    0    0  501 -0.00000000000E+00 -0.00000000000E+00 -0.92921527202E+03  0.92921527202E+03  0.00000000000E+00 0.  1.
         24    2    1    2    0    0 -0.49954932263E+03  0.22638068038E+03 -0.36786047828E+03  0.66544535700E+03  0.81844080324E+02 0.  0.
        254    2    1    2    0    0  0.49954932263E+03 -0.22638068038E+03  0.25511611662E+03  0.10802408254E+04  0.89500741319E+03 0.  0.
         23    2    4    4    0    0  0.36035244249E+03 -0.44835104114E+03 -0.13871977031E+03  0.59869284724E+03  0.91199845177E+02 0.  0.
         23    2    4    4    0    0  0.13919688014E+03  0.22197036077E+03  0.39383588693E+03  0.48154797814E+03  0.90194993828E+02 0.  0.
          4    1    3    3  502    0 -0.30909628322E+03  0.17232200859E+03 -0.20415405273E+03  0.40855142172E+03  0.00000000000E+00 0. -1.
         -3    1    3    3    0  502 -0.19045303941E+03  0.54058671786E+02 -0.16370642555E+03  0.25689393528E+03  0.00000000000E+00 0.  1.
         11    1    5    5    0    0  0.36511918808E+03 -0.44643317504E+03 -0.13982897117E+03  0.59343638451E+03  0.00000000000E+00 0.  1.
        -11    1    5    5    0    0 -0.47667455887E+01 -0.19178660981E+01  0.11092008598E+01  0.52564627293E+01  0.00000000000E+00 0. -1.
          3    1    6    6  503    0  0.46104803104E+02  0.15279407378E+02  0.92379983262E+02  0.10437037159E+03  0.00000000000E+00 0. -1.
         -3    1    6    6    0  503  0.93092077038E+02  0.20669095339E+03  0.30145590367E+03  0.37717760654E+03  0.00000000000E+00 0.  1.
<mgrwt>
<rscale>  0 0.17420416E+04</rscale>
<asrwt>0</asrwt>
<pdfrwt beam="1">  1        2 0.12561091E+00 0.17420416E+04</pdfrwt>
<pdfrwt beam="2">  1       -1 0.14295620E+00 0.17420416E+04</pdfrwt>
<totfact> 0.14398270E+01</totfact>
</mgrwt>
</event>
<event>
12    6  0.1530859E-007  0.1351677E+04  0.7818608E-02  0.8989559E-01
         -3   -1    0    0    0  501 -0.00000000000E+00  0.00000000000E+00  0.20855617689E+03  0.20855617689E+03  0.00000000000E+00 0.  1.
          4   -1    0    0  501    0  0.00000000000E+00 -0.00000000000E+00 -0.21900956548E+04  0.21900956548E+04  0.00000000000E+00 0. -1.
         24    2    1    2    0    0  0.58578540442E+02 -0.30698321745E+03 -0.20916458325E+03  0.38509852153E+03  0.82951233904E+02 0.  0.
        254    2    1    2    0    0 -0.58578540442E+02  0.30698321745E+03 -0.17723748947E+04  0.20135533101E+04  0.90300278206E+03 0.  0.
         23    2    4    4    0    0 -0.86625949451E+02 -0.62698483464E+02 -0.15797389811E+04  0.15859237224E+04  0.90242173414E+02 0.  0.
         23    2    4    4    0    0  0.28047409009E+02  0.36968170092E+03 -0.19263591355E+03  0.42762958776E+03  0.91144127582E+02 0.  0.
          2    1    3    3  502    0 -0.91855425688E+01 -0.13425320676E+03 -0.11506509151E+03  0.17705443514E+03  0.00000000000E+00 0. -1.
         -1    1    3    3    0  502  0.67764083011E+02 -0.17273001069E+03 -0.94099491735E+02  0.20804408639E+03  0.00000000000E+00 0.  1.
         11    1    5    5    0    0 -0.10331754028E+03 -0.57849247484E+02 -0.12109918510E+04  0.12167671563E+04  0.00000000000E+00 0.  1.
        -11    1    5    5    0    0  0.16691590829E+02 -0.48492359800E+01 -0.36874713013E+03  0.36915656607E+03  0.00000000000E+00 0. -1.
          4    1    6    6  503    0 -0.12871558713E+02  0.29823654434E+03 -0.13839162549E+03  0.32903336519E+03  0.00000000000E+00 0.  1.
         -4    1    6    6    0  503  0.40918967722E+02  0.71445156581E+02 -0.54244288055E+02  0.98596222569E+02  0.00000000000E+00 0. -1.
<mgrwt>
<rscale>  0 0.13516774E+04</rscale>
<asrwt>0</asrwt>
<pdfrwt beam="1">  1        4 0.33693778E+00 0.13516774E+04</pdfrwt>
<pdfrwt beam="2">  1       -3 0.32085567E-01 0.13516774E+04</pdfrwt>
<totfact> 0.38895811E-01</totfact>
</mgrwt>
</event>
<event>
12    6  0.1530859E-007  0.2195207E+04  0.7818608E-02  0.8520426E-01
          2   -1    0    0  501    0  0.00000000000E+00  0.00000000000E+00  0.12478764215E+04  0.12478764215E+04  0.00000000000E+00 0. -1.
         -1   -1    0    0    0  501 -0.00000000000E+00 -0.00000000000E+00 -0.96542683066E+03  0.96542683066E+03  0.00000000000E+00 0.  1.
         24    2    1    2    0    0  0.80714037881E+03  0.40315299235E+03  0.92940305574E+02  0.91050085255E+03  0.79787065020E+02 0.  0.
        254    2    1    2    0    0 -0.80714037881E+03 -0.40315299235E+03  0.18950928522E+03  0.13028023996E+04  0.92052832481E+03 0.  0.
         23    2    4    4    0    0 -0.68387899225E+03 -0.11875801809E+02 -0.21197883504E+03  0.72189048572E+03  0.91429405279E+02 0.  0.
         23    2    4    4    0    0 -0.12326138656E+03 -0.39127719054E+03  0.40148812026E+03  0.58091191385E+03  0.89301353218E+02 0.  0.
          4    1    3    3  502    0  0.62520091204E+03  0.32620153614E+03  0.41676204018E+02  0.70641385078E+03  0.00000000000E+00 0. -1.
         -3    1    3    3    0  502  0.18193946677E+03  0.76951456208E+02  0.51264101556E+02  0.20408700176E+03  0.00000000000E+00 0.  1.
         11    1    5    5    0    0 -0.66714929810E+03 -0.24806876755E+02 -0.21287256436E+03  0.70072697661E+03  0.00000000000E+00 0. -1.
        -11    1    5    5    0    0 -0.16729694147E+02  0.12931074945E+02  0.89372931555E+00  0.21163509104E+02  0.00000000000E+00 0.  1.
          2    1    6    6  503    0 -0.10333343491E+03 -0.36207917748E+03  0.32799700326E+03  0.49936075505E+03  0.00000000000E+00 0. -1.
         -2    1    6    6    0  503 -0.19927951654E+02 -0.29198013061E+02  0.73491117001E+02  0.81551158802E+02  0.00000000000E+00 0.  1.
<mgrwt>
<rscale>  0 0.21952069E+04</rscale>
<asrwt>0</asrwt>
<pdfrwt beam="1">  1        2 0.19198099E+00 0.21952069E+04</pdfrwt>
<pdfrwt beam="2">  1       -1 0.14852720E+00 0.21952069E+04</pdfrwt>
<totfact> 0.66250744E+00</totfact>
</mgrwt>
</event>
<event>
12    6  0.1530859E-007  0.2732949E+04  0.7818608E-02  0.8324393E-01
         -1   -1    0    0    0  501 -0.00000000000E+00  0.00000000000E+00  0.62250996264E+03  0.62250996264E+03  0.00000000000E+00 0.  1.
          2   -1    0    0  501    0  0.00000000000E+00 -0.00000000000E+00 -0.29995546544E+04  0.29995546544E+04  0.00000000000E+00 0. -1.
         24    2    1    2    0    0  0.56701946099E+03  0.14116983389E+03  0.35329072548E+03  0.68754750769E+03  0.80419198410E+02 0.  0.
        254    2    1    2    0    0 -0.56701946099E+03 -0.14116983389E+03 -0.27303354173E+04  0.29345171094E+04  0.90289489051E+03 0.  0.
         23    2    4    4    0    0 -0.20101830791E+03 -0.22752233411E+03 -0.24145565662E+04  0.24355610804E+04  0.98486509564E+02 0.  0.
         23    2    4    4    0    0 -0.36600115308E+03  0.86352500221E+02 -0.31577885110E+03  0.49895602897E+03  0.88471677335E+02 0.  0.
          2    1    3    3  502    0  0.29743380767E+03  0.98833200790E+02  0.22613768170E+03  0.38648819207E+03  0.00000000000E+00 0. -1.
         -1    1    3    3    0  502  0.26958565332E+03  0.42336633104E+02  0.12715304378E+03  0.30105931562E+03  0.00000000000E+00 0.  1.
         11    1    5    5    0    0 -0.18514568475E+03 -0.15349847417E+03 -0.16828600917E+04  0.16999584684E+04  0.00000000000E+00 0. -1.
        -11    1    5    5    0    0 -0.15872623159E+02 -0.74023859949E+02 -0.73169647445E+03  0.73560261197E+03  0.00000000000E+00 0.  1.
          2    1    6    6  503    0 -0.27165480918E+03  0.73563894077E+02 -0.18350184853E+03  0.33597754431E+03  0.00000000000E+00 0. -1.
         -2    1    6    6    0  503 -0.94346343900E+02  0.12788606144E+02 -0.13227700257E+03  0.16297848466E+03  0.00000000000E+00 0.  1.
<mgrwt>
<rscale>  0 0.27329491E+04</rscale>
<asrwt>0</asrwt>
<pdfrwt beam="1">  1        2 0.46146994E+00 0.27329491E+04</pdfrwt>
<pdfrwt beam="2">  1       -1 0.95770766E-01 0.27329491E+04</pdfrwt>
<totfact> 0.18213142E+00</totfact>
</mgrwt>
</event>
<event>
12    6  0.1530859E-007  0.1824929E+04  0.7818608E-02  0.8693154E-01
         -1   -1    0    0    0  501 -0.00000000000E+00  0.00000000000E+00  0.40055543749E+03  0.40055543749E+03  0.00000000000E+00 0.  1.
          2   -1    0    0  501    0  0.00000000000E+00 -0.00000000000E+00 -0.20785926857E+04  0.20785926857E+04  0.00000000000E+00 0. -1.
         24    2    1    2    0    0  0.11332866987E+03 -0.58945223386E+03 -0.11055775872E+04  0.12603497991E+04  0.76697402410E+02 0.  0.
        254    2    1    2    0    0 -0.11332866987E+03  0.58945223386E+03 -0.57245966100E+03  0.12187983240E+04  0.89300726073E+03 0.  0.
         23    2    4    4    0    0  0.11161998025E+03  0.73528790578E+03 -0.56060383942E+03  0.93579751097E+03  0.91285225442E+02 0.  0.
         23    2    4    4    0    0 -0.22494865012E+03 -0.14583567192E+03 -0.11855821589E+02  0.28300081304E+03  0.89883042239E+02 0.  0.
          2    1    3    3  502    0  0.33908200796E+02 -0.32351279237E+03 -0.65092640384E+03  0.72767814048E+03  0.00000000000E+00 0. -1.
         -1    1    3    3    0  502  0.79420469074E+02 -0.26593944148E+03 -0.45465118332E+03  0.53267165866E+03  0.00000000000E+00 0.  1.
         11    1    5    5    0    0  0.11478483491E+03  0.56683500902E+03 -0.40133939571E+03  0.70395368905E+03  0.00000000000E+00 0. -1.
        -11    1    5    5    0    0 -0.31648546650E+01  0.16845289676E+03 -0.15926444370E+03  0.23184382191E+03  0.00000000000E+00 0.  1.
          3    1    6    6  503    0 -0.11743036467E+03 -0.12550041540E+03  0.67529007596E+01  0.17200536759E+03  0.00000000000E+00 0. -1.
         -3    1    6    6    0  503 -0.10751828545E+03 -0.20335256527E+02 -0.18608722349E+02  0.11099544545E+03  0.00000000000E+00 0.  1.
<mgrwt>
<rscale>  0 0.18249292E+04</rscale>
<asrwt>0</asrwt>
<pdfrwt beam="1">  1        2 0.31978349E+00 0.18249292E+04</pdfrwt>
<pdfrwt beam="2">  1       -1 0.61623914E-01 0.18249292E+04</pdfrwt>
<totfact> 0.17309564E+01</totfact>
</mgrwt>
</event>
<event>
12    6  0.1530859E-007  0.2083702E+04  0.7818608E-02  0.8568457E-01
         -1   -1    0    0    0  501 -0.00000000000E+00  0.00000000000E+00  0.56499915603E+03  0.56499915603E+03  0.00000000000E+00 0.  1.
          2   -1    0    0  501    0  0.00000000000E+00 -0.00000000000E+00 -0.19211590969E+04  0.19211590969E+04  0.00000000000E+00 0. -1.
         24    2    1    2    0    0 -0.45704995212E+03 -0.50296772775E+03  0.50273013502E+02  0.68627372782E+03  0.81074408536E+02 0.  0.
        254    2    1    2    0    0  0.45704995212E+03  0.50296772775E+03 -0.14064329543E+04  0.17998845251E+04  0.89423680008E+03 0.  0.
         23    2    4    4    0    0 -0.19251916412E+03  0.36568259129E+03 -0.76414290662E+03  0.87241861266E+03  0.80077886122E+02 0.  0.
         23    2    4    4    0    0  0.64956911624E+03  0.13728513646E+03 -0.64229004771E+03  0.92746591239E+03  0.82881046104E+02 0.  0.
          2    1    3    3  502    0 -0.17092019178E+03 -0.16114422718E+03  0.51561061682E+02  0.24049889188E+03  0.00000000000E+00 0. -1.
         -1    1    3    3    0  502 -0.28612976034E+03 -0.34182350057E+03 -0.12880481798E+01  0.44577483595E+03  0.00000000000E+00 0.  1.
         11    1    5    5    0    0 -0.58736774742E+01  0.67675379119E+02 -0.15158653787E+03  0.16611121422E+03  0.00000000000E+00 0. -1.
        -11    1    5    5    0    0 -0.18664548665E+03  0.29800721217E+03 -0.61255636876E+03  0.70630739844E+03  0.00000000000E+00 0.  1.
          3    1    6    6  503    0  0.20649028698E+03  0.64463512313E+02 -0.25591504012E+03  0.33509146631E+03  0.00000000000E+00 0. -1.
         -3    1    6    6    0  503  0.44307882926E+03  0.72821624148E+02 -0.38637500759E+03  0.59237444608E+03  0.00000000000E+00 0.  1.
<mgrwt>
<rscale>  0 0.20837018E+04</rscale>
<asrwt>0</asrwt>
<pdfrwt beam="1">  1        2 0.29556293E+00 0.20837018E+04</pdfrwt>
<pdfrwt beam="2">  1       -1 0.86922948E-01 0.20837018E+04</pdfrwt>
<totfact> 0.10124149E+01</totfact>
</mgrwt>
</event>
<event>
12    6  0.1530859E-007  0.1673639E+04  0.7818608E-02  0.8776543E-01
         -1   -1    0    0    0  501 -0.00000000000E+00  0.00000000000E+00  0.48471193623E+03  0.48471193623E+03  0.00000000000E+00 0.  1.
          2   -1    0    0  501    0  0.00000000000E+00 -0.00000000000E+00 -0.14447074726E+04  0.14447074726E+04  0.00000000000E+00 0. -1.
         24    2    1    2    0    0 -0.35872246776E+03 -0.46988862004E+03 -0.37977558481E+03  0.70735438510E+03  0.81508325846E+02 0.  0.
        254    2    1    2    0    0  0.35872246776E+03  0.46988862004E+03 -0.58021995153E+03  0.12220650237E+04  0.89850464988E+03 0.  0.
         23    2    4    4    0    0 -0.14032664015E+01 -0.19833446172E+02  0.20514220443E+03  0.22428784622E+03  0.88466825312E+02 0.  0.
         23    2    4    4    0    0  0.36012573416E+03  0.48972206621E+03 -0.78536215596E+03  0.99777717747E+03  0.96163055930E+02 0.  0.
          2    1    3    3  502    0 -0.33956476313E+03 -0.45043550619E+03 -0.37983383237E+03  0.68005155232E+03  0.00000000000E+00 0. -1.
         -1    1    3    3    0  502 -0.19157704628E+02 -0.19453113848E+02  0.58247560298E-01  0.27302832779E+02  0.00000000000E+00 0.  1.
         11    1    5    5    0    0  0.15545027031E+02 -0.50417710262E+02  0.14985481489E+03  0.15887120230E+03  0.00000000000E+00 0. -1.
        -11    1    5    5    0    0 -0.16948293433E+02  0.30584264091E+02  0.55287389541E+02  0.65416643926E+02  0.00000000000E+00 0.  1.
          4    1    6    6  503    0  0.31988262227E+03  0.45020249668E+03 -0.66191415825E+03  0.86205425174E+03  0.00000000000E+00 0. -1.
         -4    1    6    6    0  503  0.40243111896E+02  0.39519569532E+02 -0.12344799771E+03  0.13572292574E+03  0.00000000000E+00 0.  1.
<mgrwt>
<rscale>  0 0.16736391E+04</rscale>
<asrwt>0</asrwt>
<pdfrwt beam="1">  1        2 0.22226268E+00 0.16736391E+04</pdfrwt>
<pdfrwt beam="2">  1       -1 0.74571068E-01 0.16736391E+04</pdfrwt>
<totfact> 0.26828847E+01</totfact>
</mgrwt>
</event>
<event>
12    6  0.1530859E-007  0.1733337E+04  0.7818608E-02  0.8742576E-01
         -1   -1    0    0    0  501 -0.00000000000E+00  0.00000000000E+00  0.26570034508E+03  0.26570034508E+03  0.00000000000E+00 0.  1.
          2   -1    0    0  501    0  0.00000000000E+00 -0.00000000000E+00 -0.28269209398E+04  0.28269209398E+04  0.00000000000E+00 0. -1.
         24    2    1    2    0    0 -0.26186001801E+03 -0.39246183084E+03 -0.16847180636E+04  0.17513273322E+04  0.79218136365E+02 0.  0.
        254    2    1    2    0    0  0.26186001801E+03  0.39246183084E+03 -0.87650253117E+03  0.13412939527E+04  0.89900824394E+03 0.  0.
         23    2    4    4    0    0  0.43911376698E+03  0.19891383376E+03 -0.78760558606E+02  0.49672697860E+03  0.90259913984E+02 0.  0.
         23    2    4    4    0    0 -0.17725374897E+03  0.19354799708E+03 -0.79774197256E+03  0.84456697408E+03  0.89562270114E+02 0.  0.
          4    1    3    3  502    0 -0.16772751704E+03 -0.23084138731E+03 -0.11488949266E+04  0.11837988927E+04  0.00000000000E+00 0. -1.
         -3    1    3    3    0  502 -0.94132500968E+02 -0.16162044352E+03 -0.53582313703E+03  0.56752843953E+03  0.00000000000E+00 0.  1.
         11    1    5    5    0    0  0.43210338020E+03  0.17891766514E+03 -0.83341370155E+02  0.47504804605E+03  0.00000000000E+00 0. -1.
        -11    1    5    5    0    0  0.70103867770E+01  0.19996168616E+02  0.45808115497E+01  0.21678932550E+02  0.00000000000E+00 0.  1.
          4    1    6    6  503    0 -0.67824847137E+02  0.87211136993E+02 -0.20936794505E+03  0.23672965323E+03  0.00000000000E+00 0. -1.
         -4    1    6    6    0  503 -0.10942890183E+03  0.10633686009E+03 -0.58837402751E+03  0.60783732085E+03  0.00000000000E+00 0.  1.
<mgrwt>
<rscale>  0 0.17333365E+04</rscale>
<asrwt>0</asrwt>
<pdfrwt beam="1">  1        2 0.43491090E+00 0.17333365E+04</pdfrwt>
<pdfrwt beam="2">  1       -1 0.40876977E-01 0.17333365E+04</pdfrwt>
<totfact> 0.14131570E+01</totfact>
</mgrwt>
</event>
<event>
12    6  0.1530859E-007  0.1786072E+04  0.7818608E-02  0.8713741E-01
         -1   -1    0    0    0  501 -0.00000000000E+00  0.00000000000E+00  0.85813157033E+03  0.85813157033E+03  0.00000000000E+00 0.  1.
          2   -1    0    0  501    0  0.00000000000E+00 -0.00000000000E+00 -0.92936012580E+03  0.92936012580E+03  0.00000000000E+00 0. -1.
         24    2    1    2    0    0  0.21479959822E+03 -0.12396108556E+03 -0.62964100443E+03  0.68141710149E+03  0.79851447181E+02 0.  0.
        254    2    1    2    0    0 -0.21479959822E+03  0.12396108556E+03  0.55841244896E+03  0.11060745946E+04  0.92199312775E+03 0.  0.
         23    2    4    4    0    0 -0.36850323704E+03  0.85820334144E+02 -0.11714694181E+03  0.40642889414E+03  0.91111330518E+02 0.  0.
         23    2    4    4    0    0  0.15370363883E+03  0.38140751416E+02  0.67555939077E+03  0.69964570050E+03  0.89688852455E+02 0.  0.
          4    1    3    3  502    0  0.16465491740E+03 -0.51981641912E+02 -0.40642729026E+03  0.44158405223E+03  0.00000000000E+00 0. -1.
         -3    1    3    3    0  502  0.50144680819E+02 -0.71979443647E+02 -0.22321371417E+03  0.23983304926E+03  0.00000000000E+00 0.  1.
         11    1    5    5    0    0 -0.32337499000E+03  0.55992117565E+02 -0.72052389838E+02  0.33600304801E+03  0.00000000000E+00 0.  1.
        -11    1    5    5    0    0 -0.45128247041E+02  0.29828216579E+02 -0.45094551975E+02  0.70425846129E+02  0.00000000000E+00 0. -1.
          3    1    6    6  503    0  0.11824450013E+02  0.36125766503E+02  0.19064358654E+03  0.19439615663E+03  0.00000000000E+00 0. -1.
         -3    1    6    6    0  503  0.14187918882E+03  0.20149849123E+01  0.48491580423E+03  0.50524954386E+03  0.00000000000E+00 0.  1.
<mgrwt>
<rscale>  0 0.17860720E+04</rscale>
<asrwt>0</asrwt>
<pdfrwt beam="1">  1        2 0.14297848E+00 0.17860720E+04</pdfrwt>
<pdfrwt beam="2">  1       -1 0.13202024E+00 0.17860720E+04</pdfrwt>
<totfact> 0.14738469E+01</totfact>
</mgrwt>
</event>
<event>
12    6  0.1530859E-007  0.2088302E+04  0.7818608E-02  0.8566414E-01
         -1   -1    0    0    0  501 -0.00000000000E+00  0.00000000000E+00  0.72064553939E+03  0.72064553939E+03  0.00000000000E+00 0.  1.
          2   -1    0    0  501    0  0.00000000000E+00 -0.00000000000E+00 -0.15128814676E+04  0.15128814676E+04  0.00000000000E+00 0. -1.
         24    2    1    2    0    0  0.75850831704E+03 -0.14258809713E+02  0.51624060437E+02  0.76452495821E+03  0.79342217176E+02 0.  0.
        254    2    1    2    0    0 -0.75850831704E+03  0.14258809713E+02 -0.84385998862E+03  0.14690020488E+04  0.93291433594E+03 0.  0.
         23    2    4    4    0    0 -0.23817656657E+03 -0.35381791750E+03 -0.38161544537E+02  0.43761974916E+03  0.90219431226E+02 0.  0.
         23    2    4    4    0    0 -0.52033175048E+03  0.36807672721E+03 -0.80569844408E+03  0.10313822996E+04  0.91508783526E+02 0.  0.
          4    1    3    3  502    0  0.35173494885E+03 -0.41597580419E+02  0.42550922548E+02  0.35673297289E+03  0.00000000000E+00 0. -1.
         -3    1    3    3    0  502  0.40677336819E+03  0.27338770706E+02  0.90731378890E+01  0.40779198531E+03  0.00000000000E+00 0.  1.
         11    1    5    5    0    0 -0.32015131386E+02 -0.36724466048E+02 -0.33938294124E+02  0.59375608226E+02  0.00000000000E+00 0. -1.
        -11    1    5    5    0    0 -0.20616143518E+03 -0.31709345145E+03 -0.42232504138E+01  0.37824414094E+03  0.00000000000E+00 0.  1.
          4    1    6    6  503    0 -0.45766555066E+03  0.33745560169E+03 -0.66968574278E+03  0.87852890303E+03  0.00000000000E+00 0.  1.
         -4    1    6    6    0  503 -0.62666199816E+02  0.30621125521E+02 -0.13601270131E+03  0.15285339658E+03  0.00000000000E+00 0. -1.
<mgrwt>
<rscale>  0 0.20883020E+04</rscale>
<asrwt>0</asrwt>
<pdfrwt beam="1">  1        2 0.23275099E+00 0.20883020E+04</pdfrwt>
<pdfrwt beam="2">  1       -1 0.11086855E+00 0.20883020E+04</pdfrwt>
<totfact> 0.98269010E+00</totfact>
</mgrwt>
</event>
<event>
12    6  0.1530859E-007  0.2152837E+04  0.7818608E-02  0.8538319E-01
         -1   -1    0    0    0  501 -0.00000000000E+00  0.00000000000E+00  0.40695857808E+03  0.40695857808E+03  0.00000000000E+00 0.  1.
          2   -1    0    0  501    0  0.00000000000E+00 -0.00000000000E+00 -0.28471619595E+04  0.28471619595E+04  0.00000000000E+00 0. -1.
         24    2    1    2    0    0  0.10976599404E+03 -0.49972560639E+03  0.85559438420E+02  0.52444195110E+03  0.77101799201E+02 0.  0.
        254    2    1    2    0    0 -0.10976599404E+03  0.49972560639E+03 -0.25257628198E+04  0.27296785865E+04  0.89994061375E+03 0.  0.
         23    2    4    4    0    0 -0.11632347590E+03  0.10195707485E+03 -0.83029662344E+01  0.17936742851E+03  0.90428640407E+02 0.  0.
         23    2    4    4    0    0  0.65574818612E+01  0.39776853154E+03 -0.25174598536E+04  0.25503111580E+04  0.90664671627E+02 0.  0.
          2    1    3    3  502    0 -0.93133460305E+01 -0.56811999276E+02 -0.15962248918E+01  0.57592444035E+02  0.00000000000E+00 0. -1.
         -1    1    3    3    0  502  0.11907934007E+03 -0.44291360711E+03  0.87155663312E+02  0.46684950706E+03  0.00000000000E+00 0.  1.
         11    1    5    5    0    0 -0.85071090024E+02  0.15667395559E+02  0.49366184325E+01  0.86642529066E+02  0.00000000000E+00 0. -1.
        -11    1    5    5    0    0 -0.31252385875E+02  0.86289679294E+02 -0.13239584667E+02  0.92724899448E+02  0.00000000000E+00 0.  1.
          2    1    6    6  503    0  0.32923052854E+02  0.92111062304E+02 -0.47809401445E+03  0.48799821912E+03  0.00000000000E+00 0. -1.
         -2    1    6    6    0  503 -0.26365570993E+02  0.30565746923E+03 -0.20393658391E+04  0.20623129388E+04  0.00000000000E+00 0.  1.
<mgrwt>
<rscale>  0 0.21528372E+04</rscale>
<asrwt>0</asrwt>
<pdfrwt beam="1">  1        2 0.43802492E+00 0.21528372E+04</pdfrwt>
<pdfrwt beam="2">  1       -1 0.62609012E-01 0.21528372E+04</pdfrwt>
<totfact> 0.58543536E+00</totfact>
</mgrwt>
</event>
<event>
12    6  0.1530859E-007  0.2157881E+04  0.7818608E-02  0.8536167E-01
         -1   -1    0    0    0  501 -0.00000000000E+00  0.00000000000E+00  0.19599014238E+04  0.19599014238E+04  0.00000000000E+00 0.  1.
          2   -1    0    0  501    0  0.00000000000E+00 -0.00000000000E+00 -0.59396464368E+03  0.59396464368E+03  0.00000000000E+00 0. -1.
         24    2    1    2    0    0  0.85010692896E+03  0.17888938322E+03  0.79138554693E+03  0.11778614116E+04  0.79895050272E+02 0.  0.
        254    2    1    2    0    0 -0.85010692896E+03 -0.17888938322E+03  0.57455123322E+03  0.13760046559E+04  0.89921993487E+03 0.  0.
         23    2    4    4    0    0 -0.68611839539E+03 -0.35981732083E+01 -0.58044295774E+02  0.69447982726E+03  0.90342076895E+02 0.  0.
         23    2    4    4    0    0 -0.16398853358E+03 -0.17529121001E+03  0.63259552899E+03  0.68152482861E+03  0.81729684063E+02 0.  0.
          4    1    3    3  502    0  0.30181410493E+03  0.98378386144E+02  0.26451438065E+03  0.41320445105E+03  0.00000000000E+00 0. -1.
         -3    1    3    3    0  502  0.54829282404E+03  0.80510997074E+02  0.52687116627E+03  0.76465696060E+03  0.00000000000E+00 0.  1.
         11    1    5    5    0    0 -0.63416033654E+03  0.20498304116E+02 -0.47725070379E+02  0.63628389518E+03  0.00000000000E+00 0.  1.
        -11    1    5    5    0    0 -0.51958058842E+02 -0.24096477324E+02 -0.10319225395E+02  0.58195932081E+02  0.00000000000E+00 0. -1.
          4    1    6    6  503    0 -0.25472609555E+02 -0.18061231302E+02  0.18111797302E+03  0.18379004887E+03  0.00000000000E+00 0. -1.
         -4    1    6    6    0  503 -0.13851592402E+03 -0.15722997871E+03  0.45147755598E+03  0.49773477974E+03  0.00000000000E+00 0.  1.
<mgrwt>
<rscale>  0 0.21578806E+04</rscale>
<asrwt>0</asrwt>
<pdfrwt beam="1">  1        2 0.91379177E-01 0.21578806E+04</pdfrwt>
<pdfrwt beam="2">  1       -1 0.30152329E+00 0.21578806E+04</pdfrwt>
<totfact> 0.16979701E+00</totfact>
</mgrwt>
</event>
<event>
12    6  0.1530859E-007  0.1385187E+04  0.7818608E-02  0.8964611E-01
          2   -1    0    0  501    0  0.00000000000E+00  0.00000000000E+00  0.80584193436E+03  0.80584193436E+03  0.00000000000E+00 0. -1.
         -1   -1    0    0    0  501 -0.00000000000E+00 -0.00000000000E+00 -0.59526077723E+03  0.59526077723E+03  0.00000000000E+00 0.  1.
         24    2    1    2    0    0  0.29143097184E+03  0.26314755256E+03 -0.18134792666E+02  0.40093616603E+03  0.79008181614E+02 0.  0.
        254    2    1    2    0    0 -0.29143097184E+03 -0.26314755256E+03  0.22871594980E+03  0.10001665456E+04  0.89097894892E+03 0.  0.
         23    2    4    4    0    0 -0.49370779673E+03 -0.45406007083E+03  0.12942872380E+03  0.68928876103E+03  0.91919883945E+02 0.  0.
         23    2    4    4    0    0  0.20227682489E+03  0.19091251827E+03  0.99287225997E+02  0.31087778454E+03  0.97074920304E+02 0.  0.
          2    1    3    3  502    0  0.18825532777E+03  0.15460632018E+03 -0.47856274688E+02  0.24826076150E+03  0.00000000000E+00 0. -1.
         -1    1    3    3    0  502  0.10317564407E+03  0.10854123238E+03  0.29721482022E+02  0.15267540453E+03  0.00000000000E+00 0.  1.
         11    1    5    5    0    0 -0.37545236866E+03 -0.37328980685E+03  0.13353463986E+03  0.54602313236E+03  0.00000000000E+00 0.  1.
        -11    1    5    5    0    0 -0.11825542807E+03 -0.80770263980E+02 -0.41059160624E+01  0.14326562867E+03  0.00000000000E+00 0. -1.
          1    1    6    6  503    0  0.55570850109E+02  0.40913881959E+02  0.71263943608E+02  0.99199872870E+02  0.00000000000E+00 0. -1.
         -1    1    6    6    0  503  0.14670597478E+03  0.14999863631E+03  0.28023282389E+02  0.21167791167E+03  0.00000000000E+00 0.  1.
<mgrwt>
<rscale>  0 0.13851875E+04</rscale>
<asrwt>0</asrwt>
<pdfrwt beam="1">  1        2 0.12397568E+00 0.13851875E+04</pdfrwt>
<pdfrwt beam="2">  1       -1 0.91578581E-01 0.13851875E+04</pdfrwt>
<totfact> 0.44123714E+01</totfact>
</mgrwt>
</event>
<event>
12    6  0.1530859E-007  0.2560598E+04  0.7818608E-02  0.8381710E-01
         -1   -1    0    0    0  501 -0.00000000000E+00  0.00000000000E+00  0.75318159967E+03  0.75318159967E+03  0.00000000000E+00 0.  1.
          2   -1    0    0  501    0  0.00000000000E+00 -0.00000000000E+00 -0.21763211368E+04  0.21763211368E+04  0.00000000000E+00 0. -1.
         24    2    1    2    0    0  0.10084402306E+03 -0.82368824737E+03 -0.14870766689E+04  0.17049288351E+04  0.82179484925E+02 0.  0.
        254    2    1    2    0    0 -0.10084402306E+03  0.82368824737E+03  0.63937131714E+02  0.12245739014E+04  0.89825466177E+03 0.  0.
         23    2    4    4    0    0 -0.18031378363E+03  0.44421921667E+03  0.45393254002E+03  0.66652518631E+03  0.91418269862E+02 0.  0.
         23    2    4    4    0    0  0.79469760578E+02  0.37946903070E+03 -0.38999540831E+03  0.55804871512E+03  0.94919765241E+02 0.  0.
          4    1    3    3  502    0  0.57246224353E+02 -0.69349926917E+03 -0.12678744528E+04  0.14462793626E+04  0.00000000000E+00 0. -1.
         -3    1    3    3    0  502  0.43597798704E+02 -0.13018897820E+03 -0.21920221603E+03  0.25864947247E+03  0.00000000000E+00 0.  1.
         11    1    5    5    0    0 -0.13871376678E+03  0.29502056369E+03  0.25209024802E+03  0.41210209323E+03  0.00000000000E+00 0. -1.
        -11    1    5    5    0    0 -0.41600016854E+02  0.14919865298E+03  0.20184229200E+03  0.25442309308E+03  0.00000000000E+00 0.  1.
          2    1    6    6  503    0  0.79517429212E+02  0.15958400215E+03 -0.15540759230E+03  0.23651975612E+03  0.00000000000E+00 0. -1.
         -2    1    6    6    0  503 -0.47668634155E-01  0.21988502856E+03 -0.23458781601E+03  0.32152895900E+03  0.00000000000E+00 0.  1.
<mgrwt>
<rscale>  0 0.25605976E+04</rscale>
<asrwt>0</asrwt>
<pdfrwt beam="1">  1        2 0.33481863E+00 0.25605976E+04</pdfrwt>
<pdfrwt beam="2">  1       -1 0.11587410E+00 0.25605976E+04</pdfrwt>
<totfact> 0.36225461E+00</totfact>
</mgrwt>
</event>
<event>
12    6  0.1530859E-007  0.1528954E+04  0.7818608E-02  0.8865424E-01
         -1   -1    0    0    0  501 -0.00000000000E+00  0.00000000000E+00  0.63762862598E+03  0.63762862598E+03  0.00000000000E+00 0.  1.
          2   -1    0    0  501    0  0.00000000000E+00 -0.00000000000E+00 -0.91656013785E+03  0.91656013785E+03  0.00000000000E+00 0. -1.
         24    2    1    2    0    0  0.31748597323E+03 -0.14087108099E+03  0.26744406901E+03  0.44631955262E+03  0.83861840824E+02 0.  0.
        254    2    1    2    0    0 -0.31748597323E+03  0.14087108099E+03 -0.54637558089E+03  0.11078692112E+04  0.89900273030E+03 0.  0.
         23    2    4    4    0    0 -0.43142260304E+02 -0.36558394133E+03 -0.18717256305E+03  0.42262996741E+03  0.89831220685E+02 0.  0.
         23    2    4    4    0    0 -0.27434371293E+03  0.50645502232E+03 -0.35920301784E+03  0.68523924379E+03  0.93620781634E+02 0.  0.
          2    1    3    3  502    0  0.80836426974E+02 -0.60572083287E+02  0.11722881366E+03  0.15474527441E+03  0.00000000000E+00 0. -1.
         -1    1    3    3    0  502  0.23664954626E+03 -0.80298997700E+02  0.15021525535E+03  0.29157427821E+03  0.00000000000E+00 0.  1.
         11    1    5    5    0    0  0.67029953700E+01 -0.21592634554E+03 -0.73471457027E+02  0.22818232149E+03  0.00000000000E+00 0.  1.
        -11    1    5    5    0    0 -0.49845255674E+02 -0.14965759580E+03 -0.11370110602E+03  0.19444764592E+03  0.00000000000E+00 0. -1.
          3    1    6    6  503    0 -0.11946238588E+02 -0.12176253952E+01 -0.60016449978E+01  0.13424416959E+02  0.00000000000E+00 0. -1.
         -3    1    6    6    0  503 -0.26239747434E+03  0.50767264772E+03 -0.35320137284E+03  0.67181482684E+03  0.00000000000E+00 0.  1.
<mgrwt>
<rscale>  0 0.15289539E+04</rscale>
<asrwt>0</asrwt>
<pdfrwt beam="1">  1        2 0.14100925E+00 0.15289539E+04</pdfrwt>
<pdfrwt beam="2">  1       -1 0.98096712E-01 0.15289539E+04</pdfrwt>
<totfact> 0.31320320E+01</totfact>
</mgrwt>
</event>
<event>
12    6  0.1530859E-007  0.1338971E+04  0.7818608E-02  0.8999220E-01
          2   -1    0    0  501    0  0.00000000000E+00  0.00000000000E+00  0.61159135118E+03  0.61159135118E+03  0.00000000000E+00 0. -1.
         -1   -1    0    0    0  501 -0.00000000000E+00 -0.00000000000E+00 -0.73285945672E+03  0.73285945672E+03  0.00000000000E+00 0.  1.
         24    2    1    2    0    0 -0.35224827607E+03 -0.29776175402E+02 -0.89811845312E+02  0.37328981054E+03  0.79458457577E+02 0.  0.
        254    2    1    2    0    0  0.35224827607E+03  0.29776175402E+02 -0.31456260231E+02  0.97116099736E+03  0.90399044125E+03 0.  0.
         23    2    4    4    0    0  0.42215289983E+02  0.19790365839E+03 -0.39713913283E+03  0.45503060302E+03  0.91571666732E+02 0.  0.
         23    2    4    4    0    0  0.31003298609E+03 -0.16812748299E+03  0.36568287260E+03  0.51613039434E+03  0.90990755848E+02 0.  0.
          2    1    3    3  502    0 -0.23302371167E+03  0.10883999184E+02 -0.34899123308E+02  0.23587382315E+03  0.00000000000E+00 0. -1.
         -1    1    3    3    0  502 -0.11922456440E+03 -0.40660174586E+02 -0.54912722004E+02  0.13741598740E+03  0.00000000000E+00 0.  1.
         11    1    5    5    0    0  0.60899269759E+02  0.17735169393E+03 -0.37586546138E+03  0.42004427082E+03  0.00000000000E+00 0. -1.
        -11    1    5    5    0    0 -0.18683979775E+02  0.20551964463E+02 -0.21273671455E+02  0.34986332198E+02  0.00000000000E+00 0.  1.
          4    1    6    6  503    0  0.25381291955E+03 -0.11027048798E+03  0.32133404762E+03  0.42407092426E+03  0.00000000000E+00 0. -1.
         -4    1    6    6    0  503  0.56220066539E+02 -0.57856995008E+02  0.44348824982E+02  0.92059470074E+02  0.00000000000E+00 0.  1.
<mgrwt>
<rscale>  0 0.13389705E+04</rscale>
<asrwt>0</asrwt>
<pdfrwt beam="1">  1        2 0.94090977E-01 0.13389705E+04</pdfrwt>
<pdfrwt beam="2">  1       -1 0.11274761E+00 0.13389705E+04</pdfrwt>
<totfact> 0.38973657E+01</totfact>
</mgrwt>
</event>
<event>
12    6  0.1530859E-007  0.1634854E+04  0.7818608E-02  0.8799418E-01
          2   -1    0    0  501    0  0.00000000000E+00  0.00000000000E+00  0.24851466513E+04  0.24851466513E+04  0.00000000000E+00 0. -1.
         -1   -1    0    0    0  501 -0.00000000000E+00 -0.00000000000E+00 -0.26887211392E+03  0.26887211392E+03  0.00000000000E+00 0.  1.
         24    2    1    2    0    0  0.20840307777E+03  0.15740296520E+03 -0.69388620121E+02  0.28409489351E+03  0.87678912156E+02 0.  0.
        254    2    1    2    0    0 -0.20840307777E+03 -0.15740296520E+03  0.22856631576E+04  0.24699238718E+04  0.89892175754E+03 0.  0.
         23    2    4    4    0    0  0.20870907756E+03 -0.37160464772E+03  0.13582092898E+04  0.14265637719E+04  0.93285728459E+02 0.  0.
         23    2    4    4    0    0 -0.41711215534E+03  0.21420168252E+03  0.92745386772E+03  0.10433600998E+04  0.92545719632E+02 0.  0.
          4    1    3    3  502    0  0.47329073948E+02  0.22375082435E+02  0.19530189608E+02  0.55875879061E+02  0.00000000000E+00 0. -1.
         -3    1    3    3    0  502  0.16107400383E+03  0.13502788276E+03 -0.88918809729E+02  0.22821901445E+03  0.00000000000E+00 0.  1.
         11    1    5    5    0    0  0.18706290429E+02 -0.10899343257E+03  0.29521805453E+03  0.31525100057E+03  0.00000000000E+00 0. -1.
        -11    1    5    5    0    0  0.19000278714E+03 -0.26261121515E+03  0.10629912353E+04  0.11113127714E+04  0.00000000000E+00 0.  1.
          3    1    6    6  503    0 -0.17973811184E+03  0.85899592757E+02  0.49561301955E+03  0.53415053499E+03  0.00000000000E+00 0. -1.
         -3    1    6    6    0  503 -0.23737404350E+03  0.12830208977E+03  0.43184084816E+03  0.50920956483E+03  0.00000000000E+00 0.  1.
<mgrwt>
<rscale>  0 0.16348537E+04</rscale>
<asrwt>0</asrwt>
<pdfrwt beam="1">  1        2 0.38233024E+00 0.16348537E+04</pdfrwt>
<pdfrwt beam="2">  1       -1 0.41364942E-01 0.16348537E+04</pdfrwt>
<totfact> 0.22187122E+01</totfact>
</mgrwt>
</event>
<event>
12    6  0.1530859E-007  0.2303804E+04  0.7818608E-02  0.8476423E-01
         -1   -1    0    0    0  501 -0.00000000000E+00  0.00000000000E+00  0.69978275761E+03  0.69978275761E+03  0.00000000000E+00 0.  1.
          2   -1    0    0  501    0  0.00000000000E+00 -0.00000000000E+00 -0.18961286265E+04  0.18961286265E+04  0.00000000000E+00 0. -1.
         24    2    1    2    0    0  0.17936290159E+03  0.56264911960E+03 -0.13861793982E+04  0.15089064340E+04  0.80995186937E+02 0.  0.
        254    2    1    2    0    0 -0.17936290159E+03 -0.56264911960E+03  0.18983352932E+03  0.10870049501E+04  0.89263537375E+03 0.  0.
         23    2    4    4    0    0  0.14991521182E+03 -0.41678439413E+02 -0.26102857884E+03  0.31802575907E+03  0.93769938737E+02 0.  0.
         23    2    4    4    0    0 -0.32927811341E+03 -0.52097068019E+03  0.45086210816E+03  0.76897919105E+03  0.90652248239E+02 0.  0.
          4    1    3    3  502    0  0.18604017501E+03  0.50821972369E+03 -0.12537341954E+04  0.13655576396E+04  0.00000000000E+00 0. -1.
         -3    1    3    3    0  502 -0.66772734201E+01  0.54429395912E+02 -0.13244520280E+03  0.14334879443E+03  0.00000000000E+00 0.  1.
         11    1    5    5    0    0  0.29674896356E+01 -0.26938116122E+01  0.80361064408E+01  0.89800680658E+01  0.00000000000E+00 0.  1.
        -11    1    5    5    0    0  0.14694772219E+03 -0.38984627801E+02 -0.26906468528E+03  0.30904569100E+03  0.00000000000E+00 0. -1.
          1    1    6    6  503    0 -0.25922529274E+03 -0.44118235589E+03  0.33387242212E+03  0.61099134020E+03  0.00000000000E+00 0. -1.
         -1    1    6    6    0  503 -0.70052820668E+02 -0.79788324294E+02  0.11698968603E+03  0.15798785085E+03  0.00000000000E+00 0.  1.
<mgrwt>
<rscale>  0 0.23038039E+04</rscale>
<asrwt>0</asrwt>
<pdfrwt beam="1">  1        2 0.29171210E+00 0.23038039E+04</pdfrwt>
<pdfrwt beam="2">  1       -1 0.10765889E+00 0.23038039E+04</pdfrwt>
<totfact> 0.63208545E+00</totfact>
</mgrwt>
</event>
<event>
12    6  0.1530859E-007  0.1906752E+04  0.7818608E-02  0.8651503E-01
         -1   -1    0    0    0  501 -0.00000000000E+00  0.00000000000E+00  0.97857521699E+03  0.97857521699E+03  0.00000000000E+00 0.  1.
          2   -1    0    0  501    0  0.00000000000E+00 -0.00000000000E+00 -0.92882613011E+03  0.92882613011E+03  0.00000000000E+00 0. -1.
         24    2    1    2    0    0 -0.29577505088E+03  0.11853730299E+03  0.67112044812E+03  0.74715512455E+03  0.79398686012E+02 0.  0.
        254    2    1    2    0    0  0.29577505088E+03 -0.11853730299E+03 -0.62137136124E+03  0.11602462225E+04  0.92657161377E+03 0.  0.
         23    2    4    4    0    0  0.36458820767E+03 -0.42516036400E+03 -0.15109916450E+03  0.58746533173E+03  0.92728971679E+02 0.  0.
         23    2    4    4    0    0 -0.68813156789E+02  0.30662306101E+03 -0.47027219674E+03  0.57278089082E+03  0.90382840029E+02 0.  0.
          2    1    3    3  502    0 -0.70336440470E+02 -0.63030963296E+01  0.15086424735E+03  0.16657420272E+03  0.00000000000E+00 0. -1.
         -1    1    3    3    0  502 -0.22543861041E+03  0.12484039932E+03  0.52025620077E+03  0.58058092184E+03  0.00000000000E+00 0.  1.
         11    1    5    5    0    0  0.81365298334E+02 -0.16065035305E+03 -0.43094833017E+02  0.18516482479E+03  0.00000000000E+00 0.  1.
        -11    1    5    5    0    0  0.28322290934E+03 -0.26451001095E+03 -0.10800433148E+03  0.40230050694E+03  0.00000000000E+00 0. -1.
          2    1    6    6  503    0 -0.56264730991E+02  0.93781778194E+02 -0.20593539136E+03  0.23317402791E+03  0.00000000000E+00 0. -1.
         -2    1    6    6    0  503 -0.12548425798E+02  0.21284128281E+03 -0.26433680537E+03  0.33960686291E+03  0.00000000000E+00 0.  1.
<mgrwt>
<rscale>  0 0.19067525E+04</rscale>
<asrwt>0</asrwt>
<pdfrwt beam="1">  1        2 0.14289633E+00 0.19067525E+04</pdfrwt>
<pdfrwt beam="2">  1       -1 0.15055003E+00 0.19067525E+04</pdfrwt>
<totfact> 0.10347246E+01</totfact>
</mgrwt>
</event>
<event>
12    6  0.1530859E-007  0.1966996E+04  0.7818608E-02  0.8622208E-01
         -1   -1    0    0    0  501 -0.00000000000E+00  0.00000000000E+00  0.69223376455E+03  0.69223376455E+03  0.00000000000E+00 0.  1.
          2   -1    0    0  501    0  0.00000000000E+00 -0.00000000000E+00 -0.13973149124E+04  0.13973149124E+04  0.00000000000E+00 0. -1.
         24    2    1    2    0    0 -0.62643017304E+02  0.37897296970E+03 -0.99926382569E+03  0.10728510542E+04  0.70260455980E+02 0.  0.
        254    2    1    2    0    0  0.62643017304E+02 -0.37897296970E+03  0.29418267784E+03  0.10166976228E+04  0.89419569943E+03 0.  0.
         23    2    4    4    0    0 -0.55315510975E+01 -0.62998466901E+03  0.32908325966E+02  0.63703511718E+03  0.88427944445E+02 0.  0.
         23    2    4    4    0    0  0.68174568402E+02  0.25101169931E+03  0.26127435187E+03  0.37966250562E+03  0.90690056014E+02 0.  0.
          2    1    3    3  502    0 -0.69750089711E+02  0.22643671495E+03 -0.64173101316E+03  0.68407408527E+03  0.00000000000E+00 0. -1.
         -1    1    3    3    0  502  0.71070724070E+01  0.15253625476E+03 -0.35753281254E+03  0.38877696888E+03  0.00000000000E+00 0.  1.
         11    1    5    5    0    0  0.32899290954E+02 -0.15462957771E+03 -0.86116592251E+01  0.15832507800E+03  0.00000000000E+00 0. -1.
        -11    1    5    5    0    0 -0.38430842052E+02 -0.47535509130E+03  0.41519985191E+02  0.47871003918E+03  0.00000000000E+00 0.  1.
          4    1    6    6  503    0  0.22956532088E+02  0.92254153887E+02  0.15966564947E+03  0.18582505454E+03  0.00000000000E+00 0. -1.
         -4    1    6    6    0  503  0.45218036314E+02  0.15875754542E+03  0.10160870240E+03  0.19383745108E+03  0.00000000000E+00 0.  1.
<mgrwt>
<rscale>  0 0.19669963E+04</rscale>
<asrwt>0</asrwt>
<pdfrwt beam="1">  1        2 0.21497152E+00 0.19669963E+04</pdfrwt>
<pdfrwt beam="2">  1       -1 0.10649750E+00 0.19669963E+04</pdfrwt>
<totfact> 0.12698451E+01</totfact>
</mgrwt>
</event>
<event>
12    6  0.1530859E-007  0.2336992E+04  0.7818608E-02  0.8463477E-01
         -1   -1    0    0    0  501 -0.00000000000E+00  0.00000000000E+00  0.67460656819E+03  0.67460656819E+03  0.00000000000E+00 0.  1.
          2   -1    0    0  501    0  0.00000000000E+00 -0.00000000000E+00 -0.20239692364E+04  0.20239692364E+04  0.00000000000E+00 0. -1.
         24    2    1    2    0    0  0.89139784411E+03 -0.16254517931E+03  0.53757559571E+01  0.90986137348E+03  0.82509201838E+02 0.  0.
        254    2    1    2    0    0 -0.89139784411E+03  0.16254517931E+03 -0.13547384242E+04  0.17887144311E+04  0.73700208031E+03 0.  0.
         23    2    4    4    0    0 -0.43969807207E+03 -0.54193648331E+02 -0.14078609348E+03  0.47308231598E+03  0.87833976737E+02 0.  0.
         23    2    4    4    0    0 -0.45169977204E+03  0.21673882764E+03 -0.12139523307E+04  0.13156321151E+04  0.78734984218E+02 0.  0.
          4    1    3    3  502    0  0.39015912393E+03 -0.62581004164E+02 -0.37695323933E+02  0.39694012333E+03  0.00000000000E+00 0. -1.
         -3    1    3    3    0  502  0.50123872018E+03 -0.99964175145E+02  0.43071079890E+02  0.51292125014E+03  0.00000000000E+00 0.  1.
         11    1    5    5    0    0 -0.43767874491E+03 -0.42451916153E+02 -0.13687944910E+03  0.46054406143E+03  0.00000000000E+00 0. -1.
        -11    1    5    5    0    0 -0.20193271577E+01 -0.11741732178E+02 -0.39066443767E+01  0.12538254543E+02  0.00000000000E+00 0.  1.
          2    1    6    6  503    0 -0.32548787865E+03  0.19059629487E+03 -0.94091178798E+03  0.10136983277E+04  0.00000000000E+00 0. -1.
         -2    1    6    6    0  503 -0.12621189339E+03  0.26142532769E+02 -0.27304054271E+03  0.30193378747E+03  0.00000000000E+00 0.  1.
<mgrwt>
<rscale>  0 0.23369920E+04</rscale>
<asrwt>0</asrwt>
<pdfrwt beam="1">  1        2 0.31137988E+00 0.23369920E+04</pdfrwt>
<pdfrwt beam="2">  1       -1 0.10378563E+00 0.23369920E+04</pdfrwt>
<totfact> 0.58293106E+00</totfact>
</mgrwt>
</event>
<event>
12    6  0.1530859E-007  0.1814869E+04  0.7818608E-02  0.8698432E-01
          2   -1    0    0  501    0  0.00000000000E+00  0.00000000000E+00  0.74491148134E+03  0.74491148134E+03  0.00000000000E+00 0. -1.
         -1   -1    0    0    0  501 -0.00000000000E+00 -0.00000000000E+00 -0.11054168874E+04  0.11054168874E+04  0.00000000000E+00 0.  1.
         24    2    1    2    0    0  0.21484904915E+03 -0.14449307491E+03  0.51015342731E+03  0.57760697287E+03  0.79592292939E+02 0.  0.
        254    2    1    2    0    0 -0.21484904915E+03  0.14449307491E+03 -0.87065883342E+03  0.12727213959E+04  0.89147887514E+03 0.  0.
         23    2    4    4    0    0 -0.15399178733E+03  0.41123945172E+03 -0.11390805967E+03  0.46296374289E+03  0.92352714948E+02 0.  0.
         23    2    4    4    0    0 -0.60857261818E+02 -0.26674637681E+03 -0.75675077374E+03  0.80975765303E+03  0.90434988953E+02 0.  0.
          2    1    3    3  502    0  0.16926409683E+03 -0.14739911286E+03  0.43908673292E+03  0.49312675041E+03  0.00000000000E+00 0. -1.
         -1    1    3    3    0  502  0.45584952317E+02  0.29060379566E+01  0.71066694392E+02  0.84480222456E+02  0.00000000000E+00 0.  1.
         11    1    5    5    0    0 -0.28904999849E+02  0.20589388772E+03 -0.62260615290E+02  0.21703496546E+03  0.00000000000E+00 0. -1.
        -11    1    5    5    0    0 -0.12508678748E+03  0.20534556400E+03 -0.51647444382E+02  0.24592877743E+03  0.00000000000E+00 0.  1.
          2    1    6    6  503    0 -0.62261529449E+02 -0.82343943227E+02 -0.29527379207E+03  0.31279967282E+03  0.00000000000E+00 0. -1.
         -2    1    6    6    0  503  0.14042676309E+01 -0.18440243358E+03 -0.46147698168E+03  0.49695798021E+03  0.00000000000E+00 0.  1.
<mgrwt>
<rscale>  0 0.18148694E+04</rscale>
<asrwt>0</asrwt>
<pdfrwt beam="1">  1        2 0.11460177E+00 0.18148694E+04</pdfrwt>
<pdfrwt beam="2">  1       -1 0.17006414E+00 0.18148694E+04</pdfrwt>
<totfact> 0.10010443E+01</totfact>
</mgrwt>
</event>
<event>
12    6  0.2189452E-007  0.2325507E+04  0.7818608E-02  0.8467931E-01
          2   -1    0    0  501    0  0.00000000000E+00  0.00000000000E+00  0.16309305786E+04  0.16309305786E+04  0.00000000000E+00 0. -1.
         -1   -1    0    0    0  501 -0.00000000000E+00 -0.00000000000E+00 -0.82897209712E+03  0.82897209712E+03  0.00000000000E+00 0.  1.
         24    2    1    2    0    0 -0.74756827697E+03  0.27389986923E+03  0.91760091594E+03  0.12176395758E+04  0.82311776856E+02 0.  0.
        254    2    1    2    0    0  0.74756827697E+03 -0.27389986923E+03 -0.11564243447E+03  0.12422630999E+04  0.94655426128E+03 0.  0.
         23    2    4    4    0    0  0.72893044868E+03 -0.24984400181E+03 -0.44945730796E+03  0.89692349960E+03  0.93264506605E+02 0.  0.
         23    2    4    4    0    0  0.18637828288E+02 -0.24055867414E+02  0.33381487350E+03  0.34533960027E+03  0.83072356105E+02 0.  0.
          4    1    3    3  502    0 -0.68364595791E+03  0.25415871811E+03  0.87129493006E+03  0.11362760690E+04  0.00000000000E+00 0. -1.
         -3    1    3    3    0  502 -0.63922319060E+02  0.19741151114E+02  0.46305985879E+02  0.81363506866E+02  0.00000000000E+00 0.  1.
         11    1    5    5    0    0  0.83255441143E+02 -0.45843159549E+02 -0.26967368269E+02  0.98794244309E+02  0.00000000000E+00 0. -1.
        -11    1    5    5    0    0  0.64567500754E+03 -0.20400084226E+03 -0.42248993969E+03  0.79812925529E+03  0.00000000000E+00 0.  1.
          3    1    6    6  503    0  0.51881649905E+01 -0.25244406078E+02  0.23955279044E+02  0.35185970049E+02  0.00000000000E+00 0. -1.
         -3    1    6    6    0  503  0.13449663298E+02  0.11885386640E+01  0.30985959445E+03  0.31015363022E+03  0.00000000000E+00 0.  1.
<mgrwt>
<rscale>  0 0.23255072E+04</rscale>
<asrwt>0</asrwt>
<pdfrwt beam="1">  1        2 0.25091240E+00 0.23255072E+04</pdfrwt>
<pdfrwt beam="2">  1       -1 0.12753417E+00 0.23255072E+04</pdfrwt>
<totfact> 0.58764919E+00</totfact>
</mgrwt>
</event>
<event>
12    6  0.1530859E-007  0.1275437E+04  0.7818608E-02  0.9049274E-01
          2   -1    0    0  501    0  0.00000000000E+00  0.00000000000E+00  0.13151624173E+04  0.13151624173E+04  0.00000000000E+00 0. -1.
         -1   -1    0    0    0  501 -0.00000000000E+00 -0.00000000000E+00 -0.30922775337E+03  0.30922775337E+03  0.00000000000E+00 0.  1.
         24    2    1    2    0    0 -0.15473973402E+03  0.33242703695E+03  0.15332954125E+03  0.40537481766E+03  0.79791443093E+02 0.  0.
        254    2    1    2    0    0  0.15473973402E+03 -0.33242703695E+03  0.85260512272E+03  0.12190153531E+04  0.79032323483E+03 0.  0.
         23    2    4    4    0    0  0.43719279225E+03 -0.35541131303E+03  0.60330001179E+03  0.83069693173E+03  0.92907207098E+02 0.  0.
         23    2    4    4    0    0 -0.28245305822E+03  0.22984276077E+02  0.24930511093E+03  0.38831842132E+03  0.91269660669E+02 0.  0.
          2    1    3    3  502    0 -0.15541233825E+02  0.42473883842E+02 -0.73770712920E+01  0.45825559880E+02  0.00000000000E+00 0. -1.
         -1    1    3    3    0  502 -0.13919850020E+03  0.28995315311E+03  0.16070661254E+03  0.35954925778E+03  0.00000000000E+00 0.  1.
         11    1    5    5    0    0  0.22678028672E+03 -0.13066384427E+03  0.24796705840E+03  0.36054126073E+03  0.00000000000E+00 0.  1.
        -11    1    5    5    0    0  0.21041250553E+03 -0.22474746876E+03  0.35533295340E+03  0.47015567099E+03  0.00000000000E+00 0. -1.
          2    1    6    6  503    0 -0.22176194075E+03  0.26591025224E+02  0.14105349925E+03  0.26416194018E+03  0.00000000000E+00 0. -1.
         -2    1    6    6    0  503 -0.60691117471E+02 -0.36067491475E+01  0.10825161168E+03  0.12415648115E+03  0.00000000000E+00 0.  1.
<mgrwt>
<rscale>  0 0.12754367E+04</rscale>
<asrwt>0</asrwt>
<pdfrwt beam="1">  1        2 0.20233268E+00 0.12754367E+04</pdfrwt>
<pdfrwt beam="2">  1       -1 0.47573501E-01 0.12754367E+04</pdfrwt>
<totfact> 0.79939494E+01</totfact>
</mgrwt>
</event>
<event>
12    6  0.1530859E-007  0.1277159E+04  0.7818608E-02  0.9047877E-01
         -1   -1    0    0    0  501 -0.00000000000E+00  0.00000000000E+00  0.23286519081E+03  0.23286519081E+03  0.00000000000E+00 0.  1.
          2   -1    0    0  501    0  0.00000000000E+00 -0.00000000000E+00 -0.17511584360E+04  0.17511584360E+04  0.00000000000E+00 0. -1.
         24    2    1    2    0    0 -0.28811381905E+03  0.12242932446E+03 -0.33507412089E+03  0.46540346157E+03  0.79543719653E+02 0.  0.
        254    2    1    2    0    0  0.28811381905E+03 -0.12242932446E+03 -0.11832191243E+04  0.15186201652E+04  0.89900011009E+03 0.  0.
         23    2    4    4    0    0  0.45033823656E+03  0.25609530399E+03 -0.72474692229E+03  0.89559147791E+03  0.91851303224E+02 0.  0.
         23    2    4    4    0    0 -0.16222441751E+03 -0.37852462845E+03 -0.45847220202E+03  0.62302868734E+03  0.91489503463E+02 0.  0.
          4    1    3    3  502    0 -0.23777850998E+03  0.10573550716E+03 -0.31526847328E+03  0.40879435848E+03  0.00000000000E+00 0. -1.
         -3    1    3    3    0  502 -0.50335309069E+02  0.16693817297E+02 -0.19805647610E+02  0.56609103086E+02  0.00000000000E+00 0.  1.
         11    1    5    5    0    0  0.33352358344E+03  0.23224685251E+03 -0.54364818846E+03  0.67877089952E+03  0.00000000000E+00 0. -1.
        -11    1    5    5    0    0  0.11681465311E+03  0.23848451478E+02 -0.18109873382E+03  0.21682057839E+03  0.00000000000E+00 0.  1.
          3    1    6    6  503    0 -0.16903901135E+03 -0.31943824629E+03 -0.37811911048E+03  0.52305739864E+03  0.00000000000E+00 0. -1.
         -3    1    6    6    0  503  0.68145938452E+01 -0.59086382154E+02 -0.80353091540E+02  0.99971288705E+02  0.00000000000E+00 0.  1.
<mgrwt>
<rscale>  0 0.12771591E+04</rscale>
<asrwt>0</asrwt>
<pdfrwt beam="1">  1        2 0.26940899E+00 0.12771591E+04</pdfrwt>
<pdfrwt beam="2">  1       -1 0.35825414E-01 0.12771591E+04</pdfrwt>
<totfact> 0.76440346E+01</totfact>
</mgrwt>
</event>
<event>
12    6  0.1530859E-007  0.2209074E+04  0.7818608E-02  0.8514661E-01
         -1   -1    0    0    0  501 -0.00000000000E+00  0.00000000000E+00  0.10100436784E+04  0.10100436784E+04  0.00000000000E+00 0.  1.
          2   -1    0    0  501    0  0.00000000000E+00 -0.00000000000E+00 -0.12078704618E+04  0.12078704618E+04  0.00000000000E+00 0. -1.
         24    2    1    2    0    0  0.52921083449E+03  0.28619939370E+02  0.66694395298E+03  0.85643050020E+03  0.88180252808E+02 0.  0.
        254    2    1    2    0    0 -0.52921083449E+03 -0.28619939370E+02 -0.86477073631E+03  0.13614836400E+04  0.90825440670E+03 0.  0.
         23    2    4    4    0    0  0.11820721566E+03 -0.29473212049E+03 -0.38934500351E+03  0.51061603350E+03  0.91100127490E+02 0.  0.
         23    2    4    4    0    0 -0.64741805015E+03  0.26611218112E+03 -0.47542573280E+03  0.85086760648E+03  0.89332142855E+02 0.  0.
          4    1    3    3  502    0  0.14503905578E+03  0.26491439517E+02  0.13245983951E+03  0.19820124407E+03  0.00000000000E+00 0. -1.
         -3    1    3    3    0  502  0.38417177871E+03  0.21284998529E+01  0.53448411348E+03  0.65822925613E+03  0.00000000000E+00 0.  1.
         11    1    5    5    0    0  0.80062331570E+01 -0.12084738260E+03 -0.18047930088E+03  0.21734987393E+03  0.00000000000E+00 0.  1.
        -11    1    5    5    0    0  0.11020098251E+03 -0.17388473789E+03 -0.20886570263E+03  0.29326615957E+03  0.00000000000E+00 0. -1.
          3    1    6    6  503    0 -0.49509735540E+03  0.16773005729E+03 -0.37740517867E+03  0.64473981754E+03  0.00000000000E+00 0. -1.
         -3    1    6    6    0  503 -0.15232069475E+03  0.98382123832E+02 -0.98020554130E+02  0.20612778894E+03  0.00000000000E+00 0.  1.
<mgrwt>
<rscale>  0 0.22090739E+04</rscale>
<asrwt>0</asrwt>
<pdfrwt beam="1">  1        2 0.18582622E+00 0.22090739E+04</pdfrwt>
<pdfrwt beam="2">  1       -1 0.15539134E+00 0.22090739E+04</pdfrwt>
<totfact> 0.61830028E+00</totfact>
</mgrwt>
</event>
<event>
12    6  0.1530859E-007  0.1771976E+04  0.7818608E-02  0.8721346E-01
         -3   -1    0    0    0  501 -0.00000000000E+00  0.00000000000E+00  0.73689378991E+03  0.73689378991E+03  0.00000000000E+00 0.  1.
          4   -1    0    0  501    0  0.00000000000E+00 -0.00000000000E+00 -0.10652475630E+04  0.10652475630E+04  0.00000000000E+00 0. -1.
         24    2    1    2    0    0 -0.51984067650E+03  0.83364131626E+02  0.27730816115E+03  0.60032668714E+03  0.79425485020E+02 0.  0.
        254    2    1    2    0    0  0.51984067650E+03 -0.83364131626E+02 -0.60566193425E+03  0.12018146658E+04  0.89462182227E+03 0.  0.
         23    2    4    4    0    0 -0.12181820469E+03  0.11925060455E+03 -0.47167322838E+03  0.50998725389E+03  0.92471525741E+02 0.  0.
         23    2    4    4    0    0  0.64165888120E+03 -0.20261473618E+03 -0.13398870586E+03  0.69182741189E+03  0.88844490027E+02 0.  0.
          2    1    3    3  502    0 -0.90787412321E+02  0.26038346204E+01  0.18169758953E+02  0.92624372230E+02  0.00000000000E+00 0. -1.
         -1    1    3    3    0  502 -0.42905326418E+03  0.80760297006E+02  0.25913840219E+03  0.50770231491E+03  0.00000000000E+00 0.  1.
         11    1    5    5    0    0 -0.54971387902E+02  0.10650699234E+03 -0.35767173845E+03  0.37721965138E+03  0.00000000000E+00 0.  1.
        -11    1    5    5    0    0 -0.66846816790E+02  0.12743612213E+02 -0.11400148994E+03  0.13276760251E+03  0.00000000000E+00 0. -1.
          3    1    6    6  503    0  0.29781909691E+03 -0.87489624944E+02 -0.10657964344E+03  0.32819181793E+03  0.00000000000E+00 0. -1.
         -3    1    6    6    0  503  0.34383978428E+03 -0.11512511123E+03 -0.27409062422E+02  0.36363559396E+03  0.00000000000E+00 0.  1.
<mgrwt>
<rscale>  0 0.17719755E+04</rscale>
<asrwt>0</asrwt>
<pdfrwt beam="1">  1        4 0.16388424E+00 0.17719755E+04</pdfrwt>
<pdfrwt beam="2">  1       -3 0.11336828E+00 0.17719755E+04</pdfrwt>
<totfact> 0.32857369E-01</totfact>
</mgrwt>
</event>
<event>
12    6  0.1530859E-007  0.1578286E+04  0.7818608E-02  0.8834000E-01
         -1   -1    0    0    0  501 -0.00000000000E+00  0.00000000000E+00  0.54347058698E+03  0.54347058698E+03  0.00000000000E+00 0.  1.
          2   -1    0    0  501    0  0.00000000000E+00 -0.00000000000E+00 -0.11458699286E+04  0.11458699286E+04  0.00000000000E+00 0. -1.
         24    2    1    2    0    0 -0.10060923651E+03 -0.15152015710E+03  0.31239315135E+03  0.37061936217E+03  0.81784192431E+02 0.  0.
        254    2    1    2    0    0  0.10060923651E+03  0.15152015710E+03 -0.91479249299E+03  0.13187211534E+04  0.93225511466E+03 0.  0.
         23    2    4    4    0    0  0.54773214399E+01 -0.35977519845E+03 -0.18218377348E+03  0.41495222493E+03  0.97602393334E+02 0.  0.
         23    2    4    4    0    0  0.95131915071E+02  0.51129535555E+03 -0.73260871951E+03  0.90376892850E+03  0.98029170956E+02 0.  0.
          4    1    3    3  502    0  0.59184198782E+01 -0.37399366538E+01 -0.19812496414E+01  0.72759995994E+01  0.00000000000E+00 0. -1.
         -3    1    3    3    0  502 -0.10652765639E+03 -0.14778022044E+03  0.31437440099E+03  0.36334336257E+03  0.00000000000E+00 0.  1.
         11    1    5    5    0    0  0.26381928935E+02 -0.23372731681E+02 -0.11010561802E+02  0.36925915449E+02  0.00000000000E+00 0. -1.
        -11    1    5    5    0    0 -0.20904607495E+02 -0.33640246677E+03 -0.17117321168E+03  0.37802630948E+03  0.00000000000E+00 0.  1.
          1    1    6    6  503    0  0.11818950942E+02  0.22235757131E+03 -0.37914501290E+03  0.43969707519E+03  0.00000000000E+00 0. -1.
         -1    1    6    6    0  503  0.83312964129E+02  0.28893778424E+03 -0.35346370661E+03  0.46407185332E+03  0.00000000000E+00 0.  1.
<mgrwt>
<rscale>  0 0.15782859E+04</rscale>
<asrwt>0</asrwt>
<pdfrwt beam="1">  1        2 0.17628768E+00 0.15782859E+04</pdfrwt>
<pdfrwt beam="2">  1       -1 0.83610861E-01 0.15782859E+04</pdfrwt>
<totfact> 0.31742110E+01</totfact>
</mgrwt>
</event>
<event>
12    6  0.1530859E-007  0.1522995E+04  0.7818608E-02  0.8869304E-01
         -1   -1    0    0    0  501 -0.00000000000E+00  0.00000000000E+00  0.15150890093E+03  0.15150890093E+03  0.00000000000E+00 0.  1.
          2   -1    0    0  501    0  0.00000000000E+00 -0.00000000000E+00 -0.38273571158E+04  0.38273571158E+04  0.00000000000E+00 0. -1.
         24    2    1    2    0    0 -0.47615094429E+02  0.58048389877E+02  0.65089371479E+02  0.12793028171E+03  0.80577403253E+02 0.  0.
        254    2    1    2    0    0  0.47615094429E+02 -0.58048389877E+02 -0.37409375864E+04  0.38509357350E+04  0.91074430961E+03 0.  0.
         23    2    4    4    0    0  0.29537824067E+03  0.92287250020E+02 -0.49759978585E+03  0.59334891084E+03  0.93231655282E+02 0.  0.
         23    2    4    4    0    0 -0.24776314624E+03 -0.15033563990E+03 -0.32433378005E+04  0.32575868242E+04  0.92975521595E+02 0.  0.
          4    1    3    3  502    0  0.28789742344E+01  0.44737290196E+01 -0.16912523189E+02  0.17729528606E+02  0.00000000000E+00 0. -1.
         -3    1    3    3    0  502 -0.50494068663E+02  0.53574660858E+02  0.82001894668E+02  0.11020075311E+03  0.00000000000E+00 0.  1.
         11    1    5    5    0    0  0.70474123904E+02  0.62353270585E+02 -0.11568230404E+03  0.14912051489E+03  0.00000000000E+00 0. -1.
        -11    1    5    5    0    0  0.22490411676E+03  0.29933979436E+02 -0.38191748180E+03  0.44422839595E+03  0.00000000000E+00 0.  1.
          1    1    6    6  503    0 -0.28558264623E+02 -0.51906243430E+02 -0.90441770444E+03  0.90635600990E+03  0.00000000000E+00 0. -1.
         -1    1    6    6    0  503 -0.21920488161E+03 -0.98429396468E+02 -0.23389200961E+04  0.23512308143E+04  0.00000000000E+00 0.  1.
<mgrwt>
<rscale>  0 0.15229953E+04</rscale>
<asrwt>0</asrwt>
<pdfrwt beam="1">  1        2 0.58882416E+00 0.15229953E+04</pdfrwt>
<pdfrwt beam="2">  1       -1 0.23309062E-01 0.15229953E+04</pdfrwt>
<totfact> 0.82756307E+00</totfact>
</mgrwt>
</event>
<event>
12    6  0.1530859E-007  0.2256842E+04  0.7818608E-02  0.8495135E-01
         -1   -1    0    0    0  501 -0.00000000000E+00  0.00000000000E+00  0.33505338055E+03  0.33505338055E+03  0.00000000000E+00 0.  1.
          2   -1    0    0  501    0  0.00000000000E+00 -0.00000000000E+00 -0.38003907425E+04  0.38003907425E+04  0.00000000000E+00 0. -1.
         24    2    1    2    0    0 -0.53883328874E+03 -0.46615187551E+03 -0.22730259067E+04  0.23834184801E+04  0.79987466358E+02 0.  0.
        254    2    1    2    0    0  0.53883328874E+03  0.46615187551E+03 -0.11923114553E+04  0.17520256430E+04  0.10678709487E+04 0.  0.
         23    2    4    4    0    0  0.10689698857E+03  0.48811456750E+03 -0.30729089099E+02  0.50925568288E+03  0.93350289011E+02 0.  0.
         23    2    4    4    0    0  0.43193630017E+03 -0.21962691998E+02 -0.11615823662E+04  0.12427699601E+04  0.90289827815E+02 0.  0.
          4    1    3    3  502    0 -0.36727188338E+03 -0.31016218791E+03 -0.16517904619E+04  0.17203200135E+04  0.00000000000E+00 0. -1.
         -3    1    3    3    0  502 -0.17156140536E+03 -0.15598968760E+03 -0.62123544481E+03  0.66309846655E+03  0.00000000000E+00 0.  1.
         11    1    5    5    0    0  0.46668890251E+02  0.29620801983E+03  0.23959794157E+02  0.30081763257E+03  0.00000000000E+00 0.  1.
        -11    1    5    5    0    0  0.60228098318E+02  0.19190654768E+03 -0.54688883257E+02  0.20843805032E+03  0.00000000000E+00 0. -1.
          3    1    6    6  503    0  0.39215791578E+02  0.22443134485E+02 -0.91833576163E+02  0.10234734147E+03  0.00000000000E+00 0. -1.
         -3    1    6    6    0  503  0.39272050859E+03 -0.44405826483E+02 -0.10697487901E+04  0.11404226187E+04  0.00000000000E+00 0.  1.
<mgrwt>
<rscale>  0 0.22568418E+04</rscale>
<asrwt>0</asrwt>
<pdfrwt beam="1">  1        2 0.58467550E+00 0.22568418E+04</pdfrwt>
<pdfrwt beam="2">  1       -1 0.51546674E-01 0.22568418E+04</pdfrwt>
<totfact> 0.19331616E+00</totfact>
</mgrwt>
</event>
<event>
12    6  0.1530859E-007  0.1281562E+04  0.7818608E-02  0.9044316E-01
         -1   -1    0    0    0  501 -0.00000000000E+00  0.00000000000E+00  0.29267490650E+03  0.29267490650E+03  0.00000000000E+00 0.  1.
          2   -1    0    0  501    0  0.00000000000E+00 -0.00000000000E+00 -0.14029222093E+04  0.14029222093E+04  0.00000000000E+00 0. -1.
         24    2    1    2    0    0  0.24744382025E+03  0.70833848214E+02 -0.26145740705E+02  0.27243584141E+03  0.85392093864E+02 0.  0.
        254    2    1    2    0    0 -0.24744382025E+03 -0.70833848214E+02 -0.10841015621E+04  0.14231612744E+04  0.88536203770E+03 0.  0.
         23    2    4    4    0    0 -0.32649317376E+03 -0.10153922499E+03 -0.12013853840E+04  0.12523437338E+04  0.90166401348E+02 0.  0.
         23    2    4    4    0    0  0.79049353514E+02  0.30705376777E+02  0.11728382184E+03  0.17081754068E+03  0.90727707361E+02 0.  0.
          4    1    3    3  502    0  0.85840096466E+01  0.25034828118E+02  0.59215959996E+01  0.27119976764E+02  0.00000000000E+00 0. -1.
         -3    1    3    3    0  502  0.23885981060E+03  0.45799020096E+02 -0.32067336705E+02  0.24531586464E+03  0.00000000000E+00 0.  1.
         11    1    5    5    0    0 -0.26409666896E+03 -0.57038241697E+02 -0.82103596985E+03  0.86434974134E+03  0.00000000000E+00 0. -1.
        -11    1    5    5    0    0 -0.62396504800E+02 -0.44500983294E+02 -0.38034941414E+03  0.38799399243E+03  0.00000000000E+00 0.  1.
          4    1    6    6  503    0  0.33466998871E+01  0.46417858881E+02  0.38069957670E+02  0.60126031802E+02  0.00000000000E+00 0.  1.
         -4    1    6    6    0  503  0.75702653626E+02 -0.15712482104E+02  0.79213864173E+02  0.11069150888E+03  0.00000000000E+00 0. -1.
<mgrwt>
<rscale>  0 0.12815617E+04</rscale>
<asrwt>0</asrwt>
<pdfrwt beam="1">  1        2 0.21583419E+00 0.12815617E+04</pdfrwt>
<pdfrwt beam="2">  1       -1 0.45026908E-01 0.12815617E+04</pdfrwt>
<totfact> 0.78842319E+01</totfact>
</mgrwt>
</event>
<event>
12    6  0.1530859E-007  0.2332645E+04  0.7818608E-02  0.8465160E-01
         -1   -1    0    0    0  501 -0.00000000000E+00  0.00000000000E+00  0.19732822390E+04  0.19732822390E+04  0.00000000000E+00 0.  1.
          2   -1    0    0  501    0  0.00000000000E+00 -0.00000000000E+00 -0.68936328493E+03  0.68936328493E+03  0.00000000000E+00 0. -1.
         24    2    1    2    0    0  0.48184857826E+03 -0.55897255672E+03 -0.21721192106E+03  0.77341569493E+03  0.79764948285E+02 0.  0.
        254    2    1    2    0    0 -0.48184857826E+03  0.55897255672E+03  0.15011308751E+04  0.18892298290E+04  0.87816118738E+03 0.  0.
         23    2    4    4    0    0 -0.15874813231E+03 -0.46300150436E+02  0.10412641710E+04  0.10583154816E+04  0.91956028962E+02 0.  0.
         23    2    4    4    0    0 -0.32310044594E+03  0.60527270715E+03  0.45986670412E+03  0.83091434743E+03  0.90511430311E+02 0.  0.
          2    1    3    3  502    0  0.33314582847E+03 -0.32770943111E+03 -0.13334753352E+03  0.48596417457E+03  0.00000000000E+00 0. -1.
         -1    1    3    3    0  502  0.14870274979E+03 -0.23126312560E+03 -0.83864387541E+02  0.28745152036E+03  0.00000000000E+00 0.  1.
         11    1    5    5    0    0 -0.88508481589E+02 -0.49898991793E+02  0.81667726374E+03  0.82297351951E+03  0.00000000000E+00 0.  1.
        -11    1    5    5    0    0 -0.70239650725E+02  0.35988413569E+01  0.22458690728E+03  0.23534196208E+03  0.00000000000E+00 0. -1.
          1    1    6    6  503    0 -0.18280900860E+03  0.31989323715E+03  0.19388985082E+03  0.41634611930E+03  0.00000000000E+00 0. -1.
         -1    1    6    6    0  503 -0.14029143734E+03  0.28537947001E+03  0.26597685329E+03  0.41456822813E+03  0.00000000000E+00 0.  1.
<mgrwt>
<rscale>  0 0.23326451E+04</rscale>
<asrwt>0</asrwt>
<pdfrwt beam="1">  1        2 0.10605589E+00 0.23326451E+04</pdfrwt>
<pdfrwt beam="2">  1       -1 0.30358188E+00 0.23326451E+04</pdfrwt>
<totfact> 0.13495931E+00</totfact>
</mgrwt>
</event>
<event>
12    6  0.1530859E-007  0.1488988E+04  0.7818608E-02  0.8891809E-01
         -1   -1    0    0    0  501 -0.00000000000E+00  0.00000000000E+00  0.60406803796E+03  0.60406803796E+03  0.00000000000E+00 0.  1.
          2   -1    0    0  501    0  0.00000000000E+00 -0.00000000000E+00 -0.91756389994E+03  0.91756389994E+03  0.00000000000E+00 0. -1.
         24    2    1    2    0    0  0.41058716950E+03 -0.20646244521E+02 -0.32964484401E+03  0.53301530096E+03  0.80196612842E+02 0.  0.
        254    2    1    2    0    0 -0.41058716950E+03  0.20646244521E+02  0.16148982021E+02  0.98861663694E+03  0.89894047303E+03 0.  0.
         23    2    4    4    0    0 -0.58086036850E+03 -0.85841539169E+02  0.26902963015E+03  0.65243039776E+03  0.92308962053E+02 0.  0.
         23    2    4    4    0    0  0.17027319901E+03  0.10648778369E+03 -0.25288064813E+03  0.33618623918E+03  0.93487725618E+02 0.  0.
          4    1    3    3  502    0  0.76933839576E+02 -0.46816368194E+01 -0.10585991849E+03  0.13094676681E+03  0.00000000000E+00 0. -1.
         -3    1    3    3    0  502  0.33365332992E+03 -0.15964607702E+02 -0.22378492551E+03  0.40206853415E+03  0.00000000000E+00 0.  1.
         11    1    5    5    0    0 -0.17416198585E+03  0.94747039755E+00  0.44184702988E+02  0.17968189389E+03  0.00000000000E+00 0.  1.
        -11    1    5    5    0    0 -0.40669838265E+03 -0.86789009567E+02  0.22484492717E+03  0.47274850386E+03  0.00000000000E+00 0. -1.
          2    1    6    6  503    0  0.11955380636E+03  0.10135661581E+03 -0.13171001564E+03  0.20472861158E+03  0.00000000000E+00 0. -1.
         -2    1    6    6    0  503  0.50719392650E+02  0.51311678831E+01 -0.12117063249E+03  0.13145762760E+03  0.00000000000E+00 0.  1.
<mgrwt>
<rscale>  0 0.14889876E+04</rscale>
<asrwt>0</asrwt>
<pdfrwt beam="1">  1        2 0.14116368E+00 0.14889876E+04</pdfrwt>
<pdfrwt beam="2">  1       -1 0.92933544E-01 0.14889876E+04</pdfrwt>
<totfact> 0.35429708E+01</totfact>
</mgrwt>
</event>
<event>
12    6  0.1530859E-007  0.2079540E+04  0.7818608E-02  0.8570310E-01
          2   -1    0    0  501    0  0.00000000000E+00  0.00000000000E+00  0.10738236871E+04  0.10738236871E+04  0.00000000000E+00 0. -1.
         -1   -1    0    0    0  501 -0.00000000000E+00 -0.00000000000E+00 -0.10067965296E+04  0.10067965296E+04  0.00000000000E+00 0.  1.
         24    2    1    2    0    0 -0.56443311325E+02  0.28683785822E+03  0.81932635024E+03  0.87343553546E+03  0.78308122880E+02 0.  0.
        254    2    1    2    0    0  0.56443311325E+02 -0.28683785822E+03 -0.75229919273E+03  0.12071846813E+04  0.89770762222E+03 0.  0.
         23    2    4    4    0    0  0.85077690266E+02  0.29829359324E+03 -0.13192236455E+03  0.34942613886E+03  0.92075160053E+02 0.  0.
         23    2    4    4    0    0 -0.28634378941E+02 -0.58513145146E+03 -0.62037682818E+03  0.85775854241E+03  0.87655946670E+02 0.  0.
          4    1    3    3  502    0 -0.49485483532E+02  0.23875094105E+03  0.57896992801E+03  0.62821732106E+03  0.00000000000E+00 0. -1.
         -3    1    3    3    0  502 -0.69578277931E+01  0.48086917172E+02  0.24035642223E+03  0.24521821441E+03  0.00000000000E+00 0.  1.
         11    1    5    5    0    0  0.19314219348E+02  0.17596556932E+03 -0.11107708915E+03  0.20898574207E+03  0.00000000000E+00 0.  1.
        -11    1    5    5    0    0  0.65763470918E+02  0.12232802392E+03 -0.20845275408E+02  0.14044039679E+03  0.00000000000E+00 0. -1.
          2    1    6    6  503    0  0.22851548297E+02 -0.14864160954E+03 -0.12540558670E+03  0.19581389767E+03  0.00000000000E+00 0.  1.
         -2    1    6    6    0  503 -0.51485927238E+02 -0.43648984192E+03 -0.49497124148E+03  0.66194464474E+03  0.00000000000E+00 0. -1.
<mgrwt>
<rscale>  0 0.20795403E+04</rscale>
<asrwt>0</asrwt>
<pdfrwt beam="1">  1        2 0.16520364E+00 0.20795403E+04</pdfrwt>
<pdfrwt beam="2">  1       -1 0.15489177E+00 0.20795403E+04</pdfrwt>
<totfact> 0.76130911E+00</totfact>
</mgrwt>
</event>
<event>
12    6  0.1530859E-007  0.1877460E+04  0.7818608E-02  0.8666158E-01
          2   -1    0    0  501    0  0.00000000000E+00  0.00000000000E+00  0.99528891004E+03  0.99528891004E+03  0.00000000000E+00 0. -1.
         -1   -1    0    0    0  501 -0.00000000000E+00 -0.00000000000E+00 -0.88538496315E+03  0.88538496315E+03  0.00000000000E+00 0.  1.
         24    2    1    2    0    0  0.42829419791E+03 -0.49320654293E+03  0.34120200585E+03  0.74120950060E+03  0.79272321989E+02 0.  0.
        254    2    1    2    0    0 -0.42829419791E+03  0.49320654293E+03 -0.23129805896E+03  0.11394643726E+04  0.90453946867E+03 0.  0.
         23    2    4    4    0    0 -0.28082303925E+03  0.32247416251E+03 -0.57226922736E+03  0.72060990510E+03  0.94527254708E+02 0.  0.
         23    2    4    4    0    0 -0.14747115866E+03  0.17073238041E+03  0.34097116839E+03  0.41885446749E+03  0.90996917015E+02 0.  0.
          2    1    3    3  502    0  0.22798970940E+03 -0.31073894197E+03  0.22599765014E+03  0.44678063467E+03  0.00000000000E+00 0. -1.
         -1    1    3    3    0  502  0.20030448851E+03 -0.18246760095E+03  0.11520435571E+03  0.29442886593E+03  0.00000000000E+00 0.  1.
         11    1    5    5    0    0 -0.28478817753E+03  0.30824965281E+03 -0.56589094715E+03  0.70452446273E+03  0.00000000000E+00 0.  1.
        -11    1    5    5    0    0  0.39651382804E+01  0.14224509700E+02 -0.63782802126E+01  0.16085442371E+02  0.00000000000E+00 0. -1.
          2    1    6    6  503    0 -0.13207620147E+03  0.14173296024E+03  0.21831374212E+03  0.29187881905E+03  0.00000000000E+00 0.  1.
         -2    1    6    6    0  503 -0.15394957191E+02  0.28999420177E+02  0.12265742628E+03  0.12697564845E+03  0.00000000000E+00 0. -1.
<mgrwt>
<rscale>  0 0.18774598E+04</rscale>
<asrwt>0</asrwt>
<pdfrwt beam="1">  1        2 0.15312137E+00 0.18774598E+04</pdfrwt>
<pdfrwt beam="2">  1       -1 0.13621307E+00 0.18774598E+04</pdfrwt>
<totfact> 0.12223209E+01</totfact>
</mgrwt>
</event>
<event>
12    6  0.1530859E-007  0.1298191E+04  0.7818608E-02  0.9031001E-01
         -1   -1    0    0    0  501 -0.00000000000E+00  0.00000000000E+00  0.36279971156E+03  0.36279971156E+03  0.00000000000E+00 0.  1.
          2   -1    0    0  501    0  0.00000000000E+00 -0.00000000000E+00 -0.11613147522E+04  0.11613147522E+04  0.00000000000E+00 0. -1.
         24    2    1    2    0    0  0.69317941590E+02  0.29493752670E+03 -0.74169452031E+02  0.32053306095E+03  0.73805242779E+02 0.  0.
        254    2    1    2    0    0 -0.69317941590E+02 -0.29493752670E+03 -0.72434558856E+03  0.12035814028E+04  0.91221627903E+03 0.  0.
         23    2    4    4    0    0  0.13585332976E+03 -0.26845356551E+03  0.11443346365E+03  0.33486030329E+03  0.92265709106E+02 0.  0.
         23    2    4    4    0    0 -0.20517127135E+03 -0.26483961190E+02 -0.83877905221E+03  0.86872109947E+03  0.91265543674E+02 0.  0.
          4    1    3    3  502    0  0.41916311857E+02  0.49500596938E+02 -0.16385345486E+02  0.66901164740E+02  0.00000000000E+00 0. -1.
         -3    1    3    3    0  502  0.27401629733E+02  0.24543692976E+03 -0.57784106545E+02  0.25363189621E+03  0.00000000000E+00 0.  1.
         11    1    5    5    0    0 -0.10671113283E+02 -0.52082467361E+02  0.14699311980E+02  0.55159095694E+02  0.00000000000E+00 0. -1.
        -11    1    5    5    0    0  0.14652444304E+03 -0.21637109815E+03  0.99734151667E+02  0.27970120760E+03  0.00000000000E+00 0.  1.
          2    1    6    6  503    0 -0.25927348075E+02  0.26616364144E+02 -0.18731937977E+03  0.19096912906E+03  0.00000000000E+00 0. -1.
         -2    1    6    6    0  503 -0.17924392327E+03 -0.53100325333E+02 -0.65145967244E+03  0.67775197041E+03  0.00000000000E+00 0.  1.
<mgrwt>
<rscale>  0 0.12981905E+04</rscale>
<asrwt>0</asrwt>
<pdfrwt beam="1">  1        2 0.17866381E+00 0.12981905E+04</pdfrwt>
<pdfrwt beam="2">  1       -1 0.55815341E-01 0.12981905E+04</pdfrwt>
<totfact> 0.72516372E+01</totfact>
</mgrwt>
</event>
<event>
12    6  0.1530859E-007  0.2284791E+04  0.7818608E-02  0.8483942E-01
          2   -1    0    0  501    0  0.00000000000E+00  0.00000000000E+00  0.24778967199E+04  0.24778967199E+04  0.00000000000E+00 0. -1.
         -1   -1    0    0    0  501 -0.00000000000E+00 -0.00000000000E+00 -0.52668351614E+03  0.52668351614E+03  0.00000000000E+00 0.  1.
         24    2    1    2    0    0  0.79124995841E+03  0.47741773304E+03  0.46205872301E+03  0.10360932186E+04  0.77373804812E+02 0.  0.
        254    2    1    2    0    0 -0.79124995841E+03 -0.47741773304E+03  0.14891544808E+04  0.19684870174E+04  0.89630122261E+03 0.  0.
         23    2    4    4    0    0 -0.40348299277E+03  0.40615502778E+02  0.91808976693E+02  0.42589297688E+03  0.92237709391E+02 0.  0.
         23    2    4    4    0    0 -0.38776696563E+03 -0.51803323582E+03  0.13973455041E+04  0.15425940405E+04  0.91105779691E+02 0.  0.
          2    1    3    3  502    0  0.27796481267E+03  0.15344060204E+03  0.19786127230E+03  0.37410899282E+03  0.00000000000E+00 0. -1.
         -1    1    3    3    0  502  0.51328514574E+03  0.32397713101E+03  0.26419745071E+03  0.66198422580E+03  0.00000000000E+00 0.  1.
         11    1    5    5    0    0 -0.33630529893E+03  0.64966830859E+02  0.91114664593E+02  0.35443451483E+03  0.00000000000E+00 0.  1.
        -11    1    5    5    0    0 -0.67177693846E+02 -0.24351328081E+02  0.69431209987E+00  0.71458462054E+02  0.00000000000E+00 0. -1.
          1    1    6    6  503    0 -0.57799571174E+01 -0.41921826965E+02  0.73792188699E+02  0.85065472392E+02  0.00000000000E+00 0. -1.
         -1    1    6    6    0  503 -0.38198700852E+03 -0.47611140885E+03  0.13235533154E+04  0.14575285681E+04  0.00000000000E+00 0.  1.
<mgrwt>
<rscale>  0 0.22847909E+04</rscale>
<asrwt>0</asrwt>
<pdfrwt beam="1">  1        2 0.38121487E+00 0.22847909E+04</pdfrwt>
<pdfrwt beam="2">  1       -1 0.81028234E-01 0.22847909E+04</pdfrwt>
<totfact> 0.56206502E+00</totfact>
</mgrwt>
</event>
<event>
12    6  0.1530859E-007  0.1650455E+04  0.7818608E-02  0.8790138E-01
          2   -1    0    0  501    0  0.00000000000E+00  0.00000000000E+00  0.32864767540E+03  0.32864767540E+03  0.00000000000E+00 0. -1.
         -1   -1    0    0    0  501 -0.00000000000E+00 -0.00000000000E+00 -0.20721283994E+04  0.20721283994E+04  0.00000000000E+00 0.  1.
         24    2    1    2    0    0  0.31715507018E+03  0.26782627681E+03 -0.11901301939E+04  0.12630095676E+04  0.80405449372E+02 0.  0.
        254    2    1    2    0    0 -0.31715507018E+03 -0.26782627681E+03 -0.55335053007E+03  0.11377665072E+04  0.90332583415E+03 0.  0.
         23    2    4    4    0    0 -0.46403858246E+03 -0.26062195354E+03  0.17665531871E+02  0.54115472358E+03  0.96336676057E+02 0.  0.
         23    2    4    4    0    0  0.14688351228E+03 -0.72043232748E+01 -0.57101606194E+03  0.59661178361E+03  0.90882390438E+02 0.  0.
          4    1    3    3  502    0  0.15242641844E+02  0.20688055061E+01 -0.17414933541E+02  0.23235705215E+02  0.00000000000E+00 0. -1.
         -1    1    3    3    0  502  0.30191242834E+03  0.26575747130E+03 -0.11727152604E+04  0.12397738624E+04  0.00000000000E+00 0.  1.
         11    1    5    5    0    0 -0.54029185446E+02 -0.60871881585E+02  0.24585728203E+02  0.85023507802E+02  0.00000000000E+00 0.  1.
        -11    1    5    5    0    0 -0.41000939702E+03 -0.19975007195E+03 -0.69201963325E+01  0.45613121577E+03  0.00000000000E+00 0. -1.
          2    1    6    6  503    0  0.15128484865E+03 -0.26060511164E+02 -0.50666064924E+03  0.52940652542E+03  0.00000000000E+00 0. -1.
         -2    1    6    6    0  503 -0.44013363714E+01  0.18856187890E+02 -0.64355412705E+02  0.67205258188E+02  0.00000000000E+00 0.  1.
<mgrwt>
<rscale>  0 0.16504547E+04</rscale>
<asrwt>0</asrwt>
<pdfrwt beam="1">  1        2 0.50561182E-01 0.16504547E+04</pdfrwt>
<pdfrwt beam="2">  1       -1 0.31878898E+00 0.16504547E+04</pdfrwt>
<totfact> 0.27081512E+00</totfact>
</mgrwt>
</event>
<event>
12    6  0.1530859E-007  0.1613325E+04  0.7818608E-02  0.8812404E-01
         -1   -1    0    0    0  501 -0.00000000000E+00  0.00000000000E+00  0.32637773956E+03  0.32637773956E+03  0.00000000000E+00 0.  1.
          2   -1    0    0  501    0  0.00000000000E+00 -0.00000000000E+00 -0.19937151609E+04  0.19937151609E+04  0.00000000000E+00 0. -1.
         24    2    1    2    0    0 -0.21261161669E+03 -0.12357298656E+03  0.13438501432E+03  0.29147817487E+03  0.80163656293E+02 0.  0.
        254    2    1    2    0    0  0.21261161669E+03  0.12357298656E+03 -0.18017224357E+04  0.20286147256E+04  0.89922187871E+03 0.  0.
         23    2    4    4    0    0  0.12339223185E+03  0.22451156523E+02  0.54831602978E+02  0.16490999131E+03  0.91973383317E+02 0.  0.
         23    2    4    4    0    0  0.89219384849E+02  0.10112183004E+03 -0.18565540387E+04  0.18637047343E+04  0.91742656582E+02 0.  0.
          2    1    3    3  502    0 -0.15373082358E+03 -0.98758485645E+02  0.57596381227E+02  0.19158222187E+03  0.00000000000E+00 0. -1.
         -1    1    3    3    0  502 -0.58880793114E+02 -0.24814500916E+02  0.76788633096E+02  0.99895953002E+02  0.00000000000E+00 0.  1.
         11    1    5    5    0    0  0.10807805586E+03  0.41170278613E+02  0.12725206903E+02  0.11635200424E+03  0.00000000000E+00 0. -1.
        -11    1    5    5    0    0  0.15314175988E+02 -0.18719122090E+02  0.42106396075E+02  0.48557987071E+02  0.00000000000E+00 0.  1.
          3    1    6    6  503    0  0.73624425232E+02  0.65621226953E+02 -0.16823140231E+04  0.16852024133E+04  0.00000000000E+00 0. -1.
         -3    1    6    6    0  503  0.15594959617E+02  0.35500603086E+02 -0.17424001552E+03  0.17850232098E+03  0.00000000000E+00 0.  1.
<mgrwt>
<rscale>  0 0.16133248E+04</rscale>
<asrwt>0</asrwt>
<pdfrwt beam="1">  1        2 0.30672541E+00 0.16133248E+04</pdfrwt>
<pdfrwt beam="2">  1       -1 0.50211960E-01 0.16133248E+04</pdfrwt>
<totfact> 0.29267080E+01</totfact>
</mgrwt>
</event>
<event>
12    6  0.1530859E-007  0.1649228E+04  0.7818608E-02  0.8790863E-01
         -1   -1    0    0    0  501 -0.00000000000E+00  0.00000000000E+00  0.83466406464E+03  0.83466406464E+03  0.00000000000E+00 0.  1.
          2   -1    0    0  501    0  0.00000000000E+00 -0.00000000000E+00 -0.81468517829E+03  0.81468517829E+03  0.00000000000E+00 0. -1.
         24    2    1    2    0    0 -0.85342689660E+02 -0.50023767569E+03 -0.25234898601E+03  0.57234395213E+03  0.79852876834E+02 0.  0.
        254    2    1    2    0    0  0.85342689660E+02  0.50023767569E+03  0.27232787237E+03  0.10770052908E+04  0.91008616048E+03 0.  0.
         23    2    4    4    0    0  0.27629189692E+03 -0.45658751100E+02 -0.17346848559E+03  0.34142478308E+03  0.89764320023E+02 0.  0.
         23    2    4    4    0    0 -0.19094920726E+03  0.54589642679E+03  0.44579635796E+03  0.73558050773E+03  0.88768136436E+02 0.  0.
          4    1    3    3  502    0 -0.62308827685E+02 -0.47493706506E+03 -0.22908170425E+03  0.53096707336E+03  0.00000000000E+00 0. -1.
         -3    1    3    3    0  502 -0.23033861975E+02 -0.25300610633E+02 -0.23267281759E+02  0.41376878766E+02  0.00000000000E+00 0.  1.
         11    1    5    5    0    0  0.61741009118E+02 -0.34433976246E+02 -0.98629530017E+01  0.71378769735E+02  0.00000000000E+00 0. -1.
        -11    1    5    5    0    0  0.21455088780E+03 -0.11224774855E+02 -0.16360553259E+03  0.27004601334E+03  0.00000000000E+00 0.  1.
          1    1    6    6  503    0 -0.74224845559E+02  0.20510901157E+03  0.11534202915E+03  0.24674443867E+03  0.00000000000E+00 0. -1.
         -1    1    6    6    0  503 -0.11672436170E+03  0.34078741522E+03  0.33045432880E+03  0.48883606906E+03  0.00000000000E+00 0.  1.
<mgrwt>
<rscale>  0 0.16492282E+04</rscale>
<asrwt>0</asrwt>
<pdfrwt beam="1">  1        2 0.12533618E+00 0.16492282E+04</pdfrwt>
<pdfrwt beam="2">  1       -1 0.12840986E+00 0.16492282E+04</pdfrwt>
<totfact> 0.19183371E+01</totfact>
</mgrwt>
</event>
<event>
12    6  0.1530859E-007  0.1563649E+04  0.7818608E-02  0.8843196E-01
         -1   -1    0    0    0  501 -0.00000000000E+00  0.00000000000E+00  0.34863085201E+03  0.34863085201E+03  0.00000000000E+00 0.  1.
          2   -1    0    0  501    0  0.00000000000E+00 -0.00000000000E+00 -0.17532855994E+04  0.17532855994E+04  0.00000000000E+00 0. -1.
         24    2    1    2    0    0  0.90452065488E+01 -0.12785710807E+03 -0.11502056020E+04  0.11603324325E+04  0.83481561723E+02 0.  0.
        254    2    1    2    0    0 -0.90452065488E+01  0.12785710807E+03 -0.25444914537E+03  0.94158401891E+03  0.89744461737E+03 0.  0.
         23    2    4    4    0    0  0.42089612546E+03 -0.46193787948E+02 -0.10011706240E+03  0.44411213270E+03  0.89021041091E+02 0.  0.
         23    2    4    4    0    0 -0.42994133201E+03  0.17405089601E+03 -0.15433208297E+03  0.49747188621E+03  0.92285547977E+02 0.  0.
          2    1    3    3  502    0  0.11132293493E+01 -0.10540233272E+03 -0.10968514274E+04  0.11019046896E+04  0.00000000000E+00 0. -1.
         -1    1    3    3    0  502  0.79319771995E+01 -0.22454775346E+02 -0.53354174532E+02  0.58427742881E+02  0.00000000000E+00 0.  1.
         11    1    5    5    0    0  0.15842936315E+03 -0.14040378567E+02 -0.82304784273E+02  0.17908398268E+03  0.00000000000E+00 0. -1.
        -11    1    5    5    0    0  0.26246676230E+03 -0.32153409380E+02 -0.17812278130E+02  0.26502815002E+03  0.00000000000E+00 0.  1.
          1    1    6    6  503    0 -0.83083441228E+02  0.46053755231E+02 -0.70684379535E+02  0.11840645290E+03  0.00000000000E+00 0. -1.
         -1    1    6    6    0  503 -0.34685789078E+03  0.12799714078E+03 -0.83647703434E+02  0.37906543331E+03  0.00000000000E+00 0.  1.
<mgrwt>
<rscale>  0 0.15636489E+04</rscale>
<asrwt>0</asrwt>
<pdfrwt beam="1">  1        2 0.26973624E+00 0.15636489E+04</pdfrwt>
<pdfrwt beam="2">  1       -1 0.53635517E-01 0.15636489E+04</pdfrwt>
<totfact> 0.35196939E+01</totfact>
</mgrwt>
</event>
<event>
12    6  0.1530859E-007  0.1693902E+04  0.7818608E-02  0.8764850E-01
          2   -1    0    0  501    0  0.00000000000E+00  0.00000000000E+00  0.53608344847E+03  0.53608344847E+03  0.00000000000E+00 0. -1.
         -1   -1    0    0    0  501 -0.00000000000E+00 -0.00000000000E+00 -0.13380861134E+04  0.13380861134E+04  0.00000000000E+00 0.  1.
         24    2    1    2    0    0 -0.59550405053E+03 -0.25561174637E+02 -0.39983093147E+03  0.72246650164E+03  0.82550738322E+02 0.  0.
        254    2    1    2    0    0  0.59550405053E+03  0.25561174637E+02 -0.40217173350E+03  0.11517030603E+04  0.89966626475E+03 0.  0.
         23    2    4    4    0    0  0.61648201009E+03  0.36819571050E+03 -0.27025537272E+03  0.77274577112E+03  0.92086428405E+02 0.  0.
         23    2    4    4    0    0 -0.20977959565E+02 -0.34263453587E+03 -0.13191636079E+03  0.37895728914E+03  0.91477870510E+02 0.  0.
          4    1    3    3  502    0 -0.27759886973E+03 -0.32110212635E+02 -0.23032408662E+03  0.36213448208E+03  0.00000000000E+00 0. -1.
         -3    1    3    3    0  502 -0.31790518080E+03  0.65490379981E+01 -0.16950684484E+03  0.36033201957E+03  0.00000000000E+00 0.  1.
         11    1    5    5    0    0  0.72991310346E+02  0.11935392714E+02 -0.32204061906E+02  0.80667754329E+02  0.00000000000E+00 0. -1.
        -11    1    5    5    0    0  0.54349069974E+03  0.35626031779E+03 -0.23805131081E+03  0.69207801679E+03  0.00000000000E+00 0.  1.
          2    1    6    6  503    0  0.30289385964E+02 -0.13680189425E+03 -0.76843373747E+02  0.15980334559E+03  0.00000000000E+00 0. -1.
         -2    1    6    6    0  503 -0.51267345529E+02 -0.20583264162E+03 -0.55072987038E+02  0.21915394355E+03  0.00000000000E+00 0.  1.
<mgrwt>
<rscale>  0 0.16939018E+04</rscale>
<asrwt>0</asrwt>
<pdfrwt beam="1">  1        2 0.82474378E-01 0.16939018E+04</pdfrwt>
<pdfrwt beam="2">  1       -1 0.20585940E+00 0.16939018E+04</pdfrwt>
<totfact> 0.84677554E+00</totfact>
</mgrwt>
</event>
<event>
12    6  0.1530859E-007  0.1459655E+04  0.7818608E-02  0.8911734E-01
         -1   -1    0    0    0  501 -0.00000000000E+00  0.00000000000E+00  0.39693854033E+03  0.39693854033E+03  0.00000000000E+00 0.  1.
          2   -1    0    0  501    0  0.00000000000E+00 -0.00000000000E+00 -0.13418911172E+04  0.13418911172E+04  0.00000000000E+00 0. -1.
         24    2    1    2    0    0 -0.28598441367E+03  0.35889923351E+03 -0.30195932732E+03  0.55489203111E+03  0.78294228095E+02 0.  0.
        254    2    1    2    0    0  0.28598441367E+03 -0.35889923351E+03 -0.64299324950E+03  0.11839376264E+04  0.88185726711E+03 0.  0.
         23    2    4    4    0    0  0.88214744705E+02 -0.54603551906E+03 -0.99322158147E+02  0.56917829150E+03  0.90346041145E+02 0.  0.
         23    2    4    4    0    0  0.19776966897E+03  0.18713628555E+03 -0.54367109136E+03  0.61475933487E+03  0.90652925496E+02 0.  0.
          2    1    3    3  502    0 -0.28077705431E+03  0.32249978251E+03 -0.26674145127E+03  0.50397704885E+03  0.00000000000E+00 0. -1.
         -1    1    3    3    0  502 -0.52073593684E+01  0.36399451005E+02 -0.35217876048E+02  0.50914982258E+02  0.00000000000E+00 0.  1.
         11    1    5    5    0    0  0.74471274765E+02 -0.33783585720E+03 -0.21951082172E+02  0.34664230438E+03  0.00000000000E+00 0. -1.
        -11    1    5    5    0    0  0.13743469940E+02 -0.20819966186E+03 -0.77371075975E+02  0.22253598712E+03  0.00000000000E+00 0.  1.
          2    1    6    6  503    0  0.30678389045E+02  0.58400852774E+02 -0.20898457603E+03  0.21914920985E+03  0.00000000000E+00 0. -1.
         -2    1    6    6    0  503  0.16709127992E+03  0.12873543278E+03 -0.33468651533E+03  0.39561012503E+03  0.00000000000E+00 0.  1.
<mgrwt>
<rscale>  0 0.14596552E+04</rscale>
<asrwt>0</asrwt>
<pdfrwt beam="1">  1        2 0.20644479E+00 0.14596552E+04</pdfrwt>
<pdfrwt beam="2">  1       -1 0.61067467E-01 0.14596552E+04</pdfrwt>
<totfact> 0.46951232E+01</totfact>
</mgrwt>
</event>
<event>
12    6  0.1530859E-007  0.1766870E+04  0.7818608E-02  0.8724119E-01
         -1   -1    0    0    0  501 -0.00000000000E+00  0.00000000000E+00  0.55197932973E+03  0.55197932973E+03  0.00000000000E+00 0.  1.
          2   -1    0    0  501    0  0.00000000000E+00 -0.00000000000E+00 -0.14139252979E+04  0.14139252979E+04  0.00000000000E+00 0. -1.
         24    2    1    2    0    0  0.16947839151E+03  0.17212477972E+02  0.37890426243E+03  0.42261305953E+03  0.77551037447E+02 0.  0.
        254    2    1    2    0    0 -0.16947839151E+03 -0.17212477972E+02 -0.12408502306E+04  0.15432915681E+04  0.90167642469E+03 0.  0.
         23    2    4    4    0    0 -0.29923103059E+03 -0.32297009747E+01 -0.13268164037E+04  0.13631882740E+04  0.91054162578E+02 0.  0.
         23    2    4    4    0    0  0.12975263908E+03 -0.13982776997E+02  0.85966173136E+02  0.18010329411E+03  0.89530711059E+02 0.  0.
          4    1    3    3  502    0  0.20279172292E+02 -0.24889185398E+02  0.68419467915E+02  0.75577377359E+02  0.00000000000E+00 0. -1.
         -3    1    3    3    0  502  0.14919921922E+03  0.42101663370E+02  0.31048479451E+03  0.34703568217E+03  0.00000000000E+00 0.  1.
         11    1    5    5    0    0 -0.10624070152E+03  0.42335776961E+02 -0.50461858546E+03  0.51741600425E+03  0.00000000000E+00 0.  1.
        -11    1    5    5    0    0 -0.19299032907E+03 -0.45565477936E+02 -0.82219781829E+03  0.84577226976E+03  0.00000000000E+00 0. -1.
          4    1    6    6  503    0  0.12821949285E+03  0.97060834214E+01  0.88694340140E+02  0.15620861812E+03  0.00000000000E+00 0. -1.
         -4    1    6    6    0  503  0.15331462345E+01 -0.23688860419E+02 -0.27281670047E+01  0.23894675987E+02  0.00000000000E+00 0.  1.
<mgrwt>
<rscale>  0 0.17668702E+04</rscale>
<asrwt>0</asrwt>
<pdfrwt beam="1">  1        2 0.21752697E+00 0.17668702E+04</pdfrwt>
<pdfrwt beam="2">  1       -1 0.84919897E-01 0.17668702E+04</pdfrwt>
<totfact> 0.21027085E+01</totfact>
</mgrwt>
</event>
<event>
12    6  0.1530859E-007  0.1059905E+04  0.7818608E-02  0.9245177E-01
          2   -1    0    0  501    0  0.00000000000E+00  0.00000000000E+00  0.24953051784E+04  0.24953051784E+04  0.00000000000E+00 0. -1.
         -1   -1    0    0    0  501 -0.00000000000E+00 -0.00000000000E+00 -0.11255116518E+03  0.11255116518E+03  0.00000000000E+00 0.  1.
         24    2    1    2    0    0 -0.38486001113E+02 -0.25988531034E+02  0.62728603413E+03  0.63399516973E+03  0.79407371177E+02 0.  0.
        254    2    1    2    0    0  0.38486001113E+02  0.25988531034E+02  0.17554679790E+04  0.19738611738E+04  0.90127883142E+03 0.  0.
         23    2    4    4    0    0 -0.13079267381E+03 -0.40114781717E+03  0.76547833980E+03  0.87867521764E+03  0.89926384586E+02 0.  0.
         23    2    4    4    0    0  0.16927867493E+03  0.42713634821E+03  0.98998963925E+03  0.10951859562E+04  0.90840866476E+02 0.  0.
          4    1    3    3  502    0 -0.57503273978E+02 -0.35798662016E+02  0.53442591694E+03  0.53870143068E+03  0.00000000000E+00 0. -1.
         -3    1    3    3    0  502  0.19017272865E+02  0.98101309822E+01  0.92860117192E+02  0.95293739050E+02  0.00000000000E+00 0.  1.
         11    1    5    5    0    0  0.32588640966E+01 -0.24691495860E+02  0.16855441265E+02  0.30073178469E+02  0.00000000000E+00 0.  1.
        -11    1    5    5    0    0 -0.13405153791E+03 -0.37645632131E+03  0.74862289853E+03  0.84860203917E+03  0.00000000000E+00 0. -1.
          1    1    6    6  503    0  0.91908419631E+02  0.22878843108E+03  0.42398762334E+03  0.49046590967E+03  0.00000000000E+00 0. -1.
         -1    1    6    6    0  503  0.77370255295E+02  0.19834791713E+03  0.56600201590E+03  0.60472004650E+03  0.00000000000E+00 0.  1.
<mgrwt>
<rscale>  0 0.10599047E+04</rscale>
<asrwt>0</asrwt>
<pdfrwt beam="1">  1        2 0.38389306E+00 0.10599047E+04</pdfrwt>
<pdfrwt beam="2">  1       -1 0.17315566E-01 0.10599047E+04</pdfrwt>
<totfact> 0.10426937E+02</totfact>
</mgrwt>
</event>
<event>
12    6  0.1530859E-007  0.2289261E+04  0.7818608E-02  0.8482168E-01
          2   -1    0    0  501    0  0.00000000000E+00  0.00000000000E+00  0.14462559702E+04  0.14462559702E+04  0.00000000000E+00 0. -1.
         -1   -1    0    0    0  501 -0.00000000000E+00 -0.00000000000E+00 -0.90591053060E+03  0.90591053060E+03  0.00000000000E+00 0.  1.
         24    2    1    2    0    0  0.58133975628E+03 -0.66890484461E+03  0.63333931375E+03  0.10921339646E+04  0.79046232893E+02 0.  0.
        254    2    1    2    0    0 -0.58133975628E+03  0.66890484461E+03 -0.92993874163E+02  0.12600325362E+04  0.89086728992E+03 0.  0.
         23    2    4    4    0    0 -0.56845756992E+02  0.41513844840E+03 -0.40761488386E+03  0.59146146150E+03  0.90029969818E+02 0.  0.
         23    2    4    4    0    0 -0.52449399929E+03  0.25376639621E+03  0.31462100970E+03  0.66857107469E+03  0.92247292808E+02 0.  0.
          4    1    3    3  502    0  0.51512069589E+03 -0.55045400662E+03  0.54379644352E+03  0.92955016902E+03  0.00000000000E+00 0. -1.
         -3    1    3    3    0  502  0.66219060396E+02 -0.11845083799E+03  0.89542870223E+02  0.16258379559E+03  0.00000000000E+00 0.  1.
         11    1    5    5    0    0 -0.19586004581E+02  0.36645183957E+03 -0.35672245527E+03  0.51178264175E+03  0.00000000000E+00 0. -1.
        -11    1    5    5    0    0 -0.37259752411E+02  0.48686608826E+02 -0.50892428593E+02  0.79678819750E+02  0.00000000000E+00 0.  1.
          4    1    6    6  503    0 -0.53674746036E+01 -0.62620110017E+01  0.10696994686E+00  0.82482730299E+01  0.00000000000E+00 0.  1.
         -4    1    6    6    0  503 -0.51912652469E+03  0.26002840721E+03  0.31451403975E+03  0.66032280166E+03  0.00000000000E+00 0. -1.
<mgrwt>
<rscale>  0 0.22892606E+04</rscale>
<asrwt>0</asrwt>
<pdfrwt beam="1">  1        2 0.22250092E+00 0.22892606E+04</pdfrwt>
<pdfrwt beam="2">  1       -1 0.13937085E+00 0.22892606E+04</pdfrwt>
<totfact> 0.59707531E+00</totfact>
</mgrwt>
</event>
<event>
12    6  0.1530859E-007  0.1693946E+04  0.7818608E-02  0.8764825E-01
          2   -1    0    0  501    0  0.00000000000E+00  0.00000000000E+00  0.84693862695E+03  0.84693862695E+03  0.00000000000E+00 0. -1.
         -1   -1    0    0    0  501 -0.00000000000E+00 -0.00000000000E+00 -0.84700712170E+03  0.84700712170E+03  0.00000000000E+00 0.  1.
         24    2    1    2    0    0  0.56632786208E+03  0.19586442088E+03  0.10632037326E+03  0.61439423963E+03  0.84179220576E+02 0.  0.
        254    2    1    2    0    0 -0.56632786208E+03 -0.19586442088E+03 -0.10638886801E+03  0.10795515090E+04  0.89164048285E+03 0.  0.
         23    2    4    4    0    0  0.17271964518E+03  0.14113736670E+03  0.54069697451E+02  0.24650269737E+03  0.89934506814E+02 0.  0.
         23    2    4    4    0    0 -0.73904750727E+03 -0.33700178758E+03 -0.16045856546E+03  0.83304881166E+03  0.91988850081E+02 0.  0.
          4    1    3    3  502    0  0.44108916063E+03  0.16360485714E+03  0.11651327196E+03  0.48466642080E+03  0.00000000000E+00 0. -1.
         -3    1    3    3    0  502  0.12523870145E+03  0.32259563743E+02 -0.10192898699E+02  0.12972781883E+03  0.00000000000E+00 0.  1.
         11    1    5    5    0    0  0.56047889742E+02  0.10142002909E+03  0.13050828520E+02  0.11660922935E+03  0.00000000000E+00 0.  1.
        -11    1    5    5    0    0  0.11667175544E+03  0.39717337609E+02  0.41018868931E+02  0.12989346802E+03  0.00000000000E+00 0. -1.
          4    1    6    6  503    0 -0.71686493286E+03 -0.31284125310E+03 -0.14055484985E+03  0.79468273381E+03  0.00000000000E+00 0. -1.
         -4    1    6    6    0  503 -0.22182574408E+02 -0.24160534475E+02 -0.19903715618E+02  0.38366077840E+02  0.00000000000E+00 0.  1.
<mgrwt>
<rscale>  0 0.16939457E+04</rscale>
<asrwt>0</asrwt>
<pdfrwt beam="1">  1        2 0.13029825E+00 0.16939457E+04</pdfrwt>
<pdfrwt beam="2">  1       -1 0.13030879E+00 0.16939457E+04</pdfrwt>
<totfact> 0.17474879E+01</totfact>
</mgrwt>
</event>
<event>
12    6  0.1530859E-007  0.1487784E+04  0.7818608E-02  0.8892617E-01
          2   -1    0    0  501    0  0.00000000000E+00  0.00000000000E+00  0.43894538901E+04  0.43894538901E+04  0.00000000000E+00 0. -1.
         -1   -1    0    0    0  501 -0.00000000000E+00 -0.00000000000E+00 -0.12606929384E+03  0.12606929384E+03  0.00000000000E+00 0.  1.
         24    2    1    2    0    0 -0.65785025931E+02  0.47027081392E+02 -0.39069677391E+02  0.11956423848E+03  0.78930041242E+02 0.  0.
        254    2    1    2    0    0  0.65785025931E+02 -0.47027081392E+02  0.43024542736E+04  0.43959589454E+04  0.89822216476E+03 0.  0.
         23    2    4    4    0    0  0.29270781085E+03 -0.32770533818E+03  0.32164805080E+04  0.32476222285E+04  0.90744860129E+02 0.  0.
         23    2    4    4    0    0 -0.22692278492E+03  0.28067825679E+03  0.10859737656E+04  0.11483367169E+04  0.95204840365E+02 0.  0.
          4    1    3    3  502    0  0.69994305847E+01  0.26318976017E+01  0.16281401968E+02  0.17916555571E+02  0.00000000000E+00 0. -1.
         -3    1    3    3    0  502 -0.72784456516E+02  0.44395183790E+02 -0.55351079360E+02  0.10164768291E+03  0.00000000000E+00 0.  1.
         11    1    5    5    0    0  0.28774365027E+03 -0.30504249760E+03  0.28832477694E+04  0.29135828516E+04  0.00000000000E+00 0.  1.
        -11    1    5    5    0    0  0.49641605795E+01 -0.22662840580E+02  0.33323273862E+03  0.33403937690E+03  0.00000000000E+00 0. -1.
          2    1    6    6  503    0 -0.18588828766E+03  0.15865226583E+03  0.72675060303E+03  0.76674078798E+03  0.00000000000E+00 0. -1.
         -2    1    6    6    0  503 -0.41034497262E+02  0.12202599095E+03  0.35922316260E+03  0.38159592894E+03  0.00000000000E+00 0.  1.
<mgrwt>
<rscale>  0 0.14877841E+04</rscale>
<asrwt>0</asrwt>
<pdfrwt beam="1">  1        2 0.67530048E+00 0.14877841E+04</pdfrwt>
<pdfrwt beam="2">  1       -1 0.19395279E-01 0.14877841E+04</pdfrwt>
<totfact> 0.38498288E+00</totfact>
</mgrwt>
</event>
<event>
12    6  0.1530859E-007  0.1940197E+04  0.7818608E-02  0.8635103E-01
          2   -1    0    0  501    0  0.00000000000E+00  0.00000000000E+00  0.12775983737E+04  0.12775983737E+04  0.00000000000E+00 0. -1.
         -1   -1    0    0    0  501 -0.00000000000E+00 -0.00000000000E+00 -0.73660937326E+03  0.73660937326E+03  0.00000000000E+00 0.  1.
         24    2    1    2    0    0  0.55200527601E+03 -0.38182414623E+03  0.58455264335E+03  0.89506895852E+03  0.94589345487E+02 0.  0.
        254    2    1    2    0    0 -0.55200527601E+03  0.38182414623E+03 -0.43563642943E+02  0.11191387884E+04  0.89446874362E+03 0.  0.
         23    2    4    4    0    0 -0.19723916790E+03  0.59360222715E+03  0.15702206307E+03  0.65127613471E+03  0.90762227391E+02 0.  0.
         23    2    4    4    0    0 -0.35476610811E+03 -0.21177808093E+03 -0.20058570601E+03  0.46786265368E+03  0.89173371767E+02 0.  0.
          4    1    3    3  502    0  0.36516599464E+03 -0.30195507862E+03  0.42866817544E+03  0.63896750917E+03  0.00000000000E+00 0. -1.
         -3    1    3    3    0  502  0.18683928137E+03 -0.79869067611E+02  0.15588446791E+03  0.25610144935E+03  0.00000000000E+00 0.  1.
         11    1    5    5    0    0 -0.45111041254E+01  0.10551030045E+03  0.87601291487E+01  0.10596939853E+03  0.00000000000E+00 0.  1.
        -11    1    5    5    0    0 -0.19272806378E+03  0.48809192670E+03  0.14826193392E+03  0.54530673618E+03  0.00000000000E+00 0. -1.
          1    1    6    6  503    0 -0.19515113167E+03 -0.90518644974E+02 -0.14641357369E+03  0.26022014495E+03  0.00000000000E+00 0. -1.
         -1    1    6    6    0  503 -0.15961497644E+03 -0.12125943595E+03 -0.54172132323E+02  0.20764250873E+03  0.00000000000E+00 0.  1.
<mgrwt>
<rscale>  0 0.19401968E+04</rscale>
<asrwt>0</asrwt>
<pdfrwt beam="1">  1        2 0.19655360E+00 0.19401968E+04</pdfrwt>
<pdfrwt beam="2">  1       -1 0.11332452E+00 0.19401968E+04</pdfrwt>
<totfact> 0.12892865E+01</totfact>
</mgrwt>
</event>
<event>
12    6  0.1530859E-007  0.1742297E+04  0.7818608E-02  0.8737602E-01
         -1   -1    0    0    0  501 -0.00000000000E+00  0.00000000000E+00  0.24160958257E+03  0.24160958257E+03  0.00000000000E+00 0.  1.
          2   -1    0    0  501    0  0.00000000000E+00 -0.00000000000E+00 -0.31410152213E+04  0.31410152213E+04  0.00000000000E+00 0. -1.
         24    2    1    2    0    0  0.17866282045E+03 -0.36193922638E+03 -0.11569710325E+03  0.42782297660E+03  0.82013856157E+02 0.  0.
        254    2    1    2    0    0 -0.17866282045E+03  0.36193922638E+03 -0.27837085355E+04  0.29548018273E+04  0.90493105865E+03 0.  0.
         23    2    4    4    0    0 -0.52564899695E+00 -0.26852060479E+03 -0.12942644792E+04  0.13248608147E+04  0.89621674880E+02 0.  0.
         23    2    4    4    0    0 -0.17813717145E+03  0.63045983117E+03 -0.14894440562E+04  0.16299410126E+04  0.95140197593E+02 0.  0.
          2    1    3    3  502    0  0.45287772702E+02 -0.33670596767E+02 -0.52384204285E+01  0.56675678130E+02  0.00000000000E+00 0. -1.
         -1    1    3    3    0  502  0.13337504775E+03 -0.32826862961E+03 -0.11045868282E+03  0.37114729847E+03  0.00000000000E+00 0.  1.
         11    1    5    5    0    0  0.14041178588E+02 -0.99077093784E+00 -0.94626555807E+02  0.95667765663E+02  0.00000000000E+00 0. -1.
        -11    1    5    5    0    0 -0.14566827585E+02 -0.26752983385E+03 -0.11996379234E+04  0.12291930490E+04  0.00000000000E+00 0.  1.
          3    1    6    6  503    0 -0.31513503155E+02  0.27116264873E+03 -0.65876279394E+03  0.71308533965E+03  0.00000000000E+00 0. -1.
         -3    1    6    6    0  503 -0.14662366830E+03  0.35929718244E+03 -0.83068126229E+03  0.91685567290E+03  0.00000000000E+00 0.  1.
<mgrwt>
<rscale>  0 0.17422966E+04</rscale>
<asrwt>0</asrwt>
<pdfrwt beam="1">  1        2 0.48323310E+00 0.17422966E+04</pdfrwt>
<pdfrwt beam="2">  1       -1 0.37170706E-01 0.17422966E+04</pdfrwt>
<totfact> 0.10706025E+01</totfact>
</mgrwt>
</event>
<event>
12    6  0.1530859E-007  0.2150694E+04  0.7818608E-02  0.8539235E-01
         -1   -1    0    0    0  501 -0.00000000000E+00  0.00000000000E+00  0.38020061738E+03  0.38020061738E+03  0.00000000000E+00 0.  1.
          2   -1    0    0  501    0  0.00000000000E+00 -0.00000000000E+00 -0.30414758326E+04  0.30414758326E+04  0.00000000000E+00 0. -1.
         24    2    1    2    0    0  0.69737244178E+03 -0.52274607296E+03 -0.83925557262E+03  0.12125618696E+04  0.79778394202E+02 0.  0.
        254    2    1    2    0    0 -0.69737244178E+03  0.52274607296E+03 -0.18220196426E+04  0.22091145803E+04  0.89489657039E+03 0.  0.
         23    2    4    4    0    0 -0.35725675504E+03  0.67899804521E+03 -0.78204977194E+03  0.10995671550E+04  0.93676827984E+02 0.  0.
         23    2    4    4    0    0 -0.34011568674E+03 -0.15625197225E+03 -0.10399698706E+04  0.11095474253E+04  0.97287193634E+02 0.  0.
          4    1    3    3  502    0  0.31481325089E+03 -0.25368596258E+03 -0.33783425182E+03  0.52687373463E+03  0.00000000000E+00 0. -1.
         -3    1    3    3    0  502  0.38255919089E+03 -0.26906011038E+03 -0.50142132081E+03  0.68568813501E+03  0.00000000000E+00 0.  1.
         11    1    5    5    0    0 -0.27888881672E+03  0.49857724608E+03 -0.52489076920E+03  0.77580188321E+03  0.00000000000E+00 0.  1.
        -11    1    5    5    0    0 -0.78367938322E+02  0.18042079913E+03 -0.25715900274E+03  0.32376527177E+03  0.00000000000E+00 0. -1.
          4    1    6    6  503    0 -0.11368869848E+03 -0.95714212585E+02 -0.33080064618E+03  0.36265051795E+03  0.00000000000E+00 0. -1.
         -4    1    6    6    0  503 -0.22642698826E+03 -0.60537759666E+02 -0.70916922445E+03  0.74689690739E+03  0.00000000000E+00 0.  1.
<mgrwt>
<rscale>  0 0.21506938E+04</rscale>
<asrwt>0</asrwt>
<pdfrwt beam="1">  1        2 0.46791937E+00 0.21506938E+04</pdfrwt>
<pdfrwt beam="2">  1       -1 0.58492401E-01 0.21506938E+04</pdfrwt>
<totfact> 0.50797638E+00</totfact>
</mgrwt>
</event>
<event>
12    6  0.1530859E-007  0.1500872E+04  0.7818608E-02  0.8883873E-01
         -1   -1    0    0    0  501 -0.00000000000E+00  0.00000000000E+00  0.19025632339E+04  0.19025632339E+04  0.00000000000E+00 0.  1.
          2   -1    0    0  501    0  0.00000000000E+00 -0.00000000000E+00 -0.29599751059E+03  0.29599751059E+03  0.00000000000E+00 0. -1.
         24    2    1    2    0    0  0.12413772449E+03  0.32391425756E+03  0.10282134229E+04  0.10880813333E+04  0.79796766578E+02 0.  0.
        254    2    1    2    0    0 -0.12413772449E+03 -0.32391425756E+03  0.57835230036E+03  0.11104794111E+04  0.88223722340E+03 0.  0.
         23    2    4    4    0    0  0.19525541604E+03 -0.16462879127E+03  0.67693514020E+03  0.72927435920E+03  0.91501860805E+02 0.  0.
         23    2    4    4    0    0 -0.31939314054E+03 -0.15928546629E+03 -0.98582839843E+02  0.38120505195E+03  0.90635960459E+02 0.  0.
          4    1    3    3  502    0  0.35709341451E+01 -0.31827513810E+01  0.37899215225E+02  0.38199895179E+02  0.00000000000E+00 0. -1.
         -3    1    3    3    0  502  0.12056679035E+03  0.32709700894E+03  0.99031420771E+03  0.10498814382E+04  0.00000000000E+00 0.  1.
         11    1    5    5    0    0  0.11722191175E+03 -0.10700924783E+03  0.52961608653E+03  0.55288801291E+03  0.00000000000E+00 0. -1.
        -11    1    5    5    0    0  0.78033504295E+02 -0.57619543447E+02  0.14731905367E+03  0.17638634628E+03  0.00000000000E+00 0.  1.
          3    1    6    6  503    0 -0.20749242196E+03 -0.14625981172E+03 -0.51106455251E+02  0.25895348513E+03  0.00000000000E+00 0. -1.
         -3    1    6    6    0  503 -0.11190071858E+03 -0.13025654568E+02 -0.47476384592E+02  0.12225156682E+03  0.00000000000E+00 0.  1.
<mgrwt>
<rscale>  0 0.15008717E+04</rscale>
<asrwt>0</asrwt>
<pdfrwt beam="1">  1        2 0.45538080E-01 0.15008717E+04</pdfrwt>
<pdfrwt beam="2">  1       -1 0.29270203E+00 0.15008717E+04</pdfrwt>
<totfact> 0.45507348E+00</totfact>
</mgrwt>
</event>
<event>
12    6  0.1530859E-007  0.2017864E+04  0.7818608E-02  0.8598314E-01
         -1   -1    0    0    0  501 -0.00000000000E+00  0.00000000000E+00  0.11425745059E+04  0.11425745059E+04  0.00000000000E+00 0.  1.
          2   -1    0    0  501    0  0.00000000000E+00 -0.00000000000E+00 -0.89092100832E+03  0.89092100832E+03  0.00000000000E+00 0. -1.
         24    2    1    2    0    0  0.49788758460E+02 -0.37068141052E+03 -0.61789537221E+03  0.72664586103E+03  0.79598290074E+02 0.  0.
        254    2    1    2    0    0 -0.49788758460E+02  0.37068141052E+03  0.86954886980E+03  0.13068496532E+04  0.90103115956E+03 0.  0.
         23    2    4    4    0    0  0.30671451682E+03  0.28499373330E+03  0.82239368092E+03  0.92748046892E+03  0.92700760343E+02 0.  0.
         23    2    4    4    0    0 -0.35650327528E+03  0.85687677217E+02  0.47155188883E+02  0.37936918427E+03  0.85207997420E+02 0.  0.
          4    1    3    3  502    0  0.54125109488E+02 -0.12919971515E+03 -0.24962161283E+03  0.28623948621E+03  0.00000000000E+00 0. -1.
         -3    1    3    3    0  502 -0.43363510276E+01 -0.24148169537E+03 -0.36827375938E+03  0.44040637483E+03  0.00000000000E+00 0.  1.
         11    1    5    5    0    0  0.19952472813E+03  0.23344636067E+03  0.63787968521E+03  0.70795325640E+03  0.00000000000E+00 0.  1.
        -11    1    5    5    0    0  0.10718978869E+03  0.51547372632E+02  0.18451399571E+03  0.21952721252E+03  0.00000000000E+00 0. -1.
          3    1    6    6  503    0 -0.14080026302E+03 -0.73095763793E+01  0.27548023711E+02  0.14365596953E+03  0.00000000000E+00 0. -1.
         -3    1    6    6    0  503 -0.21570301226E+03  0.92997253597E+02  0.19607165171E+02  0.23571321474E+03  0.00000000000E+00 0.  1.
<mgrwt>
<rscale>  0 0.20178639E+04</rscale>
<asrwt>0</asrwt>
<pdfrwt beam="1">  1        2 0.13706477E+00 0.20178639E+04</pdfrwt>
<pdfrwt beam="2">  1       -1 0.17578069E+00 0.20178639E+04</pdfrwt>
<totfact> 0.70279816E+00</totfact>
</mgrwt>
</event>
<event>
12    6  0.1530859E-007  0.1376378E+04  0.7818608E-02  0.8971097E-01
          2   -1    0    0  501    0  0.00000000000E+00  0.00000000000E+00  0.86183461943E+03  0.86183461943E+03  0.00000000000E+00 0. -1.
         -1   -1    0    0    0  501 -0.00000000000E+00 -0.00000000000E+00 -0.54952995193E+03  0.54952995193E+03  0.00000000000E+00 0.  1.
         24    2    1    2    0    0 -0.26161175237E+03  0.18205368876E+03  0.31605331814E+03  0.45478149385E+03  0.73159091562E+02 0.  0.
        254    2    1    2    0    0  0.26161175237E+03 -0.18205368876E+03 -0.37486506378E+01  0.95658307751E+03  0.90191622517E+03 0.  0.
         23    2    4    4    0    0  0.13103307693E+03 -0.40205344851E+03 -0.32099407536E+03  0.53891088831E+03  0.92580270103E+02 0.  0.
         23    2    4    4    0    0  0.13057867544E+03  0.21999975976E+03  0.31724542472E+03  0.41767218920E+03  0.91404121087E+02 0.  0.
          4    1    3    3  502    0 -0.26311391586E+03  0.17258439677E+03  0.29359830008E+03  0.43036527339E+03  0.00000000000E+00 0. -1.
         -1    1    3    3    0  502  0.15021634925E+01  0.94692919871E+01  0.22455018054E+02  0.24416220463E+02  0.00000000000E+00 0.  1.
         11    1    5    5    0    0 -0.99763992454E+01 -0.87866963371E+02 -0.69598776019E+02  0.11253497864E+03  0.00000000000E+00 0. -1.
        -11    1    5    5    0    0  0.14100947618E+03 -0.31418648514E+03 -0.25139529934E+03  0.42637590967E+03  0.00000000000E+00 0.  1.
          3    1    6    6  503    0  0.45723411728E+02  0.43263286682E+02  0.29576836175E+02  0.69549490240E+02  0.00000000000E+00 0. -1.
         -3    1    6    6    0  503  0.84855263708E+02  0.17673647308E+03  0.28766858854E+03  0.34812269896E+03  0.00000000000E+00 0.  1.
<mgrwt>
<rscale>  0 0.13763778E+04</rscale>
<asrwt>0</asrwt>
<pdfrwt beam="1">  1        2 0.13258994E+00 0.13763778E+04</pdfrwt>
<pdfrwt beam="2">  1       -1 0.84543069E-01 0.13763778E+04</pdfrwt>
<totfact> 0.48024065E+01</totfact>
</mgrwt>
</event>
<event>
12    6  0.1530859E-007  0.1796951E+04  0.7818608E-02  0.8707923E-01
         -1   -1    0    0    0  501 -0.00000000000E+00  0.00000000000E+00  0.28947694766E+03  0.28947694766E+03  0.00000000000E+00 0.  1.
          2   -1    0    0  501    0  0.00000000000E+00 -0.00000000000E+00 -0.27886772977E+04  0.27886772977E+04  0.00000000000E+00 0. -1.
         24    2    1    2    0    0 -0.14192248012E+03 -0.60731347196E+03 -0.51034426044E+03  0.80955347072E+03  0.77161610895E+02 0.  0.
        254    2    1    2    0    0  0.14192248012E+03  0.60731347196E+03 -0.19888560896E+04  0.22686007747E+04  0.89556087789E+03 0.  0.
         23    2    4    4    0    0 -0.26884424519E+03  0.28220062902E+02 -0.10499154372E+04  0.10880195257E+04  0.91599469983E+02 0.  0.
         23    2    4    4    0    0  0.41076672531E+03  0.57909340906E+03 -0.93894065238E+03  0.11805812489E+04  0.89911387453E+02 0.  0.
          4    1    3    3  502    0 -0.47905993980E+02 -0.24709434553E+03 -0.25374243900E+03  0.35740149020E+03  0.00000000000E+00 0. -1.
         -3    1    3    3    0  502 -0.94016486140E+02 -0.36021912644E+03 -0.25660182144E+03  0.45215198052E+03  0.00000000000E+00 0.  1.
         11    1    5    5    0    0 -0.47789234751E+02  0.30847349291E+02 -0.33199852573E+03  0.33683585172E+03  0.00000000000E+00 0. -1.
        -11    1    5    5    0    0 -0.22105501044E+03 -0.26272863888E+01 -0.71791691150E+03  0.75118367401E+03  0.00000000000E+00 0.  1.
          4    1    6    6  503    0  0.11521670887E+03  0.18003429465E+03 -0.35131971908E+03  0.41123324558E+03  0.00000000000E+00 0. -1.
         -4    1    6    6    0  503  0.29555001644E+03  0.39905911441E+03 -0.58762093330E+03  0.76934800335E+03  0.00000000000E+00 0.  1.
<mgrwt>
<rscale>  0 0.17969505E+04</rscale>
<asrwt>0</asrwt>
<pdfrwt beam="1">  1        2 0.42902726E+00 0.17969505E+04</pdfrwt>
<pdfrwt beam="2">  1       -1 0.44534917E-01 0.17969505E+04</pdfrwt>
<totfact> 0.12643834E+01</totfact>
</mgrwt>
</event>
<event>
12    6  0.1530859E-007  0.1964414E+04  0.7818608E-02  0.8623441E-01
          2   -1    0    0  501    0  0.00000000000E+00  0.00000000000E+00  0.16005888647E+04  0.16005888647E+04  0.00000000000E+00 0. -1.
         -1   -1    0    0    0  501 -0.00000000000E+00 -0.00000000000E+00 -0.60273486857E+03  0.60273486857E+03  0.00000000000E+00 0.  1.
         24    2    1    2    0    0 -0.12652950698E+03  0.70845421579E+03  0.31602364347E+03  0.79185932552E+03  0.96193327055E+02 0.  0.
        254    2    1    2    0    0  0.12652950698E+03 -0.70845421579E+03  0.68183035261E+03  0.14114644077E+04  0.10046999813E+04 0.  0.
         23    2    4    4    0    0  0.19433542583E+03 -0.12109476284E+03  0.76829207504E+03  0.80674676559E+03  0.90207715275E+02 0.  0.
         23    2    4    4    0    0 -0.67805918847E+02 -0.58735945295E+03 -0.86461722430E+02  0.60471764212E+03  0.92838718449E+02 0.  0.
          4    1    3    3  502    0  0.13181466416E+01  0.14949229185E+02 -0.65728954549E+01  0.16383525825E+02  0.00000000000E+00 0. -1.
         -1    1    3    3    0  502 -0.12784765362E+03  0.69350498661E+03  0.32259653893E+03  0.77547579969E+03  0.00000000000E+00 0.  1.
         11    1    5    5    0    0  0.81060240488E+02 -0.91406016394E+02  0.29747272696E+03  0.32158334177E+03  0.00000000000E+00 0. -1.
        -11    1    5    5    0    0  0.11327518534E+03 -0.29688746449E+02  0.47081934808E+03  0.48516342382E+03  0.00000000000E+00 0.  1.
          2    1    6    6  503    0 -0.74528819523E+02 -0.24842948136E+03 -0.43961999734E+02  0.26306730996E+03  0.00000000000E+00 0. -1.
         -2    1    6    6    0  503  0.67229006766E+01 -0.33892997159E+03 -0.42499722696E+02  0.34165033216E+03  0.00000000000E+00 0.  1.
<mgrwt>
<rscale>  0 0.19644141E+04</rscale>
<asrwt>0</asrwt>
<pdfrwt beam="1">  1        2 0.24624444E+00 0.19644141E+04</pdfrwt>
<pdfrwt beam="2">  1       -1 0.92728442E-01 0.19644141E+04</pdfrwt>
<totfact> 0.13370073E+01</totfact>
</mgrwt>
</event>
<event>
12    6  0.1530859E-007  0.1371576E+04  0.7818608E-02  0.8974655E-01
         -1   -1    0    0    0  501 -0.00000000000E+00  0.00000000000E+00  0.43657893293E+03  0.43657893293E+03  0.00000000000E+00 0.  1.
          2   -1    0    0  501    0  0.00000000000E+00 -0.00000000000E+00 -0.10772505245E+04  0.10772505245E+04  0.00000000000E+00 0. -1.
         24    2    1    2    0    0 -0.69600067460E+02 -0.10393947895E+03 -0.59657587566E+03  0.61468193133E+03  0.79268635684E+02 0.  0.
        254    2    1    2    0    0  0.69600067460E+02  0.10393947895E+03 -0.44095715920E+02  0.89914752612E+03  0.88931111367E+03 0.  0.
         23    2    4    4    0    0  0.16398145544E+03  0.34716980576E+03 -0.32028742926E+03  0.50821203765E+03  0.90987065571E+02 0.  0.
         23    2    4    4    0    0 -0.94381387982E+02 -0.24323032681E+03  0.27619171335E+03  0.39093548848E+03  0.92086130086E+02 0.  0.
          4    1    3    3  502    0 -0.51135459242E+02 -0.10476812401E+03 -0.38407202658E+03  0.40137577979E+03  0.00000000000E+00 0. -1.
         -3    1    3    3    0  502 -0.18464608218E+02  0.82864505608E+00 -0.21250384908E+03  0.21330615154E+03  0.00000000000E+00 0.  1.
         11    1    5    5    0    0  0.12468072323E+03  0.28986623742E+03 -0.30103754805E+03  0.43610930244E+03  0.00000000000E+00 0.  1.
        -11    1    5    5    0    0  0.39300732214E+02  0.57303568342E+02 -0.19249881219E+02  0.72102735206E+02  0.00000000000E+00 0. -1.
          4    1    6    6  503    0 -0.26176768968E+02 -0.60945095882E+02  0.20155993516E+02  0.69323820006E+02  0.00000000000E+00 0. -1.
         -4    1    6    6    0  503 -0.68204619014E+02 -0.18228523093E+03  0.25603571983E+03  0.32161166847E+03  0.00000000000E+00 0.  1.
<mgrwt>
<rscale>  0 0.13715756E+04</rscale>
<asrwt>0</asrwt>
<pdfrwt beam="1">  1        2 0.16573085E+00 0.13715756E+04</pdfrwt>
<pdfrwt beam="2">  1       -1 0.67165991E-01 0.13715756E+04</pdfrwt>
<totfact> 0.56219731E+01</totfact>
</mgrwt>
</event>
<event>
12    6  0.1530859E-007  0.1435544E+04  0.7818608E-02  0.8928485E-01
         -1   -1    0    0    0  501 -0.00000000000E+00  0.00000000000E+00  0.20117363046E+03  0.20117363046E+03  0.00000000000E+00 0.  1.
          2   -1    0    0  501    0  0.00000000000E+00 -0.00000000000E+00 -0.25609538067E+04  0.25609538067E+04  0.00000000000E+00 0. -1.
         24    2    1    2    0    0 -0.28108498719E+03  0.25486836832E+03 -0.11602563570E+04  0.12234326366E+04  0.81399920890E+02 0.  0.
        254    2    1    2    0    0  0.28108498719E+03 -0.25486836832E+03 -0.11995238193E+04  0.15386948006E+04  0.88586547579E+03 0.  0.
         23    2    4    4    0    0 -0.36690789038E+02 -0.48451312159E+03 -0.37136924464E+03  0.61812702841E+03  0.89814967533E+02 0.  0.
         23    2    4    4    0    0  0.31777577623E+03  0.22964475327E+03 -0.82815457467E+03  0.92056777222E+03  0.88808034776E+02 0.  0.
          2    1    3    3  502    0 -0.21448268414E+03  0.15026395803E+03 -0.72465966366E+03  0.77052820001E+03  0.00000000000E+00 0. -1.
         -1    1    3    3    0  502 -0.66602303057E+02  0.10460441030E+03 -0.43559669331E+03  0.45290443655E+03  0.00000000000E+00 0.  1.
         11    1    5    5    0    0 -0.42316268154E+02 -0.11831372525E+03 -0.70036291861E+02  0.14385369759E+03  0.00000000000E+00 0. -1.
        -11    1    5    5    0    0  0.56254791154E+01 -0.36619939634E+03 -0.30133295278E+03  0.47427333082E+03  0.00000000000E+00 0.  1.
          2    1    6    6  503    0  0.19579112497E+03  0.17184127485E+03 -0.46291206950E+03  0.53117903992E+03  0.00000000000E+00 0.  1.
         -2    1    6    6    0  503  0.12198465126E+03  0.57803478415E+02 -0.36524250517E+03  0.38938873230E+03  0.00000000000E+00 0. -1.
<mgrwt>
<rscale>  0 0.14355436E+04</rscale>
<asrwt>0</asrwt>
<pdfrwt beam="1">  1        2 0.39399286E+00 0.14355436E+04</pdfrwt>
<pdfrwt beam="2">  1       -1 0.30949792E-01 0.14355436E+04</pdfrwt>
<totfact> 0.34388952E+01</totfact>
</mgrwt>
</event>
<event>
12    6  0.1530859E-007  0.1500292E+04  0.7818608E-02  0.8884259E-01
         -1   -1    0    0    0  501 -0.00000000000E+00  0.00000000000E+00  0.89008495751E+03  0.89008495751E+03  0.00000000000E+00 0.  1.
          2   -1    0    0  501    0  0.00000000000E+00 -0.00000000000E+00 -0.63220783384E+03  0.63220783384E+03  0.00000000000E+00 0. -1.
         24    2    1    2    0    0 -0.46501418740E+03  0.55506833787E+02 -0.12654728578E+02  0.47501880135E+03  0.78508065790E+02 0.  0.
        254    2    1    2    0    0  0.46501418740E+03 -0.55506833787E+02  0.27053185225E+03  0.10472739900E+04  0.89681443117E+03 0.  0.
         23    2    4    4    0    0  0.38697222854E+03 -0.40136710116E+03 -0.41886493188E+02  0.56630381826E+03  0.90013780643E+02 0.  0.
         23    2    4    4    0    0  0.78041958862E+02  0.34586026737E+03  0.31241834544E+03  0.48097017174E+03  0.89538883417E+02 0.  0.
          2    1    3    3  502    0 -0.29210204589E+03  0.22325487306E+02  0.28093510761E+02  0.29429794077E+03  0.00000000000E+00 0. -1.
         -1    1    3    3    0  502 -0.17291214151E+03  0.33181346481E+02 -0.40748239340E+02  0.18072086057E+03  0.00000000000E+00 0.  1.
         11    1    5    5    0    0  0.46359897806E+02 -0.92572089424E+02 -0.23608823656E+02  0.10618949298E+03  0.00000000000E+00 0.  1.
        -11    1    5    5    0    0  0.34061233074E+03 -0.30879501174E+03 -0.18277669532E+02  0.46011432528E+03  0.00000000000E+00 0. -1.
          3    1    6    6  503    0 -0.94615874612E+01  0.30796261042E+02  0.58487485986E+01  0.32743536639E+02  0.00000000000E+00 0. -1.
         -3    1    6    6    0  503  0.87503546323E+02  0.31506400633E+03  0.30656959684E+03  0.44822663510E+03  0.00000000000E+00 0.  1.
<mgrwt>
<rscale>  0 0.15002915E+04</rscale>
<asrwt>0</asrwt>
<pdfrwt beam="1">  1        2 0.97262744E-01 0.15002915E+04</pdfrwt>
<pdfrwt beam="2">  1       -1 0.13693615E+00 0.15002915E+04</pdfrwt>
<totfact> 0.22811279E+01</totfact>
</mgrwt>
</event>
<event>
12    6  0.1530859E-007  0.1504326E+04  0.7818608E-02  0.8881582E-01
         -1   -1    0    0    0  501 -0.00000000000E+00  0.00000000000E+00  0.13250993159E+04  0.13250993159E+04  0.00000000000E+00 0.  1.
          2   -1    0    0  501    0  0.00000000000E+00 -0.00000000000E+00 -0.42694824378E+03  0.42694824378E+03  0.00000000000E+00 0. -1.
         24    2    1    2    0    0  0.15683068740E+03  0.99282914460E+02  0.81490216896E+03  0.83967069582E+03  0.80798334291E+02 0.  0.
        254    2    1    2    0    0 -0.15683068740E+03 -0.99282914460E+02  0.83248903178E+02  0.91237686389E+03  0.88940890498E+03 0.  0.
         23    2    4    4    0    0  0.27795186143E+03  0.18918305981E+03 -0.82025044729E+02  0.35769254698E+03  0.90379106045E+02 0.  0.
         23    2    4    4    0    0 -0.43478254883E+03 -0.28846597427E+03  0.16527394791E+03  0.55468431691E+03  0.90059594072E+02 0.  0.
          4    1    3    3  502    0  0.60442017487E+02  0.72432956438E+02  0.51350319140E+03  0.52209701995E+03  0.00000000000E+00 0. -1.
         -3    1    3    3    0  502  0.96388669912E+02  0.26849958021E+02  0.30139897756E+03  0.31757367587E+03  0.00000000000E+00 0.  1.
         11    1    5    5    0    0  0.77107885544E+02  0.62948953090E+02 -0.67017819836E+02  0.11999827034E+03  0.00000000000E+00 0.  1.
        -11    1    5    5    0    0  0.20084397589E+03  0.12623410672E+03 -0.15007224893E+02  0.23769427664E+03  0.00000000000E+00 0. -1.
          4    1    6    6  503    0 -0.38858525800E+03 -0.23049526415E+03  0.11868476389E+03  0.46713236102E+03  0.00000000000E+00 0. -1.
         -4    1    6    6    0  503 -0.46197290826E+02 -0.57970710124E+02  0.46589184017E+02  0.87551955885E+02  0.00000000000E+00 0.  1.
<mgrwt>
<rscale>  0 0.15043255E+04</rscale>
<asrwt>0</asrwt>
<pdfrwt beam="1">  1        2 0.65684346E-01 0.15043255E+04</pdfrwt>
<pdfrwt beam="2">  1       -1 0.20386143E+00 0.15043255E+04</pdfrwt>
<totfact> 0.11549406E+01</totfact>
</mgrwt>
</event>
<event>
12    6  0.1530859E-007  0.2541104E+04  0.7818608E-02  0.8388486E-01
         -1   -1    0    0    0  501 -0.00000000000E+00  0.00000000000E+00  0.10381926804E+04  0.10381926804E+04  0.00000000000E+00 0.  1.
          2   -1    0    0  501    0  0.00000000000E+00 -0.00000000000E+00 -0.15549165635E+04  0.15549165635E+04  0.00000000000E+00 0. -1.
         24    2    1    2    0    0  0.76140637186E+03  0.50261078522E+03  0.36941123201E+03  0.98756015819E+03  0.80331458223E+02 0.  0.
        254    2    1    2    0    0 -0.76140637186E+03 -0.50261078522E+03 -0.88613511514E+03  0.16055490856E+04  0.97989548403E+03 0.  0.
         23    2    4    4    0    0 -0.88888006258E+03 -0.59833928443E+03 -0.92403942933E+03  0.14180039885E+04  0.93641761400E+02 0.  0.
         23    2    4    4    0    0  0.12747369072E+03  0.95728499208E+02  0.37904314198E+02  0.18754509716E+03  0.91230143303E+02 0.  0.
          4    1    3    3  502    0  0.38378816960E+03  0.25473919087E+03  0.22978974205E+03  0.51477057030E+03  0.00000000000E+00 0. -1.
         -3    1    3    3    0  502  0.37761820226E+03  0.24787159435E+03  0.13962148996E+03  0.47278958790E+03  0.00000000000E+00 0.  1.
         11    1    5    5    0    0 -0.79146345577E+02 -0.32163049108E+02 -0.50900774544E+02  0.99445938054E+02  0.00000000000E+00 0.  1.
        -11    1    5    5    0    0 -0.80973371700E+03 -0.56617623532E+03 -0.87313865479E+03  0.13185580504E+04  0.00000000000E+00 0. -1.
          2    1    6    6  503    0  0.12956779393E+03  0.60813594968E+02  0.48292902905E+02  0.15105731041E+03  0.00000000000E+00 0. -1.
         -2    1    6    6    0  503 -0.20941032153E+01  0.34914904240E+02 -0.10388588707E+02  0.36487786747E+02  0.00000000000E+00 0.  1.
<mgrwt>
<rscale>  0 0.25411045E+04</rscale>
<asrwt>0</asrwt>
<pdfrwt beam="1">  1        2 0.23921793E+00 0.25411045E+04</pdfrwt>
<pdfrwt beam="2">  1       -1 0.15972195E+00 0.25411045E+04</pdfrwt>
<totfact> 0.35140195E+00</totfact>
</mgrwt>
</event>
<event>
12    6  0.1530859E-007  0.1502033E+04  0.7818608E-02  0.8883102E-01
          2   -1    0    0  501    0  0.00000000000E+00  0.00000000000E+00  0.41931791811E+03  0.41931791811E+03  0.00000000000E+00 0. -1.
         -1   -1    0    0    0  501 -0.00000000000E+00 -0.00000000000E+00 -0.13451034768E+04  0.13451034768E+04  0.00000000000E+00 0.  1.
         24    2    1    2    0    0 -0.34348900597E+03 -0.32847617511E+03 -0.29959103347E+03  0.56747770216E+03  0.79967870246E+02 0.  0.
        254    2    1    2    0    0  0.34348900597E+03  0.32847617511E+03 -0.62619452520E+03  0.11969436927E+04  0.90259255777E+03 0.  0.
         23    2    4    4    0    0 -0.21518025558E+02 -0.16944494021E+03 -0.53285262390E+03  0.56702382850E+03  0.91703272033E+02 0.  0.
         23    2    4    4    0    0  0.36500703153E+03  0.49792111533E+03 -0.93341901298E+02  0.62991986423E+03  0.83251154117E+02 0.  0.
          2    1    3    3  502    0 -0.14585632241E+02 -0.97777352887E+01  0.40018593138E+01  0.18009987596E+02  0.00000000000E+00 0. -1.
         -1    1    3    3    0  502 -0.32890337373E+03 -0.31869843983E+03 -0.30359289279E+03  0.54946771457E+03  0.00000000000E+00 0.  1.
         11    1    5    5    0    0  0.36677122816E+00  0.11489498061E+02 -0.27223157352E+02  0.29550691752E+02  0.00000000000E+00 0. -1.
        -11    1    5    5    0    0 -0.21884796786E+02 -0.18093443827E+03 -0.50562946655E+03  0.53747313675E+03  0.00000000000E+00 0.  1.
          3    1    6    6  503    0  0.15991818966E+03  0.25735043381E+03 -0.10741079978E+02  0.30318054681E+03  0.00000000000E+00 0. -1.
         -3    1    6    6    0  503  0.20508884187E+03  0.24057068151E+03 -0.82600821320E+02  0.32673931742E+03  0.00000000000E+00 0.  1.
<mgrwt>
<rscale>  0 0.15020333E+04</rscale>
<asrwt>0</asrwt>
<pdfrwt beam="1">  1        2 0.64510450E-01 0.15020333E+04</pdfrwt>
<pdfrwt beam="2">  1       -1 0.20693899E+00 0.15020333E+04</pdfrwt>
<totfact> 0.11233762E+01</totfact>
</mgrwt>
</event>
<event>
12    6  0.1530859E-007  0.1103294E+04  0.7818608E-02  0.9201987E-01
          2   -1    0    0  501    0  0.00000000000E+00  0.00000000000E+00  0.32714469748E+04  0.32714469748E+04  0.00000000000E+00 0. -1.
         -1   -1    0    0    0  501 -0.00000000000E+00 -0.00000000000E+00 -0.93021368129E+02  0.93021368129E+02  0.00000000000E+00 0.  1.
         24    2    1    2    0    0  0.12430202852E+03  0.38688444786E+02  0.81506771170E+03  0.82925748562E+03  0.79905023317E+02 0.  0.
        254    2    1    2    0    0 -0.12430202852E+03 -0.38688444786E+02  0.23633578950E+04  0.25352108573E+04  0.90823221768E+03 0.  0.
         23    2    4    4    0    0  0.30607338561E+03 -0.22076390369E+02  0.35061763342E+03  0.47492594267E+03  0.91943688036E+02 0.  0.
         23    2    4    4    0    0 -0.43037541413E+03 -0.16612054417E+02  0.20127402616E+04  0.20602849146E+04  0.90286275510E+02 0.  0.
          4    1    3    3  502    0  0.32135735677E+02  0.50347050756E+02  0.30302369698E+03  0.30885415969E+03  0.00000000000E+00 0. -1.
         -3    1    3    3    0  502  0.92166292846E+02 -0.11658605969E+02  0.51204401472E+03  0.52040332593E+03  0.00000000000E+00 0.  1.
         11    1    5    5    0    0  0.30233759261E+03 -0.10025964357E+02  0.31317980034E+03  0.43541948418E+03  0.00000000000E+00 0.  1.
        -11    1    5    5    0    0  0.37357929955E+01 -0.12050426012E+02  0.37437833084E+02  0.39506458490E+02  0.00000000000E+00 0. -1.
          4    1    6    6  503    0 -0.37639620923E+02  0.21276447984E+02  0.14424926136E+03  0.15058976627E+03  0.00000000000E+00 0. -1.
         -4    1    6    6    0  503 -0.39273579321E+03 -0.37888502401E+02  0.18684910002E+04  0.19096951484E+04  0.00000000000E+00 0.  1.
<mgrwt>
<rscale>  0 0.11032941E+04</rscale>
<asrwt>0</asrwt>
<pdfrwt beam="1">  1        2 0.50329945E+00 0.11032941E+04</pdfrwt>
<pdfrwt beam="2">  1       -1 0.14310982E-01 0.11032941E+04</pdfrwt>
<totfact> 0.47930835E+01</totfact>
</mgrwt>
</event>
<event>
12    6  0.1530859E-007  0.1349040E+04  0.7818608E-02  0.8991555E-01
          2   -1    0    0  501    0  0.00000000000E+00  0.00000000000E+00  0.12142409645E+04  0.12142409645E+04  0.00000000000E+00 0. -1.
         -1   -1    0    0    0  501 -0.00000000000E+00 -0.00000000000E+00 -0.37470085925E+03  0.37470085925E+03  0.00000000000E+00 0.  1.
         24    2    1    2    0    0 -0.10129527014E+03  0.15856381761E+03  0.60366062138E+03  0.63741476521E+03  0.80549494647E+02 0.  0.
        254    2    1    2    0    0  0.10129527014E+03 -0.15856381761E+03  0.23587948391E+03  0.95152705857E+03  0.90241974505E+03 0.  0.
         23    2    4    4    0    0 -0.28372822313E+03  0.59089702399E+02 -0.16656768251E+03  0.34662032035E+03  0.91692726500E+02 0.  0.
         23    2    4    4    0    0  0.38502349327E+03 -0.21765352001E+03  0.40244716641E+03  0.60490673822E+03  0.91281405825E+02 0.  0.
          2    1    3    3  502    0 -0.58733200174E+02  0.11475275467E+03  0.50651714881E+03  0.52266375955E+03  0.00000000000E+00 0. -1.
         -3    1    3    3    0  502 -0.42562069967E+02  0.43811062947E+02  0.97143472569E+02  0.11475100566E+03  0.00000000000E+00 0.  1.
         11    1    5    5    0    0 -0.21516712807E+03  0.17082609432E+02 -0.15420364960E+03  0.26526868284E+03  0.00000000000E+00 0. -1.
        -11    1    5    5    0    0 -0.68561095063E+02  0.42007092966E+02 -0.12364032907E+02  0.81351637509E+02  0.00000000000E+00 0.  1.
          4    1    6    6  503    0  0.57283301649E+02 -0.59135555248E+02  0.41328229732E+02  0.92121729875E+02  0.00000000000E+00 0. -1.
         -4    1    6    6    0  503  0.32774019162E+03 -0.15851796477E+03  0.36111893668E+03  0.51278500835E+03  0.00000000000E+00 0.  1.
<mgrwt>
<rscale>  0 0.13490399E+04</rscale>
<asrwt>0</asrwt>
<pdfrwt beam="1">  1        2 0.18680630E+00 0.13490399E+04</pdfrwt>
<pdfrwt beam="2">  1       -1 0.57646287E-01 0.13490399E+04</pdfrwt>
<totfact> 0.63045588E+01</totfact>
</mgrwt>
</event>
<event>
12    6  0.1530859E-007  0.1817257E+04  0.7818608E-02  0.8697176E-01
         -1   -1    0    0    0  501 -0.00000000000E+00  0.00000000000E+00  0.77879302964E+03  0.77879302964E+03  0.00000000000E+00 0.  1.
          2   -1    0    0  501    0  0.00000000000E+00 -0.00000000000E+00 -0.10601096116E+04  0.10601096116E+04  0.00000000000E+00 0. -1.
         24    2    1    2    0    0  0.64213478982E+03 -0.21078716056E+03 -0.22552085018E+02  0.68092838107E+03  0.79915882317E+02 0.  0.
        254    2    1    2    0    0 -0.64213478982E+03  0.21078716056E+03 -0.25876449695E+03  0.11579742602E+04  0.90397843282E+03 0.  0.
         23    2    4    4    0    0 -0.72566436835E+03  0.34071532200E+02  0.10046396867E+03  0.73905742116E+03  0.91450631373E+02 0.  0.
         23    2    4    4    0    0  0.83529578528E+02  0.17671562836E+03 -0.35922846562E+03  0.41891683901E+03  0.90777881112E+02 0.  0.
          2    1    3    3  502    0  0.51861848052E+03 -0.18830580807E+03 -0.44264026517E+02  0.55351920448E+03  0.00000000000E+00 0. -1.
         -1    1    3    3    0  502  0.12351630930E+03 -0.22481352485E+02  0.21711941500E+02  0.12740917658E+03  0.00000000000E+00 0.  1.
         11    1    5    5    0    0 -0.23053268105E+03 -0.24183901496E+02  0.56443033507E+02  0.23857073198E+03  0.00000000000E+00 0. -1.
        -11    1    5    5    0    0 -0.49513168730E+03  0.58255433696E+02  0.44020935164E+02  0.50048668919E+03  0.00000000000E+00 0.  1.
          2    1    6    6  503    0  0.82234888656E+02  0.11946722655E+03 -0.31423994034E+03  0.34609498008E+03  0.00000000000E+00 0. -1.
         -2    1    6    6    0  503  0.12946898719E+01  0.57248401804E+02 -0.44988525283E+02  0.72821858931E+02  0.00000000000E+00 0.  1.
<mgrwt>
<rscale>  0 0.18172572E+04</rscale>
<asrwt>0</asrwt>
<pdfrwt beam="1">  1        2 0.16309379E+00 0.18172572E+04</pdfrwt>
<pdfrwt beam="2">  1       -1 0.11981431E+00 0.18172572E+04</pdfrwt>
<totfact> 0.15418219E+01</totfact>
</mgrwt>
</event>
<event>
12    6  0.1530859E-007  0.2276455E+04  0.7818608E-02  0.8487263E-01
         -1   -1    0    0    0  501 -0.00000000000E+00  0.00000000000E+00  0.39944108887E+03  0.39944108887E+03  0.00000000000E+00 0.  1.
          2   -1    0    0  501    0  0.00000000000E+00 -0.00000000000E+00 -0.32434353074E+04  0.32434353074E+04  0.00000000000E+00 0. -1.
         24    2    1    2    0    0 -0.65093763747E+03 -0.43897969308E+03 -0.20590503090E+04  0.22050899872E+04  0.79439902060E+02 0.  0.
        254    2    1    2    0    0  0.65093763747E+03  0.43897969308E+03 -0.78494390956E+03  0.14377864091E+04  0.91360266970E+03 0.  0.
         23    2    4    4    0    0 -0.11429102294E+03  0.12128210585E+03 -0.53435082696E+03  0.56695182811E+03  0.90176393807E+02 0.  0.
         23    2    4    4    0    0  0.76522866041E+03  0.31769758722E+03 -0.25059308260E+03  0.87083458094E+03  0.95127885898E+02 0.  0.
          2    1    3    3  502    0 -0.64312074072E+03 -0.44174004924E+03 -0.20449318560E+04  0.21887176277E+04  0.00000000000E+00 0. -1.
         -1    1    3    3    0  502 -0.78168967500E+01  0.27603561629E+01 -0.14118452991E+02  0.16372359506E+02  0.00000000000E+00 0.  1.
         11    1    5    5    0    0 -0.34815694853E+02  0.10135285633E+03 -0.32047453733E+03  0.33791783494E+03  0.00000000000E+00 0. -1.
        -11    1    5    5    0    0 -0.79475328084E+02  0.19929249520E+02 -0.21387628963E+03  0.22903399317E+03  0.00000000000E+00 0.  1.
          3    1    6    6  503    0  0.55479553940E+03  0.23393246984E+03 -0.22556620237E+03  0.64296392016E+03  0.00000000000E+00 0.  1.
         -3    1    6    6    0  503  0.21043312101E+03  0.83765117385E+02 -0.25026880232E+02  0.22787066078E+03  0.00000000000E+00 0. -1.
<mgrwt>
<rscale>  0 0.22764546E+04</rscale>
<asrwt>0</asrwt>
<pdfrwt beam="1">  1        2 0.49899006E+00 0.22764546E+04</pdfrwt>
<pdfrwt beam="2">  1       -1 0.61452474E-01 0.22764546E+04</pdfrwt>
<totfact> 0.33763750E+00</totfact>
</mgrwt>
</event>
<event>
12    6  0.1530859E-007  0.1643575E+04  0.7818608E-02  0.8794217E-01
          2   -1    0    0  501    0  0.00000000000E+00  0.00000000000E+00  0.83124866590E+03  0.83124866590E+03  0.00000000000E+00 0. -1.
         -1   -1    0    0    0  501 -0.00000000000E+00 -0.00000000000E+00 -0.81243402026E+03  0.81243402026E+03  0.00000000000E+00 0.  1.
         24    2    1    2    0    0 -0.37388416127E+02  0.53353259908E+03  0.21084765733E+03  0.58041679077E+03  0.79824735914E+02 0.  0.
        254    2    1    2    0    0  0.37388416127E+02 -0.53353259908E+03 -0.19203301169E+03  0.10632658954E+04  0.89866721248E+03 0.  0.
         23    2    4    4    0    0 -0.32540400548E+03 -0.55483097676E+03 -0.22210307056E+03  0.68641811961E+03  0.90082636650E+02 0.  0.
         23    2    4    4    0    0  0.36279242161E+03  0.21298377682E+02  0.30070058872E+02  0.37684777577E+03  0.95068794017E+02 0.  0.
          2    1    3    3  502    0 -0.40593547798E+02  0.43939611514E+03  0.20352493616E+03  0.48594154151E+03  0.00000000000E+00 0. -1.
         -1    1    3    3    0  502  0.32051316713E+01  0.94136483939E+02  0.73227211654E+01  0.94475249260E+02  0.00000000000E+00 0.  1.
         11    1    5    5    0    0 -0.34395905738E+02 -0.11818625499E+03 -0.61882727773E+02  0.13776988494E+03  0.00000000000E+00 0. -1.
        -11    1    5    5    0    0 -0.29100809975E+03 -0.43664472177E+03 -0.16022034279E+03  0.54864823467E+03  0.00000000000E+00 0.  1.
          3    1    6    6  503    0  0.49309451165E+02 -0.28653281503E+02  0.15392668581E+02  0.59070862201E+02  0.00000000000E+00 0. -1.
         -3    1    6    6    0  503  0.31348297044E+03  0.49951659186E+02  0.14677390291E+02  0.31777691357E+03  0.00000000000E+00 0.  1.
<mgrwt>
<rscale>  0 0.16435750E+04</rscale>
<asrwt>0</asrwt>
<pdfrwt beam="1">  1        2 0.12788441E+00 0.16435750E+04</pdfrwt>
<pdfrwt beam="2">  1       -1 0.12498985E+00 0.16435750E+04</pdfrwt>
<totfact> 0.19983640E+01</totfact>
</mgrwt>
</event>
<event>
12    6  0.1530859E-007  0.1696998E+04  0.7818608E-02  0.8763078E-01
         -1   -1    0    0    0  501 -0.00000000000E+00  0.00000000000E+00  0.19612273796E+03  0.19612273796E+03  0.00000000000E+00 0.  1.
          2   -1    0    0  501    0  0.00000000000E+00 -0.00000000000E+00 -0.36709204272E+04  0.36709204272E+04  0.00000000000E+00 0. -1.
         24    2    1    2    0    0  0.52458045580E+02  0.44328465153E+03 -0.31438177888E+03  0.55183372179E+03  0.80196164386E+02 0.  0.
        254    2    1    2    0    0 -0.52458045580E+02 -0.44328465153E+03 -0.31604159104E+04  0.33152094434E+04  0.89617620930E+03 0.  0.
         23    2    4    4    0    0 -0.30297933669E+03 -0.32655319449E+03 -0.68477724757E+03  0.82254057869E+03  0.96019047646E+02 0.  0.
         23    2    4    4    0    0  0.25052129111E+03 -0.11673145705E+03 -0.24756386628E+04  0.24926688647E+04  0.90686988454E+02 0.  0.
          2    1    3    3  502    0 -0.21021063723E+02  0.11535193700E+03 -0.74051799672E+02  0.13867812922E+03  0.00000000000E+00 0. -1.
         -1    1    3    3    0  502  0.73479109303E+02  0.32793271454E+03 -0.24032997921E+03  0.41315559257E+03  0.00000000000E+00 0.  1.
         11    1    5    5    0    0 -0.12978242659E+03 -0.77977761480E+02 -0.19935058306E+03  0.25032911238E+03  0.00000000000E+00 0.  1.
        -11    1    5    5    0    0 -0.17319691010E+03 -0.24857543301E+03 -0.48542666451E+03  0.57221146631E+03  0.00000000000E+00 0. -1.
          3    1    6    6  503    0  0.11669647507E+02 -0.12202815516E+02 -0.45046512259E+03  0.45078145043E+03  0.00000000000E+00 0. -1.
         -3    1    6    6    0  503  0.23885164360E+03 -0.10452864153E+03 -0.20251735402E+04  0.20418874143E+04  0.00000000000E+00 0.  1.
<mgrwt>
<rscale>  0 0.16969985E+04</rscale>
<asrwt>0</asrwt>
<pdfrwt beam="1">  1        2 0.56475701E+00 0.16969985E+04</pdfrwt>
<pdfrwt beam="2">  1       -1 0.30172728E-01 0.16969985E+04</pdfrwt>
<totfact> 0.67948675E+00</totfact>
</mgrwt>
</event>
<event>
12    6  0.1530859E-007  0.1614801E+04  0.7818608E-02  0.8811506E-01
          2   -1    0    0  501    0  0.00000000000E+00  0.00000000000E+00  0.12678164860E+04  0.12678164860E+04  0.00000000000E+00 0. -1.
         -1   -1    0    0    0  501 -0.00000000000E+00 -0.00000000000E+00 -0.51418760243E+03  0.51418760243E+03  0.00000000000E+00 0.  1.
         24    2    1    2    0    0 -0.30669858057E+02  0.23867241915E+03  0.80730006606E+03  0.84638157190E+03  0.81995150736E+02 0.  0.
        254    2    1    2    0    0  0.30669858057E+02 -0.23867241915E+03 -0.53671182493E+02  0.93562251652E+03  0.90255400599E+03 0.  0.
         23    2    4    4    0    0 -0.19179339150E+03 -0.38009085907E+03 -0.32703717122E+03  0.54452697439E+03  0.91118320348E+02 0.  0.
         23    2    4    4    0    0  0.22246324956E+03  0.14141843992E+03  0.27336598873E+03  0.39109554213E+03  0.93475594264E+02 0.  0.
          4    1    3    3  502    0 -0.10983073189E+02  0.93686163844E+02  0.45907420294E+03  0.46866496455E+03  0.00000000000E+00 0. -1.
         -3    1    3    3    0  502 -0.19686784868E+02  0.14498625530E+03  0.34822586312E+03  0.37771660736E+03  0.00000000000E+00 0.  1.
         11    1    5    5    0    0 -0.11026339534E+03 -0.18814587357E+03 -0.22136272143E+03  0.31073837956E+03  0.00000000000E+00 0. -1.
        -11    1    5    5    0    0 -0.81529996163E+02 -0.19194498550E+03 -0.10567444980E+03  0.23378859483E+03  0.00000000000E+00 0.  1.
          4    1    6    6  503    0  0.21943169660E+03  0.14089922687E+03  0.23026882145E+03  0.34788876345E+03  0.00000000000E+00 0. -1.
         -4    1    6    6    0  503  0.30315529603E+01  0.51921304663E+00  0.43097167284E+02  0.43206778675E+02  0.00000000000E+00 0.  1.
<mgrwt>
<rscale>  0 0.16148009E+04</rscale>
<asrwt>0</asrwt>
<pdfrwt beam="1">  1        2 0.19504869E+00 0.16148009E+04</pdfrwt>
<pdfrwt beam="2">  1       -1 0.79105785E-01 0.16148009E+04</pdfrwt>
<totfact> 0.30125035E+01</totfact>
</mgrwt>
</event>
<event>
12    6  0.1530859E-007  0.2612460E+04  0.7818608E-02  0.8363981E-01
         -1   -1    0    0    0  501 -0.00000000000E+00  0.00000000000E+00  0.10743871564E+04  0.10743871564E+04  0.00000000000E+00 0.  1.
          2   -1    0    0  501    0  0.00000000000E+00 -0.00000000000E+00 -0.15881025562E+04  0.15881025562E+04  0.00000000000E+00 0. -1.
         24    2    1    2    0    0  0.74301744427E+03 -0.71316539385E+03  0.29568866406E+03  0.10745815779E+04  0.81326379747E+02 0.  0.
        254    2    1    2    0    0 -0.74301744427E+03  0.71316539385E+03 -0.80940406390E+03  0.15879081347E+04  0.89757311912E+03 0.  0.
         23    2    4    4    0    0 -0.27804337551E+03  0.87996817552E+01  0.13048800012E+03  0.32150515044E+03  0.94619715295E+02 0.  0.
         23    2    4    4    0    0 -0.46497406877E+03  0.70436571210E+03 -0.93989206402E+03  0.12664029843E+04  0.89707778896E+02 0.  0.
          2    1    3    3  502    0  0.42677211975E+02 -0.31923257099E+02 -0.16423673341E+01  0.53321066533E+02  0.00000000000E+00 0. -1.
         -1    1    3    3    0  502  0.70034023230E+03 -0.68124213675E+03  0.29733103139E+03  0.10212605114E+04  0.00000000000E+00 0.  1.
         11    1    5    5    0    0 -0.61399693781E+02 -0.27610855538E+02  0.61663280538E+02  0.91294259987E+02  0.00000000000E+00 0.  1.
        -11    1    5    5    0    0 -0.21664368173E+03  0.36410537293E+02  0.68824719579E+02  0.23021089045E+03  0.00000000000E+00 0. -1.
          2    1    6    6  503    0 -0.64150131445E+02  0.14416886162E+03 -0.14169066521E+03  0.21207579926E+03  0.00000000000E+00 0. -1.
         -2    1    6    6    0  503 -0.40082393732E+03  0.56019685047E+03 -0.79820139880E+03  0.10543271850E+04  0.00000000000E+00 0.  1.
<mgrwt>
<rscale>  0 0.26124601E+04</rscale>
<asrwt>0</asrwt>
<pdfrwt beam="1">  1        2 0.24432347E+00 0.26124601E+04</pdfrwt>
<pdfrwt beam="2">  1       -1 0.16529033E+00 0.26124601E+04</pdfrwt>
<totfact> 0.30385547E+00</totfact>
</mgrwt>
</event>
<event>
12    6  0.1530859E-007  0.2052618E+04  0.7818608E-02  0.8582408E-01
          2   -1    0    0  501    0  0.00000000000E+00  0.00000000000E+00  0.16094996052E+04  0.16094996052E+04  0.00000000000E+00 0. -1.
         -1   -1    0    0    0  501 -0.00000000000E+00 -0.00000000000E+00 -0.65443336084E+03  0.65443336084E+03  0.00000000000E+00 0.  1.
         24    2    1    2    0    0  0.28027068791E+03 -0.60336435009E+03  0.93284950397E+03  0.11485003857E+04  0.79023676796E+02 0.  0.
        254    2    1    2    0    0 -0.28027068791E+03  0.60336435009E+03  0.22216740360E+02  0.11154325803E+04  0.89503969753E+03 0.  0.
         23    2    4    4    0    0  0.33196835380E+02  0.31495440509E+03  0.41392699188E+03  0.52962389658E+03  0.94167988513E+02 0.  0.
         23    2    4    4    0    0 -0.31346752329E+03  0.28840994500E+03 -0.39171025152E+03  0.58580868371E+03  0.91064308194E+02 0.  0.
          4    1    3    3  502    0  0.20940934556E+03 -0.48702552362E+03  0.78728758581E+03  0.94914059940E+03  0.00000000000E+00 0. -1.
         -3    1    3    3    0  502  0.70861342352E+02 -0.11633882647E+03  0.14556191816E+03  0.19935978632E+03  0.00000000000E+00 0.  1.
         11    1    5    5    0    0 -0.43325095215E+01  0.23529594489E+03  0.34583356880E+03  0.41831066163E+03  0.00000000000E+00 0. -1.
        -11    1    5    5    0    0  0.37529344902E+02  0.79658460192E+02  0.68093423076E+02  0.11131323495E+03  0.00000000000E+00 0.  1.
          3    1    6    6  503    0 -0.23795640435E+03  0.16151122915E+03 -0.24796351755E+03  0.37973021153E+03  0.00000000000E+00 0. -1.
         -3    1    6    6    0  503 -0.75511118947E+02  0.12689871585E+03 -0.14374673397E+03  0.20607847218E+03  0.00000000000E+00 0.  1.
<mgrwt>
<rscale>  0 0.20526181E+04</rscale>
<asrwt>0</asrwt>
<pdfrwt beam="1">  1        2 0.24761532E+00 0.20526181E+04</pdfrwt>
<pdfrwt beam="2">  1       -1 0.10068206E+00 0.20526181E+04</pdfrwt>
<totfact> 0.10892960E+01</totfact>
</mgrwt>
</event>
<event>
12    6  0.1530859E-007  0.1652777E+04  0.7818608E-02  0.8788765E-01
         -1   -1    0    0    0  501 -0.00000000000E+00  0.00000000000E+00  0.26901641874E+04  0.26901641874E+04  0.00000000000E+00 0.  1.
          2   -1    0    0  501    0  0.00000000000E+00 -0.00000000000E+00 -0.25385742696E+03  0.25385742696E+03  0.00000000000E+00 0. -1.
         24    2    1    2    0    0  0.55638368158E+03  0.47413397158E+02  0.65898504618E+03  0.86757493297E+03  0.81327374670E+02 0.  0.
        254    2    1    2    0    0 -0.55638368158E+03 -0.47413397158E+02  0.17773217143E+04  0.20764466814E+04  0.91703190421E+03 0.  0.
         23    2    4    4    0    0 -0.30286408406E+03 -0.39993383517E+03  0.46305027981E+03  0.68935874307E+03  0.95531089636E+02 0.  0.
         23    2    4    4    0    0 -0.25351959752E+03  0.35252043801E+03  0.13142714344E+04  0.13870879383E+04  0.90336591177E+02 0.  0.
          2    1    3    3  502    0  0.49967151274E+03  0.60114834326E+02  0.56109531401E+03  0.75373295361E+03  0.00000000000E+00 0. -1.
         -1    1    3    3    0  502  0.56712168835E+02 -0.12701437167E+02  0.97889732173E+02  0.11384197936E+03  0.00000000000E+00 0.  1.
         11    1    5    5    0    0 -0.23543290984E+03 -0.25981795810E+03  0.36170725503E+03  0.50375208658E+03  0.00000000000E+00 0. -1.
        -11    1    5    5    0    0 -0.67431174223E+02 -0.14011587707E+03  0.10134302478E+03  0.18560665649E+03  0.00000000000E+00 0.  1.
          4    1    6    6  503    0 -0.12793180697E+03  0.25161039691E+03  0.85338019254E+03  0.89885042809E+03  0.00000000000E+00 0. -1.
         -4    1    6    6    0  503 -0.12558779054E+03  0.10091004110E+03  0.46089124190E+03  0.48823751023E+03  0.00000000000E+00 0.  1.
<mgrwt>
<rscale>  0 0.16527772E+04</rscale>
<asrwt>0</asrwt>
<pdfrwt beam="1">  1        2 0.39054991E-01 0.16527772E+04</pdfrwt>
<pdfrwt beam="2">  1       -1 0.41387139E+00 0.16527772E+04</pdfrwt>
<totfact> 0.83533956E-01</totfact>
</mgrwt>
</event>
<event>
12    6  0.1530859E-007  0.2346250E+04  0.7818608E-02  0.8459906E-01
          2   -1    0    0  501    0  0.00000000000E+00  0.00000000000E+00  0.17458736482E+04  0.17458736482E+04  0.00000000000E+00 0. -1.
         -1   -1    0    0    0  501 -0.00000000000E+00 -0.00000000000E+00 -0.78827118835E+03  0.78827118835E+03  0.00000000000E+00 0.  1.
         24    2    1    2    0    0  0.93123088788E+03  0.71746228987E+02  0.72813692311E+03  0.11870460619E+04  0.80972133811E+02 0.  0.
        254    2    1    2    0    0 -0.93123088788E+03 -0.71746228987E+02  0.22946553672E+03  0.13470987746E+04  0.94322965818E+03 0.  0.
         23    2    4    4    0    0 -0.70991592835E+03 -0.12498901276E+03 -0.28254611031E+03  0.77944395164E+03  0.89987169404E+02 0.  0.
         23    2    4    4    0    0 -0.22131495952E+03  0.53242783770E+02  0.51201164703E+03  0.56765482296E+03  0.90889856401E+02 0.  0.
          4    1    3    3  502    0  0.13295079026E+02 -0.16656282701E+01  0.25229411578E+02  0.28566705312E+02  0.00000000000E+00 0. -1.
         -3    1    3    3    0  502  0.91793580885E+03  0.73411857257E+02  0.70290751153E+03  0.11584793566E+04  0.00000000000E+00 0.  1.
         11    1    5    5    0    0 -0.72449942718E+02 -0.22012999002E+02 -0.29397268761E+01  0.75777360201E+02  0.00000000000E+00 0.  1.
        -11    1    5    5    0    0 -0.63746598564E+03 -0.10297601375E+03 -0.27960638343E+03  0.70366659144E+03  0.00000000000E+00 0. -1.
          2    1    6    6  503    0 -0.19485862592E+03  0.58837860548E+02  0.36268312897E+03  0.41589761958E+03  0.00000000000E+00 0. -1.
         -2    1    6    6    0  503 -0.26456333608E+02 -0.55950767779E+01  0.14932851806E+03  0.15175720338E+03  0.00000000000E+00 0.  1.
<mgrwt>
<rscale>  0 0.23462497E+04</rscale>
<asrwt>0</asrwt>
<pdfrwt beam="1">  1        2 0.26859595E+00 0.23462497E+04</pdfrwt>
<pdfrwt beam="2">  1       -1 0.12127249E+00 0.23462497E+04</pdfrwt>
<totfact> 0.57361945E+00</totfact>
</mgrwt>
</event>
<event>
12    6  0.1530859E-007  0.1989515E+04  0.7818608E-02  0.8611539E-01
          2   -1    0    0  501    0  0.00000000000E+00  0.00000000000E+00  0.14316847227E+04  0.14316847227E+04  0.00000000000E+00 0. -1.
         -1   -1    0    0    0  501 -0.00000000000E+00 -0.00000000000E+00 -0.69117341177E+03  0.69117341177E+03  0.00000000000E+00 0.  1.
         24    2    1    2    0    0  0.19812650274E+03 -0.39942061926E+03  0.97997010393E+03  0.10795794533E+04  0.79746155131E+02 0.  0.
        254    2    1    2    0    0 -0.19812650274E+03  0.39942061926E+03 -0.23945879305E+03  0.10432786811E+04  0.91230419855E+03 0.  0.
         23    2    4    4    0    0 -0.44825071517E+03  0.12604328749E+03 -0.40801832852E+03  0.62607184628E+03  0.93120278810E+02 0.  0.
         23    2    4    4    0    0  0.25012421243E+03  0.27337733177E+03  0.16855953546E+03  0.41720683482E+03  0.91388942776E+02 0.  0.
          2    1    3    3  502    0  0.20402896901E+03 -0.38586336285E+03  0.92762643767E+03  0.10251873794E+04  0.00000000000E+00 0. -1.
         -1    1    3    3    0  502 -0.59024662711E+01 -0.13557256404E+02  0.52343666262E+02  0.54392073936E+02  0.00000000000E+00 0.  1.
         11    1    5    5    0    0 -0.37845740070E+02 -0.74095398350E+00 -0.69618316738E+02  0.79243669019E+02  0.00000000000E+00 0. -1.
        -11    1    5    5    0    0 -0.41040497510E+03  0.12678424148E+03 -0.33840001178E+03  0.54682817726E+03  0.00000000000E+00 0.  1.
          3    1    6    6  503    0  0.81949322784E+02  0.39745075186E+02  0.19924498468E+02  0.93232763262E+02  0.00000000000E+00 0. -1.
         -3    1    6    6    0  503  0.16817488964E+03  0.23363225658E+03  0.14863503700E+03  0.32397407156E+03  0.00000000000E+00 0.  1.
<mgrwt>
<rscale>  0 0.19895149E+04</rscale>
<asrwt>0</asrwt>
<pdfrwt beam="1">  1        2 0.22025919E+00 0.19895149E+04</pdfrwt>
<pdfrwt beam="2">  1       -1 0.10633437E+00 0.19895149E+04</pdfrwt>
<totfact> 0.12157033E+01</totfact>
</mgrwt>
</event>
<event>
12    6  0.1530859E-007  0.2389208E+04  0.7818608E-02  0.8443555E-01
         -1   -1    0    0    0  501 -0.00000000000E+00  0.00000000000E+00  0.88671080334E+03  0.88671080334E+03  0.00000000000E+00 0.  1.
          2   -1    0    0  501    0  0.00000000000E+00 -0.00000000000E+00 -0.16094072759E+04  0.16094072759E+04  0.00000000000E+00 0. -1.
         24    2    1    2    0    0  0.73135273668E+03 -0.33503157998E+03  0.40576853264E+03  0.90467594706E+03  0.81654651354E+02 0.  0.
        254    2    1    2    0    0 -0.73135273668E+03  0.33503157998E+03 -0.11284650052E+04  0.15914421322E+04  0.78238852695E+03 0.  0.
         23    2    4    4    0    0 -0.59164083056E+03 -0.13526390760E+03 -0.72165870365E+03  0.94725856028E+03  0.90400765443E+02 0.  0.
         23    2    4    4    0    0 -0.13971190612E+03  0.47029548757E+03 -0.40680630158E+03  0.64418357192E+03  0.93722169125E+02 0.  0.
          4    1    3    3  502    0  0.11627761666E+03 -0.87654060481E+02  0.73394385221E+02  0.16306579726E+03  0.00000000000E+00 0. -1.
         -3    1    3    3    0  502  0.61507512001E+03 -0.24737751950E+03  0.33237414742E+03  0.74161014980E+03  0.00000000000E+00 0.  1.
         11    1    5    5    0    0 -0.92645897143E+02 -0.51567053977E+02 -0.15223638570E+03  0.18552180585E+03  0.00000000000E+00 0. -1.
        -11    1    5    5    0    0 -0.49899493342E+03 -0.83696853621E+02 -0.56942231795E+03  0.76173675444E+03  0.00000000000E+00 0.  1.
          3    1    6    6  503    0 -0.11128619035E+03  0.27649953208E+03 -0.19765626749E+03  0.35763753645E+03  0.00000000000E+00 0. -1.
         -3    1    6    6    0  503 -0.28425715771E+02  0.19379595550E+03 -0.20915003409E+03  0.28654603547E+03  0.00000000000E+00 0.  1.
<mgrwt>
<rscale>  0 0.23892081E+04</rscale>
<asrwt>0</asrwt>
<pdfrwt beam="1">  1        2 0.24760112E+00 0.23892081E+04</pdfrwt>
<pdfrwt beam="2">  1       -1 0.13641705E+00 0.23892081E+04</pdfrwt>
<totfact> 0.50640505E+00</totfact>
</mgrwt>
</event>
<event>
12    6  0.1530859E-007  0.2654637E+04  0.7818608E-02  0.8349876E-01
         -1   -1    0    0    0  501 -0.00000000000E+00  0.00000000000E+00  0.14835567097E+04  0.14835567097E+04  0.00000000000E+00 0.  1.
          2   -1    0    0  501    0  0.00000000000E+00 -0.00000000000E+00 -0.11875343444E+04  0.11875343444E+04  0.00000000000E+00 0. -1.
         24    2    1    2    0    0 -0.94079547503E+02  0.26557993978E+03  0.12771682039E+04  0.13102557731E+04  0.78917072641E+02 0.  0.
        254    2    1    2    0    0  0.94079547503E+02 -0.26557993978E+03 -0.98114583858E+03  0.13608352810E+04  0.89991212891E+03 0.  0.
         23    2    4    4    0    0 -0.39220450536E+03 -0.75270885559E+02 -0.48373050003E+03  0.63402595908E+03  0.92215182559E+02 0.  0.
         23    2    4    4    0    0  0.48628405286E+03 -0.19030905422E+03 -0.49741533856E+03  0.72680932192E+03  0.90222254502E+02 0.  0.
          4    1    3    3  502    0  0.34113928747E+01  0.19105085519E+02  0.20068825350E+03  0.20162444541E+03  0.00000000000E+00 0. -1.
         -3    1    3    3    0  502 -0.97490940377E+02  0.24647485426E+03  0.10764799504E+04  0.11086313277E+04  0.00000000000E+00 0.  1.
         11    1    5    5    0    0 -0.14464677878E+03 -0.15131472859E+02 -0.11288053460E+03  0.18410232800E+03  0.00000000000E+00 0. -1.
        -11    1    5    5    0    0 -0.24755772657E+03 -0.60139412700E+02 -0.37084996543E+03  0.44992363108E+03  0.00000000000E+00 0.  1.
          2    1    6    6  503    0  0.11870914390E+03 -0.42558969015E+02 -0.17680013927E+03  0.21716679289E+03  0.00000000000E+00 0. -1.
         -2    1    6    6    0  503  0.36757490896E+03 -0.14775008521E+03 -0.32061519929E+03  0.50964252902E+03  0.00000000000E+00 0.  1.
<mgrwt>
<rscale>  0 0.26546371E+04</rscale>
<asrwt>0</asrwt>
<pdfrwt beam="1">  1        2 0.18269759E+00 0.26546371E+04</pdfrwt>
<pdfrwt beam="2">  1       -1 0.22823949E+00 0.26546371E+04</pdfrwt>
<totfact> 0.18749964E+00</totfact>
</mgrwt>
</event>
<event>
12    6  0.1530859E-007  0.2151111E+04  0.7818608E-02  0.8539057E-01
         -1   -1    0    0    0  501 -0.00000000000E+00  0.00000000000E+00  0.14307975399E+04  0.14307975399E+04  0.00000000000E+00 0.  1.
          2   -1    0    0  501    0  0.00000000000E+00 -0.00000000000E+00 -0.80851413235E+03  0.80851413235E+03  0.00000000000E+00 0. -1.
         24    2    1    2    0    0 -0.68716312282E+03  0.46602358421E+03  0.58172291332E+03  0.10170445329E+04  0.81282812335E+02 0.  0.
        254    2    1    2    0    0  0.68716312282E+03 -0.46602358421E+03  0.40560494221E+02  0.12222671394E+04  0.89605840650E+03 0.  0.
         23    2    4    4    0    0  0.11618295721E+03 -0.60677519269E+03  0.44386485422E+02  0.62695772599E+03  0.97114448398E+02 0.  0.
         23    2    4    4    0    0  0.57098016561E+03  0.14075160848E+03 -0.38259912007E+01  0.59530941337E+03  0.92462395728E+02 0.  0.
          2    1    3    3  502    0 -0.12416917969E+03  0.86284602215E+02  0.14599617948E+03  0.21018539956E+03  0.00000000000E+00 0. -1.
         -1    1    3    3    0  502 -0.56299394313E+03  0.37973898199E+03  0.43572673384E+03  0.80685913333E+03  0.00000000000E+00 0.  1.
         11    1    5    5    0    0  0.78515759733E+02 -0.17561275092E+03  0.21236830657E+02  0.19353440467E+03  0.00000000000E+00 0.  1.
        -11    1    5    5    0    0  0.37667197474E+02 -0.43116244176E+03  0.23149654765E+02  0.43342332133E+03  0.00000000000E+00 0. -1.
          2    1    6    6  503    0  0.52731511240E+03  0.13688736537E+03  0.20495849963E+02  0.54517837304E+03  0.00000000000E+00 0. -1.
         -2    1    6    6    0  503  0.43665053212E+02  0.38642431047E+01 -0.24321841164E+02  0.50131040328E+02  0.00000000000E+00 0.  1.
<mgrwt>
<rscale>  0 0.21511114E+04</rscale>
<asrwt>0</asrwt>
<pdfrwt beam="1">  1        2 0.12438679E+00 0.21511114E+04</pdfrwt>
<pdfrwt beam="2">  1       -1 0.22012270E+00 0.21511114E+04</pdfrwt>
<totfact> 0.39059195E+00</totfact>
</mgrwt>
</event>
<event>
12    6  0.1530859E-007  0.1318536E+04  0.7818608E-02  0.9014994E-01
         -1   -1    0    0    0  501 -0.00000000000E+00  0.00000000000E+00  0.38027263104E+03  0.38027263104E+03  0.00000000000E+00 0.  1.
          2   -1    0    0  501    0  0.00000000000E+00 -0.00000000000E+00 -0.11429548499E+04  0.11429548499E+04  0.00000000000E+00 0. -1.
         24    2    1    2    0    0  0.14372518649E+03 -0.25025402091E+03 -0.38920824352E+03  0.49111345625E+03  0.80158379886E+02 0.  0.
        254    2    1    2    0    0 -0.14372518649E+03  0.25025402091E+03 -0.37347397537E+03  0.10321140247E+04  0.91787392683E+03 0.  0.
         23    2    4    4    0    0  0.60624826241E+02  0.88976347362E+01  0.28001729051E+03  0.30068828975E+03  0.90825256101E+02 0.  0.
         23    2    4    4    0    0 -0.20435001273E+03  0.24135638617E+03 -0.65349126588E+03  0.73142573499E+03  0.88999653706E+02 0.  0.
          2    1    3    3  502    0  0.39084038338E+02 -0.22215150191E+02 -0.90208134804E+02  0.10078979381E+03  0.00000000000E+00 0. -1.
         -1    1    3    3    0  502  0.10464114815E+03 -0.22803887072E+03 -0.29900010872E+03  0.39032366244E+03  0.00000000000E+00 0.  1.
         11    1    5    5    0    0  0.11993112102E+01 -0.35401758236E+02  0.87927375349E+02  0.94794230675E+02  0.00000000000E+00 0. -1.
        -11    1    5    5    0    0  0.59425515031E+02  0.44299392972E+02  0.19208991516E+03  0.20589405907E+03  0.00000000000E+00 0.  1.
          2    1    6    6  503    0 -0.34173936218E+02  0.37461020446E+01 -0.47479350432E+02  0.58618938191E+02  0.00000000000E+00 0. -1.
         -2    1    6    6    0  503 -0.17017607651E+03  0.23761028413E+03 -0.60601191545E+03  0.67280679679E+03  0.00000000000E+00 0.  1.
<mgrwt>
<rscale>  0 0.13185362E+04</rscale>
<asrwt>0</asrwt>
<pdfrwt beam="1">  1        2 0.17583921E+00 0.13185362E+04</pdfrwt>
<pdfrwt beam="2">  1       -1 0.58503482E-01 0.13185362E+04</pdfrwt>
<totfact> 0.67762001E+01</totfact>
</mgrwt>
</event>
<event>
12    6  0.1530859E-007  0.2103197E+04  0.7818608E-02  0.8559836E-01
          2   -1    0    0  501    0  0.00000000000E+00  0.00000000000E+00  0.28618984398E+04  0.28618984398E+04  0.00000000000E+00 0. -1.
         -1   -1    0    0    0  501 -0.00000000000E+00 -0.00000000000E+00 -0.38640768957E+03  0.38640768957E+03  0.00000000000E+00 0.  1.
         24    2    1    2    0    0 -0.63903851599E+03  0.15586351256E+03  0.16371308345E+03  0.68327358575E+03  0.86006742882E+02 0.  0.
        254    2    1    2    0    0  0.63903851599E+03 -0.15586351256E+03  0.23117776668E+04  0.25650325436E+04  0.89577469810E+03 0.  0.
         23    2    4    4    0    0  0.73913941441E+03 -0.19646648772E+03  0.10931529048E+04  0.13380565769E+04  0.10240104918E+03 0.  0.
         23    2    4    4    0    0 -0.10010089841E+03  0.40602975166E+02  0.12186247620E+04  0.12269759668E+04  0.93567735131E+02 0.  0.
          4    1    3    3  502    0  0.23429312440E+01  0.33072691549E+01  0.16164319927E+01  0.43635087331E+01  0.00000000000E+00 0. -1.
         -3    1    3    3    0  502 -0.64138144724E+03  0.15255624340E+03  0.16209665146E+03  0.67891007702E+03  0.00000000000E+00 0.  1.
         11    1    5    5    0    0  0.46808905677E+03 -0.86010613643E+02  0.61849930178E+03  0.78041436240E+03  0.00000000000E+00 0. -1.
        -11    1    5    5    0    0  0.27105035764E+03 -0.11045587408E+03  0.47465360301E+03  0.55764221446E+03  0.00000000000E+00 0.  1.
          2    1    6    6  503    0 -0.31290314968E+02 -0.57464335121E+01  0.77545092429E+03  0.77610324139E+03  0.00000000000E+00 0. -1.
         -2    1    6    6    0  503 -0.68810583444E+02  0.46349408678E+02  0.44317383768E+03  0.45087272537E+03  0.00000000000E+00 0.  1.
<mgrwt>
<rscale>  0 0.21031972E+04</rscale>
<asrwt>0</asrwt>
<pdfrwt beam="1">  1        2 0.44029205E+00 0.21031972E+04</pdfrwt>
<pdfrwt beam="2">  1       -1 0.59447339E-01 0.21031972E+04</pdfrwt>
<totfact> 0.63851811E+00</totfact>
</mgrwt>
</event>
<event>
12    6  0.1530859E-007  0.2334813E+04  0.7818608E-02  0.8464320E-01
          2   -1    0    0  501    0  0.00000000000E+00  0.00000000000E+00  0.35045593586E+04  0.35045593586E+04  0.00000000000E+00 0. -1.
         -1   -1    0    0    0  501 -0.00000000000E+00 -0.00000000000E+00 -0.38887583574E+03  0.38887583574E+03  0.00000000000E+00 0.  1.
         24    2    1    2    0    0 -0.71926194572E+02 -0.27095533860E+03 -0.25937486459E+03  0.38869085215E+03  0.72215546672E+02 0.  0.
        254    2    1    2    0    0  0.71926194572E+02  0.27095533860E+03  0.33750583875E+04  0.35047443422E+04  0.90201087158E+03 0.  0.
         23    2    4    4    0    0 -0.20024959323E+03  0.28202757484E+03  0.49779721309E+03  0.61316570586E+03  0.92361598703E+02 0.  0.
         23    2    4    4    0    0  0.27217578781E+03 -0.11072236241E+02  0.28772611744E+04  0.28915786364E+04  0.91612721589E+02 0.  0.
          2    1    3    3  502    0  0.11026423117E+02 -0.79203676821E+02 -0.60853789374E+02  0.10048874619E+03  0.00000000000E+00 0. -1.
         -3    1    3    3    0  502 -0.82952617689E+02 -0.19175166178E+03 -0.19852107522E+03  0.28820210596E+03  0.00000000000E+00 0.  1.
         11    1    5    5    0    0 -0.17888156604E+03  0.28403256995E+03  0.45652056249E+03  0.56664286763E+03  0.00000000000E+00 0.  1.
        -11    1    5    5    0    0 -0.21368027192E+02 -0.20049951104E+01  0.41276650600E+02  0.46522838222E+02  0.00000000000E+00 0. -1.
          3    1    6    6  503    0  0.13363559253E+03  0.21037054540E+02  0.10290340679E+04  0.10378883091E+04  0.00000000000E+00 0. -1.
         -3    1    6    6    0  503  0.13854019528E+03 -0.32109290781E+02  0.18482271065E+04  0.18536903273E+04  0.00000000000E+00 0.  1.
<mgrwt>
<rscale>  0 0.23348134E+04</rscale>
<asrwt>0</asrwt>
<pdfrwt beam="1">  1        2 0.53916296E+00 0.23348134E+04</pdfrwt>
<pdfrwt beam="2">  1       -1 0.59827054E-01 0.23348134E+04</pdfrwt>
<totfact> 0.23567756E+00</totfact>
</mgrwt>
</event>
<event>
12    6  0.1530859E-007  0.2715072E+04  0.7818608E-02  0.8330131E-01
         -1   -1    0    0    0  501 -0.00000000000E+00  0.00000000000E+00  0.74898713209E+03  0.74898713209E+03  0.00000000000E+00 0.  1.
          2   -1    0    0  501    0  0.00000000000E+00 -0.00000000000E+00 -0.24605282794E+04  0.24605282794E+04  0.00000000000E+00 0. -1.
         24    2    1    2    0    0  0.69608186952E+01 -0.63332335024E+03 -0.19618587775E+04  0.20634780694E+04  0.88909847415E+02 0.  0.
        254    2    1    2    0    0 -0.69608186952E+01  0.63332335024E+03  0.25031763018E+03  0.11460373421E+04  0.92173518682E+03 0.  0.
         23    2    4    4    0    0 -0.62456297574E+02  0.86015508832E+03  0.20251755089E+03  0.89054275008E+03  0.91024536390E+02 0.  0.
         23    2    4    4    0    0  0.55495478878E+02 -0.22683173808E+03  0.47800079293E+02  0.25549459206E+03  0.91979635870E+02 0.  0.
          2    1    3    3  502    0 -0.39547891068E+01 -0.40800339400E+03 -0.13928707600E+04  0.14514032396E+04  0.00000000000E+00 0. -1.
         -1    1    3    3    0  502  0.10915607802E+02 -0.22531995625E+03 -0.56898801747E+03  0.61207482974E+03  0.00000000000E+00 0.  1.
         11    1    5    5    0    0 -0.52617001614E+02  0.81849691617E+03  0.21103059367E+03  0.84690003076E+03  0.00000000000E+00 0.  1.
        -11    1    5    5    0    0 -0.98392959598E+01  0.41658172156E+02 -0.85130427789E+01  0.43642719321E+02  0.00000000000E+00 0. -1.
          1    1    6    6  503    0  0.27051379560E+02 -0.15424515188E+03  0.74061569674E+02  0.17322950129E+03  0.00000000000E+00 0. -1.
         -1    1    6    6    0  503  0.28444099318E+02 -0.72586586200E+02 -0.26261490381E+02  0.82265090769E+02  0.00000000000E+00 0.  1.
<mgrwt>
<rscale>  0 0.27150720E+04</rscale>
<asrwt>0</asrwt>
<pdfrwt beam="1">  1        2 0.37854281E+00 0.27150720E+04</pdfrwt>
<pdfrwt beam="2">  1       -1 0.11522879E+00 0.27150720E+04</pdfrwt>
<totfact> 0.24965778E+00</totfact>
</mgrwt>
</event>
<event>
12    6  0.1530859E-007  0.1256077E+04  0.7818608E-02  0.9065140E-01
         -3   -1    0    0    0  501 -0.00000000000E+00  0.00000000000E+00  0.19149624215E+03  0.19149624215E+03  0.00000000000E+00 0.  1.
          2   -1    0    0  501    0  0.00000000000E+00 -0.00000000000E+00 -0.20597397909E+04  0.20597397909E+04  0.00000000000E+00 0. -1.
         24    2    1    2    0    0  0.12914589247E+03 -0.13465859146E+03 -0.87642495940E+03  0.89964949538E+03  0.80230338953E+02 0.  0.
        254    2    1    2    0    0 -0.12914589247E+03  0.13465859146E+03 -0.99181858932E+03  0.13515865376E+04  0.89903862921E+03 0.  0.
         23    2    4    4    0    0  0.10476118189E+03 -0.12251101618E+03 -0.97352426076E+03  0.99091551548E+03  0.90444558775E+02 0.  0.
         23    2    4    4    0    0 -0.23390707436E+03  0.25716960764E+03 -0.18294328560E+02  0.36067102216E+03  0.94340750680E+02 0.  0.
          4    1    3    3  502    0  0.10427620691E+03 -0.11852688002E+03 -0.82766177136E+03  0.84258302641E+03  0.00000000000E+00 0. -1.
         -3    1    3    3    0  502  0.24869685562E+02 -0.16131711431E+02 -0.48763188035E+02  0.57066468973E+02  0.00000000000E+00 0.  1.
         11    1    5    5    0    0 -0.16002472804E+02 -0.17643284777E+02 -0.94276951025E+02  0.97239437103E+02  0.00000000000E+00 0.  1.
        -11    1    5    5    0    0  0.12076365470E+03 -0.10486773140E+03 -0.87924730974E+03  0.89367607838E+03  0.00000000000E+00 0. -1.
          3    1    6    6  503    0 -0.16447187826E+03  0.12332178363E+03 -0.36513259335E+02  0.20878812026E+03  0.00000000000E+00 0. -1.
         -3    1    6    6    0  503 -0.69435196102E+02  0.13384782401E+03  0.18218930775E+02  0.15188290190E+03  0.00000000000E+00 0.  1.
<mgrwt>
<rscale>  0 0.12560771E+04</rscale>
<asrwt>0</asrwt>
<pdfrwt beam="1">  1        2 0.31688303E+00 0.12560771E+04</pdfrwt>
<pdfrwt beam="2">  1       -3 0.29460962E-01 0.12560771E+04</pdfrwt>
<totfact> 0.44254025E+01</totfact>
</mgrwt>
</event>
<event>
12    6  0.1530859E-007  0.2185335E+04  0.7818608E-02  0.8524557E-01
          2   -1    0    0  501    0  0.00000000000E+00  0.00000000000E+00  0.14716619866E+04  0.14716619866E+04  0.00000000000E+00 0. -1.
         -1   -1    0    0    0  501 -0.00000000000E+00 -0.00000000000E+00 -0.81127499587E+03  0.81127499587E+03  0.00000000000E+00 0.  1.
         24    2    1    2    0    0 -0.12998283367E+03 -0.15274243691E+03  0.12086712521E+04  0.12277649555E+04  0.79339783615E+02 0.  0.
        254    2    1    2    0    0  0.12998283367E+03  0.15274243691E+03 -0.54828426130E+03  0.10551720270E+04  0.87894629320E+03 0.  0.
         23    2    4    4    0    0 -0.12928506186E+03  0.32370342952E+03 -0.62583927819E+03  0.72217035601E+03  0.91414897439E+02 0.  0.
         23    2    4    4    0    0  0.25926789553E+03 -0.17096099260E+03  0.77555016889E+02  0.33300167101E+03  0.91803211296E+02 0.  0.
          2    1    3    3  502    0 -0.94165359323E+02 -0.12697413329E+03  0.72229532469E+03  0.73939169693E+03  0.00000000000E+00 0. -1.
         -1    1    3    3    0  502 -0.35817474348E+02 -0.25768303622E+02  0.48637592737E+03  0.48837325855E+03  0.00000000000E+00 0.  1.
         11    1    5    5    0    0  0.43120387435E+01  0.96589416717E+02 -0.17811092167E+03  0.20266131727E+03  0.00000000000E+00 0. -1.
        -11    1    5    5    0    0 -0.13359710061E+03  0.22711401280E+03 -0.44772835651E+03  0.51950903873E+03  0.00000000000E+00 0.  1.
          1    1    6    6  503    0  0.13508251920E+03 -0.12781881097E+03  0.77664374914E+02  0.20153582947E+03  0.00000000000E+00 0. -1.
         -1    1    6    6    0  503  0.12418537634E+03 -0.43142181634E+02 -0.10935802467E+00  0.13146584154E+03  0.00000000000E+00 0.  1.
<mgrwt>
<rscale>  0 0.21853353E+04</rscale>
<asrwt>0</asrwt>
<pdfrwt beam="1">  1        2 0.22640954E+00 0.21853353E+04</pdfrwt>
<pdfrwt beam="2">  1       -1 0.12481154E+00 0.21853353E+04</pdfrwt>
<totfact> 0.77146502E+00</totfact>
</mgrwt>
</event>
<event>
12    6  0.1530859E-007  0.1343026E+04  0.7818608E-02  0.8996124E-01
         -1   -1    0    0    0  501 -0.00000000000E+00  0.00000000000E+00  0.21853129958E+03  0.21853129958E+03  0.00000000000E+00 0.  1.
          2   -1    0    0  501    0  0.00000000000E+00 -0.00000000000E+00 -0.20634548932E+04  0.20634548932E+04  0.00000000000E+00 0. -1.
         24    2    1    2    0    0 -0.18470626205E+02 -0.10191694581E+03  0.79759947244E+02  0.15324907538E+03  0.79971257612E+02 0.  0.
        254    2    1    2    0    0  0.18470626205E+02  0.10191694581E+03 -0.19246835409E+04  0.21287371174E+04  0.90354123021E+03 0.  0.
         23    2    4    4    0    0  0.17375386930E+03  0.22801785767E+03 -0.18794395634E+04  0.19034227783E+04  0.92426457859E+02 0.  0.
         23    2    4    4    0    0 -0.15528324310E+03 -0.12610091186E+03 -0.45243977523E+02  0.22531433913E+03  0.93301706072E+02 0.  0.
          2    1    3    3  502    0  0.15303605448E+02  0.47183414038E+01  0.25525030840E+00  0.16016498932E+02  0.00000000000E+00 0. -1.
         -3    1    3    3    0  502 -0.33774231654E+02 -0.10663528722E+03  0.79504696935E+02  0.13723257645E+03  0.00000000000E+00 0.  1.
         11    1    5    5    0    0  0.16542915771E+03  0.16911366162E+03 -0.13410699950E+04  0.13617764017E+04  0.00000000000E+00 0.  1.
        -11    1    5    5    0    0  0.83247115931E+01  0.58904196052E+02 -0.53836956838E+03  0.54164637661E+03  0.00000000000E+00 0. -1.
          2    1    6    6  503    0 -0.21665097821E+02  0.11728463810E+02  0.83420011708E+01  0.26010042493E+02  0.00000000000E+00 0. -1.
         -2    1    6    6    0  503 -0.13361814527E+03 -0.13782937567E+03 -0.53585978694E+02  0.19930429663E+03  0.00000000000E+00 0.  1.
<mgrwt>
<rscale>  0 0.13430257E+04</rscale>
<asrwt>0</asrwt>
<pdfrwt beam="1">  1        2 0.31745459E+00 0.13430257E+04</pdfrwt>
<pdfrwt beam="2">  1       -1 0.33620201E-01 0.13430257E+04</pdfrwt>
<totfact> 0.57231991E+01</totfact>
</mgrwt>
</event>
<event>
12    6  0.1530859E-007  0.1394999E+04  0.7818608E-02  0.8957446E-01
         -1   -1    0    0    0  501 -0.00000000000E+00  0.00000000000E+00  0.57278926673E+03  0.57278926673E+03  0.00000000000E+00 0.  1.
          2   -1    0    0  501    0  0.00000000000E+00 -0.00000000000E+00 -0.84936226245E+03  0.84936226245E+03  0.00000000000E+00 0. -1.
         24    2    1    2    0    0  0.12302600550E+03  0.34783749318E+03 -0.25667659594E+03  0.45624251437E+03  0.78409421106E+02 0.  0.
        254    2    1    2    0    0 -0.12302600550E+03 -0.34783749318E+03 -0.19896399767E+02  0.96590901481E+03  0.89244497785E+03 0.  0.
         23    2    4    4    0    0 -0.10062944724E+03  0.22987711613E+02  0.38431495807E+03  0.40926600823E+03  0.95634501947E+02 0.  0.
         23    2    4    4    0    0 -0.22396558264E+02 -0.37082520479E+03 -0.40421135784E+03  0.55664300658E+03  0.91933000822E+02 0.  0.
          4    1    3    3  502    0  0.64798676048E+02  0.22639361204E+03 -0.20423119528E+03  0.31171030961E+03  0.00000000000E+00 0. -1.
         -3    1    3    3    0  502  0.58227329453E+02  0.12144388114E+03 -0.52445400663E+02  0.14453220476E+03  0.00000000000E+00 0.  1.
         11    1    5    5    0    0 -0.83034759836E+02  0.46370137027E+02  0.18702148283E+03  0.20981419396E+03  0.00000000000E+00 0.  1.
        -11    1    5    5    0    0 -0.17594687401E+02 -0.23382425414E+02  0.19729347524E+03  0.19945181427E+03  0.00000000000E+00 0. -1.
          1    1    6    6  503    0 -0.41887559645E+02 -0.13628663784E+03 -0.19627694894E+03  0.24259690022E+03  0.00000000000E+00 0. -1.
         -1    1    6    6    0  503  0.19491001381E+02 -0.23453856695E+03 -0.20793440889E+03  0.31404610637E+03  0.00000000000E+00 0.  1.
<mgrwt>
<rscale>  0 0.13949991E+04</rscale>
<asrwt>0</asrwt>
<pdfrwt beam="1">  1        2 0.13067112E+00 0.13949991E+04</pdfrwt>
<pdfrwt beam="2">  1       -1 0.88121425E-01 0.13949991E+04</pdfrwt>
<totfact> 0.44700395E+01</totfact>
</mgrwt>
</event>
<event>
12    6  0.1530859E-007  0.1956228E+04  0.7818608E-02  0.8627364E-01
          2   -1    0    0  501    0  0.00000000000E+00  0.00000000000E+00  0.65249641239E+03  0.65249641239E+03  0.00000000000E+00 0. -1.
         -1   -1    0    0    0  501 -0.00000000000E+00 -0.00000000000E+00 -0.14662249336E+04  0.14662249336E+04  0.00000000000E+00 0.  1.
         24    2    1    2    0    0 -0.37948644893E+03  0.37889793689E+03  0.26835326371E+03  0.60501912357E+03  0.80380683270E+02 0.  0.
        254    2    1    2    0    0  0.37948644893E+03 -0.37889793689E+03 -0.10820817849E+04  0.15137022224E+04  0.91258962154E+03 0.  0.
         23    2    4    4    0    0  0.17827127168E+03 -0.65694449479E+03 -0.83431294350E+03  0.10805726837E+04  0.90567773559E+02 0.  0.
         23    2    4    4    0    0  0.20121517726E+03  0.27804655790E+03 -0.24776884141E+03  0.43312953866E+03  0.91729834674E+02 0.  0.
          4    1    3    3  502    0 -0.28360866480E+03  0.32791168090E+03  0.21954369596E+03  0.48596232329E+03  0.00000000000E+00 0. -1.
         -3    1    3    3    0  502 -0.95877784131E+02  0.50986255984E+02  0.48809567759E+02  0.11905680028E+03  0.00000000000E+00 0.  1.
         11    1    5    5    0    0  0.91286301709E+02 -0.46537433933E+03 -0.53830291809E+03  0.71740957354E+03  0.00000000000E+00 0.  1.
        -11    1    5    5    0    0  0.86984969968E+02 -0.19157015546E+03 -0.29601002540E+03  0.36316311019E+03  0.00000000000E+00 0. -1.
          3    1    6    6  503    0  0.25521059267E+02  0.27157987350E+00 -0.27226393950E+02  0.37318557706E+02  0.00000000000E+00 0. -1.
         -3    1    6    6    0  503  0.17569411799E+03  0.27777497803E+03 -0.22054244746E+03  0.39581098096E+03  0.00000000000E+00 0.  1.
<mgrwt>
<rscale>  0 0.19562275E+04</rscale>
<asrwt>0</asrwt>
<pdfrwt beam="1">  1        2 0.10038407E+00 0.19562275E+04</pdfrwt>
<pdfrwt beam="2">  1       -1 0.22557306E+00 0.19562275E+04</pdfrwt>
<totfact> 0.48112737E+00</totfact>
</mgrwt>
</event>
<event>
12    6  0.1530859E-007  0.1439597E+04  0.7818608E-02  0.8925644E-01
          2   -1    0    0  501    0  0.00000000000E+00  0.00000000000E+00  0.18606950238E+04  0.18606950238E+04  0.00000000000E+00 0. -1.
         -1   -1    0    0    0  501 -0.00000000000E+00 -0.00000000000E+00 -0.27844984336E+03  0.27844984336E+03  0.00000000000E+00 0.  1.
         24    2    1    2    0    0 -0.21294664894E+03 -0.31897936782E+03  0.19122631010E+03  0.43582552766E+03  0.79260813161E+02 0.  0.
        254    2    1    2    0    0  0.21294664894E+03  0.31897936782E+03  0.13910188703E+04  0.17033193394E+04  0.90513488620E+03 0.  0.
         23    2    4    4    0    0 -0.31881959870E+03  0.79640952031E+02  0.79190491494E+03  0.86224836503E+03  0.91488966188E+02 0.  0.
         23    2    4    4    0    0  0.53176624764E+03  0.23933841578E+03  0.59911395536E+03  0.84107097442E+03  0.91676786027E+02 0.  0.
          2    1    3    3  502    0 -0.43440702005E+02 -0.30815199293E+02  0.49475346808E+02  0.72694436100E+02  0.00000000000E+00 0. -1.
         -1    1    3    3    0  502 -0.16950594694E+03 -0.28816416852E+03  0.14175096329E+03  0.36313109156E+03  0.00000000000E+00 0.  1.
         11    1    5    5    0    0 -0.22856094574E+03  0.14567968652E+02  0.56032941299E+03  0.60532750036E+03  0.00000000000E+00 0.  1.
        -11    1    5    5    0    0 -0.90258652957E+02  0.65072983379E+02  0.23157550195E+03  0.25692086467E+03  0.00000000000E+00 0. -1.
          3    1    6    6  503    0  0.92629249909E+02  0.72297292086E+02  0.15546649665E+03  0.19487664807E+03  0.00000000000E+00 0. -1.
         -3    1    6    6    0  503  0.43913699773E+03  0.16704112370E+03  0.44364745871E+03  0.64619432635E+03  0.00000000000E+00 0.  1.
<mgrwt>
<rscale>  0 0.14395975E+04</rscale>
<asrwt>0</asrwt>
<pdfrwt beam="1">  1        2 0.28626076E+00 0.14395975E+04</pdfrwt>
<pdfrwt beam="2">  1       -1 0.42838439E-01 0.14395975E+04</pdfrwt>
<totfact> 0.47391926E+01</totfact>
</mgrwt>
</event>
<event>
12    6  0.1530859E-007  0.1685969E+04  0.7818608E-02  0.8769407E-01
          2   -1    0    0  501    0  0.00000000000E+00  0.00000000000E+00  0.30836333039E+04  0.30836333039E+04  0.00000000000E+00 0. -1.
         -1   -1    0    0    0  501 -0.00000000000E+00 -0.00000000000E+00 -0.23044996954E+03  0.23044996954E+03  0.00000000000E+00 0.  1.
         24    2    1    2    0    0  0.47183236857E+03 -0.20445247882E+03  0.16216186852E+04  0.17029825681E+04  0.77947847445E+02 0.  0.
        254    2    1    2    0    0 -0.47183236857E+03  0.20445247882E+03  0.12315646492E+04  0.16111007053E+04  0.90247847484E+03 0.  0.
         23    2    4    4    0    0 -0.50912745884E+03  0.23836639564E+03  0.13427178378E+04  0.14585854515E+04  0.92471722982E+02 0.  0.
         23    2    4    4    0    0  0.37295090270E+02 -0.33913916813E+02 -0.11115318864E+03  0.15251525381E+03  0.91459246601E+02 0.  0.
          2    1    3    3  502    0  0.41158976101E+03 -0.17221235514E+03  0.13078077386E+04  0.13818192023E+04  0.00000000000E+00 0. -1.
         -1    1    3    3    0  502  0.60242607564E+02 -0.32240123682E+02  0.31381094657E+03  0.32116336579E+03  0.00000000000E+00 0.  1.
         11    1    5    5    0    0 -0.48811783589E+03  0.24689486389E+03  0.12925029677E+04  0.14034885169E+04  0.00000000000E+00 0.  1.
        -11    1    5    5    0    0 -0.21009622955E+02 -0.85284682566E+01  0.50214870078E+02  0.55096934619E+02  0.00000000000E+00 0. -1.
          3    1    6    6  503    0  0.37619071368E+02  0.89585237623E+01 -0.62288717219E+01  0.39169484570E+02  0.00000000000E+00 0. -1.
         -3    1    6    6    0  503 -0.32398109787E+00 -0.42872440575E+02 -0.10492431691E+03  0.11334576924E+03  0.00000000000E+00 0.  1.
<mgrwt>
<rscale>  0 0.16859694E+04</rscale>
<asrwt>0</asrwt>
<pdfrwt beam="1">  1        2 0.47440509E+00 0.16859694E+04</pdfrwt>
<pdfrwt beam="2">  1       -1 0.35453844E-01 0.16859694E+04</pdfrwt>
<totfact> 0.12749868E+01</totfact>
</mgrwt>
</event>
<event>
12    6  0.1530859E-007  0.1769934E+04  0.7818608E-02  0.8722453E-01
          2   -1    0    0  501    0  0.00000000000E+00  0.00000000000E+00  0.11738459139E+04  0.11738459139E+04  0.00000000000E+00 0. -1.
         -1   -1    0    0    0  501 -0.00000000000E+00 -0.00000000000E+00 -0.66718036481E+03  0.66718036481E+03  0.00000000000E+00 0.  1.
         24    2    1    2    0    0  0.20935087634E+02  0.57053269947E+03  0.51992955951E+03  0.77623954699E+03  0.79216465488E+02 0.  0.
        254    2    1    2    0    0 -0.20935087634E+02 -0.57053269947E+03 -0.13264010403E+02  0.10647867317E+04  0.89869294594E+03 0.  0.
         23    2    4    4    0    0  0.38868363851E+03 -0.48050029333E+03 -0.80215763772E+02  0.63038576436E+03  0.94847985839E+02 0.  0.
         23    2    4    4    0    0 -0.40961872614E+03 -0.90032406131E+02  0.66951753369E+02  0.43440096738E+03  0.91259674686E+02 0.  0.
          2    1    3    3  502    0  0.62185635641E+01  0.23482454631E+03  0.16237149478E+03  0.28556214806E+03  0.00000000000E+00 0. -1.
         -1    1    3    3    0  502  0.14716524070E+02  0.33570815315E+03  0.35755806472E+03  0.49067739893E+03  0.00000000000E+00 0.  1.
         11    1    5    5    0    0  0.80486278572E+02 -0.78855873693E+02  0.19614451774E+02  0.11437227187E+03  0.00000000000E+00 0.  1.
        -11    1    5    5    0    0  0.30819735993E+03 -0.40164441964E+03 -0.99830215547E+02  0.51601349249E+03  0.00000000000E+00 0. -1.
          1    1    6    6  503    0 -0.14471391732E+02  0.51210619227E+01  0.20063921153E+02  0.25262766791E+02  0.00000000000E+00 0. -1.
         -1    1    6    6    0  503 -0.39514733441E+03 -0.95153468054E+02  0.46887832216E+02  0.40913820059E+03  0.00000000000E+00 0.  1.
<mgrwt>
<rscale>  0 0.17699344E+04</rscale>
<asrwt>0</asrwt>
<pdfrwt beam="1">  1        2 0.18059168E+00 0.17699344E+04</pdfrwt>
<pdfrwt beam="2">  1       -1 0.10264313E+00 0.17699344E+04</pdfrwt>
<totfact> 0.19022638E+01</totfact>
</mgrwt>
</event>
<event>
12    6  0.1530859E-007  0.2240109E+04  0.7818608E-02  0.8501917E-01
         -1   -1    0    0    0  501 -0.00000000000E+00  0.00000000000E+00  0.68826625187E+03  0.68826625187E+03  0.00000000000E+00 0.  1.
          2   -1    0    0  501    0  0.00000000000E+00 -0.00000000000E+00 -0.18227270691E+04  0.18227270691E+04  0.00000000000E+00 0. -1.
         24    2    1    2    0    0 -0.24295599219E+03  0.33227633159E+03  0.46912379890E+03  0.62919482106E+03  0.79836141376E+02 0.  0.
        254    2    1    2    0    0  0.24295599219E+03 -0.33227633159E+03 -0.16035846161E+04  0.18817984999E+04  0.89456514490E+03 0.  0.
         23    2    4    4    0    0  0.53987395891E+03 -0.28787351167E+03 -0.74836512698E+03  0.97086453532E+03  0.90512609267E+02 0.  0.
         23    2    4    4    0    0 -0.29691796672E+03 -0.44402819924E+02 -0.85521948912E+03  0.91093396455E+03  0.90930873927E+02 0.  0.
          2    1    3    3  502    0 -0.37662475351E+02  0.37625495382E+02  0.10527571597E+03  0.11797082828E+03  0.00000000000E+00 0. -1.
         -1    1    3    3    0  502 -0.20529351684E+03  0.29465083621E+03  0.36384808293E+03  0.51122399278E+03  0.00000000000E+00 0.  1.
         11    1    5    5    0    0  0.36987352641E+03 -0.20148388159E+03 -0.44648725663E+03  0.61380212643E+03  0.00000000000E+00 0. -1.
        -11    1    5    5    0    0  0.17000043250E+03 -0.86389630075E+02 -0.30187787035E+03  0.35706240889E+03  0.00000000000E+00 0.  1.
          3    1    6    6  503    0 -0.16242925355E+03 -0.18680055144E+02 -0.59286561538E+03  0.61499743477E+03  0.00000000000E+00 0. -1.
         -3    1    6    6    0  503 -0.13448871317E+03 -0.25722764780E+02 -0.26235387373E+03  0.29593652978E+03  0.00000000000E+00 0.  1.
<mgrwt>
<rscale>  0 0.22401085E+04</rscale>
<asrwt>0</asrwt>
<pdfrwt beam="1">  1        2 0.28041954E+00 0.22401085E+04</pdfrwt>
<pdfrwt beam="2">  1       -1 0.10588712E+00 0.22401085E+04</pdfrwt>
<totfact> 0.72569904E+00</totfact>
</mgrwt>
</event>
<event>
12    6  0.1530859E-007  0.1215175E+04  0.7818608E-02  0.9099676E-01
         -1   -1    0    0    0  501 -0.00000000000E+00  0.00000000000E+00  0.81590619027E+03  0.81590619027E+03  0.00000000000E+00 0.  1.
          2   -1    0    0  501    0  0.00000000000E+00 -0.00000000000E+00 -0.45245746418E+03  0.45245746418E+03  0.00000000000E+00 0. -1.
         24    2    1    2    0    0  0.25384068287E+02 -0.20709302000E+02  0.33721922054E+03  0.34763483832E+03  0.77845693523E+02 0.  0.
        254    2    1    2    0    0 -0.25384068287E+02  0.20709302000E+02  0.26229505550E+02  0.92072881612E+03  0.91977189551E+03 0.  0.
         23    2    4    4    0    0  0.14316289025E+03 -0.12640756642E+03  0.41325320254E+03  0.46401602420E+03  0.89767339899E+02 0.  0.
         23    2    4    4    0    0 -0.16854695853E+03  0.14711686842E+03 -0.38702369699E+03  0.45671279193E+03  0.93529578626E+02 0.  0.
          2    1    3    3  502    0  0.47565607843E+02  0.68559683531E+01  0.16699133897E+03  0.17376880803E+03  0.00000000000E+00 0. -1.
         -1    1    3    3    0  502 -0.22181539556E+02 -0.27565270353E+02  0.17022788157E+03  0.17386603030E+03  0.00000000000E+00 0.  1.
         11    1    5    5    0    0  0.57099206567E+02 -0.47570040617E+02  0.72482943318E+02  0.10381235585E+03  0.00000000000E+00 0. -1.
        -11    1    5    5    0    0  0.86063683678E+02 -0.78837525806E+02  0.34077025922E+03  0.36020366835E+03  0.00000000000E+00 0.  1.
          3    1    6    6  503    0 -0.10380607505E+03  0.74201355960E+02 -0.13157102838E+03  0.18328250858E+03  0.00000000000E+00 0. -1.
         -3    1    6    6    0  503 -0.64740883479E+02  0.72915512462E+02 -0.25545266861E+03  0.27343028335E+03  0.00000000000E+00 0.  1.
<mgrwt>
<rscale>  0 0.12151755E+04</rscale>
<asrwt>0</asrwt>
<pdfrwt beam="1">  1        2 0.69608841E-01 0.12151755E+04</pdfrwt>
<pdfrwt beam="2">  1       -1 0.12552403E+00 0.12151755E+04</pdfrwt>
<totfact> 0.43181180E+01</totfact>
</mgrwt>
</event>
<event>
12    6  0.1530859E-007  0.1169458E+04  0.7818608E-02  0.9140018E-01
         -1   -1    0    0    0  501 -0.00000000000E+00  0.00000000000E+00  0.35658400429E+03  0.35658400429E+03  0.00000000000E+00 0.  1.
          2   -1    0    0  501    0  0.00000000000E+00 -0.00000000000E+00 -0.95884212634E+03  0.95884212634E+03  0.00000000000E+00 0. -1.
         24    2    1    2    0    0 -0.18117132108E+03  0.11704418723E+03 -0.74325721906E+02  0.24233762154E+03  0.81736286528E+02 0.  0.
        254    2    1    2    0    0  0.18117132108E+03 -0.11704418723E+03 -0.52793240015E+03  0.10730885091E+04  0.90900161708E+03 0.  0.
         23    2    4    4    0    0  0.11490337899E+03  0.36027328146E+03 -0.41634920727E+03  0.56986773377E+03  0.91667593832E+02 0.  0.
         23    2    4    4    0    0  0.66267942083E+02 -0.47731746869E+03 -0.11158319288E+03  0.50322077531E+03  0.92503695660E+02 0.  0.
          4    1    3    3  502    0 -0.18157638190E+03  0.12643380300E+03 -0.71437195732E+02  0.23250540195E+03  0.00000000000E+00 0. -1.
         -3    1    3    3    0  502  0.40506082115E+00 -0.93896157728E+01 -0.28885261742E+01  0.98322195911E+01  0.00000000000E+00 0.  1.
         11    1    5    5    0    0  0.37090336596E+02  0.20224856403E+03 -0.27857042943E+03  0.34623930867E+03  0.00000000000E+00 0. -1.
        -11    1    5    5    0    0  0.77813042398E+02  0.15802471743E+03 -0.13777877785E+03  0.22362842510E+03  0.00000000000E+00 0.  1.
          4    1    6    6  503    0 -0.49258135757E+01  0.16846517776E+01  0.23857370370E+01  0.57265550032E+01  0.00000000000E+00 0. -1.
         -4    1    6    6    0  503  0.71193755659E+02 -0.47900212047E+03 -0.11396892991E+03  0.49749422031E+03  0.00000000000E+00 0.  1.
<mgrwt>
<rscale>  0 0.11694576E+04</rscale>
<asrwt>0</asrwt>
<pdfrwt beam="1">  1        2 0.14751417E+00 0.11694576E+04</pdfrwt>
<pdfrwt beam="2">  1       -1 0.54859077E-01 0.11694576E+04</pdfrwt>
<totfact> 0.10144032E+02</totfact>
</mgrwt>
</event>
<event>
12    6  0.1530859E-007  0.1178166E+04  0.7818608E-02  0.9132185E-01
         -1   -1    0    0    0  501 -0.00000000000E+00  0.00000000000E+00  0.15804096743E+03  0.15804096743E+03  0.00000000000E+00 0.  1.
          2   -1    0    0  501    0  0.00000000000E+00 -0.00000000000E+00 -0.21957524509E+04  0.21957524509E+04  0.00000000000E+00 0. -1.
         24    2    1    2    0    0  0.31097459001E+02 -0.23315083366E+03 -0.49784018542E+03  0.55751258050E+03  0.87458927495E+02 0.  0.
        254    2    1    2    0    0 -0.31097459001E+02  0.23315083366E+03 -0.15398712981E+04  0.17962808379E+04  0.89448022374E+03 0.  0.
         23    2    4    4    0    0 -0.32537617407E+03 -0.17266250302E+03 -0.42125948339E+03  0.56704855335E+03  0.91665232866E+02 0.  0.
         23    2    4    4    0    0  0.29427871507E+03  0.40581333668E+03 -0.11186118147E+04  0.12292322845E+04  0.91843295712E+02 0.  0.
          4    1    3    3  502    0  0.11118178807E+02 -0.22820815404E+03 -0.43446631057E+03  0.49088038308E+03  0.00000000000E+00 0. -1.
         -3    1    3    3    0  502  0.19979280195E+02 -0.49426796158E+01 -0.63373874853E+02  0.66632197418E+02  0.00000000000E+00 0.  1.
         11    1    5    5    0    0 -0.82543768018E+02 -0.14925210012E+02 -0.14101477839E+03  0.16407743068E+03  0.00000000000E+00 0.  1.
        -11    1    5    5    0    0 -0.24283240605E+03 -0.15773729301E+03 -0.28024470499E+03  0.40297112267E+03  0.00000000000E+00 0. -1.
          1    1    6    6  503    0  0.26457445588E+03  0.38542576837E+03 -0.10776314741E+04  0.11746668717E+04  0.00000000000E+00 0. -1.
         -1    1    6    6    0  503  0.29704259181E+02  0.20387568308E+02 -0.40980340599E+02  0.54565412769E+02  0.00000000000E+00 0.  1.
<mgrwt>
<rscale>  0 0.11781661E+04</rscale>
<asrwt>0</asrwt>
<pdfrwt beam="1">  1        2 0.33780805E+00 0.11781661E+04</pdfrwt>
<pdfrwt beam="2">  1       -1 0.24313996E-01 0.11781661E+04</pdfrwt>
<totfact> 0.86139094E+01</totfact>
</mgrwt>
</event>
<event>
12    6  0.1530859E-007  0.2852571E+04  0.7818608E-02  0.8287130E-01
          2   -1    0    0  501    0  0.00000000000E+00  0.00000000000E+00  0.10829539940E+04  0.10829539940E+04  0.00000000000E+00 0. -1.
         -1   -1    0    0    0  501 -0.00000000000E+00 -0.00000000000E+00 -0.18784644534E+04  0.18784644534E+04  0.00000000000E+00 0.  1.
         24    2    1    2    0    0 -0.71051437963E+03  0.18103035616E+02  0.75312901876E+03  0.10385989314E+04  0.79536267823E+02 0.  0.
        254    2    1    2    0    0  0.71051437963E+03 -0.18103035616E+02 -0.15486394781E+04  0.19228195159E+04  0.89095019735E+03 0.  0.
         23    2    4    4    0    0 -0.17760225863E+03  0.32706993294E+02 -0.52995877441E+03  0.56720574762E+03  0.90850139640E+02 0.  0.
         23    2    4    4    0    0  0.88811663826E+03 -0.50810028910E+02 -0.10186807037E+04  0.13556137683E+04  0.92981130333E+02 0.  0.
          2    1    3    3  502    0 -0.63070984598E+03  0.48026481640E+01  0.69766501020E+03  0.94050754473E+03  0.00000000000E+00 0. -1.
         -1    1    3    3    0  502 -0.79804533654E+02  0.13300387452E+02  0.55464008568E+02  0.98091386699E+02  0.00000000000E+00 0.  1.
         11    1    5    5    0    0 -0.15760244259E+03  0.55463692968E+02 -0.39488550579E+03  0.42877653134E+03  0.00000000000E+00 0.  1.
        -11    1    5    5    0    0 -0.19999816037E+02 -0.22756699674E+02 -0.13507326862E+03  0.13842921627E+03  0.00000000000E+00 0. -1.
          2    1    6    6  503    0  0.45220599362E+02 -0.13779635793E+02 -0.84534175362E+02  0.96854570225E+02  0.00000000000E+00 0. -1.
         -2    1    6    6    0  503  0.84289603889E+03 -0.37030393117E+02 -0.93414652834E+03  0.12587591981E+04  0.00000000000E+00 0.  1.
<mgrwt>
<rscale>  0 0.28525712E+04</rscale>
<asrwt>0</asrwt>
<pdfrwt beam="1">  1        2 0.16660831E+00 0.28525712E+04</pdfrwt>
<pdfrwt beam="2">  1       -1 0.28899453E+00 0.28525712E+04</pdfrwt>
<totfact> 0.85777030E-01</totfact>
</mgrwt>
</event>
<event>
12    6  0.1530859E-007  0.1971326E+04  0.7818608E-02  0.8620145E-01
         -1   -1    0    0    0  501 -0.00000000000E+00  0.00000000000E+00  0.28769211797E+03  0.28769211797E+03  0.00000000000E+00 0.  1.
          2   -1    0    0  501    0  0.00000000000E+00 -0.00000000000E+00 -0.33769835915E+04  0.33769835915E+04  0.00000000000E+00 0. -1.
         24    2    1    2    0    0  0.15800180586E+03  0.25853239927E+03 -0.25508839129E+04  0.25700761243E+04  0.80492082516E+02 0.  0.
        254    2    1    2    0    0 -0.15800180586E+03 -0.25853239927E+03 -0.53840756067E+03  0.10945995852E+04  0.90358285646E+03 0.  0.
         23    2    4    4    0    0  0.16781776998E+03  0.21366534261E+03  0.22543839972E+02  0.28742746396E+03  0.91052950325E+02 0.  0.
         23    2    4    4    0    0 -0.32581957584E+03 -0.47219774188E+03 -0.56095140064E+03  0.80717212127E+03  0.87927561312E+02 0.  0.
          2    1    3    3  502    0  0.14608009481E+03  0.17282779919E+03 -0.17672762165E+04  0.17817053818E+04  0.00000000000E+00 0. -1.
         -1    1    3    3    0  502  0.11921711051E+02  0.85704600082E+02 -0.78360769640E+03  0.78837074244E+03  0.00000000000E+00 0.  1.
         11    1    5    5    0    0  0.13987375566E+03  0.11767562068E+03  0.36752684024E+02  0.18644832798E+03  0.00000000000E+00 0.  1.
        -11    1    5    5    0    0  0.27944014321E+02  0.95989721936E+02 -0.14208844052E+02  0.10097913598E+03  0.00000000000E+00 0. -1.
          2    1    6    6  503    0 -0.43959861929E+01  0.31233220505E+01 -0.11055644144E+01  0.55047350448E+01  0.00000000000E+00 0.  1.
         -2    1    6    6    0  503 -0.32142358965E+03 -0.47532106394E+03 -0.55984583622E+03  0.80166738623E+03  0.00000000000E+00 0. -1.
<mgrwt>
<rscale>  0 0.19713260E+04</rscale>
<asrwt>0</asrwt>
<pdfrwt beam="1">  1        2 0.51953594E+00 0.19713260E+04</pdfrwt>
<pdfrwt beam="2">  1       -1 0.44260326E-01 0.19713260E+04</pdfrwt>
<totfact> 0.53189378E+00</totfact>
</mgrwt>
</event>
<event>
12    6  0.1530859E-007  0.1346817E+04  0.7818608E-02  0.8993241E-01
          2   -1    0    0  501    0  0.00000000000E+00  0.00000000000E+00  0.79007867378E+03  0.79007867378E+03  0.00000000000E+00 0. -1.
         -1   -1    0    0    0  501 -0.00000000000E+00 -0.00000000000E+00 -0.57396687959E+03  0.57396687959E+03  0.00000000000E+00 0.  1.
         24    2    1    2    0    0 -0.94488261914E+02  0.75862952270E+02  0.40617791744E+03  0.43128314408E+03  0.79633099774E+02 0.  0.
        254    2    1    2    0    0  0.94488261914E+02 -0.75862952270E+02 -0.19006612325E+03  0.93276240929E+03  0.90511731937E+03 0.  0.
         23    2    4    4    0    0  0.25512684589E+03  0.99487260905E+01  0.29870484521E+03  0.40315111260E+03  0.90097449419E+02 0.  0.
         23    2    4    4    0    0 -0.16063858397E+03 -0.85811678360E+02 -0.48877096846E+03  0.52961129670E+03  0.91775090160E+02 0.  0.
          2    1    3    3  502    0 -0.78926079489E+02  0.35069326478E+02  0.16553102711E+03  0.18670753766E+03  0.00000000000E+00 0. -1.
         -1    1    3    3    0  502 -0.15562182426E+02  0.40793625792E+02  0.24064689033E+03  0.24457560641E+03  0.00000000000E+00 0.  1.
         11    1    5    5    0    0  0.25008946932E+03 -0.30880844264E+01  0.29815151790E+03  0.38916398415E+03  0.00000000000E+00 0.  1.
        -11    1    5    5    0    0  0.50373765705E+01  0.13036810517E+02  0.55332730754E+00  0.13987128450E+02  0.00000000000E+00 0. -1.
          3    1    6    6  503    0  0.70180804130E+01 -0.10782447386E+02 -0.85717905772E+02  0.86677990253E+02  0.00000000000E+00 0. -1.
         -3    1    6    6    0  503 -0.16765666439E+03 -0.75029230974E+02 -0.40305306269E+03  0.44293330644E+03  0.00000000000E+00 0.  1.
<mgrwt>
<rscale>  0 0.13468170E+04</rscale>
<asrwt>0</asrwt>
<pdfrwt beam="1">  1        2 0.12155056E+00 0.13468170E+04</pdfrwt>
<pdfrwt beam="2">  1       -1 0.88302597E-01 0.13468170E+04</pdfrwt>
<totfact> 0.49235026E+01</totfact>
</mgrwt>
</event>
<event>
12    6  0.1530859E-007  0.1269336E+04  0.7818608E-02  0.9054242E-01
         -1   -1    0    0    0  501 -0.00000000000E+00  0.00000000000E+00  0.11689582905E+04  0.11689582905E+04  0.00000000000E+00 0.  1.
          2   -1    0    0  501    0  0.00000000000E+00 -0.00000000000E+00 -0.34458308210E+03  0.34458308210E+03  0.00000000000E+00 0. -1.
         24    2    1    2    0    0 -0.87898820578E+02  0.28644126759E+03  0.25869886984E+03  0.40388817274E+03  0.80160765884E+02 0.  0.
        254    2    1    2    0    0  0.87898820578E+02 -0.28644126759E+03  0.56567633852E+03  0.11096531998E+04  0.90640261554E+03 0.  0.
         23    2    4    4    0    0 -0.17757897795E+03 -0.50835810320E+03  0.51165429184E+03  0.74791969390E+03  0.87358454961E+02 0.  0.
         23    2    4    4    0    0  0.26547779853E+03  0.22191683562E+03  0.54022046671E+02  0.36173350591E+03  0.90593621924E+02 0.  0.
          2    1    3    3  502    0 -0.63623541578E+02  0.18371278112E+03  0.11601250177E+03  0.22640062181E+03  0.00000000000E+00 0. -1.
         -1    1    3    3    0  502 -0.24275279000E+02  0.10272848647E+03  0.14268636807E+03  0.17748755093E+03  0.00000000000E+00 0.  1.
         11    1    5    5    0    0  0.82028348561E+01 -0.12324882171E+02  0.22431954630E+02  0.26877161471E+02  0.00000000000E+00 0.  1.
        -11    1    5    5    0    0 -0.18578181280E+03 -0.49603322103E+03  0.48922233721E+03  0.72104253243E+03  0.00000000000E+00 0. -1.
          2    1    6    6  503    0  0.25987082562E+03  0.19178881854E+03  0.33195231672E+02  0.32468095160E+03  0.00000000000E+00 0. -1.
         -2    1    6    6    0  503  0.56069729031E+01  0.30128017072E+02  0.20826814999E+02  0.37052554309E+02  0.00000000000E+00 0.  1.
<mgrwt>
<rscale>  0 0.12693357E+04</rscale>
<asrwt>0</asrwt>
<pdfrwt beam="1">  1        2 0.53012783E-01 0.12693357E+04</pdfrwt>
<pdfrwt beam="2">  1       -1 0.17983973E+00 0.12693357E+04</pdfrwt>
<totfact> 0.22068500E+01</totfact>
</mgrwt>
</event>
<event>
12    6  0.1530859E-007  0.1295466E+04  0.7818608E-02  0.9033168E-01
         -1   -1    0    0    0  501 -0.00000000000E+00  0.00000000000E+00  0.15017928699E+03  0.15017928699E+03  0.00000000000E+00 0.  1.
          2   -1    0    0  501    0  0.00000000000E+00 -0.00000000000E+00 -0.27937153829E+04  0.27937153829E+04  0.00000000000E+00 0. -1.
         24    2    1    2    0    0 -0.18353922895E+02 -0.27105198655E+03 -0.11359357479E+04  0.11706209907E+04  0.78723786180E+02 0.  0.
        254    2    1    2    0    0  0.18353922895E+02  0.27105198655E+03 -0.15076003480E+04  0.17732736792E+04  0.89321592362E+03 0.  0.
         23    2    4    4    0    0  0.34531836340E+03  0.48527515584E+02 -0.12294119572E+04  0.12811127162E+04  0.90533635545E+02 0.  0.
         23    2    4    4    0    0 -0.32696444050E+03  0.22252447097E+03 -0.27818839077E+03  0.49216096302E+03  0.91710126091E+02 0.  0.
          4    1    3    3  502    0  0.19482300071E+02 -0.16000490043E+03 -0.75568413908E+03  0.77268340622E+03  0.00000000000E+00 0. -1.
         -3    1    3    3    0  502 -0.37836222966E+02 -0.11104708612E+03 -0.38025160884E+03  0.39793758446E+03  0.00000000000E+00 0.  1.
         11    1    5    5    0    0  0.49834771224E+01 -0.11614274043E+02 -0.23874883350E+02  0.27013634719E+02  0.00000000000E+00 0.  1.
        -11    1    5    5    0    0  0.34033488628E+03  0.60141789627E+02 -0.12055370738E+04  0.12540990814E+04  0.00000000000E+00 0. -1.
          1    1    6    6  503    0 -0.26936386137E+03  0.17028143968E+03 -0.26241777773E+03  0.41281442390E+03  0.00000000000E+00 0. -1.
         -1    1    6    6    0  503 -0.57600579133E+02  0.52243031288E+02 -0.15770613043E+02  0.79346539121E+02  0.00000000000E+00 0.  1.
<mgrwt>
<rscale>  0 0.12954662E+04</rscale>
<asrwt>0</asrwt>
<pdfrwt beam="1">  1        2 0.42980237E+00 0.12954662E+04</pdfrwt>
<pdfrwt beam="2">  1       -1 0.23104505E-01 0.12954662E+04</pdfrwt>
<totfact> 0.42110233E+01</totfact>
</mgrwt>
</event>
<event>
12    6  0.1530859E-007  0.3410860E+04  0.7818608E-02  0.8135246E-01
          2   -1    0    0  501    0  0.00000000000E+00  0.00000000000E+00  0.13972421870E+04  0.13972421870E+04  0.00000000000E+00 0. -1.
         -1   -1    0    0    0  501 -0.00000000000E+00 -0.00000000000E+00 -0.20815947852E+04  0.20815947852E+04  0.00000000000E+00 0.  1.
         24    2    1    2    0    0 -0.11726490347E+03 -0.11718135647E+04 -0.14193104207E+04  0.18460022745E+04  0.79901434391E+02 0.  0.
        254    2    1    2    0    0  0.11726490347E+03  0.11718135647E+04  0.73495782258E+03  0.16328346977E+04  0.85970230958E+03 0.  0.
         23    2    4    4    0    0  0.43084315208E+03  0.34290549222E+03  0.37185937531E+03  0.67077404111E+03  0.91915292171E+02 0.  0.
         23    2    4    4    0    0 -0.31357824860E+03  0.82890807245E+03  0.36309844727E+03  0.96206065659E+03  0.91106058920E+02 0.  0.
          4    1    3    3  502    0  0.73978830437E+01 -0.16115880648E+03 -0.21707957830E+03  0.27046336701E+03  0.00000000000E+00 0. -1.
         -3    1    3    3    0  502 -0.12466278652E+03 -0.10106547582E+04 -0.12022308424E+04  0.15755389075E+04  0.00000000000E+00 0.  1.
         11    1    5    5    0    0  0.29303007944E+03  0.27429670076E+03  0.29870572781E+03  0.50033031023E+03  0.00000000000E+00 0. -1.
        -11    1    5    5    0    0  0.13781307263E+03  0.68608791461E+02  0.73153647496E+02  0.17044373088E+03  0.00000000000E+00 0.  1.
          1    1    6    6  503    0 -0.36360395405E+01  0.64905594776E+02  0.41246725245E+02  0.76988631370E+02  0.00000000000E+00 0. -1.
         -1    1    6    6    0  503 -0.30994220906E+03  0.76400247767E+03  0.32185172203E+03  0.88507202522E+03  0.00000000000E+00 0.  1.
<mgrwt>
<rscale>  0 0.34108603E+04</rscale>
<asrwt>0</asrwt>
<pdfrwt beam="1">  1        2 0.21496034E+00 0.34108603E+04</pdfrwt>
<pdfrwt beam="2">  1       -1 0.32024535E+00 0.34108603E+04</pdfrwt>
<totfact> 0.33373429E-01</totfact>
</mgrwt>
</event>
<event>
12    6  0.1530859E-007  0.1907378E+04  0.7818608E-02  0.8651193E-01
         -1   -1    0    0    0  501 -0.00000000000E+00  0.00000000000E+00  0.25258550174E+03  0.25258550174E+03  0.00000000000E+00 0.  1.
          2   -1    0    0  501    0  0.00000000000E+00 -0.00000000000E+00 -0.36008505253E+04  0.36008505253E+04  0.00000000000E+00 0. -1.
         24    2    1    2    0    0 -0.19052458760E+03  0.71269845649E+03 -0.12849572442E+04  0.14837817940E+04  0.79085931200E+02 0.  0.
        254    2    1    2    0    0  0.19052458760E+03 -0.71269845649E+03 -0.20633077794E+04  0.23696542330E+04  0.90209948637E+03 0.  0.
         23    2    4    4    0    0  0.92021561773E+02 -0.89933976133E+03 -0.14131596360E+04  0.16797336691E+04  0.84882673166E+02 0.  0.
         23    2    4    4    0    0  0.98503025826E+02  0.18664130484E+03 -0.65014814340E+03  0.68992056393E+03  0.93594622713E+02 0.  0.
          4    1    3    3  502    0 -0.27094685683E+02  0.66396509379E+02 -0.17339287472E+03  0.18763716971E+03  0.00000000000E+00 0. -1.
         -3    1    3    3    0  502 -0.16342990192E+03  0.64630194711E+03 -0.11115643694E+04  0.12961446243E+04  0.00000000000E+00 0.  1.
         11    1    5    5    0    0  0.94782480670E+02 -0.84750751902E+03 -0.12937382392E+04  0.15495197143E+04  0.00000000000E+00 0. -1.
        -11    1    5    5    0    0 -0.27609188966E+01 -0.51832242306E+02 -0.11942139675E+03  0.13021395477E+03  0.00000000000E+00 0.  1.
          1    1    6    6  503    0  0.96665293072E+02  0.18622517276E+03 -0.53378253309E+03  0.57353969914E+03  0.00000000000E+00 0. -1.
         -1    1    6    6    0  503  0.18377327537E+01  0.41613207722E+00 -0.11636561030E+03  0.11638086479E+03  0.00000000000E+00 0.  1.
<mgrwt>
<rscale>  0 0.19073779E+04</rscale>
<asrwt>0</asrwt>
<pdfrwt beam="1">  1        2 0.55397697E+00 0.19073779E+04</pdfrwt>
<pdfrwt beam="2">  1       -1 0.38859311E-01 0.19073779E+04</pdfrwt>
<totfact> 0.47537745E+00</totfact>
</mgrwt>
</event>
<event>
12    6  0.1530859E-007  0.1351171E+04  0.7818608E-02  0.8989942E-01
         -1   -1    0    0    0  501 -0.00000000000E+00  0.00000000000E+00  0.43571842881E+03  0.43571842881E+03  0.00000000000E+00 0.  1.
          2   -1    0    0  501    0  0.00000000000E+00 -0.00000000000E+00 -0.10475019882E+04  0.10475019882E+04  0.00000000000E+00 0. -1.
         24    2    1    2    0    0 -0.83501569269E+01 -0.29818636528E+03  0.67386960528E+02  0.31606308570E+03  0.79812518637E+02 0.  0.
        254    2    1    2    0    0  0.83501569269E+01  0.29818636528E+03 -0.67917051991E+03  0.11671573313E+04  0.90110976431E+03 0.  0.
         23    2    4    4    0    0 -0.31614154255E+03 -0.52678584453E+02 -0.13291241216E+01  0.33312234347E+03  0.90819716810E+02 0.  0.
         23    2    4    4    0    0  0.32449169948E+03  0.35086494973E+03 -0.67784139579E+03  0.83403498783E+03  0.88001858509E+02 0.  0.
          2    1    3    3  502    0  0.26279345593E+01 -0.82300448454E+02 -0.16878817895E+02  0.84054531998E+02  0.00000000000E+00 0. -1.
         -1    1    3    3    0  502 -0.10978091486E+02 -0.21588591682E+03  0.84265778422E+02  0.23200855370E+03  0.00000000000E+00 0.  1.
         11    1    5    5    0    0 -0.14620871149E+03  0.20512812788E+02  0.80509798458E+01  0.14786000501E+03  0.00000000000E+00 0.  1.
        -11    1    5    5    0    0 -0.16993283106E+03 -0.73191397240E+02 -0.93801039674E+01  0.18526233846E+03  0.00000000000E+00 0. -1.
          4    1    6    6  503    0  0.87122317391E+02  0.15402264356E+03 -0.22704775178E+03  0.28786099858E+03  0.00000000000E+00 0. -1.
         -4    1    6    6    0  503  0.23736938209E+03  0.19684230617E+03 -0.45079364401E+03  0.54617398925E+03  0.00000000000E+00 0.  1.
<mgrwt>
<rscale>  0 0.13511712E+04</rscale>
<asrwt>0</asrwt>
<pdfrwt beam="1">  1        2 0.16115415E+00 0.13511712E+04</pdfrwt>
<pdfrwt beam="2">  1       -1 0.67033605E-01 0.13511712E+04</pdfrwt>
<totfact> 0.59012897E+01</totfact>
</mgrwt>
</event>
<event>
12    6  0.1530859E-007  0.1741024E+04  0.7818608E-02  0.8738307E-01
         -1   -1    0    0    0  501 -0.00000000000E+00  0.00000000000E+00  0.64495698792E+03  0.64495698792E+03  0.00000000000E+00 0.  1.
          2   -1    0    0  501    0  0.00000000000E+00 -0.00000000000E+00 -0.11749484070E+04  0.11749484070E+04  0.00000000000E+00 0. -1.
         24    2    1    2    0    0  0.30639378240E+02 -0.50570843202E+02 -0.85420537773E+03  0.85992715339E+03  0.79446208957E+02 0.  0.
        254    2    1    2    0    0 -0.30639378240E+02  0.50570843202E+02  0.32421395869E+03  0.95997824148E+03  0.90163593064E+03 0.  0.
         23    2    4    4    0    0  0.24878022791E+03 -0.10182605537E+03  0.50829035615E+03  0.58205473055E+03  0.90379620733E+02 0.  0.
         23    2    4    4    0    0 -0.27941960615E+03  0.15239689857E+03 -0.18407639746E+03  0.37792351093E+03  0.87418127528E+02 0.  0.
          4    1    3    3  502    0  0.28714301846E+02 -0.68692212732E+02 -0.77881368685E+03  0.78236429498E+03  0.00000000000E+00 0. -1.
         -3    1    3    3    0  502  0.19250763936E+01  0.18121369529E+02 -0.75391690871E+02  0.77562858412E+02  0.00000000000E+00 0.  1.
         11    1    5    5    0    0  0.23331177208E+03 -0.66819226885E+02  0.46306986207E+03  0.52281247999E+03  0.00000000000E+00 0. -1.
        -11    1    5    5    0    0  0.15468455831E+02 -0.35006828486E+02  0.45220494080E+02  0.59242250559E+02  0.00000000000E+00 0.  1.
          1    1    6    6  503    0 -0.87710702091E+02  0.16682619812E+02 -0.84073237915E+02  0.12263680687E+03  0.00000000000E+00 0. -1.
         -1    1    6    6    0  503 -0.19170890406E+03  0.13571427876E+03 -0.10000315954E+03  0.25528670407E+03  0.00000000000E+00 0.  1.
<mgrwt>
<rscale>  0 0.17410240E+04</rscale>
<asrwt>0</asrwt>
<pdfrwt beam="1">  1        2 0.18076129E+00 0.17410240E+04</pdfrwt>
<pdfrwt beam="2">  1       -1 0.99224153E-01 0.17410240E+04</pdfrwt>
<totfact> 0.20580464E+01</totfact>
</mgrwt>
</event>
<event>
12    6  0.1530859E-007  0.1583629E+04  0.7818608E-02  0.8830669E-01
         -1   -1    0    0    0  501 -0.00000000000E+00  0.00000000000E+00  0.37141116185E+03  0.37141116185E+03  0.00000000000E+00 0.  1.
          2   -1    0    0  501    0  0.00000000000E+00 -0.00000000000E+00 -0.16880756036E+04  0.16880756036E+04  0.00000000000E+00 0. -1.
         24    2    1    2    0    0  0.22570529012E+03  0.47637952231E+03 -0.31225347781E+03  0.61816988827E+03  0.82167202088E+02 0.  0.
        254    2    1    2    0    0 -0.22570529012E+03 -0.47637952231E+03 -0.10044109640E+04  0.14413168772E+04  0.88919774443E+03 0.  0.
         23    2    4    4    0    0 -0.66501330302E+02 -0.20039082242E+03 -0.10759486156E+04  0.11002174937E+04  0.90742500585E+02 0.  0.
         23    2    4    4    0    0 -0.15920395982E+03 -0.27598869989E+03  0.71537651669E+02  0.34109938346E+03  0.98567187741E+02 0.  0.
          2    1    3    3  502    0  0.57948096360E+02  0.18824741023E+03 -0.14877052939E+03  0.24683545075E+03  0.00000000000E+00 0. -1.
         -1    1    3    3    0  502  0.16775719376E+03  0.28813211208E+03 -0.16348294842E+03  0.37133443753E+03  0.00000000000E+00 0.  1.
         11    1    5    5    0    0 -0.68288712545E+02 -0.10830493294E+03 -0.46258524321E+03  0.47997751405E+03  0.00000000000E+00 0.  1.
        -11    1    5    5    0    0  0.17873822427E+01 -0.92085889486E+02 -0.61336337241E+03  0.62023997968E+03  0.00000000000E+00 0. -1.
          1    1    6    6  503    0  0.23529266926E+01 -0.44182827982E+02 -0.13101655467E+02  0.46144468016E+02  0.00000000000E+00 0. -1.
         -1    1    6    6    0  503 -0.16155688651E+03 -0.23180587191E+03  0.84639307136E+02  0.29495491544E+03  0.00000000000E+00 0.  1.
<mgrwt>
<rscale>  0 0.15836289E+04</rscale>
<asrwt>0</asrwt>
<pdfrwt beam="1">  1        2 0.25970394E+00 0.15836289E+04</pdfrwt>
<pdfrwt beam="2">  1       -1 0.57140178E-01 0.15836289E+04</pdfrwt>
<totfact> 0.33777797E+01</totfact>
</mgrwt>
</event>
<event>
12    6  0.1530859E-007  0.3030390E+04  0.7818608E-02  0.8235106E-01
         -1   -1    0    0    0  501 -0.00000000000E+00  0.00000000000E+00  0.64387066342E+03  0.64387066342E+03  0.00000000000E+00 0.  1.
          2   -1    0    0  501    0  0.00000000000E+00 -0.00000000000E+00 -0.35656469275E+04  0.35656469275E+04  0.00000000000E+00 0. -1.
         24    2    1    2    0    0  0.97112551761E+03  0.43248506483E+03 -0.24360479573E+04  0.26591466726E+04  0.81260528821E+02 0.  0.
        254    2    1    2    0    0 -0.97112551761E+03 -0.43248506483E+03 -0.48572830676E+03  0.15503709184E+04  0.10186215658E+04 0.  0.
         23    2    4    4    0    0 -0.57348123565E+03  0.23370688317E+03  0.82784969402E+01  0.62605610087E+03  0.91531814394E+02 0.  0.
         23    2    4    4    0    0 -0.39764428196E+03 -0.66619194801E+03 -0.49400680370E+03  0.92431481750E+03  0.91555847357E+02 0.  0.
          4    1    3    3  502    0  0.97051000989E+03  0.43115527765E+03 -0.24166506355E+04  0.26396940821E+04  0.00000000000E+00 0. -1.
         -3    1    3    3    0  502  0.61550772092E+00  0.13297871858E+01 -0.19397321804E+02  0.19452590493E+02  0.00000000000E+00 0.  1.
         11    1    5    5    0    0 -0.30915260978E+03  0.16793222517E+03  0.28147400499E+02  0.35294311800E+03  0.00000000000E+00 0. -1.
        -11    1    5    5    0    0 -0.26432862586E+03  0.65774658002E+02 -0.19868903559E+02  0.27311298287E+03  0.00000000000E+00 0.  1.
          3    1    6    6  503    0 -0.25868829090E+03 -0.37714088960E+03 -0.33100778852E+03  0.56455384023E+03  0.00000000000E+00 0. -1.
         -3    1    6    6    0  503 -0.13895599106E+03 -0.28905105841E+03 -0.16299901518E+03  0.35976097727E+03  0.00000000000E+00 0.  1.
<mgrwt>
<rscale>  0 0.30303897E+04</rscale>
<asrwt>0</asrwt>
<pdfrwt beam="1">  1        2 0.54856107E+00 0.30303897E+04</pdfrwt>
<pdfrwt beam="2">  1       -1 0.99057024E-01 0.30303897E+04</pdfrwt>
<totfact> 0.68964423E-01</totfact>
</mgrwt>
</event>
<event>
12    6  0.1530859E-007  0.1845518E+04  0.7818608E-02  0.8682461E-01
          2   -1    0    0  501    0  0.00000000000E+00  0.00000000000E+00  0.11089278164E+04  0.11089278164E+04  0.00000000000E+00 0. -1.
         -1   -1    0    0    0  501 -0.00000000000E+00 -0.00000000000E+00 -0.76784495336E+03  0.76784495336E+03  0.00000000000E+00 0.  1.
         24    2    1    2    0    0  0.10277347582E+03 -0.20070666163E+03 -0.54116215314E+03  0.59190105101E+03  0.81515807271E+02 0.  0.
        254    2    1    2    0    0 -0.10277347582E+03  0.20070666163E+03  0.88224501620E+03  0.12848717188E+04  0.90647311804E+03 0.  0.
         23    2    4    4    0    0 -0.38951159981E+03  0.16468990462E+03  0.97230075103E+02  0.44343823018E+03  0.91333046632E+02 0.  0.
         23    2    4    4    0    0  0.28673812399E+03  0.36016757009E+02  0.78501494110E+03  0.84143348860E+03  0.90806935058E+02 0.  0.
          4    1    3    3  502    0 -0.38680700395E+00  0.33511626756E+01  0.98062892194E+00  0.35130533755E+01  0.00000000000E+00 0. -1.
         -3    1    3    3    0  502  0.10316028282E+03 -0.20405782431E+03 -0.54214278206E+03  0.58838799763E+03  0.00000000000E+00 0.  1.
         11    1    5    5    0    0 -0.19171466692E+01  0.14613595840E+02  0.12340586942E+02  0.19222973776E+02  0.00000000000E+00 0.  1.
        -11    1    5    5    0    0 -0.38759445314E+03  0.15007630878E+03  0.84889488162E+02  0.42421525640E+03  0.00000000000E+00 0. -1.
          2    1    6    6  503    0  0.16281716647E+03  0.65224059917E+02  0.43929022056E+03  0.47301110512E+03  0.00000000000E+00 0. -1.
         -2    1    6    6    0  503  0.12392095752E+03 -0.29207302908E+02  0.34572472054E+03  0.36842238348E+03  0.00000000000E+00 0.  1.
<mgrwt>
<rscale>  0 0.18455185E+04</rscale>
<asrwt>0</asrwt>
<pdfrwt beam="1">  1        2 0.17060428E+00 0.18455185E+04</pdfrwt>
<pdfrwt beam="2">  1       -1 0.11812999E+00 0.18455185E+04</pdfrwt>
<totfact> 0.14848094E+01</totfact>
</mgrwt>
</event>
<event>
12    6  0.1530859E-007  0.1666349E+04  0.7818608E-02  0.8780793E-01
         -1   -1    0    0    0  501 -0.00000000000E+00  0.00000000000E+00  0.53993147356E+03  0.53993147356E+03  0.00000000000E+00 0.  1.
          2   -1    0    0  501    0  0.00000000000E+00 -0.00000000000E+00 -0.12856808776E+04  0.12856808776E+04  0.00000000000E+00 0. -1.
         24    2    1    2    0    0  0.57860278149E+03  0.78749198460E+02 -0.32210159652E+03  0.67155332943E+03  0.79068456289E+02 0.  0.
        254    2    1    2    0    0 -0.57860278149E+03 -0.78749198460E+02 -0.42364780753E+03  0.11540590217E+04  0.90077308232E+03 0.  0.
         23    2    4    4    0    0  0.23064457106E+03 -0.44914809289E+02 -0.15279879739E+03  0.29522033729E+03  0.92700144616E+02 0.  0.
         23    2    4    4    0    0 -0.80924735255E+03 -0.33834389170E+02 -0.27084901015E+03  0.85883868446E+03  0.90656804092E+02 0.  0.
          4    1    3    3  502    0  0.21980082232E+03  0.45489396508E+02 -0.84040219410E+02  0.23967570833E+03  0.00000000000E+00 0. -1.
         -3    1    3    3    0  502  0.35880195917E+03  0.33259801952E+02 -0.23806137712E+03  0.43187762110E+03  0.00000000000E+00 0.  1.
         11    1    5    5    0    0  0.13680700477E+01 -0.69976492917E+01  0.94183004625E+01  0.11812836021E+02  0.00000000000E+00 0. -1.
        -11    1    5    5    0    0  0.22927650101E+03 -0.37917159998E+02 -0.16221709785E+03  0.28340750127E+03  0.00000000000E+00 0.  1.
          1    1    6    6  503    0 -0.24164788494E+03 -0.48617755872E+02 -0.98783310476E+02  0.26554760197E+03  0.00000000000E+00 0. -1.
         -1    1    6    6    0  503 -0.56759946761E+03  0.14783366702E+02 -0.17206569967E+03  0.59329108249E+03  0.00000000000E+00 0.  1.
<mgrwt>
<rscale>  0 0.16663488E+04</rscale>
<asrwt>0</asrwt>
<pdfrwt beam="1">  1        2 0.19779706E+00 0.16663488E+04</pdfrwt>
<pdfrwt beam="2">  1       -1 0.83066380E-01 0.16663488E+04</pdfrwt>
<totfact> 0.26379474E+01</totfact>
</mgrwt>
</event>
<event>
12    6  0.1543203E-007  0.2865654E+04  0.7818608E-02  0.8283170E-01
         -1   -1    0    0    0  501 -0.00000000000E+00  0.00000000000E+00  0.67999003725E+03  0.67999003725E+03  0.00000000000E+00 0.  1.
          2   -1    0    0  501    0  0.00000000000E+00 -0.00000000000E+00 -0.30191525234E+04  0.30191525234E+04  0.00000000000E+00 0. -1.
         24    2    1    2    0    0 -0.53001981166E+03  0.72959013734E+03 -0.22652414899E+04  0.24394784913E+04  0.80706461472E+02 0.  0.
        254    2    1    2    0    0  0.53001981166E+03 -0.72959013734E+03 -0.73920996212E+02  0.12596640693E+04  0.87639402350E+03 0.  0.
         23    2    4    4    0    0 -0.13891378503E+03 -0.47454993364E+03 -0.17088737438E+03  0.53095023033E+03  0.90614420341E+02 0.  0.
         23    2    4    4    0    0  0.66893359670E+03 -0.25504020370E+03  0.96966378168E+02  0.72871383893E+03  0.95413407102E+02 0.  0.
          4    1    3    3  502    0 -0.52679086954E+03  0.70380429375E+03 -0.22098128780E+04  0.23782603012E+04  0.00000000000E+00 0. -1.
         -3    1    3    3    0  502 -0.32289421255E+01  0.25785843594E+02 -0.55428611872E+02  0.61218190199E+02  0.00000000000E+00 0.  1.
         11    1    5    5    0    0 -0.10740475307E+03 -0.36024460884E+03 -0.87410764366E+02  0.38594377947E+03  0.00000000000E+00 0. -1.
        -11    1    5    5    0    0 -0.31509031963E+02 -0.11430532480E+03 -0.83476610013E+02  0.14500645086E+03  0.00000000000E+00 0.  1.
          4    1    6    6  503    0  0.64247123667E+03 -0.22326896214E+03  0.98937925662E+02  0.68731872704E+03  0.00000000000E+00 0. -1.
         -4    1    6    6    0  503  0.26462360022E+02 -0.31771241563E+02 -0.19715474948E+01  0.41395111885E+02  0.00000000000E+00 0.  1.
<mgrwt>
<rscale>  0 0.28656543E+04</rscale>
<asrwt>0</asrwt>
<pdfrwt beam="1">  1        2 0.46448501E+00 0.28656543E+04</pdfrwt>
<pdfrwt beam="2">  1       -1 0.10461385E+00 0.28656543E+04</pdfrwt>
<totfact> 0.14296588E+00</totfact>
</mgrwt>
</event>
<event>
12    6  0.1530859E-007  0.2881278E+04  0.7818608E-02  0.8278470E-01
          2   -1    0    0  501    0  0.00000000000E+00  0.00000000000E+00  0.19019766511E+04  0.19019766511E+04  0.00000000000E+00 0. -1.
         -1   -1    0    0    0  501 -0.00000000000E+00 -0.00000000000E+00 -0.10912021552E+04  0.10912021552E+04  0.00000000000E+00 0.  1.
         24    2    1    2    0    0  0.87271480153E+03  0.33627719125E+03 -0.57130546944E+03  0.10988699669E+04  0.80073657676E+02 0.  0.
        254    2    1    2    0    0 -0.87271480153E+03 -0.33627719125E+03  0.13820799654E+04  0.18943088393E+04  0.89640809565E+03 0.  0.
         23    2    4    4    0    0 -0.71020408878E+03  0.92730524990E+02  0.11828496815E+04  0.13858897295E+04  0.92564438760E+02 0.  0.
         23    2    4    4    0    0 -0.16251071274E+03 -0.42900771624E+03  0.19923028391E+03  0.50841910986E+03  0.91323233051E+02 0.  0.
          2    1    3    3  502    0  0.41581965250E+03  0.12693059220E+03 -0.23567885675E+03  0.49453198295E+03  0.00000000000E+00 0. -1.
         -1    1    3    3    0  502  0.45689514903E+03  0.20934659905E+03 -0.33562661268E+03  0.60433798398E+03  0.00000000000E+00 0.  1.
         11    1    5    5    0    0 -0.90892409500E+02  0.10118235634E+02  0.21803222154E+03  0.23643573847E+03  0.00000000000E+00 0. -1.
        -11    1    5    5    0    0 -0.61931167928E+03  0.82612289356E+02  0.96481745994E+03  0.11494539910E+04  0.00000000000E+00 0.  1.
          4    1    6    6  503    0 -0.78116745370E+02 -0.96223029651E+02  0.63310516295E+02  0.13917370016E+03  0.00000000000E+00 0. -1.
         -4    1    6    6    0  503 -0.84393967375E+02 -0.33278468659E+03  0.13591976761E+03  0.36924540970E+03  0.00000000000E+00 0.  1.
<mgrwt>
<rscale>  0 0.28812782E+04</rscale>
<asrwt>0</asrwt>
<pdfrwt beam="1">  1        2 0.29261179E+00 0.28812782E+04</pdfrwt>
<pdfrwt beam="2">  1       -1 0.16787725E+00 0.28812782E+04</pdfrwt>
<totfact> 0.19003875E+00</totfact>
</mgrwt>
</event>
<event>
12    6  0.1530859E-007  0.3384760E+04  0.7818608E-02  0.8141657E-01
          2   -1    0    0  501    0  0.00000000000E+00  0.00000000000E+00  0.14742043756E+04  0.14742043756E+04  0.00000000000E+00 0. -1.
         -1   -1    0    0    0  501 -0.00000000000E+00 -0.00000000000E+00 -0.19428445906E+04  0.19428445906E+04  0.00000000000E+00 0.  1.
         24    2    1    2    0    0 -0.15058514199E+04  0.45953582969E+03 -0.24595970829E+03  0.15954696880E+04  0.79155983408E+02 0.  0.
        254    2    1    2    0    0  0.15058514199E+04 -0.45953582969E+03 -0.22268050665E+03  0.18215792781E+04  0.88870849036E+03 0.  0.
         23    2    4    4    0    0  0.11229045669E+04 -0.10381560266E+03  0.19301960430E+03  0.11476641741E+04  0.90466254464E+02 0.  0.
         23    2    4    4    0    0  0.38294685302E+03 -0.35572022702E+03 -0.41570011095E+03  0.67391510401E+03  0.90387017988E+02 0.  0.
          4    1    3    3  502    0 -0.51805947890E+03  0.17994727952E+03 -0.11747796326E+03  0.56086336922E+03  0.00000000000E+00 0. -1.
         -3    1    3    3    0  502 -0.98779194102E+03  0.27958855017E+03 -0.12848174503E+03  0.10346063188E+04  0.00000000000E+00 0.  1.
         11    1    5    5    0    0  0.79732090218E+03 -0.33110340006E+02  0.14425901364E+03  0.81094240158E+03  0.00000000000E+00 0. -1.
        -11    1    5    5    0    0  0.32558366472E+03 -0.70705262658E+02  0.48760590653E+02  0.33672177254E+03  0.00000000000E+00 0.  1.
          2    1    6    6  503    0  0.15165756595E+03 -0.13022315751E+03 -0.10532378975E+03  0.22594510118E+03  0.00000000000E+00 0. -1.
         -2    1    6    6    0  503  0.23128928707E+03 -0.22549706951E+03 -0.31037632120E+03  0.44797000283E+03  0.00000000000E+00 0.  1.
<mgrwt>
<rscale>  0 0.33847600E+04</rscale>
<asrwt>0</asrwt>
<pdfrwt beam="1">  1        2 0.22680067E+00 0.33847600E+04</pdfrwt>
<pdfrwt beam="2">  1       -1 0.29889917E+00 0.33847600E+04</pdfrwt>
<totfact> 0.41618402E-01</totfact>
</mgrwt>
</event>
<event>
12    6  0.1530859E-007  0.1987482E+04  0.7818608E-02  0.8612496E-01
         -1   -1    0    0    0  501 -0.00000000000E+00  0.00000000000E+00  0.48331811663E+03  0.48331811663E+03  0.00000000000E+00 0.  1.
          2   -1    0    0  501    0  0.00000000000E+00 -0.00000000000E+00 -0.20432112155E+04  0.20432112155E+04  0.00000000000E+00 0. -1.
         24    2    1    2    0    0 -0.68838526980E+03 -0.37625520458E+02 -0.11087435245E+04  0.13079844318E+04  0.78874020316E+02 0.  0.
        254    2    1    2    0    0  0.68838526980E+03  0.37625520458E+02 -0.45114957431E+03  0.12185449003E+04  0.89778938304E+03 0.  0.
         23    2    4    4    0    0  0.29411456218E+03 -0.16384003101E+03  0.21841447751E+03  0.41119850253E+03  0.89623618804E+02 0.  0.
         23    2    4    4    0    0  0.39427070761E+03  0.20146555147E+03 -0.66956405182E+03  0.80734639782E+03  0.86339025197E+02 0.  0.
          4    1    3    3  502    0 -0.43682127391E+03 -0.52197240186E+02 -0.65638032075E+03  0.79017245124E+03  0.00000000000E+00 0. -1.
         -3    1    3    3    0  502 -0.25156399588E+03  0.14571719728E+02 -0.45236320378E+03  0.51781198053E+03  0.00000000000E+00 0.  1.
         11    1    5    5    0    0  0.10137338143E+03 -0.10386507925E+03  0.73316431573E+02  0.16260324809E+03  0.00000000000E+00 0. -1.
        -11    1    5    5    0    0  0.19274118075E+03 -0.59974951762E+02  0.14509804594E+03  0.24859525444E+03  0.00000000000E+00 0.  1.
          1    1    6    6  503    0  0.15397664198E+03  0.12011786616E+03 -0.25284800068E+03  0.31948273740E+03  0.00000000000E+00 0. -1.
         -1    1    6    6    0  503  0.24029406563E+03  0.81347685307E+02 -0.41671605114E+03  0.48786366042E+03  0.00000000000E+00 0.  1.
<mgrwt>
<rscale>  0 0.19874818E+04</rscale>
<asrwt>0</asrwt>
<pdfrwt beam="1">  1        2 0.31434019E+00 0.19874818E+04</pdfrwt>
<pdfrwt beam="2">  1       -1 0.74356632E-01 0.19874818E+04</pdfrwt>
<totfact> 0.12183581E+01</totfact>
</mgrwt>
</event>
<event>
12    6  0.1530859E-007  0.2583992E+04  0.7818608E-02  0.8373659E-01
         -1   -1    0    0    0  501 -0.00000000000E+00  0.00000000000E+00  0.20090120007E+04  0.20090120007E+04  0.00000000000E+00 0.  1.
          2   -1    0    0  501    0  0.00000000000E+00 -0.00000000000E+00 -0.83088255385E+03  0.83088255385E+03  0.00000000000E+00 0. -1.
         24    2    1    2    0    0 -0.50621097704E+03 -0.57038213142E+03 -0.41020601219E+03  0.86958393679E+03  0.79510512355E+02 0.  0.
        254    2    1    2    0    0  0.50621097704E+03  0.57038213142E+03  0.15883354590E+04  0.19703106178E+04  0.88188948907E+03 0.  0.
         23    2    4    4    0    0  0.48095815269E+01 -0.21202873351E+03  0.28654651062E+03  0.36828409623E+03  0.92438935949E+02 0.  0.
         23    2    4    4    0    0  0.50140139552E+03  0.78241086493E+03  0.13017889484E+04  0.16020265215E+04  0.90908682234E+02 0.  0.
          2    1    3    3  502    0 -0.28438579925E+03 -0.26527468110E+03 -0.22577323692E+03  0.44968821839E+03  0.00000000000E+00 0. -1.
         -1    1    3    3    0  502 -0.22182517779E+03 -0.30510745032E+03 -0.18443277527E+03  0.41989571841E+03  0.00000000000E+00 0.  1.
         11    1    5    5    0    0 -0.30196000926E+02 -0.14453070863E+03  0.14145238071E+03  0.20447420428E+03  0.00000000000E+00 0. -1.
        -11    1    5    5    0    0  0.35005582453E+02 -0.67498024880E+02  0.14509412990E+03  0.16380989194E+03  0.00000000000E+00 0.  1.
          1    1    6    6  503    0  0.50109971427E+03  0.75600323892E+03  0.12576194532E+04  0.15505639329E+04  0.00000000000E+00 0. -1.
         -1    1    6    6    0  503  0.30168125100E+00  0.26407626002E+02  0.44169495263E+02  0.51462588688E+02  0.00000000000E+00 0.  1.
<mgrwt>
<rscale>  0 0.25839915E+04</rscale>
<asrwt>0</asrwt>
<pdfrwt beam="1">  1        2 0.12782809E+00 0.25839915E+04</pdfrwt>
<pdfrwt beam="2">  1       -1 0.30907877E+00 0.25839915E+04</pdfrwt>
<totfact> 0.95342575E-01</totfact>
</mgrwt>
</event>
<event>
12    6  0.1530859E-007  0.2828993E+04  0.7818608E-02  0.8294323E-01
          2   -1    0    0  501    0  0.00000000000E+00  0.00000000000E+00  0.21500107306E+04  0.21500107306E+04  0.00000000000E+00 0. -1.
         -1   -1    0    0    0  501 -0.00000000000E+00 -0.00000000000E+00 -0.93060018836E+03  0.93060018836E+03  0.00000000000E+00 0.  1.
         24    2    1    2    0    0  0.66282244213E+03 -0.67680483022E+03  0.14697497399E+04  0.17509920617E+04  0.91708963340E+02 0.  0.
        254    2    1    2    0    0 -0.66282244213E+03  0.67680483022E+03 -0.25033919771E+03  0.13296188573E+04  0.89878708477E+03 0.  0.
         23    2    4    4    0    0 -0.63330086409E+02  0.19854300754E+03  0.30477293827E+03  0.37812816524E+03  0.81635407496E+02 0.  0.
         23    2    4    4    0    0 -0.59949235572E+03  0.47826182268E+03 -0.55511213598E+03  0.95149069205E+03  0.95181920246E+02 0.  0.
          2    1    3    3  502    0  0.54102234834E+03 -0.59789771605E+03  0.12603365832E+04  0.14962069252E+04  0.00000000000E+00 0. -1.
         -1    1    3    3    0  502  0.12180009379E+03 -0.78907114166E+02  0.20941315677E+03  0.25478513642E+03  0.00000000000E+00 0.  1.
         11    1    5    5    0    0 -0.34330898015E+02  0.11364443110E+03  0.10246712483E+03  0.15682212520E+03  0.00000000000E+00 0.  1.
        -11    1    5    5    0    0 -0.28999188394E+02  0.84898576433E+02  0.20230581344E+03  0.22130604004E+03  0.00000000000E+00 0. -1.
          4    1    6    6  503    0 -0.60294913173E+03  0.47475751432E+03 -0.55384690792E+03  0.94640834225E+03  0.00000000000E+00 0. -1.
         -4    1    6    6    0  503  0.34567760104E+01  0.35043083587E+01 -0.12652280562E+01  0.50823498004E+01  0.00000000000E+00 0.  1.
<mgrwt>
<rscale>  0 0.28289930E+04</rscale>
<asrwt>0</asrwt>
<pdfrwt beam="1">  1        2 0.33077088E+00 0.28289930E+04</pdfrwt>
<pdfrwt beam="2">  1       -1 0.14316926E+00 0.28289930E+04</pdfrwt>
<totfact> 0.21491758E+00</totfact>
</mgrwt>
</event>
<event>
12    6  0.1530859E-007  0.2437938E+04  0.7818608E-02  0.8425435E-01
         -1   -1    0    0    0  501 -0.00000000000E+00  0.00000000000E+00  0.75734500171E+03  0.75734500171E+03  0.00000000000E+00 0.  1.
          2   -1    0    0  501    0  0.00000000000E+00 -0.00000000000E+00 -0.19619659124E+04  0.19619659124E+04  0.00000000000E+00 0. -1.
         24    2    1    2    0    0 -0.40334268532E+03  0.96255506927E+03 -0.67752720688E+03  0.12469121841E+04  0.80927718462E+02 0.  0.
        254    2    1    2    0    0  0.40334268532E+03 -0.96255506927E+03 -0.52709370384E+03  0.14723987300E+04  0.89494841438E+03 0.  0.
         23    2    4    4    0    0  0.15352155756E+03  0.16142810820E+02 -0.41545699556E+03  0.45226475987E+03  0.90052422975E+02 0.  0.
         23    2    4    4    0    0  0.24982112776E+03 -0.97869788009E+03 -0.11163670828E+03  0.10201339702E+04  0.89165161773E+02 0.  0.
          2    1    3    3  502    0 -0.72474943971E+02  0.11279995744E+03 -0.70870991893E+02  0.15165469130E+03  0.00000000000E+00 0. -1.
         -1    1    3    3    0  502 -0.33086774134E+03  0.84975511183E+03 -0.60665621499E+03  0.10952574928E+04  0.00000000000E+00 0.  1.
         11    1    5    5    0    0  0.14917676256E+03  0.24414654474E+02 -0.29525915004E+03  0.33170430736E+03  0.00000000000E+00 0.  1.
        -11    1    5    5    0    0  0.43447950003E+01 -0.82718436536E+01 -0.12019784552E+03  0.12056045251E+03  0.00000000000E+00 0. -1.
          3    1    6    6  503    0  0.23305207854E+03 -0.76747786343E+03 -0.84596750195E+02  0.80653093698E+03  0.00000000000E+00 0. -1.
         -3    1    6    6    0  503  0.16769049217E+02 -0.21122001666E+03 -0.27039958088E+02  0.21360303318E+03  0.00000000000E+00 0.  1.
<mgrwt>
<rscale>  0 0.24379377E+04</rscale>
<asrwt>0</asrwt>
<pdfrwt beam="1">  1        2 0.30184090E+00 0.24379377E+04</pdfrwt>
<pdfrwt beam="2">  1       -1 0.11651462E+00 0.24379377E+04</pdfrwt>
<totfact> 0.47594342E+00</totfact>
</mgrwt>
</event>
<event>
12    6  0.1530859E-007  0.1706365E+04  0.7818608E-02  0.8757743E-01
         -1   -1    0    0    0  501 -0.00000000000E+00  0.00000000000E+00  0.28034278993E+03  0.28034278993E+03  0.00000000000E+00 0.  1.
          2   -1    0    0  501    0  0.00000000000E+00 -0.00000000000E+00 -0.25965357431E+04  0.25965357431E+04  0.00000000000E+00 0. -1.
         24    2    1    2    0    0 -0.75290634748E+02  0.54809026395E+02  0.18331924411E+03  0.22108169664E+03  0.81230919440E+02 0.  0.
        254    2    1    2    0    0  0.75290634748E+02 -0.54809026395E+02 -0.24995121973E+04  0.26557968364E+04  0.89276139188E+03 0.  0.
         23    2    4    4    0    0 -0.84183421250E+02 -0.88350861105E+02 -0.26811736773E+01  0.15197155958E+03  0.90528686933E+02 0.  0.
         23    2    4    4    0    0  0.15947405600E+03  0.33541834710E+02 -0.24968310236E+04  0.25038252768E+04  0.91754167262E+02 0.  0.
          4    1    3    3  502    0 -0.13933592344E+02 -0.58432104825E+01 -0.33172264757E+01  0.15469069004E+02  0.00000000000E+00 0. -1.
         -3    1    3    3    0  502 -0.61357042403E+02  0.60652236877E+02  0.18663647058E+03  0.20561262763E+03  0.00000000000E+00 0.  1.
         11    1    5    5    0    0 -0.15649040481E+02 -0.39383280149E+02  0.39355414483E+02  0.57834106480E+02  0.00000000000E+00 0. -1.
        -11    1    5    5    0    0 -0.68534380769E+02 -0.48967580956E+02 -0.42036588160E+02  0.94137453100E+02  0.00000000000E+00 0.  1.
          2    1    6    6  503    0  0.41123123064E+02 -0.29271177120E+02 -0.51404958560E+03  0.51652191582E+03  0.00000000000E+00 0.  1.
         -2    1    6    6    0  503  0.11835093293E+03  0.62813011830E+02 -0.19827814380E+04  0.19873033610E+04  0.00000000000E+00 0. -1.
<mgrwt>
<rscale>  0 0.17063646E+04</rscale>
<asrwt>0</asrwt>
<pdfrwt beam="1">  1        2 0.39946702E+00 0.17063646E+04</pdfrwt>
<pdfrwt beam="2">  1       -1 0.43129662E-01 0.17063646E+04</pdfrwt>
<totfact> 0.17587877E+01</totfact>
</mgrwt>
</event>
<event>
12    6  0.1530859E-007  0.1849693E+04  0.7818608E-02  0.8680311E-01
          2   -1    0    0  501    0  0.00000000000E+00  0.00000000000E+00  0.33387552318E+04  0.33387552318E+04  0.00000000000E+00 0. -1.
         -1   -1    0    0    0  501 -0.00000000000E+00 -0.00000000000E+00 -0.25618553604E+03  0.25618553604E+03  0.00000000000E+00 0.  1.
         24    2    1    2    0    0  0.18336855864E+03 -0.38008416525E+03  0.86649413702E+02  0.43812186478E+03  0.79716036885E+02 0.  0.
        254    2    1    2    0    0 -0.18336855864E+03  0.38008416525E+03  0.29959202821E+04  0.31568189031E+04  0.90104342254E+03 0.  0.
         23    2    4    4    0    0 -0.50797371793E+03  0.46090651172E+02  0.16711857092E+04  0.17496608414E+04  0.91048004339E+02 0.  0.
         23    2    4    4    0    0  0.32460515929E+03  0.33399351408E+03  0.13247345729E+04  0.14071580617E+04  0.90840217233E+02 0.  0.
          2    1    3    3  502    0  0.52493238510E+02 -0.20030834917E+03  0.39322332948E+02  0.21077291265E+03  0.00000000000E+00 0. -1.
         -1    1    3    3    0  502  0.13087532013E+03 -0.17977581607E+03  0.47327080754E+02  0.22734895213E+03  0.00000000000E+00 0.  1.
         11    1    5    5    0    0 -0.28892253650E+03  0.62906627094E+02  0.10463166680E+04  0.10872957489E+04  0.00000000000E+00 0. -1.
        -11    1    5    5    0    0 -0.21905118143E+03 -0.16815975922E+02  0.62486904122E+03  0.66236509254E+03  0.00000000000E+00 0.  1.
          3    1    6    6  503    0  0.31957234276E+03  0.29425397232E+03  0.12067365179E+04  0.12825462589E+04  0.00000000000E+00 0. -1.
         -3    1    6    6    0  503  0.50328165283E+01  0.39739541761E+02  0.11799805493E+03  0.12461180276E+03  0.00000000000E+00 0.  1.
<mgrwt>
<rscale>  0 0.18496927E+04</rscale>
<asrwt>0</asrwt>
<pdfrwt beam="1">  1        2 0.51365462E+00 0.18496927E+04</pdfrwt>
<pdfrwt beam="2">  1       -1 0.39413162E-01 0.18496927E+04</pdfrwt>
<totfact> 0.70704155E+00</totfact>
</mgrwt>
</event>
<event>
12    6  0.1530859E-007  0.1977823E+04  0.7818608E-02  0.8617060E-01
          2   -1    0    0  501    0  0.00000000000E+00  0.00000000000E+00  0.14564310537E+04  0.14564310537E+04  0.00000000000E+00 0. -1.
         -1   -1    0    0    0  501 -0.00000000000E+00 -0.00000000000E+00 -0.67146741047E+03  0.67146741047E+03  0.00000000000E+00 0.  1.
         24    2    1    2    0    0 -0.17189948970E+03 -0.73513903744E+03  0.50644552652E+03  0.91277231837E+03  0.81776493748E+02 0.  0.
        254    2    1    2    0    0  0.17189948970E+03  0.73513903744E+03  0.27851811669E+03  0.12151261458E+04  0.91048359122E+03 0.  0.
         23    2    4    4    0    0 -0.26021260646E+03 -0.23647206564E+02  0.18491732786E+03  0.33225040790E+03  0.89028784493E+02 0.  0.
         23    2    4    4    0    0  0.43211209615E+03  0.75878624400E+03  0.93600788834E+02  0.88287573787E+03  0.90725041312E+02 0.  0.
          4    1    3    3  502    0 -0.17694282052E+03 -0.70796021297E+03  0.49935330592E+03  0.88423421615E+03  0.00000000000E+00 0. -1.
         -3    1    3    3    0  502  0.50433308193E+01 -0.27178824470E+02  0.70922205990E+01  0.28538102220E+02  0.00000000000E+00 0.  1.
         11    1    5    5    0    0 -0.12604556622E+03  0.34935488943E+01  0.38564631372E+02  0.13185947232E+03  0.00000000000E+00 0. -1.
        -11    1    5    5    0    0 -0.13416704023E+03 -0.27140755458E+02  0.14635269648E+03  0.20039093557E+03  0.00000000000E+00 0.  1.
          1    1    6    6  503    0  0.26670924130E+03  0.49439542101E+03  0.10182049510E+03  0.57090109908E+03  0.00000000000E+00 0. -1.
         -1    1    6    6    0  503  0.16540285486E+03  0.26439082299E+03 -0.82197062655E+01  0.31197463879E+03  0.00000000000E+00 0.  1.
<mgrwt>
<rscale>  0 0.19778230E+04</rscale>
<asrwt>0</asrwt>
<pdfrwt beam="1">  1        2 0.22406632E+00 0.19778230E+04</pdfrwt>
<pdfrwt beam="2">  1       -1 0.10330268E+00 0.19778230E+04</pdfrwt>
<totfact> 0.12601219E+01</totfact>
</mgrwt>
</event>
<event>
12    6  0.1530859E-007  0.1569632E+04  0.7818608E-02  0.8839425E-01
          2   -1    0    0  501    0  0.00000000000E+00  0.00000000000E+00  0.18462290642E+04  0.18462290642E+04  0.00000000000E+00 0. -1.
         -1   -1    0    0    0  501 -0.00000000000E+00 -0.00000000000E+00 -0.33361832989E+03  0.33361832989E+03  0.00000000000E+00 0.  1.
         24    2    1    2    0    0 -0.48498712616E+02 -0.59178155501E+02  0.12561023815E+04  0.12609126284E+04  0.79077712069E+02 0.  0.
        254    2    1    2    0    0  0.48498712616E+02  0.59178155501E+02  0.25650835286E+03  0.91893476569E+03  0.87908497274E+03 0.  0.
         23    2    4    4    0    0  0.26350344933E+03  0.38095265504E+03  0.59709197613E+02  0.47592343747E+03  0.91536532935E+02 0.  0.
         23    2    4    4    0    0 -0.21500473672E+03 -0.32177449954E+03  0.19679915524E+03  0.44301132821E+03  0.88109386874E+02 0.  0.
          4    1    3    3  502    0 -0.15178931242E+01 -0.48473428701E+02  0.93062897480E+03  0.93189176734E+03  0.00000000000E+00 0. -1.
         -3    1    3    3    0  502 -0.46980819492E+02 -0.10704726800E+02  0.32547340668E+03  0.32902086109E+03  0.00000000000E+00 0.  1.
         11    1    5    5    0    0 -0.75432811757E+00  0.31479534979E+02 -0.82408197839E+01  0.32549059036E+02  0.00000000000E+00 0. -1.
        -11    1    5    5    0    0  0.26425777745E+03  0.34947312007E+03  0.67950017397E+02  0.44337437844E+03  0.00000000000E+00 0.  1.
          4    1    6    6  503    0 -0.55763877477E+01  0.58333438773E+01  0.41771765241E+01  0.90869579517E+01  0.00000000000E+00 0. -1.
         -4    1    6    6    0  503 -0.20942834897E+03 -0.32760784342E+03  0.19262197872E+03  0.43392437026E+03  0.00000000000E+00 0.  1.
<mgrwt>
<rscale>  0 0.15696316E+04</rscale>
<asrwt>0</asrwt>
<pdfrwt beam="1">  1        2 0.28403524E+00 0.15696316E+04</pdfrwt>
<pdfrwt beam="2">  1       -1 0.51325898E-01 0.15696316E+04</pdfrwt>
<totfact> 0.34001771E+01</totfact>
</mgrwt>
</event>
<event>
12    6  0.1530859E-007  0.1754026E+04  0.7818608E-02  0.8731138E-01
          2   -1    0    0  501    0  0.00000000000E+00  0.00000000000E+00  0.14803670698E+04  0.14803670698E+04  0.00000000000E+00 0. -1.
         -1   -1    0    0    0  501 -0.00000000000E+00 -0.00000000000E+00 -0.51956808448E+03  0.51956808448E+03  0.00000000000E+00 0.  1.
         24    2    1    2    0    0 -0.40208687530E+03  0.48005014577E+03  0.19536179821E+03  0.66076595344E+03  0.79519905026E+02 0.  0.
        254    2    1    2    0    0  0.40208687530E+03 -0.48005014577E+03  0.76543718709E+03  0.13391692008E+04  0.90297179540E+03 0.  0.
         23    2    4    4    0    0  0.35847406426E+03 -0.64410064671E+03  0.24190675448E+03  0.78122658201E+03  0.91797585729E+02 0.  0.
         23    2    4    4    0    0  0.43612811041E+02  0.16405050094E+03  0.52353043261E+03  0.55794261880E+03  0.91658103065E+02 0.  0.
          2    1    3    3  502    0 -0.33998050179E+03  0.41990967738E+03  0.19473617946E+03  0.57431094222E+03  0.00000000000E+00 0. -1.
         -1    1    3    3    0  502 -0.62106373506E+02  0.60140468384E+02  0.62561874382E+00  0.86455011227E+02  0.00000000000E+00 0.  1.
         11    1    5    5    0    0  0.21986803251E+03 -0.47507080129E+03  0.18659680372E+03  0.55574507206E+03  0.00000000000E+00 0.  1.
        -11    1    5    5    0    0  0.13860603174E+03 -0.16902984542E+03  0.55309950756E+02  0.22548150995E+03  0.00000000000E+00 0. -1.
          2    1    6    6  503    0 -0.16232347992E+02  0.59315930455E+02  0.27358542738E+03  0.28041193770E+03  0.00000000000E+00 0. -1.
         -2    1    6    6    0  503  0.59845159033E+02  0.10473457049E+03  0.24994500523E+03  0.27753068110E+03  0.00000000000E+00 0.  1.
<mgrwt>
<rscale>  0 0.17540256E+04</rscale>
<asrwt>0</asrwt>
<pdfrwt beam="1">  1        2 0.22774878E+00 0.17540256E+04</pdfrwt>
<pdfrwt beam="2">  1       -1 0.79933552E-01 0.17540256E+04</pdfrwt>
<totfact> 0.21972667E+01</totfact>
</mgrwt>
</event>
<event>
12    6  0.1530859E-007  0.1978603E+04  0.7818608E-02  0.8616690E-01
          2   -1    0    0  501    0  0.00000000000E+00  0.00000000000E+00  0.27867057963E+04  0.27867057963E+04  0.00000000000E+00 0. -1.
         -1   -1    0    0    0  501 -0.00000000000E+00 -0.00000000000E+00 -0.35120955343E+03  0.35120955343E+03  0.00000000000E+00 0.  1.
         24    2    1    2    0    0  0.28386647840E+03 -0.35822822221E+03 -0.41785891020E+02  0.46570295640E+03  0.78902130274E+02 0.  0.
        254    2    1    2    0    0 -0.28386647840E+03  0.35822822221E+03  0.24772821339E+04  0.26722123933E+04  0.89156304737E+03 0.  0.
         23    2    4    4    0    0 -0.33625590014E+03 -0.19384437378E+03  0.67359546328E+03  0.78299028979E+03  0.93269899421E+02 0.  0.
         23    2    4    4    0    0  0.52389421742E+02  0.55207259599E+03  0.18036866706E+04  0.18892221035E+04  0.91355065521E+02 0.  0.
          4    1    3    3  502    0  0.49456789097E+02 -0.11696770670E+03 -0.20581837202E+02  0.12865080808E+03  0.00000000000E+00 0. -1.
         -3    1    3    3    0  502  0.23440968930E+03 -0.24126051551E+03 -0.21204053819E+02  0.33705214831E+03  0.00000000000E+00 0.  1.
         11    1    5    5    0    0 -0.26150047877E+02 -0.26307572329E+02  0.24756501026E+02  0.44595938255E+02  0.00000000000E+00 0.  1.
        -11    1    5    5    0    0 -0.31010585227E+03 -0.16753680145E+03  0.64883896225E+03  0.73839435154E+03  0.00000000000E+00 0. -1.
          4    1    6    6  503    0 -0.45351461498E+01  0.39308716753E+03  0.12507124461E+04  0.13110376469E+04  0.00000000000E+00 0. -1.
         -4    1    6    6    0  503  0.56924567892E+02  0.15898542846E+03  0.55297422450E+03  0.57818445660E+03  0.00000000000E+00 0.  1.
<mgrwt>
<rscale>  0 0.19786032E+04</rscale>
<asrwt>0</asrwt>
<pdfrwt beam="1">  1        2 0.42872395E+00 0.19786032E+04</pdfrwt>
<pdfrwt beam="2">  1       -1 0.54032241E-01 0.19786032E+04</pdfrwt>
<totfact> 0.86431346E+00</totfact>
</mgrwt>
</event>
<event>
12    6  0.1530859E-007  0.3257444E+04  0.7818608E-02  0.8173809E-01
         -1   -1    0    0    0  501 -0.00000000000E+00  0.00000000000E+00  0.56166796883E+03  0.56166796883E+03  0.00000000000E+00 0.  1.
          2   -1    0    0  501    0  0.00000000000E+00 -0.00000000000E+00 -0.47229599082E+04  0.47229599082E+04  0.00000000000E+00 0. -1.
         24    2    1    2    0    0 -0.11370445251E+04  0.34906398862E+03 -0.43283408178E+03  0.12682294063E+04  0.79652773886E+02 0.  0.
        254    2    1    2    0    0  0.11370445251E+04 -0.34906398862E+03 -0.37284578576E+04  0.40163984708E+04  0.90296332132E+03 0.  0.
         23    2    4    4    0    0  0.94380747372E+02 -0.30547558916E+03 -0.17087189983E+04  0.17411332443E+04  0.97986214873E+02 0.  0.
         23    2    4    4    0    0  0.10426637778E+04 -0.43588399456E+02 -0.20197388593E+04  0.22752652265E+04  0.91864513236E+02 0.  0.
          4    1    3    3  502    0 -0.13132239464E+02  0.54163527672E+00 -0.13998695959E+02  0.19201889768E+02  0.00000000000E+00 0. -1.
         -3    1    3    3    0  502 -0.11239122857E+04  0.34852235334E+03 -0.41883538582E+03  0.12490275165E+04  0.00000000000E+00 0.  1.
         11    1    5    5    0    0 -0.95489888223E-01 -0.12961251866E+03 -0.82712133579E+03  0.83721509675E+03  0.00000000000E+00 0.  1.
        -11    1    5    5    0    0  0.94476237260E+02 -0.17586307050E+03 -0.88159766249E+03  0.90391814756E+03  0.00000000000E+00 0. -1.
          4    1    6    6  503    0  0.92662187250E+03 -0.39512242223E+02 -0.17258952031E+04  0.19593120129E+04  0.00000000000E+00 0. -1.
         -4    1    6    6    0  503  0.11604190525E+03 -0.40761572329E+01 -0.29384365626E+03  0.31595321355E+03  0.00000000000E+00 0.  1.
<mgrwt>
<rscale>  0 0.32574440E+04</rscale>
<asrwt>0</asrwt>
<pdfrwt beam="1">  1        2 0.72660920E+00 0.32574440E+04</pdfrwt>
<pdfrwt beam="2">  1       -1 0.86410459E-01 0.32574440E+04</pdfrwt>
<totfact> 0.90757625E-02</totfact>
</mgrwt>
</event>
<event>
12    6  0.1530859E-007  0.1555682E+04  0.7818608E-02  0.8848246E-01
         -1   -1    0    0    0  501 -0.00000000000E+00  0.00000000000E+00  0.51689331348E+03  0.51689331348E+03  0.00000000000E+00 0.  1.
          2   -1    0    0  501    0  0.00000000000E+00 -0.00000000000E+00 -0.11705257387E+04  0.11705257387E+04  0.00000000000E+00 0. -1.
         24    2    1    2    0    0 -0.18042901512E+02  0.36244927293E+03 -0.62062145055E+03  0.72353232589E+03  0.81443354477E+02 0.  0.
        254    2    1    2    0    0  0.18042901512E+02 -0.36244927293E+03 -0.33010974693E+02  0.96388672630E+03  0.89235243875E+03 0.  0.
         23    2    4    4    0    0 -0.31650020037E+03 -0.10474416880E+03 -0.29878849359E+03  0.45686214673E+03  0.91130343355E+02 0.  0.
         23    2    4    4    0    0  0.33454310188E+03 -0.25770510414E+03  0.26577751890E+03  0.50702457957E+03  0.90029034330E+02 0.  0.
          4    1    3    3  502    0  0.21169316783E+02  0.22680547989E+03 -0.42610558352E+03  0.48317164029E+03  0.00000000000E+00 0. -1.
         -3    1    3    3    0  502 -0.39212218295E+02  0.13564379304E+03 -0.19451586703E+03  0.24036068560E+03  0.00000000000E+00 0.  1.
         11    1    5    5    0    0 -0.16576433449E+03 -0.33090577382E+02 -0.96611878437E+02  0.19469631726E+03  0.00000000000E+00 0. -1.
        -11    1    5    5    0    0 -0.15073586589E+03 -0.71653591415E+02 -0.20217661516E+03  0.26216582947E+03  0.00000000000E+00 0.  1.
          3    1    6    6  503    0  0.83256032683E+02 -0.92809322183E+02  0.39424786376E+02  0.13076486930E+03  0.00000000000E+00 0. -1.
         -3    1    6    6    0  503  0.25128706920E+03 -0.16489578195E+03  0.22635273252E+03  0.37625971027E+03  0.00000000000E+00 0.  1.
<mgrwt>
<rscale>  0 0.15556824E+04</rscale>
<asrwt>0</asrwt>
<pdfrwt beam="1">  1        2 0.18008088E+00 0.15556824E+04</pdfrwt>
<pdfrwt beam="2">  1       -1 0.79522049E-01 0.15556824E+04</pdfrwt>
<totfact> 0.34206064E+01</totfact>
</mgrwt>
</event>
<event>
12    6  0.1530859E-007  0.1784189E+04  0.7818608E-02  0.8714753E-01
         -3   -1    0    0    0  501 -0.00000000000E+00  0.00000000000E+00  0.98590312559E+03  0.98590312559E+03  0.00000000000E+00 0.  1.
          2   -1    0    0  501    0  0.00000000000E+00 -0.00000000000E+00 -0.80721207370E+03  0.80721207370E+03  0.00000000000E+00 0. -1.
         24    2    1    2    0    0  0.50004018261E+03  0.12285477438E+03 -0.35235523571E+03  0.62890162330E+03  0.78927560778E+02 0.  0.
        254    2    1    2    0    0 -0.50004018261E+03 -0.12285477438E+03  0.53104628760E+03  0.11642135760E+04  0.89902703582E+03 0.  0.
         23    2    4    4    0    0  0.64941737476E+02  0.10995374347E+03  0.52322237482E+03  0.54652942198E+03  0.92873573265E+02 0.  0.
         23    2    4    4    0    0 -0.56498192008E+03 -0.23280851784E+03  0.78239127772E+01  0.61768415401E+03  0.89822739316E+02 0.  0.
          4    1    3    3  502    0  0.45274873315E+03  0.85929538725E+02 -0.31553932217E+03  0.55850726480E+03  0.00000000000E+00 0. -1.
         -3    1    3    3    0  502  0.47291449457E+02  0.36925235650E+02 -0.36815913535E+02  0.70394358503E+02  0.00000000000E+00 0.  1.
         11    1    5    5    0    0  0.17895111338E+02  0.41262888421E+02  0.36479565459E+03  0.36755779216E+03  0.00000000000E+00 0.  1.
        -11    1    5    5    0    0  0.47046626139E+02  0.68690855048E+02  0.15842672023E+03  0.17897162982E+03  0.00000000000E+00 0. -1.
          4    1    6    6  503    0 -0.55257019429E+03 -0.23833468883E+03  0.15693886820E+02  0.60198300773E+03  0.00000000000E+00 0. -1.
         -4    1    6    6    0  503 -0.12411725793E+02  0.55261709813E+01 -0.78699740432E+01  0.15701146274E+02  0.00000000000E+00 0.  1.
<mgrwt>
<rscale>  0 0.17841893E+04</rscale>
<asrwt>0</asrwt>
<pdfrwt beam="1">  1        2 0.12418647E+00 0.17841893E+04</pdfrwt>
<pdfrwt beam="2">  1       -3 0.15167740E+00 0.17841893E+04</pdfrwt>
<totfact> 0.63522921E+00</totfact>
</mgrwt>
</event>
<event>
12    6  0.1530859E-007  0.2268050E+04  0.7818608E-02  0.8490626E-01
          2   -1    0    0  501    0  0.00000000000E+00  0.00000000000E+00  0.18483799633E+04  0.18483799633E+04  0.00000000000E+00 0. -1.
         -1   -1    0    0    0  501 -0.00000000000E+00 -0.00000000000E+00 -0.69575103233E+03  0.69575103233E+03  0.00000000000E+00 0.  1.
         24    2    1    2    0    0  0.83410155881E+03 -0.30267460776E+03  0.88049879700E+03  0.12525778641E+04  0.79598024108E+02 0.  0.
        254    2    1    2    0    0 -0.83410155881E+03  0.30267460776E+03  0.27213013393E+03  0.12915531315E+04  0.89817445585E+03 0.  0.
         23    2    4    4    0    0 -0.43997626888E+03  0.43456739243E+03  0.50773160122E+03  0.80531387050E+03  0.91165319065E+02 0.  0.
         23    2    4    4    0    0 -0.39412528994E+03 -0.13189278467E+03 -0.23560146728E+03  0.48623926102E+03  0.90499263831E+02 0.  0.
          4    1    3    3  502    0  0.67656127331E+03 -0.22549722011E+03  0.66940318950E+03  0.97810264438E+03  0.00000000000E+00 0. -1.
         -3    1    3    3    0  502  0.15754028550E+03 -0.77177387649E+02  0.21109560750E+03  0.27447521969E+03  0.00000000000E+00 0.  1.
         11    1    5    5    0    0 -0.29516570923E+03  0.27244776285E+03  0.27468534965E+03  0.48662369517E+03  0.00000000000E+00 0. -1.
        -11    1    5    5    0    0 -0.14481055965E+03  0.16211962958E+03  0.23304625157E+03  0.31869017533E+03  0.00000000000E+00 0.  1.
          4    1    6    6  503    0 -0.23680843546E+03 -0.31997985490E+02 -0.13540985850E+03  0.27465967298E+03  0.00000000000E+00 0. -1.
         -4    1    6    6    0  503 -0.15731685448E+03 -0.99894799180E+02 -0.10019160878E+03  0.21157958805E+03  0.00000000000E+00 0.  1.
<mgrwt>
<rscale>  0 0.22680496E+04</rscale>
<asrwt>0</asrwt>
<pdfrwt beam="1">  1        2 0.28436615E+00 0.22680496E+04</pdfrwt>
<pdfrwt beam="2">  1       -1 0.10703862E+00 0.22680496E+04</pdfrwt>
<totfact> 0.68311263E+00</totfact>
</mgrwt>
</event>
<event>
12    6  0.1530859E-007  0.2107915E+04  0.7818608E-02  0.8557765E-01
          2   -1    0    0  501    0  0.00000000000E+00  0.00000000000E+00  0.23242061202E+04  0.23242061202E+04  0.00000000000E+00 0. -1.
         -1   -1    0    0    0  501 -0.00000000000E+00 -0.00000000000E+00 -0.47793790961E+03  0.47793790961E+03  0.00000000000E+00 0.  1.
         24    2    1    2    0    0 -0.81681237299E+02  0.76362332588E+02 -0.37621609996E+03  0.40073454079E+03  0.80910987761E+02 0.  0.
        254    2    1    2    0    0  0.81681237299E+02 -0.76362332588E+02  0.22224843106E+04  0.24014094890E+04  0.90267823333E+03 0.  0.
         23    2    4    4    0    0  0.35076469927E+03  0.21608901112E+03  0.16187154055E+04  0.16727697608E+04  0.90491843456E+02 0.  0.
         23    2    4    4    0    0 -0.26908346197E+03 -0.29245134371E+03  0.60376890507E+03  0.72863972822E+03  0.91898122152E+02 0.  0.
          4    1    3    3  502    0 -0.21698253204E+02  0.45304010388E+02 -0.64335085389E+02  0.81622734341E+02  0.00000000000E+00 0. -1.
         -3    1    3    3    0  502 -0.59982984095E+02  0.31058322200E+02 -0.31188101458E+03  0.31911180644E+03  0.00000000000E+00 0.  1.
         11    1    5    5    0    0  0.28531645451E+03  0.19031748655E+03  0.14493989458E+04  0.14894238916E+04  0.00000000000E+00 0. -1.
        -11    1    5    5    0    0  0.65448244760E+02  0.25771524574E+02  0.16931645973E+03  0.18334586921E+03  0.00000000000E+00 0.  1.
          4    1    6    6  503    0 -0.22755760076E+03 -0.28645539304E+03  0.53665622072E+03  0.64949138032E+03  0.00000000000E+00 0. -1.
         -4    1    6    6    0  503 -0.41525861217E+02 -0.59959506648E+01  0.67112684353E+02  0.79148347900E+02  0.00000000000E+00 0.  1.
<mgrwt>
<rscale>  0 0.21079148E+04</rscale>
<asrwt>0</asrwt>
<pdfrwt beam="1">  1        2 0.35757017E+00 0.21079148E+04</pdfrwt>
<pdfrwt beam="2">  1       -1 0.73528911E-01 0.21079148E+04</pdfrwt>
<totfact> 0.85799309E+00</totfact>
</mgrwt>
</event>
<event>
12    6  0.1530859E-007  0.1340428E+04  0.7818608E-02  0.8998106E-01
          2   -1    0    0  501    0  0.00000000000E+00  0.00000000000E+00  0.40512389393E+04  0.40512389393E+04  0.00000000000E+00 0. -1.
         -1   -1    0    0    0  501 -0.00000000000E+00 -0.00000000000E+00 -0.11087637067E+03  0.11087637067E+03  0.00000000000E+00 0.  1.
         24    2    1    2    0    0 -0.20103301415E+01  0.11801454489E+02 -0.31986344880E+02  0.88254109954E+02  0.81377797400E+02 0.  0.
        254    2    1    2    0    0  0.20103301415E+01 -0.11801454489E+02  0.39723489135E+04  0.40738612000E+04  0.90368460794E+03 0.  0.
         23    2    4    4    0    0 -0.36485927414E+03 -0.24667152860E+03  0.22772210850E+04  0.23212022811E+04  0.90967173618E+02 0.  0.
         23    2    4    4    0    0  0.36686960428E+03  0.23487007411E+03  0.16951278284E+04  0.17526589189E+04  0.92723637644E+02 0.  0.
          2    1    3    3  502    0  0.90549220574E+01 -0.55954712298E-01  0.26267629880E+02  0.27784584285E+02  0.00000000000E+00 0. -1.
         -1    1    3    3    0  502 -0.11065252199E+02  0.11857409202E+02 -0.58253974760E+02  0.60469525668E+02  0.00000000000E+00 0.  1.
         11    1    5    5    0    0 -0.31660809569E+03 -0.24479458743E+03  0.19739674508E+04  0.20141282415E+04  0.00000000000E+00 0. -1.
        -11    1    5    5    0    0 -0.48251178451E+02 -0.18769411626E+01  0.30325363421E+03  0.30707403959E+03  0.00000000000E+00 0.  1.
          2    1    6    6  503    0  0.23935877998E+03  0.19002414578E+03  0.12844874170E+04  0.13203445482E+04  0.00000000000E+00 0. -1.
         -2    1    6    6    0  503  0.12751082430E+03  0.44845928325E+02  0.41064041143E+03  0.43231437068E+03  0.00000000000E+00 0.  1.
<mgrwt>
<rscale>  0 0.13404278E+04</rscale>
<asrwt>0</asrwt>
<pdfrwt beam="1">  1        2 0.62326741E+00 0.13404278E+04</pdfrwt>
<pdfrwt beam="2">  1       -1 0.17057906E-01 0.13404278E+04</pdfrwt>
<totfact> 0.95222025E+00</totfact>
</mgrwt>
</event>
<event>
12    6  0.1530859E-007  0.2380051E+04  0.7818608E-02  0.8447010E-01
          2   -1    0    0  501    0  0.00000000000E+00  0.00000000000E+00  0.11238182847E+04  0.11238182847E+04  0.00000000000E+00 0. -1.
         -1   -1    0    0    0  501 -0.00000000000E+00 -0.00000000000E+00 -0.12601328743E+04  0.12601328743E+04  0.00000000000E+00 0.  1.
         24    2    1    2    0    0  0.53670670145E+03  0.74420155078E+03 -0.51689053030E+03  0.10560459050E+04  0.78530896222E+02 0.  0.
        254    2    1    2    0    0 -0.53670670145E+03 -0.74420155078E+03  0.38057594071E+03  0.13279052539E+04  0.88125154473E+03 0.  0.
         23    2    4    4    0    0 -0.25641444682E+03 -0.79689961768E+03 -0.16813834370E+01  0.84207384850E+03  0.91039387518E+02 0.  0.
         23    2    4    4    0    0 -0.28029225463E+03  0.52698066901E+02  0.38225732415E+03  0.48583140538E+03  0.92577850135E+02 0.  0.
          2    1    3    3  502    0  0.22289609164E+03  0.28387011353E+03 -0.16293858110E+03  0.39599733614E+03  0.00000000000E+00 0. -1.
         -1    1    3    3    0  502  0.31381060981E+03  0.46033143725E+03 -0.35395194920E+03  0.66004856889E+03  0.00000000000E+00 0.  1.
         11    1    5    5    0    0 -0.16856440707E+03 -0.53862507161E+03  0.41333619583E+02  0.56589698286E+03  0.00000000000E+00 0. -1.
        -11    1    5    5    0    0 -0.87850039750E+02 -0.25827454607E+03 -0.43015003020E+02  0.27617686564E+03  0.00000000000E+00 0.  1.
          1    1    6    6  503    0 -0.51610423883E+02  0.48716518820E+02  0.83791735657E+02  0.10980887953E+03  0.00000000000E+00 0. -1.
         -1    1    6    6    0  503 -0.22868183075E+03  0.39815480810E+01  0.29846558849E+03  0.37602252585E+03  0.00000000000E+00 0.  1.
<mgrwt>
<rscale>  0 0.23800507E+04</rscale>
<asrwt>0</asrwt>
<pdfrwt beam="1">  1        2 0.17289512E+00 0.23800507E+04</pdfrwt>
<pdfrwt beam="2">  1       -1 0.19386660E+00 0.23800507E+04</pdfrwt>
<totfact> 0.35904179E+00</totfact>
</mgrwt>
</event>
<event>
12    6  0.1530859E-007  0.1970504E+04  0.7818608E-02  0.8620537E-01
          2   -1    0    0  501    0  0.00000000000E+00  0.00000000000E+00  0.14253344374E+04  0.14253344374E+04  0.00000000000E+00 0. -1.
         -1   -1    0    0    0  501 -0.00000000000E+00 -0.00000000000E+00 -0.68104816929E+03  0.68104816929E+03  0.00000000000E+00 0.  1.
         24    2    1    2    0    0  0.26078742557E+03  0.24966698685E+03 -0.43999887410E+03  0.57469738466E+03  0.79588875237E+02 0.  0.
        254    2    1    2    0    0 -0.26078742557E+03 -0.24966698685E+03  0.11842851422E+04  0.15316852220E+04  0.90176750645E+03 0.  0.
         23    2    4    4    0    0 -0.21070492830E+03 -0.53441041846E+03  0.10504987048E+04  0.12007368145E+04  0.90721038254E+02 0.  0.
         23    2    4    4    0    0 -0.50082497278E+02  0.28474343161E+03  0.13378643741E+03  0.33094840752E+03  0.89671395797E+02 0.  0.
          2    1    3    3  502    0  0.19054277664E+03  0.17819081963E+03 -0.25787343013E+03  0.36682042459E+03  0.00000000000E+00 0. -1.
         -1    1    3    3    0  502  0.70244648933E+02  0.71476167219E+02 -0.18212544397E+03  0.20787696007E+03  0.00000000000E+00 0.  1.
         11    1    5    5    0    0 -0.15787359128E+03 -0.46488012349E+03  0.84183964851E+03  0.97454173530E+03  0.00000000000E+00 0. -1.
        -11    1    5    5    0    0 -0.52831337014E+02 -0.69530294972E+02  0.20865905630E+03  0.22619507922E+03  0.00000000000E+00 0.  1.
          1    1    6    6  503    0 -0.30462443775E+02  0.24004769128E+03  0.14329374711E+03  0.28121869165E+03  0.00000000000E+00 0. -1.
         -1    1    6    6    0  503 -0.19620053503E+02  0.44695740330E+02 -0.95073096976E+01  0.49729715872E+02  0.00000000000E+00 0.  1.
<mgrwt>
<rscale>  0 0.19705039E+04</rscale>
<asrwt>0</asrwt>
<pdfrwt beam="1">  1        2 0.21928222E+00 0.19705039E+04</pdfrwt>
<pdfrwt beam="2">  1       -1 0.10477664E+00 0.19705039E+04</pdfrwt>
<totfact> 0.12708804E+01</totfact>
</mgrwt>
</event>
<event>
12    6  0.1871174E-007  0.2109071E+04  0.7818608E-02  0.8557258E-01
         -1   -1    0    0    0  501 -0.00000000000E+00  0.00000000000E+00  0.58717843095E+03  0.58717843095E+03  0.00000000000E+00 0.  1.
          2   -1    0    0  501    0  0.00000000000E+00 -0.00000000000E+00 -0.18938788117E+04  0.18938788117E+04  0.00000000000E+00 0. -1.
         24    2    1    2    0    0  0.80865112170E+02  0.13561248587E+03 -0.15267581429E+04  0.15370364922E+04  0.80999004364E+02 0.  0.
        254    2    1    2    0    0 -0.80865112170E+02 -0.13561248587E+03  0.22005776217E+03  0.94402075045E+03  0.90433392389E+03 0.  0.
         23    2    4    4    0    0 -0.10302234409E+03 -0.15816508339E+03  0.55578190501E+03  0.59418450146E+03  0.92368278367E+02 0.  0.
         23    2    4    4    0    0  0.22157231924E+02  0.22552597522E+02 -0.33572414284E+03  0.34983624899E+03  0.93140423255E+02 0.  0.
          4    1    3    3  502    0  0.97530417140E+02  0.11665664998E+03 -0.13312854610E+04  0.13399410192E+04  0.00000000000E+00 0. -1.
         -3    1    3    3    0  502 -0.16665304970E+02  0.18955835894E+02 -0.19547268191E+03  0.19709547300E+03  0.00000000000E+00 0.  1.
         11    1    5    5    0    0 -0.99639953513E+02 -0.10410547280E+03  0.47909166003E+03  0.50029480160E+03  0.00000000000E+00 0.  1.
        -11    1    5    5    0    0 -0.33823905814E+01 -0.54059610590E+02  0.76690244982E+02  0.93889699854E+02  0.00000000000E+00 0. -1.
          3    1    6    6  503    0 -0.14093934237E+02  0.21136399968E+02 -0.20810986675E+02  0.32840273328E+02  0.00000000000E+00 0. -1.
         -3    1    6    6    0  503  0.36251166161E+02  0.14161975537E+01 -0.31491315616E+03  0.31699597566E+03  0.00000000000E+00 0.  1.
<mgrwt>
<rscale>  0 0.21090707E+04</rscale>
<asrwt>0</asrwt>
<pdfrwt beam="1">  1        2 0.29136598E+00 0.21090707E+04</pdfrwt>
<pdfrwt beam="2">  1       -1 0.90335141E-01 0.21090707E+04</pdfrwt>
<totfact> 0.96122962E+00</totfact>
</mgrwt>
</event>
<event>
12    6  0.1530859E-007  0.1264052E+04  0.7818608E-02  0.9058568E-01
          2   -1    0    0  501    0  0.00000000000E+00  0.00000000000E+00  0.55190848337E+03  0.55190848337E+03  0.00000000000E+00 0. -1.
         -1   -1    0    0    0  501 -0.00000000000E+00 -0.00000000000E+00 -0.72377356923E+03  0.72377356923E+03  0.00000000000E+00 0.  1.
         24    2    1    2    0    0  0.55127970352E+02 -0.28607662348E+03  0.44536123484E+02  0.30562011183E+03  0.80878049208E+02 0.  0.
        254    2    1    2    0    0 -0.55127970352E+02  0.28607662348E+03 -0.21640120935E+03  0.97006194077E+03  0.89961756203E+03 0.  0.
         23    2    4    4    0    0  0.28907911606E+02 -0.31100922670E+03 -0.14428122423E+03  0.35608715495E+03  0.91752840867E+02 0.  0.
         23    2    4    4    0    0 -0.84035881958E+02  0.59708585019E+03 -0.72119985122E+02  0.61397478582E+03  0.90499742668E+02 0.  0.
          2    1    3    3  502    0  0.57981295051E+02 -0.17812206031E+03  0.59618047651E+02  0.19657978164E+03  0.00000000000E+00 0. -1.
         -1    1    3    3    0  502 -0.28533246992E+01 -0.10795456317E+03 -0.15081924167E+02  0.10904033019E+03  0.00000000000E+00 0.  1.
         11    1    5    5    0    0 -0.21643012095E+02 -0.25445702736E+02 -0.28191638977E+02  0.43711237325E+02  0.00000000000E+00 0.  1.
        -11    1    5    5    0    0  0.50550923701E+02 -0.28556352397E+03 -0.11608958525E+03  0.31237591762E+03  0.00000000000E+00 0. -1.
          3    1    6    6  503    0 -0.57688915166E+02  0.53680105681E+03 -0.41724235536E+02  0.54150189044E+03  0.00000000000E+00 0. -1.
         -3    1    6    6    0  503 -0.26346966791E+02  0.60284793381E+02 -0.30395749586E+02  0.72472895381E+02  0.00000000000E+00 0.  1.
<mgrwt>
<rscale>  0 0.12640519E+04</rscale>
<asrwt>0</asrwt>
<pdfrwt beam="1">  1        2 0.84908997E-01 0.12640519E+04</pdfrwt>
<pdfrwt beam="2">  1       -1 0.11134978E+00 0.12640519E+04</pdfrwt>
<totfact> 0.45679697E+01</totfact>
</mgrwt>
</event>
<event>
12    6  0.1530859E-007  0.1653059E+04  0.7818608E-02  0.8788599E-01
         -1   -1    0    0    0  501 -0.00000000000E+00  0.00000000000E+00  0.39870755193E+03  0.39870755193E+03  0.00000000000E+00 0.  1.
          2   -1    0    0  501    0  0.00000000000E+00 -0.00000000000E+00 -0.17134132768E+04  0.17134132768E+04  0.00000000000E+00 0. -1.
         24    2    1    2    0    0 -0.41923291341E+03 -0.22796130730E+03 -0.51883648341E+02  0.48633281480E+03  0.78135142368E+02 0.  0.
        254    2    1    2    0    0  0.41923291341E+03  0.22796130730E+03 -0.12628220765E+04  0.16257880139E+04  0.90594948864E+03 0.  0.
         23    2    4    4    0    0  0.48953378812E+03  0.22470622541E+03 -0.13655231637E+04  0.14707105259E+04  0.90552322488E+02 0.  0.
         23    2    4    4    0    0 -0.70300874707E+02  0.32550818913E+01  0.10270108715E+03  0.15507748800E+03  0.92459209603E+02 0.  0.
          2    1    3    3  502    0 -0.73418513471E+02 -0.27076446747E+02 -0.35877114253E+02  0.86084722314E+02  0.00000000000E+00 0. -1.
         -1    1    3    3    0  502 -0.34581439994E+03 -0.20088486055E+03 -0.16006534089E+02  0.40024809248E+03  0.00000000000E+00 0.  1.
         11    1    5    5    0    0  0.23514314382E+03  0.70044680001E+02 -0.53941577521E+03  0.59259424046E+03  0.00000000000E+00 0. -1.
        -11    1    5    5    0    0  0.25439064430E+03  0.15466154541E+03 -0.82610738845E+03  0.87811628546E+03  0.00000000000E+00 0.  1.
          1    1    6    6  503    0 -0.18076929186E+02 -0.44720848023E+01 -0.16391363892E+02  0.24808299449E+02  0.00000000000E+00 0. -1.
         -1    1    6    6    0  503 -0.52223945520E+02  0.77271666936E+01  0.11909245104E+03  0.13026918855E+03  0.00000000000E+00 0.  1.
<mgrwt>
<rscale>  0 0.16530588E+04</rscale>
<asrwt>0</asrwt>
<pdfrwt beam="1">  1        2 0.26360204E+00 0.16530588E+04</pdfrwt>
<pdfrwt beam="2">  1       -1 0.61339624E-01 0.16530588E+04</pdfrwt>
<totfact> 0.28269153E+01</totfact>
</mgrwt>
</event>
<event>
12    6  0.1530859E-007  0.1710883E+04  0.7818608E-02  0.8755182E-01
          2   -1    0    0  501    0  0.00000000000E+00  0.00000000000E+00  0.27540882527E+04  0.27540882527E+04  0.00000000000E+00 0. -1.
         -1   -1    0    0    0  501 -0.00000000000E+00 -0.00000000000E+00 -0.26570690135E+03  0.26570690135E+03  0.00000000000E+00 0.  1.
         24    2    1    2    0    0  0.49175283503E+03 -0.22436038122E+03  0.38069628278E+03  0.66635886037E+03  0.83342904043E+02 0.  0.
        254    2    1    2    0    0 -0.49175283503E+03  0.22436038122E+03  0.21076850686E+04  0.23534362937E+04  0.89675392875E+03 0.  0.
         23    2    4    4    0    0 -0.54589422762E+03 -0.13258524695E+03  0.17396146247E+04  0.18302072906E+04  0.88432620775E+02 0.  0.
         23    2    4    4    0    0  0.54141392592E+02  0.35694562817E+03  0.36807044387E+03  0.52322900314E+03  0.89169872786E+02 0.  0.
          4    1    3    3  502    0  0.65123388127E+02 -0.37781650998E+02  0.90358700324E+02  0.11761464006E+03  0.00000000000E+00 0. -1.
         -3    1    3    3    0  502  0.42662944690E+03 -0.18657873022E+03  0.29033758245E+03  0.54874422031E+03  0.00000000000E+00 0.  1.
         11    1    5    5    0    0 -0.77304225457E+02 -0.48357025824E+01  0.34015336880E+03  0.34886049016E+03  0.00000000000E+00 0. -1.
        -11    1    5    5    0    0 -0.46859000216E+03 -0.12774954437E+03  0.13994612559E+04  0.14813468004E+04  0.00000000000E+00 0.  1.
          2    1    6    6  503    0  0.73959353325E+02  0.19906727849E+03  0.22232735138E+03  0.30745279066E+03  0.00000000000E+00 0. -1.
         -2    1    6    6    0  503 -0.19817960733E+02  0.15787834968E+03  0.14574309250E+03  0.21577621249E+03  0.00000000000E+00 0.  1.
<mgrwt>
<rscale>  0 0.17108831E+04</rscale>
<asrwt>0</asrwt>
<pdfrwt beam="1">  1        2 0.42370586E+00 0.17108831E+04</pdfrwt>
<pdfrwt beam="2">  1       -1 0.40877987E-01 0.17108831E+04</pdfrwt>
<totfact> 0.15662606E+01</totfact>
</mgrwt>
</event>
<event>
12    6  0.1530859E-007  0.2522508E+04  0.7818608E-02  0.8395011E-01
         -1   -1    0    0    0  501 -0.00000000000E+00  0.00000000000E+00  0.97845742954E+03  0.97845742954E+03  0.00000000000E+00 0.  1.
          2   -1    0    0  501    0  0.00000000000E+00 -0.00000000000E+00 -0.16257849310E+04  0.16257849310E+04  0.00000000000E+00 0. -1.
         24    2    1    2    0    0  0.22776422120E+03 -0.67253605478E+03 -0.11637959230E+04  0.13655718798E+04  0.78640467033E+02 0.  0.
        254    2    1    2    0    0 -0.22776422120E+03  0.67253605478E+03  0.51646842152E+03  0.12386704808E+04  0.87371828646E+03 0.  0.
         23    2    4    4    0    0 -0.23499003665E+03  0.36943279956E+02  0.53707538657E+03  0.59458838177E+03  0.92196798291E+02 0.  0.
         23    2    4    4    0    0  0.72258154537E+01  0.63559277482E+03 -0.20606965049E+02  0.64408209901E+03  0.10191523656E+03 0.  0.
          4    1    3    3  502    0  0.92430997145E+02 -0.35641325981E+03 -0.54667690508E+03  0.65911269109E+03  0.00000000000E+00 0. -1.
         -3    1    3    3    0  502  0.13533322406E+03 -0.31612279497E+03 -0.61711901792E+03  0.70645918871E+03  0.00000000000E+00 0.  1.
         11    1    5    5    0    0 -0.16247708144E+03  0.44509904572E+02  0.45296880125E+03  0.48328114851E+03  0.00000000000E+00 0.  1.
        -11    1    5    5    0    0 -0.72512955213E+02 -0.75666246163E+01  0.84106585319E+02  0.11130723326E+03  0.00000000000E+00 0. -1.
          2    1    6    6  503    0  0.11799294605E+02  0.20686079512E+02  0.14971917847E+02  0.28129976232E+02  0.00000000000E+00 0. -1.
         -2    1    6    6    0  503 -0.45734791516E+01  0.61490669531E+03 -0.35578882896E+02  0.61595212278E+03  0.00000000000E+00 0.  1.
<mgrwt>
<rscale>  0 0.25225078E+04</rscale>
<asrwt>0</asrwt>
<pdfrwt beam="1">  1        2 0.25012076E+00 0.25225078E+04</pdfrwt>
<pdfrwt beam="2">  1       -1 0.15053191E+00 0.25225078E+04</pdfrwt>
<totfact> 0.37790944E+00</totfact>
</mgrwt>
</event>
<event>
12    6  0.1530859E-007  0.1329795E+04  0.7818608E-02  0.9006265E-01
          2   -1    0    0  501    0  0.00000000000E+00  0.00000000000E+00  0.12640327625E+04  0.12640327625E+04  0.00000000000E+00 0. -1.
         -1   -1    0    0    0  501 -0.00000000000E+00 -0.00000000000E+00 -0.34974478429E+03  0.34974478429E+03  0.00000000000E+00 0.  1.
         24    2    1    2    0    0  0.98283223157E+02  0.34851466059E+03  0.26125370650E+03  0.45363494307E+03  0.80056866143E+02 0.  0.
        254    2    1    2    0    0 -0.98283223157E+02 -0.34851466059E+03  0.65303427172E+03  0.11601426037E+04  0.88789359743E+03 0.  0.
         23    2    4    4    0    0 -0.78169351896E+02 -0.40050309548E+03 -0.73891674639E+02  0.42536005609E+03  0.94646820708E+02 0.  0.
         23    2    4    4    0    0 -0.20113871261E+02  0.51988434889E+02  0.72692594636E+03  0.73478254765E+03  0.91524289953E+02 0.  0.
          2    1    3    3  502    0  0.58086784221E+02  0.29510130361E+03  0.18908693259E+03  0.35526429876E+03  0.00000000000E+00 0. -1.
         -3    1    3    3    0  502  0.40196438936E+02  0.53413356979E+02  0.72166773906E+02  0.98370644315E+02  0.00000000000E+00 0.  1.
         11    1    5    5    0    0 -0.58061709482E+02 -0.11336982502E+03 -0.48913002881E+02  0.13644178679E+03  0.00000000000E+00 0. -1.
        -11    1    5    5    0    0 -0.20107642415E+02 -0.28713327047E+03 -0.24978671758E+02  0.28891826930E+03  0.00000000000E+00 0.  1.
          2    1    6    6  503    0  0.12654269391E+02  0.27408940957E+02  0.61253821217E+03  0.61328169869E+03  0.00000000000E+00 0. -1.
         -2    1    6    6    0  503 -0.32768140652E+02  0.24579493932E+02  0.11438773419E+03  0.12150084896E+03  0.00000000000E+00 0.  1.
<mgrwt>
<rscale>  0 0.13297953E+04</rscale>
<asrwt>0</asrwt>
<pdfrwt beam="1">  1        2 0.19446658E+00 0.13297953E+04</pdfrwt>
<pdfrwt beam="2">  1       -1 0.53806891E-01 0.13297953E+04</pdfrwt>
<totfact> 0.67451333E+01</totfact>
</mgrwt>
</event>
<event>
12    6  0.1568630E-007  0.2119614E+04  0.7818608E-02  0.8552652E-01
         -1   -1    0    0    0  501 -0.00000000000E+00  0.00000000000E+00  0.54445513720E+03  0.54445513720E+03  0.00000000000E+00 0.  1.
          2   -1    0    0  501    0  0.00000000000E+00 -0.00000000000E+00 -0.20629639416E+04  0.20629639416E+04  0.00000000000E+00 0. -1.
         24    2    1    2    0    0  0.22738789302E+03  0.79632626115E+02  0.39674706258E+03  0.47691574633E+03  0.10951615585E+03 0.  0.
        254    2    1    2    0    0 -0.22738789302E+03 -0.79632626115E+02 -0.19152558670E+04  0.21305033324E+04  0.90155022301E+03 0.  0.
         23    2    4    4    0    0 -0.44809559801E+03 -0.86957078614E+02 -0.18145349140E+04  0.18733073917E+04  0.91610211932E+02 0.  0.
         23    2    4    4    0    0  0.22070770499E+03  0.73244524991E+01 -0.10072095293E+03  0.25719594079E+03  0.85085268734E+02 0.  0.
          2    1    3    3  502    0  0.76040964054E+02  0.24228501386E+02  0.49035999440E+02  0.93668445780E+02  0.00000000000E+00 0. -1.
         -1    1    3    3    0  502  0.15134692896E+03  0.55404124729E+02  0.34771106314E+03  0.38324730055E+03  0.00000000000E+00 0.  1.
         11    1    5    5    0    0 -0.37747972325E+03 -0.10483849889E+03 -0.14840660821E+04  0.15349052701E+04  0.00000000000E+00 0.  1.
        -11    1    5    5    0    0 -0.70615874752E+02  0.17881420278E+02 -0.33046883195E+03  0.33840212151E+03  0.00000000000E+00 0. -1.
          1    1    6    6  503    0  0.35050624463E+02 -0.30748044279E+02 -0.13309806177E+02  0.48488549604E+02  0.00000000000E+00 0. -1.
         -1    1    6    6    0  503  0.18565708052E+03  0.38072496778E+02 -0.87411146756E+02  0.20870739119E+03  0.00000000000E+00 0.  1.
<mgrwt>
<rscale>  0 0.21196144E+04</rscale>
<asrwt>0</asrwt>
<pdfrwt beam="1">  1        2 0.31737907E+00 0.21196144E+04</pdfrwt>
<pdfrwt beam="2">  1       -1 0.83762328E-01 0.21196144E+04</pdfrwt>
<totfact> 0.91213126E+00</totfact>
</mgrwt>
</event>
<event>
12    6  0.1530859E-007  0.2140410E+04  0.7818608E-02  0.8543648E-01
          2   -1    0    0  501    0  0.00000000000E+00  0.00000000000E+00  0.22668723287E+04  0.22668723287E+04  0.00000000000E+00 0. -1.
         -1   -1    0    0    0  501 -0.00000000000E+00 -0.00000000000E+00 -0.50525069479E+03  0.50525069479E+03  0.00000000000E+00 0.  1.
         24    2    1    2    0    0 -0.35879184460E+03  0.80266297261E+03  0.67951205658E+03  0.11140842069E+04  0.80296635483E+02 0.  0.
        254    2    1    2    0    0  0.35879184460E+03 -0.80266297261E+03  0.10821095773E+04  0.16580388166E+04  0.89729156053E+03 0.  0.
         23    2    4    4    0    0  0.13547070261E+03  0.13720765557E+03  0.45377634641E+03  0.50200011062E+03  0.94408084859E+02 0.  0.
         23    2    4    4    0    0  0.22332114199E+03 -0.93987062818E+03  0.62833323088E+03  0.11560387059E+04  0.91617195012E+02 0.  0.
          2    1    3    3  502    0 -0.24728662703E+03  0.60830956603E+03  0.47201134362E+03  0.80869395480E+03  0.00000000000E+00 0. -1.
         -1    1    3    3    0  502 -0.11150521757E+03  0.19435340658E+03  0.20750071296E+03  0.30539025210E+03  0.00000000000E+00 0.  1.
         11    1    5    5    0    0  0.32088806267E+02  0.93141740385E+02  0.25936398592E+03  0.27744324191E+03  0.00000000000E+00 0. -1.
        -11    1    5    5    0    0  0.10338189634E+03  0.44065915185E+02  0.19441236049E+03  0.22455686871E+03  0.00000000000E+00 0.  1.
          4    1    6    6  503    0  0.10464496268E+03 -0.28898850621E+03  0.17065759185E+03  0.35155218473E+03  0.00000000000E+00 0. -1.
         -4    1    6    6    0  503  0.11867617931E+03 -0.65088212197E+03  0.45767563903E+03  0.80448652121E+03  0.00000000000E+00 0.  1.
<mgrwt>
<rscale>  0 0.21404101E+04</rscale>
<asrwt>0</asrwt>
<pdfrwt beam="1">  1        2 0.34874958E+00 0.21404101E+04</pdfrwt>
<pdfrwt beam="2">  1       -1 0.77730877E-01 0.21404101E+04</pdfrwt>
<totfact> 0.82062441E+00</totfact>
</mgrwt>
</event>
<event>
12    6  0.1530859E-007  0.1633285E+04  0.7818608E-02  0.8800357E-01
         -1   -1    0    0    0  501 -0.00000000000E+00  0.00000000000E+00  0.29107149482E+03  0.29107149482E+03  0.00000000000E+00 0.  1.
          2   -1    0    0  501    0  0.00000000000E+00 -0.00000000000E+00 -0.22912074855E+04  0.22912074855E+04  0.00000000000E+00 0. -1.
         24    2    1    2    0    0  0.28494254228E+03 -0.10814413894E+03  0.53663793787E+02  0.31913131746E+03  0.77958885495E+02 0.  0.
        254    2    1    2    0    0 -0.28494254228E+03  0.10814413894E+03 -0.20537997845E+04  0.22631476629E+04  0.90047564212E+03 0.  0.
         23    2    4    4    0    0  0.13226210434E+03  0.32055403931E+03 -0.14486600043E+04  0.14923625420E+04  0.91005451429E+02 0.  0.
         23    2    4    4    0    0 -0.41720464662E+03 -0.21240990037E+03 -0.60513978015E+03  0.77078512090E+03  0.93476553952E+02 0.  0.
          4    1    3    3  502    0  0.12594679071E+03 -0.73770787149E+02  0.56294784243E+02  0.15644112586E+03  0.00000000000E+00 0. -1.
         -3    1    3    3    0  502  0.15899575157E+03 -0.34373351793E+02 -0.26309904565E+01  0.16269019160E+03  0.00000000000E+00 0.  1.
         11    1    5    5    0    0  0.92324531351E+02  0.29809791025E+03 -0.12318144264E+04  0.12707293041E+04  0.00000000000E+00 0.  1.
        -11    1    5    5    0    0  0.39937572991E+02  0.22456129056E+02 -0.21684557794E+03  0.22163323789E+03  0.00000000000E+00 0. -1.
          3    1    6    6  503    0 -0.15123833068E+02 -0.33897499647E+02 -0.39440625093E+02  0.54160259570E+02  0.00000000000E+00 0. -1.
         -3    1    6    6    0  503 -0.40208081356E+03 -0.17851240072E+03 -0.56569915506E+03  0.71662486133E+03  0.00000000000E+00 0.  1.
<mgrwt>
<rscale>  0 0.16332853E+04</rscale>
<asrwt>0</asrwt>
<pdfrwt beam="1">  1        2 0.35249345E+00 0.16332853E+04</pdfrwt>
<pdfrwt beam="2">  1       -1 0.44780231E-01 0.16332853E+04</pdfrwt>
<totfact> 0.24714873E+01</totfact>
</mgrwt>
</event>
<event>
12    6  0.1530859E-007  0.1769744E+04  0.7818608E-02  0.8722557E-01
          2   -1    0    0  501    0  0.00000000000E+00  0.00000000000E+00  0.10008183363E+04  0.10008183363E+04  0.00000000000E+00 0. -1.
         -1   -1    0    0    0  501 -0.00000000000E+00 -0.00000000000E+00 -0.78235855085E+03  0.78235855085E+03  0.00000000000E+00 0.  1.
         24    2    1    2    0    0  0.60727316953E+03  0.40275931029E+02 -0.13195800982E+03  0.62790964437E+03  0.80341471776E+02 0.  0.
        254    2    1    2    0    0 -0.60727316953E+03 -0.40275931029E+02  0.35041779524E+03  0.11552672428E+04  0.91730415780E+03 0.  0.
         23    2    4    4    0    0 -0.42806106219E+03 -0.20906264375E+03 -0.21593638740E+03  0.53096354761E+03  0.91379995146E+02 0.  0.
         23    2    4    4    0    0 -0.17921210735E+03  0.16878671272E+03  0.56635418264E+03  0.62430369515E+03  0.91608459072E+02 0.  0.
          2    1    3    3  502    0  0.20588382569E+03  0.30940064976E+02 -0.10574040229E+02  0.20846401999E+03  0.00000000000E+00 0. -1.
         -1    1    3    3    0  502  0.40138934384E+03  0.93358660530E+01 -0.12138396959E+03  0.41944562438E+03  0.00000000000E+00 0.  1.
         11    1    5    5    0    0 -0.38665569132E+03 -0.21397740950E+03 -0.18515319883E+03  0.47913532790E+03  0.00000000000E+00 0. -1.
        -11    1    5    5    0    0 -0.41405370867E+02  0.49147657579E+01 -0.30783188569E+02  0.51828219702E+02  0.00000000000E+00 0.  1.
          3    1    6    6  503    0 -0.81695727859E+02  0.78756963985E+02  0.15520617704E+03  0.19226494407E+03  0.00000000000E+00 0. -1.
         -3    1    6    6    0  503 -0.97516379487E+02  0.90029748732E+02  0.41114800561E+03  0.43203875109E+03  0.00000000000E+00 0.  1.
<mgrwt>
<rscale>  0 0.17697444E+04</rscale>
<asrwt>0</asrwt>
<pdfrwt beam="1">  1        2 0.15397205E+00 0.17697444E+04</pdfrwt>
<pdfrwt beam="2">  1       -1 0.12036285E+00 0.17697444E+04</pdfrwt>
<totfact> 0.16693699E+01</totfact>
</mgrwt>
</event>
<event>
12    6  0.1530859E-007  0.1717608E+04  0.7818608E-02  0.8751385E-01
         -1   -1    0    0    0  501 -0.00000000000E+00  0.00000000000E+00  0.94528508046E+03  0.94528508046E+03  0.00000000000E+00 0.  1.
          2   -1    0    0  501    0  0.00000000000E+00 -0.00000000000E+00 -0.78023518215E+03  0.78023518215E+03  0.00000000000E+00 0. -1.
         24    2    1    2    0    0  0.17365776124E+03 -0.13718180307E+03 -0.50419209664E+03  0.55647604850E+03  0.80498801878E+02 0.  0.
        254    2    1    2    0    0 -0.17365776124E+03  0.13718180307E+03  0.66924199495E+03  0.11690442141E+04  0.93263265094E+03 0.  0.
         23    2    4    4    0    0  0.37273398503E+03  0.12160185629E+03  0.24666458753E+03  0.47213012532E+03  0.91355358074E+02 0.  0.
         23    2    4    4    0    0 -0.54639174626E+03  0.15579946782E+02  0.42257740743E+03  0.69691408879E+03  0.91273801035E+02 0.  0.
          2    1    3    3  502    0  0.16269145642E+03 -0.13385687272E+03 -0.50251822811E+03  0.54489516602E+03  0.00000000000E+00 0. -1.
         -3    1    3    3    0  502  0.10966304813E+02 -0.33249303535E+01 -0.16738685299E+01  0.11580882478E+02  0.00000000000E+00 0.  1.
         11    1    5    5    0    0  0.27428693784E+03  0.10329023489E+03  0.22545469801E+03  0.36977292727E+03  0.00000000000E+00 0.  1.
        -11    1    5    5    0    0  0.98447047190E+02  0.18311621400E+02  0.21209889522E+02  0.10235719805E+03  0.00000000000E+00 0. -1.
          1    1    6    6  503    0 -0.11127448084E+03 -0.31314445069E+01  0.43465206340E+02  0.11950330620E+03  0.00000000000E+00 0. -1.
         -1    1    6    6    0  503 -0.43511726543E+03  0.18711391289E+02  0.37911220109E+03  0.57741078259E+03  0.00000000000E+00 0.  1.
<mgrwt>
<rscale>  0 0.17176084E+04</rscale>
<asrwt>0</asrwt>
<pdfrwt beam="1">  1        2 0.12003618E+00 0.17176084E+04</pdfrwt>
<pdfrwt beam="2">  1       -1 0.14542847E+00 0.17176084E+04</pdfrwt>
<totfact> 0.14645479E+01</totfact>
</mgrwt>
</event>
<event>
12    6  0.1530859E-007  0.2006780E+04  0.7818608E-02  0.8603457E-01
          2   -1    0    0  501    0  0.00000000000E+00  0.00000000000E+00  0.14483173910E+04  0.14483173910E+04  0.00000000000E+00 0. -1.
         -1   -1    0    0    0  501 -0.00000000000E+00 -0.00000000000E+00 -0.69514589747E+03  0.69514589747E+03  0.00000000000E+00 0.  1.
         24    2    1    2    0    0 -0.58836445269E+03 -0.43387552381E+03  0.65515285550E+03  0.98473673136E+03  0.77848999108E+02 0.  0.
        254    2    1    2    0    0  0.58836445269E+03  0.43387552381E+03  0.98018637990E+02  0.11587265571E+04  0.89365478867E+03 0.  0.
         23    2    4    4    0    0  0.58797889062E+03 -0.45551041413E+02 -0.14406390345E+03  0.61392166403E+03  0.91385601138E+02 0.  0.
         23    2    4    4    0    0  0.38556207426E+00  0.47942656523E+03  0.24208254144E+03  0.54480489304E+03  0.91424474363E+02 0.  0.
          4    1    3    3  502    0 -0.23567151144E+03 -0.19244592489E+03  0.32026787983E+03  0.44175560004E+03  0.00000000000E+00 0. -1.
         -3    1    3    3    0  502 -0.35269294125E+03 -0.24142959892E+03  0.33488497567E+03  0.54298113132E+03  0.00000000000E+00 0.  1.
         11    1    5    5    0    0  0.36541676627E+03 -0.69955251961E+02 -0.74208211663E+02  0.37938108681E+03  0.00000000000E+00 0.  1.
        -11    1    5    5    0    0  0.22256212435E+03  0.24404210548E+02 -0.69855691789E+02  0.23454057722E+03  0.00000000000E+00 0. -1.
          4    1    6    6  503    0  0.52981035276E+01  0.42607174941E+03  0.17936674173E+03  0.46231767605E+03  0.00000000000E+00 0.  1.
         -4    1    6    6    0  503 -0.49125414534E+01  0.53354815811E+02  0.62715799714E+02  0.82487216995E+02  0.00000000000E+00 0. -1.
<mgrwt>
<rscale>  0 0.20067804E+04</rscale>
<asrwt>0</asrwt>
<pdfrwt beam="1">  1        2 0.22281806E+00 0.20067804E+04</pdfrwt>
<pdfrwt beam="2">  1       -1 0.10694552E+00 0.20067804E+04</pdfrwt>
<totfact> 0.11718987E+01</totfact>
</mgrwt>
</event>
<event>
12    6  0.1530859E-007  0.1434812E+04  0.7818608E-02  0.8928998E-01
          2   -1    0    0  501    0  0.00000000000E+00  0.00000000000E+00  0.19049001857E+04  0.19049001857E+04  0.00000000000E+00 0. -1.
         -1   -1    0    0    0  501 -0.00000000000E+00 -0.00000000000E+00 -0.27018282907E+03  0.27018282907E+03  0.00000000000E+00 0.  1.
         24    2    1    2    0    0 -0.22595401639E+03 -0.36063528192E+03  0.33309486229E+03  0.54628912056E+03  0.79790926010E+02 0.  0.
        254    2    1    2    0    0  0.22595401639E+03  0.36063528192E+03  0.13016224943E+04  0.16287938942E+04  0.88183638386E+03 0.  0.
         23    2    4    4    0    0  0.40000850357E+03  0.44802564769E+03  0.12735475017E+04  0.14108387562E+04  0.88368393577E+02 0.  0.
         23    2    4    4    0    0 -0.17405448719E+03 -0.87390365764E+02  0.28074992583E+02  0.21795513795E+03  0.93724043937E+02 0.  0.
          4    1    3    3  502    0 -0.15841426088E+03 -0.27487384536E+03  0.28694591589E+03  0.42777174703E+03  0.00000000000E+00 0. -1.
         -3    1    3    3    0  502 -0.67539755504E+02 -0.85761436566E+02  0.46148946402E+02  0.11851737353E+03  0.00000000000E+00 0.  1.
         11    1    5    5    0    0  0.95481418718E+02  0.95069148684E+02  0.20863598347E+03  0.24836227159E+03  0.00000000000E+00 0.  1.
        -11    1    5    5    0    0  0.30452708486E+03  0.35295649900E+03  0.10649115183E+04  0.11624764846E+04  0.00000000000E+00 0. -1.
          1    1    6    6  503    0 -0.15248800872E+03 -0.72403902869E+02 -0.12888800835E+02  0.16929571507E+03  0.00000000000E+00 0. -1.
         -1    1    6    6    0  503 -0.21566478461E+02 -0.14986462895E+02  0.40963793418E+02  0.48659422875E+02  0.00000000000E+00 0.  1.
<mgrwt>
<rscale>  0 0.14348119E+04</rscale>
<asrwt>0</asrwt>
<pdfrwt beam="1">  1        2 0.29306156E+00 0.14348119E+04</pdfrwt>
<pdfrwt beam="2">  1       -1 0.41566590E-01 0.14348119E+04</pdfrwt>
<totfact> 0.47376654E+01</totfact>
</mgrwt>
</event>
<event>
12    6  0.1530859E-007  0.2006207E+04  0.7818608E-02  0.8603724E-01
          2   -1    0    0  501    0  0.00000000000E+00  0.00000000000E+00  0.23995748762E+04  0.23995748762E+04  0.00000000000E+00 0. -1.
         -1   -1    0    0    0  501 -0.00000000000E+00 -0.00000000000E+00 -0.41933129614E+03  0.41933129614E+03  0.00000000000E+00 0.  1.
         24    2    1    2    0    0 -0.71548544813E+03 -0.13062250962E+03  0.12604919382E+04  0.14569560187E+04  0.69994625358E+02 0.  0.
        254    2    1    2    0    0  0.71548544813E+03  0.13062250962E+03  0.71975164185E+03  0.13619501536E+04  0.89882374722E+03 0.  0.
         23    2    4    4    0    0  0.10436858036E+03 -0.25398501909E+03  0.53962943716E+03  0.61222658755E+03  0.90665729847E+02 0.  0.
         23    2    4    4    0    0  0.61111686778E+03  0.38460752871E+03  0.18012220469E+03  0.74972356610E+03  0.90855047825E+02 0.  0.
          2    1    3    3  502    0 -0.58756661467E+03 -0.12408573595E+03  0.10782993249E+04  0.12342452069E+04  0.00000000000E+00 0. -1.
         -1    1    3    3    0  502 -0.12791883347E+03 -0.65367736723E+01  0.18219261328E+03  0.22271081182E+03  0.00000000000E+00 0.  1.
         11    1    5    5    0    0 -0.11402860128E+02 -0.27708668620E+02  0.10018555413E+03  0.10457026725E+03  0.00000000000E+00 0.  1.
        -11    1    5    5    0    0  0.11577144048E+03 -0.22627635047E+03  0.43944388303E+03  0.50765632031E+03  0.00000000000E+00 0. -1.
          3    1    6    6  503    0  0.21597897665E+03  0.17596788249E+03  0.98515936397E+02  0.29549450714E+03  0.00000000000E+00 0. -1.
         -3    1    6    6    0  503  0.39513789113E+03  0.20863964622E+03  0.81606268291E+02  0.45422905896E+03  0.00000000000E+00 0.  1.
<mgrwt>
<rscale>  0 0.20062072E+04</rscale>
<asrwt>0</asrwt>
<pdfrwt beam="1">  1        2 0.36916536E+00 0.20062072E+04</pdfrwt>
<pdfrwt beam="2">  1       -1 0.64512509E-01 0.20062072E+04</pdfrwt>
<totfact> 0.10247735E+01</totfact>
</mgrwt>
</event>
<event>
12    6  0.1530859E-007  0.1546333E+04  0.7818608E-02  0.8854213E-01
          2   -1    0    0  501    0  0.00000000000E+00  0.00000000000E+00  0.25388848329E+04  0.25388848329E+04  0.00000000000E+00 0. -1.
         -1   -1    0    0    0  501 -0.00000000000E+00 -0.00000000000E+00 -0.23545246123E+03  0.23545246123E+03  0.00000000000E+00 0.  1.
         24    2    1    2    0    0 -0.33672875246E+03 -0.36208654004E+03  0.89143923502E+03  0.10225233334E+04  0.79982138127E+02 0.  0.
        254    2    1    2    0    0  0.33672875246E+03  0.36208654004E+03  0.14119931366E+04  0.17518139607E+04  0.91139158425E+03 0.  0.
         23    2    4    4    0    0  0.56258627886E+03  0.24105165403E+03  0.48775382478E+03  0.78826793361E+03  0.94092085240E+02 0.  0.
         23    2    4    4    0    0 -0.22585752640E+03  0.12103488600E+03  0.92423931184E+03  0.96354602709E+03  0.92420641135E+02 0.  0.
          2    1    3    3  502    0 -0.15585817187E+03 -0.18437828526E+03  0.51325566024E+03  0.56720234007E+03  0.00000000000E+00 0. -1.
         -1    1    3    3    0  502 -0.18087058059E+03 -0.17770825478E+03  0.37818357479E+03  0.45532099334E+03  0.00000000000E+00 0.  1.
         11    1    5    5    0    0  0.14643908124E+03  0.68360559965E+02  0.18393793639E+03  0.24484839211E+03  0.00000000000E+00 0. -1.
        -11    1    5    5    0    0  0.41614719761E+03  0.17269109407E+03  0.30381588839E+03  0.54341954150E+03  0.00000000000E+00 0.  1.
          3    1    6    6  503    0 -0.12499759586E+03  0.45405136206E+02  0.32438081623E+03  0.35058371226E+03  0.00000000000E+00 0. -1.
         -3    1    6    6    0  503 -0.10085993054E+03  0.75629749796E+02  0.59985849561E+03  0.61296231483E+03  0.00000000000E+00 0.  1.
<mgrwt>
<rscale>  0 0.15463333E+04</rscale>
<asrwt>0</asrwt>
<pdfrwt beam="1">  1        2 0.39059765E+00 0.15463333E+04</pdfrwt>
<pdfrwt beam="2">  1       -1 0.36223457E-01 0.15463333E+04</pdfrwt>
<totfact> 0.26502600E+01</totfact>
</mgrwt>
</event>
<event>
12    6  0.1530859E-007  0.1399935E+04  0.7818608E-02  0.8953866E-01
         -1   -1    0    0    0  501 -0.00000000000E+00  0.00000000000E+00  0.90422427143E+03  0.90422427143E+03  0.00000000000E+00 0.  1.
          2   -1    0    0  501    0  0.00000000000E+00 -0.00000000000E+00 -0.54185031178E+03  0.54185031178E+03  0.00000000000E+00 0. -1.
         24    2    1    2    0    0  0.49566980880E+02 -0.22637834113E+03  0.44368877260E+03  0.50682858799E+03  0.79444645807E+02 0.  0.
        254    2    1    2    0    0 -0.49566980880E+02  0.22637834113E+03 -0.81314812946E+02  0.93924599522E+03  0.90656875183E+03 0.  0.
         23    2    4    4    0    0  0.18728981647E+03  0.45291309533E+03  0.15855535575E+03  0.52254507123E+03  0.87782705287E+02 0.  0.
         23    2    4    4    0    0 -0.23685679735E+03 -0.22653475420E+03 -0.23987016870E+03  0.41670092399E+03  0.93181676902E+02 0.  0.
          4    1    3    3  502    0  0.27819710580E+01 -0.15811786732E+03  0.24513323585E+03  0.29171784767E+03  0.00000000000E+00 0. -1.
         -3    1    3    3    0  502  0.46785009822E+02 -0.68260473809E+02  0.19855553675E+03  0.21511074032E+03  0.00000000000E+00 0.  1.
         11    1    5    5    0    0  0.17187848370E+03  0.44248110813E+03  0.13699576925E+03  0.49406435310E+03  0.00000000000E+00 0. -1.
        -11    1    5    5    0    0  0.15411332773E+02  0.10431987201E+02  0.21559586503E+02  0.28480718126E+02  0.00000000000E+00 0.  1.
          1    1    6    6  503    0 -0.20216487802E+03 -0.22809294276E+03 -0.22539601939E+03  0.37907834810E+03  0.00000000000E+00 0. -1.
         -1    1    6    6    0  503 -0.34691919328E+02  0.15581885598E+01 -0.14474149313E+02  0.37622575890E+02  0.00000000000E+00 0.  1.
<mgrwt>
<rscale>  0 0.13999346E+04</rscale>
<asrwt>0</asrwt>
<pdfrwt beam="1">  1        2 0.83361587E-01 0.13999346E+04</pdfrwt>
<pdfrwt beam="2">  1       -1 0.13911143E+00 0.13999346E+04</pdfrwt>
<totfact> 0.26576455E+01</totfact>
</mgrwt>
</event>
<event>
12    6  0.1530859E-007  0.3186102E+04  0.7818608E-02  0.8192497E-01
          2   -1    0    0  501    0  0.00000000000E+00  0.00000000000E+00  0.41688739281E+04  0.41688739281E+04  0.00000000000E+00 0. -1.
         -1   -1    0    0    0  501 -0.00000000000E+00 -0.00000000000E+00 -0.60875242467E+03  0.60875242467E+03  0.00000000000E+00 0.  1.
         24    2    1    2    0    0 -0.11053662636E+04  0.66399885576E+03  0.26835024030E+04  0.29783552779E+04  0.81767703997E+02 0.  0.
        254    2    1    2    0    0  0.11053662636E+04 -0.66399885576E+03  0.87661910044E+03  0.17992710749E+04  0.89787877598E+03 0.  0.
         23    2    4    4    0    0  0.61920609518E+03 -0.52087417507E+03  0.97943605479E+03  0.12739791202E+04  0.94877387634E+02 0.  0.
         23    2    4    4    0    0  0.48616016844E+03 -0.14312468069E+03 -0.10281695435E+03  0.52529195468E+03  0.92325120851E+02 0.  0.
          2    1    3    3  502    0 -0.10236517854E+04  0.63444888372E+03  0.25284210712E+04  0.28005894875E+04  0.00000000000E+00 0. -1.
         -1    1    3    3    0  502 -0.81714478183E+02  0.29549972047E+02  0.15508133181E+03  0.17776579049E+03  0.00000000000E+00 0.  1.
         11    1    5    5    0    0  0.50899037742E+03 -0.40184301201E+03  0.73016671928E+03  0.97657178361E+03  0.00000000000E+00 0. -1.
        -11    1    5    5    0    0  0.11021571775E+03 -0.11903116307E+03  0.24926933551E+03  0.29740733657E+03  0.00000000000E+00 0.  1.
          3    1    6    6  503    0  0.37396324901E+03 -0.10039596790E+03 -0.11676172243E+03  0.40442695485E+03  0.00000000000E+00 0. -1.
         -3    1    6    6    0  503  0.11219691943E+03 -0.42728712789E+02  0.13944768078E+02  0.12086499983E+03  0.00000000000E+00 0.  1.
<mgrwt>
<rscale>  0 0.31861024E+04</rscale>
<asrwt>0</asrwt>
<pdfrwt beam="1">  1        2 0.64136520E+00 0.31861024E+04</pdfrwt>
<pdfrwt beam="2">  1       -1 0.93654222E-01 0.31861024E+04</pdfrwt>
<totfact> 0.26135050E-01</totfact>
</mgrwt>
</event>
<event>
12    6  0.1530859E-007  0.1213846E+04  0.7818608E-02  0.9100823E-01
         -1   -1    0    0    0  501 -0.00000000000E+00  0.00000000000E+00  0.14793961427E+04  0.14793961427E+04  0.00000000000E+00 0.  1.
          2   -1    0    0  501    0  0.00000000000E+00 -0.00000000000E+00 -0.24899052843E+03  0.24899052843E+03  0.00000000000E+00 0. -1.
         24    2    1    2    0    0 -0.88127815321E+02 -0.18238239515E+02 -0.75206308456E+02  0.14198598155E+03  0.80030524874E+02 0.  0.
        254    2    1    2    0    0  0.88127815321E+02  0.18238239515E+02  0.13056119227E+04  0.15864006896E+04  0.89663008532E+03 0.  0.
         23    2    4    4    0    0 -0.35355140976E+03 -0.18247643551E+03  0.60746448772E+03  0.73161709990E+03  0.89186479737E+02 0.  0.
         23    2    4    4    0    0  0.44167922508E+03  0.20071467503E+03  0.69814743500E+03  0.85478358966E+03  0.88759368662E+02 0.  0.
          2    1    3    3  502    0 -0.84653534246E+02 -0.41438772080E+02 -0.71348472209E+02  0.11821166262E+03  0.00000000000E+00 0. -1.
         -1    1    3    3    0  502 -0.34742810754E+01  0.23200532566E+02 -0.38578362469E+01  0.23774318935E+02  0.00000000000E+00 0.  1.
         11    1    5    5    0    0 -0.12687546840E+03 -0.19384796362E+02  0.20026235371E+03  0.23786165123E+03  0.00000000000E+00 0. -1.
        -11    1    5    5    0    0 -0.22667594136E+03 -0.16309163915E+03  0.40720213401E+03  0.49375544867E+03  0.00000000000E+00 0.  1.
          4    1    6    6  503    0  0.37084466276E+03  0.16672236007E+03  0.63482849759E+03  0.75387620376E+03  0.00000000000E+00 0. -1.
         -4    1    6    6    0  503  0.70834562323E+02  0.33992314957E+02  0.63318937411E+02  0.10090738591E+03  0.00000000000E+00 0.  1.
<mgrwt>
<rscale>  0 0.12138462E+04</rscale>
<asrwt>0</asrwt>
<pdfrwt beam="1">  1        2 0.38306236E-01 0.12138462E+04</pdfrwt>
<pdfrwt beam="2">  1       -1 0.22759940E+00 0.12138462E+04</pdfrwt>
<totfact> 0.14981948E+01</totfact>
</mgrwt>
</event>
<event>
12    6  0.1530859E-007  0.1272054E+04  0.7818608E-02  0.9052025E-01
         -1   -1    0    0    0  501 -0.00000000000E+00  0.00000000000E+00  0.35298363378E+03  0.35298363378E+03  0.00000000000E+00 0.  1.
          2   -1    0    0  501    0  0.00000000000E+00 -0.00000000000E+00 -0.11460318456E+04  0.11460318456E+04  0.00000000000E+00 0. -1.
         24    2    1    2    0    0  0.91129990693E+02  0.23907994549E+03 -0.41098659798E+03  0.49092069683E+03  0.81420214461E+02 0.  0.
        254    2    1    2    0    0 -0.91129990693E+02 -0.23907994549E+03 -0.38206161387E+03  0.10080947826E+04  0.89711767251E+03 0.  0.
         23    2    4    4    0    0 -0.11822947350E+03 -0.52180408735E+03 -0.27037137640E+02  0.54397410287E+03  0.94441007024E+02 0.  0.
         23    2    4    4    0    0  0.27099482804E+02  0.28272414186E+03 -0.35502447623E+03  0.46412067971E+03  0.93264699912E+02 0.  0.
          4    1    3    3  502    0  0.20480692705E+02  0.13943480925E+03 -0.26853342199E+03  0.30326840180E+03  0.00000000000E+00 0. -1.
         -3    1    3    3    0  502  0.70649297988E+02  0.99645136241E+02 -0.14245317599E+03  0.18765229503E+03  0.00000000000E+00 0.  1.
         11    1    5    5    0    0 -0.34577365958E+02 -0.15031494552E+03 -0.50936668733E+02  0.16243374435E+03  0.00000000000E+00 0. -1.
        -11    1    5    5    0    0 -0.83652107538E+02 -0.37148914183E+03  0.23899531093E+02  0.38154035852E+03  0.00000000000E+00 0.  1.
          3    1    6    6  503    0 -0.14252396693E+02  0.10452953935E+02 -0.42903931079E+01  0.18187977636E+02  0.00000000000E+00 0. -1.
         -3    1    6    6    0  503  0.41351879497E+02  0.27227118792E+03 -0.35073408313E+03  0.44593270207E+03  0.00000000000E+00 0.  1.
<mgrwt>
<rscale>  0 0.12720542E+04</rscale>
<asrwt>0</asrwt>
<pdfrwt beam="1">  1        2 0.17631259E+00 0.12720542E+04</pdfrwt>
<pdfrwt beam="2">  1       -1 0.54305174E-01 0.12720542E+04</pdfrwt>
<totfact> 0.78276191E+01</totfact>
</mgrwt>
</event>
<event>
12    6  0.1530859E-007  0.2362574E+04  0.7818608E-02  0.8453650E-01
          2   -1    0    0  501    0  0.00000000000E+00  0.00000000000E+00  0.12270139932E+04  0.12270139932E+04  0.00000000000E+00 0. -1.
         -1   -1    0    0    0  501 -0.00000000000E+00 -0.00000000000E+00 -0.11372644796E+04  0.11372644796E+04  0.00000000000E+00 0.  1.
         24    2    1    2    0    0  0.23439422759E+03 -0.40259047395E+03 -0.85662126989E+03  0.97845322991E+03  0.80938121108E+02 0.  0.
        254    2    1    2    0    0 -0.23439422759E+03  0.40259047395E+03  0.94637078348E+03  0.13858252429E+04  0.89881822427E+03 0.  0.
         23    2    4    4    0    0 -0.17530126100E+03  0.90083754662E+02 -0.13378581555E+03  0.25597372343E+03  0.93692516675E+02 0.  0.
         23    2    4    4    0    0 -0.59092966582E+02  0.31250671929E+03  0.10801565990E+04  0.11298515194E+04  0.93132965350E+02 0.  0.
          4    1    3    3  502    0  0.66956095615E+02 -0.19462442339E+03 -0.36848240477E+03  0.42206761016E+03  0.00000000000E+00 0. -1.
         -3    1    3    3    0  502  0.16743813197E+03 -0.20796605056E+03 -0.48813886512E+03  0.55638561975E+03  0.00000000000E+00 0.  1.
         11    1    5    5    0    0 -0.91570991378E+02  0.56494114323E+02 -0.12560240033E+03  0.16538680233E+03  0.00000000000E+00 0. -1.
        -11    1    5    5    0    0 -0.83730269627E+02  0.33589640338E+02 -0.81834152129E+01  0.90586921100E+02  0.00000000000E+00 0.  1.
          4    1    6    6  503    0 -0.55056275073E+02  0.19359093285E+03  0.81040937239E+03  0.83502813938E+03  0.00000000000E+00 0. -1.
         -4    1    6    6    0  503 -0.40366915094E+01  0.11891578644E+03  0.26974722663E+03  0.29482338004E+03  0.00000000000E+00 0.  1.
<mgrwt>
<rscale>  0 0.23625744E+04</rscale>
<asrwt>0</asrwt>
<pdfrwt beam="1">  1        2 0.18877138E+00 0.23625744E+04</pdfrwt>
<pdfrwt beam="2">  1       -1 0.17496377E+00 0.23625744E+04</pdfrwt>
<totfact> 0.42467375E+00</totfact>
</mgrwt>
</event>
<event>
12    6  0.1530859E-007  0.2543156E+04  0.7818608E-02  0.8387770E-01
         -1   -1    0    0    0  501 -0.00000000000E+00  0.00000000000E+00  0.64230135528E+03  0.64230135528E+03  0.00000000000E+00 0.  1.
          2   -1    0    0  501    0  0.00000000000E+00 -0.00000000000E+00 -0.25173714507E+04  0.25173714507E+04  0.00000000000E+00 0. -1.
         24    2    1    2    0    0 -0.54350130630E+03  0.93189995115E+03 -0.11588881704E+04  0.15852909657E+04  0.79337668321E+02 0.  0.
        254    2    1    2    0    0  0.54350130630E+03 -0.93189995115E+03 -0.71618192504E+03  0.15743818403E+04  0.89550568972E+03 0.  0.
         23    2    4    4    0    0  0.63032194399E+03 -0.23825084879E+03 -0.22862355149E+03  0.71745855531E+03  0.91699674329E+02 0.  0.
         23    2    4    4    0    0 -0.86820637683E+02 -0.69364910236E+03 -0.48755837355E+03  0.85692328496E+03  0.88980044714E+02 0.  0.
          2    1    3    3  502    0 -0.42445854739E+03  0.75517511857E+03 -0.97026346003E+03  0.13007173790E+04  0.00000000000E+00 0. -1.
         -1    1    3    3    0  502 -0.11904275892E+03  0.17672483258E+03 -0.18862471035E+03  0.28457358671E+03  0.00000000000E+00 0.  1.
         11    1    5    5    0    0  0.44528364799E+03 -0.20728612046E+03 -0.14556185107E+03  0.51228245665E+03  0.00000000000E+00 0.  1.
        -11    1    5    5    0    0  0.18503829600E+03 -0.30964728332E+02 -0.83061700413E+02  0.20517609866E+03  0.00000000000E+00 0. -1.
          3    1    6    6  503    0  0.16940404498E+02 -0.15038375684E+03 -0.94912864740E+02  0.17863567258E+03  0.00000000000E+00 0. -1.
         -3    1    6    6    0  503 -0.10376104218E+03 -0.54326534552E+03 -0.39264550881E+03  0.67828761237E+03  0.00000000000E+00 0.  1.
<mgrwt>
<rscale>  0 0.25431564E+04</rscale>
<asrwt>0</asrwt>
<pdfrwt beam="1">  1        2 0.38728791E+00 0.25431564E+04</pdfrwt>
<pdfrwt beam="2">  1       -1 0.98815596E-01 0.25431564E+04</pdfrwt>
<totfact> 0.33662384E+00</totfact>
</mgrwt>
</event>
<event>
12    6  0.2399697E-007  0.1790187E+04  0.7818608E-02  0.8711535E-01
         -3   -1    0    0    0  501 -0.00000000000E+00  0.00000000000E+00  0.45117375697E+03  0.45117375697E+03  0.00000000000E+00 0.  1.
          4   -1    0    0  501    0  0.00000000000E+00 -0.00000000000E+00 -0.17757954877E+04  0.17757954877E+04  0.00000000000E+00 0. -1.
         24    2    1    2    0    0  0.17208987996E+03 -0.31983599474E+03  0.19343859017E+03  0.42371158304E+03  0.10101003474E+03 0.  0.
        254    2    1    2    0    0 -0.17208987996E+03  0.31983599474E+03 -0.15180603209E+04  0.18032576616E+04  0.90295130876E+03 0.  0.
         23    2    4    4    0    0 -0.92846806251E+02  0.84533211535E+02  0.85810072286E+02  0.17776823617E+03  0.92042294633E+02 0.  0.
         23    2    4    4    0    0 -0.79243073709E+02  0.23530278321E+03 -0.16038703932E+04  0.16254894254E+04  0.90381246010E+02 0.  0.
          4    1    3    3  502    0  0.40312166675E+02 -0.62681783052E+02 -0.25383548844E+01  0.74568894012E+02  0.00000000000E+00 0. -1.
         -3    1    3    3    0  502  0.13177771329E+03 -0.25715421169E+03  0.19597694506E+03  0.34914268903E+03  0.00000000000E+00 0.  1.
         11    1    5    5    0    0 -0.24617716085E+02  0.55344738611E+02 -0.46641440390E+01  0.60752170963E+02  0.00000000000E+00 0. -1.
        -11    1    5    5    0    0 -0.68229090166E+02  0.29188472925E+02  0.90474216325E+02  0.11701606521E+03  0.00000000000E+00 0.  1.
          1    1    6    6  503    0  0.19154678495E+02  0.24732701379E+02 -0.22563042318E+03  0.22778870931E+03  0.00000000000E+00 0. -1.
         -1    1    6    6    0  503 -0.98397752204E+02  0.21057008183E+03 -0.13782399700E+04  0.13977007161E+04  0.00000000000E+00 0.  1.
<mgrwt>
<rscale>  0 0.17901869E+04</rscale>
<asrwt>0</asrwt>
<pdfrwt beam="1">  1        4 0.27319931E+00 0.17901869E+04</pdfrwt>
<pdfrwt beam="2">  1       -3 0.69411347E-01 0.17901869E+04</pdfrwt>
<totfact> 0.19469617E-01</totfact>
</mgrwt>
</event>
<event>
12    6  0.1530859E-007  0.4252659E+04  0.7818608E-02  0.7955430E-01
          2   -1    0    0  501    0  0.00000000000E+00  0.00000000000E+00  0.16336804619E+04  0.16336804619E+04  0.00000000000E+00 0. -1.
         -1   -1    0    0    0  501 -0.00000000000E+00 -0.00000000000E+00 -0.27675402601E+04  0.27675402601E+04  0.00000000000E+00 0.  1.
         24    2    1    2    0    0  0.17048826660E+04 -0.10057751341E+04 -0.75929040430E+02  0.19825128162E+04  0.79895692824E+02 0.  0.
        254    2    1    2    0    0 -0.17048826660E+04  0.10057751341E+04 -0.10579307578E+04  0.24187079059E+04  0.90151090981E+03 0.  0.
         23    2    4    4    0    0 -0.13199150213E+04  0.61685889558E+03 -0.31789492748E+03  0.14938035126E+04  0.87756417476E+02 0.  0.
         23    2    4    4    0    0 -0.38496764468E+03  0.38891623856E+03 -0.74003583028E+03  0.92490439328E+03  0.91319102780E+02 0.  0.
          4    1    3    3  502    0  0.12228771074E+04 -0.69883989788E+03 -0.23436542789E+02  0.14086713223E+04  0.00000000000E+00 0. -1.
         -3    1    3    3    0  502  0.48200555863E+03 -0.30693523627E+03 -0.52492497641E+02  0.57384149390E+03  0.00000000000E+00 0.  1.
         11    1    5    5    0    0 -0.78187690885E+03  0.35893802051E+03 -0.23136815581E+03  0.89089798894E+03  0.00000000000E+00 0.  1.
        -11    1    5    5    0    0 -0.53803811248E+03  0.25792087506E+03 -0.86526771676E+02  0.60290552369E+03  0.00000000000E+00 0. -1.
          2    1    6    6  503    0 -0.31365292720E+03  0.30403008004E+03 -0.52492881841E+03  0.68290754331E+03  0.00000000000E+00 0. -1.
         -2    1    6    6    0  503 -0.71314717478E+02  0.84886158528E+02 -0.21510701187E+03  0.24199684997E+03  0.00000000000E+00 0.  1.
<mgrwt>
<rscale>  0 0.42526587E+04</rscale>
<asrwt>0</asrwt>
<pdfrwt beam="1">  1        2 0.25133546E+00 0.42526587E+04</pdfrwt>
<pdfrwt beam="2">  1       -1 0.42577542E+00 0.42526587E+04</pdfrwt>
<totfact> 0.44710423E-02</totfact>
</mgrwt>
</event>
<event>
12    6  0.1530859E-007  0.2522592E+04  0.7818608E-02  0.8394981E-01
         -1   -1    0    0    0  501 -0.00000000000E+00  0.00000000000E+00  0.96506472436E+03  0.96506472436E+03  0.00000000000E+00 0.  1.
          2   -1    0    0  501    0  0.00000000000E+00 -0.00000000000E+00 -0.16484569596E+04  0.16484569596E+04  0.00000000000E+00 0. -1.
         24    2    1    2    0    0 -0.80892587125E+02 -0.21271556341E+03  0.81460672308E+03  0.84969309308E+03  0.81257107840E+02 0.  0.
        254    2    1    2    0    0  0.80892587125E+02  0.21271556341E+03 -0.14979989584E+04  0.17638285909E+04  0.90293903301E+03 0.  0.
         23    2    4    4    0    0 -0.36959461323E+02 -0.32277075452E+03 -0.35141347146E+03  0.48949200701E+03  0.10278149277E+03 0.  0.
         23    2    4    4    0    0  0.11785204845E+03  0.53548631792E+03 -0.11465854869E+04  0.12743365839E+04  0.92955625420E+02 0.  0.
          2    1    3    3  502    0  0.65882962250E+01 -0.82425012221E+02  0.23096133909E+03  0.24531699583E+03  0.00000000000E+00 0. -1.
         -3    1    3    3    0  502 -0.87480883350E+02 -0.13029055119E+03  0.58364538399E+03  0.60437609725E+03  0.00000000000E+00 0.  1.
         11    1    5    5    0    0 -0.54702319207E+02 -0.15376165925E+03 -0.12088378429E+03  0.20309574315E+03  0.00000000000E+00 0.  1.
        -11    1    5    5    0    0  0.17742857884E+02 -0.16900909527E+03 -0.23052968717E+03  0.28639626386E+03  0.00000000000E+00 0. -1.
          1    1    6    6  503    0 -0.15430022217E+02  0.68504297453E+02 -0.13195031449E+03  0.14947176940E+03  0.00000000000E+00 0. -1.
         -1    1    6    6    0  503  0.13328207066E+03  0.46698202047E+03 -0.10146351724E+04  0.11248648145E+04  0.00000000000E+00 0.  1.
<mgrwt>
<rscale>  0 0.25225920E+04</rscale>
<asrwt>0</asrwt>
<pdfrwt beam="1">  1        2 0.25360876E+00 0.25225920E+04</pdfrwt>
<pdfrwt beam="2">  1       -1 0.14847150E+00 0.25225920E+04</pdfrwt>
<totfact> 0.38092190E+00</totfact>
</mgrwt>
</event>
<event>
12    6  0.1530859E-007  0.1835079E+04  0.7818608E-02  0.8687864E-01
         -1   -1    0    0    0  501 -0.00000000000E+00  0.00000000000E+00  0.40481225273E+03  0.40481225273E+03  0.00000000000E+00 0.  1.
          2   -1    0    0  501    0  0.00000000000E+00 -0.00000000000E+00 -0.20796778901E+04  0.20796778901E+04  0.00000000000E+00 0. -1.
         24    2    1    2    0    0  0.32645046777E+03 -0.53362381698E+03 -0.98388478685E+03  0.11686570816E+04  0.80036333791E+02 0.  0.
        254    2    1    2    0    0 -0.32645046777E+03  0.53362381698E+03 -0.69098085047E+03  0.13158330611E+04  0.92878297956E+03 0.  0.
         23    2    4    4    0    0 -0.25886914896E+03 -0.13564948697E+03  0.49713500429E+02  0.31053534317E+03  0.92448621608E+02 0.  0.
         23    2    4    4    0    0 -0.67581318812E+02  0.66927330396E+03 -0.74069435090E+03  0.10052977180E+04  0.97475075081E+02 0.  0.
          2    1    3    3  502    0  0.33455255743E+02 -0.76801844157E+02 -0.18237792872E+03  0.20069749946E+03  0.00000000000E+00 0. -1.
         -1    1    3    3    0  502  0.29299521203E+03 -0.45682197282E+03 -0.80150685812E+03  0.96795958219E+03  0.00000000000E+00 0.  1.
         11    1    5    5    0    0 -0.52169594910E+02  0.65966795151E+01 -0.76704350648E+01  0.53141494030E+02  0.00000000000E+00 0.  1.
        -11    1    5    5    0    0 -0.20669955405E+03 -0.14224616649E+03  0.57383935494E+02  0.25739384914E+03  0.00000000000E+00 0. -1.
          2    1    6    6  503    0 -0.67265769963E+02  0.66538650375E+03 -0.74384485783E+03  0.10002844874E+04  0.00000000000E+00 0. -1.
         -2    1    6    6    0  503 -0.31554884939E+00  0.38868002104E+01  0.31505069357E+01  0.50132305856E+01  0.00000000000E+00 0.  1.
<mgrwt>
<rscale>  0 0.18350794E+04</rscale>
<asrwt>0</asrwt>
<pdfrwt beam="1">  1        2 0.31995044E+00 0.18350794E+04</pdfrwt>
<pdfrwt beam="2">  1       -1 0.62278809E-01 0.18350794E+04</pdfrwt>
<totfact> 0.16910164E+01</totfact>
</mgrwt>
</event>
<event>
12    6  0.1530859E-007  0.1752100E+04  0.7818608E-02  0.8732195E-01
         -1   -1    0    0    0  501 -0.00000000000E+00  0.00000000000E+00  0.26912912775E+03  0.26912912775E+03  0.00000000000E+00 0.  1.
          2   -1    0    0  501    0  0.00000000000E+00 -0.00000000000E+00 -0.28516541112E+04  0.28516541112E+04  0.00000000000E+00 0. -1.
         24    2    1    2    0    0 -0.16037622924E+02  0.35670831567E+03 -0.48662275186E+01  0.36606454398E+03  0.80508026745E+02 0.  0.
        254    2    1    2    0    0  0.16037622924E+02 -0.35670831567E+03 -0.25776587559E+04  0.27547186949E+04  0.90368821975E+03 0.  0.
         23    2    4    4    0    0  0.15479757157E+03  0.26251292538E+03 -0.66252908374E+03  0.73518350829E+03  0.93137961649E+02 0.  0.
         23    2    4    4    0    0 -0.13875994865E+03 -0.61922124106E+03 -0.19151296722E+04  0.20195351866E+04  0.90063534085E+02 0.  0.
          2    1    3    3  502    0  0.16251823248E+02  0.24051308890E+03 -0.29859069323E+02  0.24290374989E+03  0.00000000000E+00 0. -1.
         -1    1    3    3    0  502 -0.32289446173E+02  0.11619522677E+03  0.24992841805E+02  0.12316079409E+03  0.00000000000E+00 0.  1.
         11    1    5    5    0    0 -0.25291828388E+01 -0.52511309211E+01 -0.39181238865E+01  0.70230218975E+01  0.00000000000E+00 0. -1.
        -11    1    5    5    0    0  0.15732675441E+03  0.26776405631E+03 -0.65861095985E+03  0.72816048639E+03  0.00000000000E+00 0.  1.
          2    1    6    6  503    0 -0.15048143040E+03 -0.57632008611E+03 -0.18060466965E+04  0.19017345168E+04  0.00000000000E+00 0.  1.
         -2    1    6    6    0  503  0.11721481751E+02 -0.42901154947E+02 -0.10908297566E+03  0.11780066981E+03  0.00000000000E+00 0. -1.
<mgrwt>
<rscale>  0 0.17520995E+04</rscale>
<asrwt>0</asrwt>
<pdfrwt beam="1">  1        2 0.43871603E+00 0.17520995E+04</pdfrwt>
<pdfrwt beam="2">  1       -1 0.41404480E-01 0.17520995E+04</pdfrwt>
<totfact> 0.13310972E+01</totfact>
</mgrwt>
</event>
<event>
12    6  0.1530859E-007  0.3583790E+04  0.7818608E-02  0.8094215E-01
         -1   -1    0    0    0  501 -0.00000000000E+00  0.00000000000E+00  0.12693615826E+04  0.12693615826E+04  0.00000000000E+00 0.  1.
          2   -1    0    0  501    0  0.00000000000E+00 -0.00000000000E+00 -0.25295291073E+04  0.25295291073E+04  0.00000000000E+00 0. -1.
         24    2    1    2    0    0 -0.38891381398E+03 -0.89622061140E+03 -0.20390097040E+04  0.22624337868E+04  0.81121684634E+02 0.  0.
        254    2    1    2    0    0  0.38891381398E+03  0.89622061140E+03  0.77884217922E+03  0.15364569031E+04  0.89422555099E+03 0.  0.
         23    2    4    4    0    0 -0.23339625536E+03  0.11784711635E+03  0.35442353380E+03  0.44956638781E+03  0.90178383694E+02 0.  0.
         23    2    4    4    0    0  0.62231006934E+03  0.77837349505E+03  0.42441864542E+03  0.10868905153E+04  0.89803594134E+02 0.  0.
          4    1    3    3  502    0 -0.31225824465E+03 -0.70349746939E+03 -0.16775584872E+04  0.18457021371E+04  0.00000000000E+00 0. -1.
         -3    1    3    3    0  502 -0.76655569333E+02 -0.19272314201E+03 -0.36145121673E+03  0.41673164969E+03  0.00000000000E+00 0.  1.
         11    1    5    5    0    0 -0.11241571504E+03  0.10284264677E+02  0.12077295603E+03  0.16531535317E+03  0.00000000000E+00 0. -1.
        -11    1    5    5    0    0 -0.12098054033E+03  0.10756285167E+03  0.23365057777E+03  0.28425103464E+03  0.00000000000E+00 0.  1.
          3    1    6    6  503    0  0.35362271982E+01 -0.11614906858E+00  0.80532543133E+01  0.87962093221E+01  0.00000000000E+00 0. -1.
         -3    1    6    6    0  503  0.61877384214E+03  0.77848964412E+03  0.41636539111E+03  0.10780943060E+04  0.00000000000E+00 0.  1.
<mgrwt>
<rscale>  0 0.35837897E+04</rscale>
<asrwt>0</asrwt>
<pdfrwt beam="1">  1        2 0.38915832E+00 0.35837897E+04</pdfrwt>
<pdfrwt beam="2">  1       -1 0.19528640E+00 0.35837897E+04</pdfrwt>
<totfact> 0.50351348E-01</totfact>
</mgrwt>
</event>
<event>
12    6  0.1530859E-007  0.1428854E+04  0.7818608E-02  0.8933193E-01
          2   -1    0    0  501    0  0.00000000000E+00  0.00000000000E+00  0.13901413697E+04  0.13901413697E+04  0.00000000000E+00 0. -1.
         -1   -1    0    0    0  501 -0.00000000000E+00 -0.00000000000E+00 -0.36716118393E+03  0.36716118393E+03  0.00000000000E+00 0.  1.
         24    2    1    2    0    0  0.18838084449E+02  0.18513653897E+03  0.79356160062E+03  0.81895587297E+03  0.79487712233E+02 0.  0.
        254    2    1    2    0    0 -0.18838084449E+02 -0.18513653897E+03  0.22941858518E+03  0.93834668069E+03  0.89063527578E+03 0.  0.
         23    2    4    4    0    0 -0.41031244784E+03 -0.14279216800E+03  0.28543024449E+03  0.52791503237E+03  0.92075777649E+02 0.  0.
         23    2    4    4    0    0  0.39147436340E+03 -0.42344370972E+02 -0.56011659312E+02  0.41043164833E+03  0.10134894682E+03 0.  0.
          2    1    3    3  502    0  0.39959046077E+02  0.14263522215E+03  0.67868149486E+03  0.69465826378E+03  0.00000000000E+00 0. -1.
         -1    1    3    3    0  502 -0.21120961628E+02  0.42501316816E+02  0.11488010576E+03  0.12429760919E+03  0.00000000000E+00 0.  1.
         11    1    5    5    0    0 -0.29066560669E+03 -0.59821892305E+02  0.16914527711E+03  0.34157763171E+03  0.00000000000E+00 0. -1.
        -11    1    5    5    0    0 -0.11964684115E+03 -0.82970275693E+02  0.11628496738E+03  0.18633740066E+03  0.00000000000E+00 0.  1.
          1    1    6    6  503    0  0.35407774837E+03 -0.12752396787E+02 -0.28680231943E+02  0.35546621670E+03  0.00000000000E+00 0. -1.
         -1    1    6    6    0  503  0.37396615028E+02 -0.29591974184E+02 -0.27331427369E+02  0.54965431625E+02  0.00000000000E+00 0.  1.
<mgrwt>
<rscale>  0 0.14288540E+04</rscale>
<asrwt>0</asrwt>
<pdfrwt beam="1">  1        2 0.21386790E+00 0.14288540E+04</pdfrwt>
<pdfrwt beam="2">  1       -1 0.56486337E-01 0.14288540E+04</pdfrwt>
<totfact> 0.51470806E+01</totfact>
</mgrwt>
</event>
<event>
12    6  0.1530859E-007  0.2185076E+04  0.7818608E-02  0.8524665E-01
         -1   -1    0    0    0  501 -0.00000000000E+00  0.00000000000E+00  0.33433152259E+03  0.33433152259E+03  0.00000000000E+00 0.  1.
          2   -1    0    0  501    0  0.00000000000E+00 -0.00000000000E+00 -0.35702273181E+04  0.35702273181E+04  0.00000000000E+00 0. -1.
         24    2    1    2    0    0  0.85524901251E+03 -0.30552773149E+03 -0.13245900098E+04  0.16080294563E+04  0.80137195425E+02 0.  0.
        254    2    1    2    0    0 -0.85524901251E+03  0.30552773149E+03 -0.19113057857E+04  0.22965293844E+04  0.89227761309E+03 0.  0.
         23    2    4    4    0    0 -0.37851866303E+03  0.30819710745E+03 -0.23132406085E+03  0.54791318939E+03  0.91848825132E+02 0.  0.
         23    2    4    4    0    0 -0.47673034947E+03 -0.26693759565E+01 -0.16799817248E+04  0.17486161950E+04  0.89671901573E+02 0.  0.
          2    1    3    3  502    0  0.39481752032E+03 -0.15186896460E+03 -0.68532135084E+03  0.80536352703E+03  0.00000000000E+00 0. -1.
         -1    1    3    3    0  502  0.46043149219E+03 -0.15365876689E+03 -0.63926865898E+03  0.80266592926E+03  0.00000000000E+00 0.  1.
         11    1    5    5    0    0 -0.37281962336E+03  0.29281440196E+03 -0.20410579852E+03  0.51613362858E+03  0.00000000000E+00 0. -1.
        -11    1    5    5    0    0 -0.56990396680E+01  0.15382705494E+02 -0.27218262328E+02  0.31779560815E+02  0.00000000000E+00 0.  1.
          2    1    6    6  503    0 -0.47466696372E+03  0.28722634495E+01 -0.16747539707E+04  0.17407233665E+04  0.00000000000E+00 0. -1.
         -2    1    6    6    0  503 -0.20633857524E+01 -0.55416394059E+01 -0.52277541243E+01  0.78928284697E+01  0.00000000000E+00 0.  1.
<mgrwt>
<rscale>  0 0.21850762E+04</rscale>
<asrwt>0</asrwt>
<pdfrwt beam="1">  1        2 0.54926579E+00 0.21850762E+04</pdfrwt>
<pdfrwt beam="2">  1       -1 0.51435615E-01 0.21850762E+04</pdfrwt>
<totfact> 0.28830898E+00</totfact>
</mgrwt>
</event>
<event>
12    6  0.1530859E-007  0.1842881E+04  0.7818608E-02  0.8683823E-01
         -1   -1    0    0    0  501 -0.00000000000E+00  0.00000000000E+00  0.63553742768E+03  0.63553742768E+03  0.00000000000E+00 0.  1.
          2   -1    0    0  501    0  0.00000000000E+00 -0.00000000000E+00 -0.13359596237E+04  0.13359596237E+04  0.00000000000E+00 0. -1.
         24    2    1    2    0    0 -0.17665641931E+03  0.28915623389E+03 -0.95727687201E+03  0.10187127241E+04  0.81103554584E+02 0.  0.
        254    2    1    2    0    0  0.17665641931E+03 -0.28915623389E+03  0.25685467598E+03  0.95278432724E+03  0.85264578319E+03 0.  0.
         23    2    4    4    0    0 -0.17583919640E+03 -0.46971980695E+03  0.16754695487E+03  0.53658620726E+03  0.91085979699E+02 0.  0.
         23    2    4    4    0    0  0.35249561571E+03  0.18056357306E+03  0.89307721107E+02  0.41619811999E+03  0.91589535525E+02 0.  0.
          2    1    3    3  502    0 -0.15098903552E+03  0.28308751013E+03 -0.90440567463E+03  0.95962797560E+03  0.00000000000E+00 0. -1.
         -1    1    3    3    0  502 -0.25667383795E+02  0.60687237612E+01 -0.52871197381E+02  0.59084748553E+02  0.00000000000E+00 0.  1.
         11    1    5    5    0    0 -0.12249187606E+03 -0.39772764003E+03  0.16274872626E+03  0.44685420804E+03  0.00000000000E+00 0.  1.
        -11    1    5    5    0    0 -0.53347320341E+02 -0.71992166929E+02  0.47982286133E+01  0.89731999223E+02  0.00000000000E+00 0. -1.
          1    1    6    6  503    0  0.47215727665E+02  0.62140993239E+02  0.57181534812E+01  0.78252956870E+02  0.00000000000E+00 0. -1.
         -1    1    6    6    0  503  0.30527988805E+03  0.11842257982E+03  0.83589567626E+02  0.33794516312E+03  0.00000000000E+00 0.  1.
<mgrwt>
<rscale>  0 0.18428807E+04</rscale>
<asrwt>0</asrwt>
<pdfrwt beam="1">  1        2 0.20553225E+00 0.18428807E+04</pdfrwt>
<pdfrwt beam="2">  1       -1 0.97774990E-01 0.18428807E+04</pdfrwt>
<totfact> 0.16951683E+01</totfact>
</mgrwt>
</event>
<event>
12    6  0.1530859E-007  0.1380312E+04  0.7818608E-02  0.8968194E-01
         -1   -1    0    0    0  501 -0.00000000000E+00  0.00000000000E+00  0.51503995116E+03  0.51503995116E+03  0.00000000000E+00 0.  1.
          2   -1    0    0  501    0  0.00000000000E+00 -0.00000000000E+00 -0.92481256801E+03  0.92481256801E+03  0.00000000000E+00 0. -1.
         24    2    1    2    0    0 -0.27978882997E+03  0.12894118583E+03 -0.38846643177E+03  0.50201897760E+03  0.78798898937E+02 0.  0.
        254    2    1    2    0    0  0.27978882997E+03 -0.12894118583E+03 -0.21306185078E+02  0.93783354157E+03  0.88553383865E+03 0.  0.
         23    2    4    4    0    0 -0.84758775623E+02  0.34577253215E+02  0.35716677917E+03  0.38001717740E+03  0.92007121934E+02 0.  0.
         23    2    4    4    0    0  0.36454760560E+03 -0.16351843904E+03 -0.37847296425E+03  0.55781636417E+03  0.91016893029E+02 0.  0.
          4    1    3    3  502    0 -0.27387653355E+03  0.13465659931E+03 -0.35784417723E+03  0.47031182267E+03  0.00000000000E+00 0. -1.
         -3    1    3    3    0  502 -0.59122964201E+01 -0.57154134792E+01 -0.30622254541E+02  0.31707154924E+02  0.00000000000E+00 0.  1.
         11    1    5    5    0    0 -0.15911193179E+01 -0.22993300867E+02  0.11980642762E+03  0.12200329358E+03  0.00000000000E+00 0.  1.
        -11    1    5    5    0    0 -0.83167656305E+02  0.57570554082E+02  0.23736035156E+03  0.25801388382E+03  0.00000000000E+00 0. -1.
          3    1    6    6  503    0  0.36907428417E+03 -0.16457506163E+03 -0.37764032314E+03  0.55309401715E+03  0.00000000000E+00 0. -1.
         -3    1    6    6    0  503 -0.45266785742E+01  0.10566225844E+01 -0.83264111455E+00  0.47223470251E+01  0.00000000000E+00 0.  1.
<mgrwt>
<rscale>  0 0.13803122E+04</rscale>
<asrwt>0</asrwt>
<pdfrwt beam="1">  1        2 0.14227886E+00 0.13803122E+04</pdfrwt>
<pdfrwt beam="2">  1       -1 0.79236916E-01 0.13803122E+04</pdfrwt>
<totfact> 0.49979934E+01</totfact>
</mgrwt>
</event>
<event>
12    6  0.1530859E-007  0.1877076E+04  0.7818608E-02  0.8666352E-01
          2   -1    0    0  501    0  0.00000000000E+00  0.00000000000E+00  0.60900198926E+03  0.60900198926E+03  0.00000000000E+00 0. -1.
         -1   -1    0    0    0  501 -0.00000000000E+00 -0.00000000000E+00 -0.14463880913E+04  0.14463880913E+04  0.00000000000E+00 0.  1.
         24    2    1    2    0    0  0.42444192794E+03  0.52880051793E+03 -0.57724566851E+03  0.89468459284E+03  0.86411925701E+02 0.  0.
        254    2    1    2    0    0 -0.42444192794E+03 -0.52880051793E+03 -0.26014043356E+03  0.11607054877E+04  0.90541882360E+03 0.  0.
         23    2    4    4    0    0 -0.43975709241E+03 -0.37258608318E+03 -0.56081291395E+03  0.80936604494E+03  0.91408864658E+02 0.  0.
         23    2    4    4    0    0  0.15315164474E+02 -0.15621443475E+03  0.30067248040E+03  0.35133944280E+03  0.91640382520E+02 0.  0.
          2    1    3    3  502    0  0.81271753823E+02  0.82647537412E+02 -0.14116455208E+03  0.18265580794E+03  0.00000000000E+00 0. -1.
         -1    1    3    3    0  502  0.34317017411E+03  0.44615298052E+03 -0.43608111643E+03  0.71202878491E+03  0.00000000000E+00 0.  1.
         11    1    5    5    0    0 -0.81258939258E+02 -0.51864983879E+02 -0.14162945087E+03  0.17132394204E+03  0.00000000000E+00 0. -1.
        -11    1    5    5    0    0 -0.35849815315E+03 -0.32072109930E+03 -0.41918346309E+03  0.63804210290E+03  0.00000000000E+00 0.  1.
          1    1    6    6  503    0 -0.14172336509E+02 -0.65265852279E+02  0.51140874700E+02  0.84118224309E+02  0.00000000000E+00 0. -1.
         -1    1    6    6    0  503  0.29487500983E+02 -0.90948582476E+02  0.24953160570E+03  0.26722121849E+03  0.00000000000E+00 0.  1.
<mgrwt>
<rscale>  0 0.18770756E+04</rscale>
<asrwt>0</asrwt>
<pdfrwt beam="1">  1        2 0.93692615E-01 0.18770756E+04</pdfrwt>
<pdfrwt beam="2">  1       -1 0.22252124E+00 0.18770756E+04</pdfrwt>
<totfact> 0.55244072E+00</totfact>
</mgrwt>
</event>
<event>
12    6  0.1530859E-007  0.3452191E+04  0.7818608E-02  0.8125214E-01
          2   -1    0    0  501    0  0.00000000000E+00  0.00000000000E+00  0.32461867432E+04  0.32461867432E+04  0.00000000000E+00 0. -1.
         -1   -1    0    0    0  501 -0.00000000000E+00 -0.00000000000E+00 -0.91781716850E+03  0.91781716850E+03  0.00000000000E+00 0.  1.
         24    2    1    2    0    0 -0.14702402467E+04 -0.75684485427E+02  0.18624668092E+04  0.23754200630E+04  0.80643262510E+02 0.  0.
        254    2    1    2    0    0  0.14702402467E+04  0.75684485427E+02  0.46590276554E+03  0.17885838488E+04  0.90256981601E+03 0.  0.
         23    2    4    4    0    0  0.88370173454E+03  0.15261138055E+03  0.70441540028E+03  0.11439347971E+04  0.90370209692E+02 0.  0.
         23    2    4    4    0    0  0.58653851217E+03 -0.76926895123E+02 -0.23851263474E+03  0.64464905166E+03  0.93482348189E+02 0.  0.
          4    1    3    3  502    0 -0.11913280726E+04 -0.52362348932E+02  0.15557751535E+04  0.19602144577E+04  0.00000000000E+00 0. -1.
         -3    1    3    3    0  502 -0.27891217416E+03 -0.23322136494E+02  0.30669165567E+03  0.41520560521E+03  0.00000000000E+00 0.  1.
         11    1    5    5    0    0  0.53526028334E+02 -0.83922800350E+01  0.27660686027E+02  0.60832389604E+02  0.00000000000E+00 0. -1.
        -11    1    5    5    0    0  0.83017570621E+03  0.16100366058E+03  0.67675471425E+03  0.10831024075E+04  0.00000000000E+00 0.  1.
          3    1    6    6  503    0  0.13046835630E+03 -0.24901543739E+01 -0.15073593538E+02  0.13135983438E+03  0.00000000000E+00 0. -1.
         -3    1    6    6    0  503  0.45607015587E+03 -0.74436740749E+02 -0.22343904120E+03  0.51328921728E+03  0.00000000000E+00 0.  1.
<mgrwt>
<rscale>  0 0.34521911E+04</rscale>
<asrwt>0</asrwt>
<pdfrwt beam="1">  1        2 0.49941334E+00 0.34521911E+04</pdfrwt>
<pdfrwt beam="2">  1       -1 0.14120264E+00 0.34521911E+04</pdfrwt>
<totfact> 0.46371860E-01</totfact>
</mgrwt>
</event>
<event>
12    6  0.1530859E-007  0.2102301E+04  0.7818608E-02  0.8560230E-01
         -3   -1    0    0    0  501 -0.00000000000E+00  0.00000000000E+00  0.68042484745E+03  0.68042484745E+03  0.00000000000E+00 0.  1.
          2   -1    0    0  501    0  0.00000000000E+00 -0.00000000000E+00 -0.16238641985E+04  0.16238641985E+04  0.00000000000E+00 0. -1.
         24    2    1    2    0    0 -0.56157192536E+02 -0.19360497013E+03  0.52547984384E+03  0.56827115469E+03  0.78527219663E+02 0.  0.
        254    2    1    2    0    0  0.56157192536E+02  0.19360497013E+03 -0.14689191948E+04  0.17360178912E+04  0.90299391078E+03 0.  0.
         23    2    4    4    0    0  0.38478473000E+03  0.36814032990E+03 -0.90528535396E+03  0.10544994030E+04  0.94025677072E+02 0.  0.
         23    2    4    4    0    0 -0.32862753746E+03 -0.17453535976E+03 -0.56363384089E+03  0.68151848819E+03  0.91245235331E+02 0.  0.
          4    1    3    3  502    0 -0.62640564555E+01  0.62616663060E+01  0.11277906523E+02  0.14340085207E+02  0.00000000000E+00 0. -1.
         -3    1    3    3    0  502 -0.49893136080E+02 -0.19986663644E+03  0.51420193732E+03  0.55393106948E+03  0.00000000000E+00 0.  1.
         11    1    5    5    0    0  0.36456960472E+03  0.32589315759E+03 -0.86028594096E+03  0.98955002252E+03  0.00000000000E+00 0. -1.
        -11    1    5    5    0    0  0.20215125276E+02  0.42247172307E+02 -0.44999412997E+02  0.64949380504E+02  0.00000000000E+00 0.  1.
          3    1    6    6  503    0 -0.15461164736E+03 -0.31345085788E+02 -0.23477079434E+03  0.28285084723E+03  0.00000000000E+00 0.  1.
         -3    1    6    6    0  503 -0.17401589010E+03 -0.14319027398E+03 -0.32886304655E+03  0.39866764097E+03  0.00000000000E+00 0. -1.
<mgrwt>
<rscale>  0 0.21023012E+04</rscale>
<asrwt>0</asrwt>
<pdfrwt beam="1">  1        2 0.24982526E+00 0.21023012E+04</pdfrwt>
<pdfrwt beam="2">  1       -3 0.10468075E+00 0.21023012E+04</pdfrwt>
<totfact> 0.49749189E+00</totfact>
</mgrwt>
</event>
<event>
12    6  0.1530859E-007  0.2436930E+04  0.7818608E-02  0.8425806E-01
          2   -1    0    0  501    0  0.00000000000E+00  0.00000000000E+00  0.20020331723E+04  0.20020331723E+04  0.00000000000E+00 0. -1.
         -1   -1    0    0    0  501 -0.00000000000E+00 -0.00000000000E+00 -0.74157431094E+03  0.74157431094E+03  0.00000000000E+00 0.  1.
         24    2    1    2    0    0 -0.57152787364E+02 -0.91917589357E+03 -0.23036944249E+02  0.92528522840E+03  0.86436616538E+02 0.  0.
        254    2    1    2    0    0  0.57152787364E+02  0.91917589357E+03  0.12834958056E+04  0.18183222549E+04  0.90043521424E+03 0.  0.
         23    2    4    4    0    0  0.18833093180E+03 -0.10622416512E+03  0.35682940556E+03  0.42704820408E+03  0.91053999432E+02 0.  0.
         23    2    4    4    0    0 -0.13117814443E+03  0.10254000587E+04  0.92666640006E+03  0.13912740508E+04  0.90993853678E+02 0.  0.
          4    1    3    3  502    0 -0.25196295878E+02 -0.22380200762E+03  0.29781672475E+02  0.22717645115E+03  0.00000000000E+00 0. -1.
         -3    1    3    3    0  502 -0.31956491486E+02 -0.69537388595E+03 -0.52818616725E+02  0.69810877725E+03  0.00000000000E+00 0.  1.
         11    1    5    5    0    0  0.19534994567E+03 -0.86443098131E+02  0.32444108137E+03  0.38845337657E+03  0.00000000000E+00 0.  1.
        -11    1    5    5    0    0 -0.70190138734E+01 -0.19781066992E+02  0.32388324188E+02  0.38594827514E+02  0.00000000000E+00 0. -1.
          2    1    6    6  503    0 -0.17433781609E+02  0.90490883834E+02  0.51241964264E+02  0.10544323449E+03  0.00000000000E+00 0. -1.
         -2    1    6    6    0  503 -0.11374436283E+03  0.93490917486E+03  0.87542443579E+03  0.12858308163E+04  0.00000000000E+00 0.  1.
<mgrwt>
<rscale>  0 0.24369295E+04</rscale>
<asrwt>0</asrwt>
<pdfrwt beam="1">  1        2 0.30800510E+00 0.24369295E+04</pdfrwt>
<pdfrwt beam="2">  1       -1 0.11408836E+00 0.24369295E+04</pdfrwt>
<totfact> 0.47560829E+00</totfact>
</mgrwt>
</event>
<event>
12    6  0.1530859E-007  0.1538636E+04  0.7818608E-02  0.8859159E-01
         -3   -1    0    0    0  501 -0.00000000000E+00  0.00000000000E+00  0.67155323163E+03  0.67155323163E+03  0.00000000000E+00 0.  1.
          4   -1    0    0  501    0  0.00000000000E+00 -0.00000000000E+00 -0.88131534319E+03  0.88131534319E+03  0.00000000000E+00 0. -1.
         24    2    1    2    0    0 -0.35749597341E+03 -0.34363199040E+03 -0.48378653903E+00  0.50224069303E+03  0.79744365699E+02 0.  0.
        254    2    1    2    0    0  0.35749597341E+03  0.34363199040E+03 -0.20927832502E+03  0.10506278818E+04  0.90229441582E+03 0.  0.
         23    2    4    4    0    0  0.34234862250E+03  0.35678326761E+03  0.26447100050E+03  0.56800259648E+03  0.90471874803E+02 0.  0.
         23    2    4    4    0    0  0.15147350909E+02 -0.13151277212E+02 -0.47374932552E+03  0.48262528530E+03  0.89924102743E+02 0.  0.
          4    1    3    3  502    0 -0.10479181898E+03 -0.10393662747E+03 -0.36622868241E+02  0.15207032036E+03  0.00000000000E+00 0. -1.
         -3    1    3    3    0  502 -0.25270415443E+03 -0.23969536293E+03  0.36139081702E+02  0.35017037267E+03  0.00000000000E+00 0.  1.
         11    1    5    5    0    0 -0.58476199741E+01  0.69371229644E+01  0.43003035996E+01  0.10040465399E+02  0.00000000000E+00 0. -1.
        -11    1    5    5    0    0  0.34819624247E+03  0.34984614464E+03  0.26017069690E+03  0.55796213108E+03  0.00000000000E+00 0.  1.
          2    1    6    6  503    0 -0.38018125795E+02 -0.52722215319E+01 -0.20015496214E+03  0.20380182305E+03  0.00000000000E+00 0. -1.
         -2    1    6    6    0  503  0.53165476704E+02 -0.78790556798E+01 -0.27359436338E+03  0.27882346226E+03  0.00000000000E+00 0.  1.
<mgrwt>
<rscale>  0 0.15386360E+04</rscale>
<asrwt>0</asrwt>
<pdfrwt beam="1">  1        4 0.13558697E+00 0.15386360E+04</pdfrwt>
<pdfrwt beam="2">  1       -3 0.10331588E+00 0.15386360E+04</pdfrwt>
<totfact> 0.69251242E-01</totfact>
</mgrwt>
</event>
<event>
12    6  0.1530859E-007  0.1978587E+04  0.7818608E-02  0.8616698E-01
         -1   -1    0    0    0  501 -0.00000000000E+00  0.00000000000E+00  0.35223104531E+03  0.35223104531E+03  0.00000000000E+00 0.  1.
          2   -1    0    0  501    0  0.00000000000E+00 -0.00000000000E+00 -0.27785778354E+04  0.27785778354E+04  0.00000000000E+00 0. -1.
         24    2    1    2    0    0  0.63446052697E+03 -0.44460598912E+03 -0.11693676649E+04  0.14049348614E+04  0.78781870931E+02 0.  0.
        254    2    1    2    0    0 -0.63446052697E+03  0.44460598912E+03 -0.12569791252E+04  0.17258740193E+04  0.89354908290E+03 0.  0.
         23    2    4    4    0    0 -0.60743516954E+03  0.42607348856E+03 -0.37068157255E+03  0.83398431000E+03  0.87228998981E+02 0.  0.
         23    2    4    4    0    0 -0.27025357435E+02  0.18532500559E+02 -0.88629755262E+03  0.89188970931E+03  0.94181092891E+02 0.  0.
          4    1    3    3  502    0  0.26606648682E+03 -0.15391971836E+03 -0.51367200648E+03  0.59861639248E+03  0.00000000000E+00 0. -1.
         -3    1    3    3    0  502  0.36839404015E+03 -0.29068627076E+03 -0.65569565839E+03  0.80631846888E+03  0.00000000000E+00 0.  1.
         11    1    5    5    0    0 -0.21902188705E+03  0.10733759333E+03 -0.13839141919E+03  0.28043560910E+03  0.00000000000E+00 0. -1.
        -11    1    5    5    0    0 -0.38841328249E+03  0.31873589523E+03 -0.23229015337E+03  0.55354870090E+03  0.00000000000E+00 0.  1.
          1    1    6    6  503    0  0.12537033668E+02  0.38333517045E+02 -0.66450507339E+03  0.66572789359E+03  0.00000000000E+00 0. -1.
         -1    1    6    6    0  503 -0.39562391103E+02 -0.19801016485E+02 -0.22179247924E+03  0.22616181572E+03  0.00000000000E+00 0.  1.
<mgrwt>
<rscale>  0 0.19785867E+04</rscale>
<asrwt>0</asrwt>
<pdfrwt beam="1">  1        2 0.42747354E+00 0.19785867E+04</pdfrwt>
<pdfrwt beam="2">  1       -1 0.54189389E-01 0.19785867E+04</pdfrwt>
<totfact> 0.86920822E+00</totfact>
</mgrwt>
</event>
<event>
12    6  0.1530859E-007  0.1475340E+04  0.7818608E-02  0.8901019E-01
         -1   -1    0    0    0  501 -0.00000000000E+00  0.00000000000E+00  0.38769826840E+03  0.38769826840E+03  0.00000000000E+00 0.  1.
          2   -1    0    0  501    0  0.00000000000E+00 -0.00000000000E+00 -0.14035587674E+04  0.14035587674E+04  0.00000000000E+00 0. -1.
         24    2    1    2    0    0  0.43286636850E+02 -0.93876431210E+02  0.21955286897E+03  0.25685156946E+03  0.84159070774E+02 0.  0.
        254    2    1    2    0    0 -0.43286636850E+02  0.93876431210E+02 -0.12354133680E+04  0.15344054664E+04  0.90413905356E+03 0.  0.
         23    2    4    4    0    0 -0.24154126179E+03 -0.32126693994E+03 -0.77039870834E+03  0.87387569762E+03  0.92681914299E+02 0.  0.
         23    2    4    4    0    0  0.19825462494E+03  0.41514337115E+03 -0.46501465967E+03  0.66052976877E+03  0.91717102056E+02 0.  0.
          4    1    3    3  502    0  0.54547875823E+02 -0.23522629043E+02  0.74842844445E+02  0.95552269458E+02  0.00000000000E+00 0. -1.
         -3    1    3    3    0  502 -0.11261238973E+02 -0.70353802168E+02  0.14471002452E+03  0.16129930000E+03  0.00000000000E+00 0.  1.
         11    1    5    5    0    0 -0.11839789225E+03 -0.93045611133E+02 -0.33132818771E+03  0.36394218581E+03  0.00000000000E+00 0. -1.
        -11    1    5    5    0    0 -0.12314336953E+03 -0.22822132881E+03 -0.43907052063E+03  0.50993351181E+03  0.00000000000E+00 0.  1.
          4    1    6    6  503    0  0.16625611516E+02  0.83660651288E+02 -0.12980333165E+03  0.15532037999E+03  0.00000000000E+00 0. -1.
         -4    1    6    6    0  503  0.18162901342E+03  0.33148271986E+03 -0.33521132802E+03  0.50520938878E+03  0.00000000000E+00 0.  1.
<mgrwt>
<rscale>  0 0.14753404E+04</rscale>
<asrwt>0</asrwt>
<pdfrwt beam="1">  1        2 0.21593212E+00 0.14753404E+04</pdfrwt>
<pdfrwt beam="2">  1       -1 0.59645887E-01 0.14753404E+04</pdfrwt>
<totfact> 0.45277698E+01</totfact>
</mgrwt>
</event>
<event>
12    6  0.1530859E-007  0.2125811E+04  0.7818608E-02  0.8549958E-01
          2   -1    0    0  501    0  0.00000000000E+00  0.00000000000E+00  0.24341210973E+04  0.24341210973E+04  0.00000000000E+00 0. -1.
         -1   -1    0    0    0  501 -0.00000000000E+00 -0.00000000000E+00 -0.46413791148E+03  0.46413791148E+03  0.00000000000E+00 0.  1.
         24    2    1    2    0    0  0.49016653840E+03  0.32398692983E+03 -0.73123483771E+02  0.59733340093E+03  0.78926433631E+02 0.  0.
        254    2    1    2    0    0 -0.49016653840E+03 -0.32398692983E+03  0.20431066696E+04  0.23009256078E+04  0.88019487811E+03 0.  0.
         23    2    4    4    0    0 -0.42236219114E+03 -0.32356972217E+03  0.21029223937E+04  0.21711151100E+04  0.91493395303E+02 0.  0.
         23    2    4    4    0    0 -0.67804347251E+02 -0.41720765902E+00 -0.59815724097E+02  0.12981049785E+03  0.93140973443E+02 0.  0.
          2    1    3    3  502    0  0.19696937902E+02  0.16415921979E+01  0.79307802106E+01  0.21296982472E+02  0.00000000000E+00 0. -1.
         -1    1    3    3    0  502  0.47046960049E+03  0.32234533763E+03 -0.81054263982E+02  0.57603641846E+03  0.00000000000E+00 0.  1.
         11    1    5    5    0    0 -0.27160257625E+03 -0.25965503140E+03  0.15010073314E+04  0.15473240461E+04  0.00000000000E+00 0. -1.
        -11    1    5    5    0    0 -0.15075961489E+03 -0.63914690771E+02  0.60191506229E+03  0.62379106389E+03  0.00000000000E+00 0.  1.
          2    1    6    6  503    0 -0.57235888302E+02 -0.41714328305E+02 -0.48061324234E+02  0.85591605796E+02  0.00000000000E+00 0.  1.
         -2    1    6    6    0  503 -0.10568458950E+02  0.41297120646E+02 -0.11754399864E+02  0.44218892053E+02  0.00000000000E+00 0. -1.
<mgrwt>
<rscale>  0 0.21258108E+04</rscale>
<asrwt>0</asrwt>
<pdfrwt beam="1">  1        2 0.37448016E+00 0.21258108E+04</pdfrwt>
<pdfrwt beam="2">  1       -1 0.71405834E-01 0.21258108E+04</pdfrwt>
<totfact> 0.78774124E+00</totfact>
</mgrwt>
</event>
<event>
12    6  0.1530859E-007  0.2371687E+04  0.7818608E-02  0.8450180E-01
          2   -1    0    0  501    0  0.00000000000E+00  0.00000000000E+00  0.76009915072E+03  0.76009915072E+03  0.00000000000E+00 0. -1.
         -1   -1    0    0    0  501 -0.00000000000E+00 -0.00000000000E+00 -0.18500545415E+04  0.18500545415E+04  0.00000000000E+00 0.  1.
         24    2    1    2    0    0 -0.39047189275E+02  0.54669291751E+03 -0.14065392263E+04  0.15117385684E+04  0.81259305900E+02 0.  0.
        254    2    1    2    0    0  0.39047189275E+02 -0.54669291751E+03  0.31658383555E+03  0.10984151239E+04  0.89771522788E+03 0.  0.
         23    2    4    4    0    0 -0.29004669317E+03 -0.15488927111E+03 -0.17314290356E+03  0.38275910660E+03  0.91696772611E+02 0.  0.
         23    2    4    4    0    0  0.32909388245E+03 -0.39180364640E+03  0.48972673911E+03  0.71565601726E+03  0.10255913052E+03 0.  0.
          2    1    3    3  502    0  0.65357014631E+01  0.14658305381E+03 -0.29443576823E+03  0.32897071096E+03  0.00000000000E+00 0. -1.
         -1    1    3    3    0  502 -0.45582890738E+02  0.40010986370E+03 -0.11121034581E+04  0.11827678574E+04  0.00000000000E+00 0.  1.
         11    1    5    5    0    0 -0.11301867079E+03 -0.71554083086E+02 -0.22097921019E+02  0.13557848231E+03  0.00000000000E+00 0.  1.
        -11    1    5    5    0    0 -0.17702802238E+03 -0.83335188026E+02 -0.15104498254E+03  0.24718062429E+03  0.00000000000E+00 0. -1.
          2    1    6    6  503    0  0.32714149006E+03 -0.39491665288E+03  0.49253170919E+03  0.71103319318E+03  0.00000000000E+00 0. -1.
         -2    1    6    6    0  503  0.19523923878E+01  0.31130064790E+01 -0.28049700842E+01  0.46228240879E+01  0.00000000000E+00 0.  1.
<mgrwt>
<rscale>  0 0.23716871E+04</rscale>
<asrwt>0</asrwt>
<pdfrwt beam="1">  1        2 0.11693833E+00 0.23716871E+04</pdfrwt>
<pdfrwt beam="2">  1       -1 0.28462377E+00 0.23716871E+04</pdfrwt>
<totfact> 0.15743247E+00</totfact>
</mgrwt>
</event>
<event>
12    6  0.1530859E-007  0.1290048E+04  0.7818608E-02  0.9037494E-01
          2   -1    0    0  501    0  0.00000000000E+00  0.00000000000E+00  0.21449238178E+04  0.21449238178E+04  0.00000000000E+00 0. -1.
         -1   -1    0    0    0  501 -0.00000000000E+00 -0.00000000000E+00 -0.19397249446E+03  0.19397249446E+03  0.00000000000E+00 0.  1.
         24    2    1    2    0    0 -0.12026898105E+03  0.12581009969E+02 -0.22022438033E+02  0.14665898663E+03  0.80006005818E+02 0.  0.
        254    2    1    2    0    0  0.12026898105E+03 -0.12581009969E+02  0.19729737614E+04  0.21922373256E+04  0.94797474608E+03 0.  0.
         23    2    4    4    0    0 -0.31745408394E+03  0.41014888196E+02  0.15096956711E+04  0.15461525377E+04  0.94590348700E+02 0.  0.
         23    2    4    4    0    0  0.43772306499E+03 -0.53595898165E+02  0.46327809022E+03  0.64608478787E+03  0.91241231425E+02 0.  0.
          2    1    3    3  502    0  0.12053910250E+02  0.12919185673E+01 -0.59183985594E+00  0.12137383586E+02  0.00000000000E+00 0. -1.
         -1    1    3    3    0  502 -0.13232289130E+03  0.11289091401E+02 -0.21430598177E+02  0.13452160304E+03  0.00000000000E+00 0.  1.
         11    1    5    5    0    0 -0.23028688634E+03 -0.13938370189E+02  0.10349011192E+04  0.10603049820E+04  0.00000000000E+00 0.  1.
        -11    1    5    5    0    0 -0.87167197604E+02  0.54953258385E+02  0.47479455189E+03  0.48584755577E+03  0.00000000000E+00 0. -1.
          3    1    6    6  503    0  0.38174708299E+03 -0.70529846772E+02  0.42779943845E+03  0.57768300494E+03  0.00000000000E+00 0. -1.
         -3    1    6    6    0  503  0.55975982001E+02  0.16933948606E+02  0.35478651764E+02  0.68401782926E+02  0.00000000000E+00 0.  1.
<mgrwt>
<rscale>  0 0.12900484E+04</rscale>
<asrwt>0</asrwt>
<pdfrwt beam="1">  1        2 0.32998826E+00 0.12900484E+04</pdfrwt>
<pdfrwt beam="2">  1       -1 0.29841924E-01 0.12900484E+04</pdfrwt>
<totfact> 0.63920180E+01</totfact>
</mgrwt>
</event>
<event>
12    6  0.1530859E-007  0.1240202E+04  0.7818608E-02  0.9078378E-01
          2   -1    0    0  501    0  0.00000000000E+00  0.00000000000E+00  0.32320065482E+04  0.32320065482E+04  0.00000000000E+00 0. -1.
         -1   -1    0    0    0  501 -0.00000000000E+00 -0.00000000000E+00 -0.11897408663E+03  0.11897408663E+03  0.00000000000E+00 0.  1.
         24    2    1    2    0    0  0.13094508931E+03  0.27407869930E+02  0.65052457639E+02  0.16953788810E+03  0.81323216284E+02 0.  0.
        254    2    1    2    0    0 -0.13094508931E+03 -0.27407869930E+02  0.30479800039E+04  0.31814427467E+04  0.90194126114E+03 0.  0.
         23    2    4    4    0    0 -0.42298874283E+03 -0.27025428028E+03  0.19577735520E+04  0.20233596690E+04  0.95656765273E+02 0.  0.
         23    2    4    4    0    0  0.29204365352E+03  0.24284641035E+03  0.10902064519E+04  0.11580830777E+04  0.91336917186E+02 0.  0.
          2    1    3    3  502    0  0.74486422837E+02 -0.19422680596E+02  0.95794065948E+01  0.77570824021E+02  0.00000000000E+00 0. -1.
         -1    1    3    3    0  502  0.56458666474E+02  0.46830550526E+02  0.55473051045E+02  0.91967064076E+02  0.00000000000E+00 0.  1.
         11    1    5    5    0    0 -0.33774994281E+03 -0.25752957190E+03  0.16400577960E+04  0.16941623530E+04  0.00000000000E+00 0. -1.
        -11    1    5    5    0    0 -0.85238800019E+02 -0.12724708376E+02  0.31771575601E+03  0.32919731598E+03  0.00000000000E+00 0.  1.
          2    1    6    6  503    0  0.15014058444E+03  0.17552132390E+03  0.58195411578E+03  0.62611542315E+03  0.00000000000E+00 0. -1.
         -2    1    6    6    0  503  0.14190306908E+03  0.67325086452E+02  0.50825233610E+03  0.53196765450E+03  0.00000000000E+00 0.  1.
<mgrwt>
<rscale>  0 0.12402016E+04</rscale>
<asrwt>0</asrwt>
<pdfrwt beam="1">  1        2 0.49723171E+00 0.12402016E+04</pdfrwt>
<pdfrwt beam="2">  1       -1 0.18303708E-01 0.12402016E+04</pdfrwt>
<totfact> 0.33429054E+01</totfact>
</mgrwt>
</event>
<event>
12    6  0.1530859E-007  0.1159134E+04  0.7818608E-02  0.9149398E-01
         -1   -1    0    0    0  501 -0.00000000000E+00  0.00000000000E+00  0.27279730347E+04  0.27279730347E+04  0.00000000000E+00 0.  1.
          2   -1    0    0  501    0  0.00000000000E+00 -0.00000000000E+00 -0.12313087346E+03  0.12313087346E+03  0.00000000000E+00 0. -1.
         24    2    1    2    0    0 -0.10492821279E+03 -0.78737208267E+02  0.94781544775E+03  0.95963713695E+03  0.73074166486E+02 0.  0.
        254    2    1    2    0    0  0.10492821279E+03  0.78737208267E+02  0.16570267135E+04  0.18914667712E+04  0.90260707927E+03 0.  0.
         23    2    4    4    0    0 -0.37551925110E+03  0.42630501672E+02  0.48174302199E+03  0.61810226524E+03  0.84510374688E+02 0.  0.
         23    2    4    4    0    0  0.48044746390E+03  0.36106706595E+02  0.11752836915E+04  0.12733645059E+04  0.89621145610E+02 0.  0.
          2    1    3    3  502    0  0.18518168153E+01 -0.18470407504E+02  0.47293463612E+02  0.50806071284E+02  0.00000000000E+00 0. -1.
         -1    1    3    3    0  502 -0.10678002961E+03 -0.60266800762E+02  0.90052198414E+03  0.90883106567E+03  0.00000000000E+00 0.  1.
         11    1    5    5    0    0 -0.20924622403E+03  0.45516855963E+02  0.21277106183E+03  0.30187297196E+03  0.00000000000E+00 0. -1.
        -11    1    5    5    0    0 -0.16627302708E+03 -0.28863542915E+01  0.26897196016E+03  0.31622929328E+03  0.00000000000E+00 0.  1.
          2    1    6    6  503    0  0.90044679568E+02  0.40923227910E+02  0.21073575244E+03  0.23279242311E+03  0.00000000000E+00 0.  1.
         -2    1    6    6    0  503  0.39040278433E+03 -0.48165213146E+01  0.96454793902E+03  0.10405720828E+04  0.00000000000E+00 0. -1.
<mgrwt>
<rscale>  0 0.11591336E+04</rscale>
<asrwt>0</asrwt>
<pdfrwt beam="1">  1        2 0.18943213E-01 0.11591336E+04</pdfrwt>
<pdfrwt beam="2">  1       -1 0.41968811E+00 0.11591336E+04</pdfrwt>
<totfact> 0.18403610E+00</totfact>
</mgrwt>
</event>
<event>
12    6  0.1530859E-007  0.1341197E+04  0.7818608E-02  0.8997519E-01
          2   -1    0    0  501    0  0.00000000000E+00  0.00000000000E+00  0.24995609602E+03  0.24995609602E+03  0.00000000000E+00 0. -1.
         -1   -1    0    0    0  501 -0.00000000000E+00 -0.00000000000E+00 -0.17991252892E+04  0.17991252892E+04  0.00000000000E+00 0.  1.
         24    2    1    2    0    0  0.26647058131E+03  0.21956700003E+03 -0.23942901071E+03  0.42769704041E+03  0.79889104397E+02 0.  0.
        254    2    1    2    0    0 -0.26647058131E+03 -0.21956700003E+03 -0.13097401824E+04  0.16213843448E+04  0.89120794981E+03 0.  0.
         23    2    4    4    0    0 -0.70695613191E+02 -0.54860014178E+03 -0.72615773415E+03  0.91734059065E+03  0.90822459215E+02 0.  0.
         23    2    4    4    0    0 -0.19577496812E+03  0.32903314175E+03 -0.58358244829E+03  0.70404375413E+03  0.92295651404E+02 0.  0.
          2    1    3    3  502    0  0.18558159649E+03  0.19645164693E+03 -0.18470772872E+03  0.32733885132E+03  0.00000000000E+00 0. -1.
         -1    1    3    3    0  502  0.80888984823E+02  0.23115353099E+02 -0.54721281991E+02  0.10035818909E+03  0.00000000000E+00 0.  1.
         11    1    5    5    0    0  0.59598515215E+01 -0.71514191244E+02 -0.55399047956E+02  0.90657894823E+02  0.00000000000E+00 0.  1.
        -11    1    5    5    0    0 -0.76655464712E+02 -0.47708595054E+03 -0.67075868620E+03  0.82668269583E+03  0.00000000000E+00 0. -1.
          2    1    6    6  503    0 -0.19370319620E+03  0.25829432597E+03 -0.46957778708E+03  0.56985979430E+03  0.00000000000E+00 0. -1.
         -2    1    6    6    0  503 -0.20717719174E+01  0.70738815788E+02 -0.11400466121E+03  0.13418395983E+03  0.00000000000E+00 0.  1.
<mgrwt>
<rscale>  0 0.13411970E+04</rscale>
<asrwt>0</asrwt>
<pdfrwt beam="1">  1        2 0.38454785E-01 0.13411970E+04</pdfrwt>
<pdfrwt beam="2">  1       -1 0.27678850E+00 0.13411970E+04</pdfrwt>
<totfact> 0.70600226E+00</totfact>
</mgrwt>
</event>
<event>
12    6  0.1530859E-007  0.5365527E+04  0.7818608E-02  0.7774469E-01
          2   -1    0    0  501    0  0.00000000000E+00  0.00000000000E+00  0.30438913080E+04  0.30438913080E+04  0.00000000000E+00 0. -1.
         -1   -1    0    0    0  501 -0.00000000000E+00 -0.00000000000E+00 -0.23644798820E+04  0.23644798820E+04  0.00000000000E+00 0.  1.
         24    2    1    2    0    0  0.11432959156E+04  0.22617031774E+04 -0.28091492807E+03  0.25510281419E+04  0.80028560875E+02 0.  0.
        254    2    1    2    0    0 -0.11432959156E+04 -0.22617031774E+04  0.96032635408E+03  0.28573430481E+04  0.90540365285E+03 0.  0.
         23    2    4    4    0    0 -0.68748419342E+03 -0.13663711581E+04  0.10301056151E+04  0.18463186553E+04  0.90389937278E+02 0.  0.
         23    2    4    4    0    0 -0.45581172216E+03 -0.89533201930E+03 -0.69779260986E+02  0.10110243928E+04  0.88979922729E+02 0.  0.
          4    1    3    3  502    0  0.41664220549E+03  0.74351162063E+03 -0.84197482471E+02  0.85643999992E+03  0.00000000000E+00 0. -1.
         -3    1    3    3    0  502  0.72665371009E+03  0.15181915568E+04 -0.19671744560E+03  0.16945881420E+04  0.00000000000E+00 0.  1.
         11    1    5    5    0    0 -0.37018997502E+03 -0.63544466678E+03  0.49754392444E+03  0.88790793379E+03  0.00000000000E+00 0. -1.
        -11    1    5    5    0    0 -0.31729421841E+03 -0.73092649133E+03  0.53256169062E+03  0.95841072150E+03  0.00000000000E+00 0.  1.
          3    1    6    6  503    0 -0.35546445974E+03 -0.75888112427E+03 -0.39304566711E+02  0.83892812081E+03  0.00000000000E+00 0. -1.
         -3    1    6    6    0  503 -0.10034726242E+03 -0.13645089503E+03 -0.30474694274E+02  0.17209627196E+03  0.00000000000E+00 0.  1.
<mgrwt>
<rscale>  0 0.53655269E+04</rscale>
<asrwt>0</asrwt>
<pdfrwt beam="1">  1        2 0.46829097E+00 0.53655269E+04</pdfrwt>
<pdfrwt beam="2">  1       -1 0.36376614E+00 0.53655269E+04</pdfrwt>
<totfact> 0.16523431E-02</totfact>
</mgrwt>
</event>
<event>
12    6  0.1530859E-007  0.1889203E+04  0.7818608E-02  0.8660249E-01
          2   -1    0    0  501    0  0.00000000000E+00  0.00000000000E+00  0.58522662840E+03  0.58522662840E+03  0.00000000000E+00 0. -1.
         -1   -1    0    0    0  501 -0.00000000000E+00 -0.00000000000E+00 -0.15246613696E+04  0.15246613696E+04  0.00000000000E+00 0.  1.
         24    2    1    2    0    0  0.27248117150E+03  0.52249406801E+03  0.11419047474E+03  0.60510180980E+03  0.76568242565E+02 0.  0.
        254    2    1    2    0    0 -0.27248117150E+03 -0.52249406801E+03 -0.10536252159E+04  0.15047861882E+04  0.89833698385E+03 0.  0.
         23    2    4    4    0    0 -0.58691097217E+03 -0.28997813706E+03 -0.54547826275E+03  0.85691991165E+03  0.90627758590E+02 0.  0.
         23    2    4    4    0    0  0.31442980066E+03 -0.23251593095E+03 -0.50814695315E+03  0.64786627651E+03  0.92669458543E+02 0.  0.
          4    1    3    3  502    0  0.86690292066E+02  0.15945258900E+03 -0.37508864681E+00  0.18149511169E+03  0.00000000000E+00 0. -1.
         -3    1    3    3    0  502  0.18579087944E+03  0.36304147901E+03  0.11456556339E+03  0.42360669811E+03  0.00000000000E+00 0.  1.
         11    1    5    5    0    0 -0.57631813036E+02 -0.33882175822E+01 -0.33581079398E+02  0.66787684387E+02  0.00000000000E+00 0. -1.
        -11    1    5    5    0    0 -0.52927915913E+03 -0.28658991947E+03 -0.51189718336E+03  0.79013222726E+03  0.00000000000E+00 0.  1.
          3    1    6    6  503    0  0.19646223436E+02 -0.49392842029E+02 -0.48752517161E+02  0.72127906309E+02  0.00000000000E+00 0. -1.
         -3    1    6    6    0  503  0.29478357723E+03 -0.18312308892E+03 -0.45939443599E+03  0.57573837020E+03  0.00000000000E+00 0.  1.
<mgrwt>
<rscale>  0 0.18892035E+04</rscale>
<asrwt>0</asrwt>
<pdfrwt beam="1">  1        2 0.90034866E-01 0.18892035E+04</pdfrwt>
<pdfrwt beam="2">  1       -1 0.23456329E+00 0.18892035E+04</pdfrwt>
<totfact> 0.48179538E+00</totfact>
</mgrwt>
</event>
<event>
12    6  0.1530859E-007  0.2046163E+04  0.7818608E-02  0.8585337E-01
          2   -1    0    0  501    0  0.00000000000E+00  0.00000000000E+00  0.31965148717E+04  0.31965148717E+04  0.00000000000E+00 0. -1.
         -1   -1    0    0    0  501 -0.00000000000E+00 -0.00000000000E+00 -0.32744904412E+03  0.32744904412E+03  0.00000000000E+00 0.  1.
         24    2    1    2    0    0 -0.54483005777E+03 -0.10783694749E+03  0.11455780659E+03  0.57261112830E+03  0.79318434894E+02 0.  0.
        254    2    1    2    0    0  0.54483005777E+03  0.10783694749E+03  0.27545080210E+04  0.29513527875E+04  0.90260746704E+03 0.  0.
         23    2    4    4    0    0 -0.20076430844E+03  0.14025693277E+03  0.11583215201E+04  0.11869464670E+04  0.84586386770E+02 0.  0.
         23    2    4    4    0    0  0.74559436621E+03 -0.32419985273E+02  0.15961865009E+04  0.17644063205E+04  0.91412821333E+02 0.  0.
          2    1    3    3  502    0 -0.19278497977E+03 -0.77046352844E+02  0.39304643529E+02  0.21129847116E+03  0.00000000000E+00 0. -1.
         -1    1    3    3    0  502 -0.35204507800E+03 -0.30790594649E+02  0.75253163061E+02  0.36131265715E+03  0.00000000000E+00 0.  1.
         11    1    5    5    0    0 -0.17734054672E+03  0.81194687263E+02  0.90487212839E+03  0.92565426348E+03  0.00000000000E+00 0. -1.
        -11    1    5    5    0    0 -0.23423761720E+02  0.59062245503E+02  0.25344939174E+03  0.26129220354E+03  0.00000000000E+00 0.  1.
          1    1    6    6  503    0  0.49544001816E+03 -0.43782893919E+02  0.11456351623E+04  0.12489426242E+04  0.00000000000E+00 0. -1.
         -1    1    6    6    0  503  0.25015434806E+03  0.11362908646E+02  0.45055133859E+03  0.51546369634E+03  0.00000000000E+00 0.  1.
<mgrwt>
<rscale>  0 0.20461630E+04</rscale>
<asrwt>0</asrwt>
<pdfrwt beam="1">  1        2 0.49177150E+00 0.20461630E+04</pdfrwt>
<pdfrwt beam="2">  1       -1 0.50376778E-01 0.20461630E+04</pdfrwt>
<totfact> 0.54506125E+00</totfact>
</mgrwt>
</event>
<event>
12    6  0.1530859E-007  0.1705721E+04  0.7818608E-02  0.8758108E-01
          2   -1    0    0  501    0  0.00000000000E+00  0.00000000000E+00  0.12431925185E+04  0.12431925185E+04  0.00000000000E+00 0. -1.
         -1   -1    0    0    0  501 -0.00000000000E+00 -0.00000000000E+00 -0.58508336734E+03  0.58508336734E+03  0.00000000000E+00 0.  1.
         24    2    1    2    0    0 -0.41835503129E+03  0.31488794515E+03  0.59762992958E+03  0.79853119188E+03  0.79468116076E+02 0.  0.
        254    2    1    2    0    0  0.41835503129E+03 -0.31488794515E+03  0.60479221576E+02  0.10297446939E+04  0.88461350220E+03 0.  0.
         23    2    4    4    0    0 -0.70621465461E+02 -0.13122377650E+03  0.37413065332E+03  0.41380144397E+03  0.95135789104E+02 0.  0.
         23    2    4    4    0    0  0.48897649675E+03 -0.18366416865E+03 -0.31365143175E+03  0.61594324998E+03  0.90434093916E+02 0.  0.
          4    1    3    3  502    0 -0.41796915402E+03  0.31531129164E+03  0.59987048165E+03  0.79621857495E+03  0.00000000000E+00 0. -1.
         -3    1    3    3    0  502 -0.38587727115E+00 -0.42334648883E+00 -0.22405520653E+01  0.23126169322E+01  0.00000000000E+00 0.  1.
         11    1    5    5    0    0  0.16986953188E+01  0.81709880942E+00 -0.52837698654E+01  0.56099411976E+01  0.00000000000E+00 0.  1.
        -11    1    5    5    0    0 -0.72320160779E+02 -0.13204087531E+03  0.37941442319E+03  0.40819150277E+03  0.00000000000E+00 0. -1.
          1    1    6    6  503    0  0.36180292590E+03 -0.96224507471E+02 -0.24202403677E+03  0.44579832593E+03  0.00000000000E+00 0. -1.
         -1    1    6    6    0  503  0.12717357085E+03 -0.87439661177E+02 -0.71627394978E+02  0.17014492405E+03  0.00000000000E+00 0.  1.
<mgrwt>
<rscale>  0 0.17057213E+04</rscale>
<asrwt>0</asrwt>
<pdfrwt beam="1">  1        2 0.19126039E+00 0.17057213E+04</pdfrwt>
<pdfrwt beam="2">  1       -1 0.90012826E-01 0.17057213E+04</pdfrwt>
<totfact> 0.23380171E+01</totfact>
</mgrwt>
</event>
<event>
12    6  0.1530859E-007  0.1314595E+04  0.7818608E-02  0.9018071E-01
          2   -1    0    0  501    0  0.00000000000E+00  0.00000000000E+00  0.23371308838E+04  0.23371308838E+04  0.00000000000E+00 0. -1.
         -3   -1    0    0    0  501 -0.00000000000E+00 -0.00000000000E+00 -0.18485911947E+03  0.18485911947E+03  0.00000000000E+00 0.  1.
         24    2    1    2    0    0 -0.30328120138E+03 -0.10002817577E+03  0.35549734444E+03  0.48427224493E+03  0.78460960032E+02 0.  0.
        254    2    1    2    0    0  0.30328120138E+03  0.10002817577E+03  0.17967744198E+04  0.20377177583E+04  0.90659264480E+03 0.  0.
         23    2    4    4    0    0  0.74153049891E+02  0.48240177020E+03  0.10716345987E+04  0.11810452102E+04  0.90867665633E+02 0.  0.
         23    2    4    4    0    0  0.22912815149E+03 -0.38237359443E+03  0.72513982113E+03  0.85667254810E+03  0.96699632706E+02 0.  0.
          4    1    3    3  502    0 -0.48146179199E+02 -0.80876913620E+00  0.94405717992E+02  0.10597711200E+03  0.00000000000E+00 0. -1.
         -3    1    3    3    0  502 -0.25513502218E+03 -0.99219406637E+02  0.26109162645E+03  0.37829513293E+03  0.00000000000E+00 0.  1.
         11    1    5    5    0    0  0.16091241885E+02  0.71439689386E+02  0.95551517989E+02  0.12038542219E+03  0.00000000000E+00 0. -1.
        -11    1    5    5    0    0  0.58061808007E+02  0.41096208081E+03  0.97608308072E+03  0.10606597880E+04  0.00000000000E+00 0.  1.
          2    1    6    6  503    0  0.21246437017E+03 -0.37832098929E+03  0.71607138425E+03  0.83727301812E+03  0.00000000000E+00 0.  1.
         -2    1    6    6    0  503  0.16663781317E+02 -0.40526051361E+01  0.90684368842E+01  0.19399529987E+02  0.00000000000E+00 0. -1.
<mgrwt>
<rscale>  0 0.13145949E+04</rscale>
<asrwt>0</asrwt>
<pdfrwt beam="1">  1        2 0.35955858E+00 0.13145949E+04</pdfrwt>
<pdfrwt beam="2">  1       -3 0.28439866E-01 0.13145949E+04</pdfrwt>
<totfact> 0.32998024E+01</totfact>
</mgrwt>
</event>
<event>
12    6  0.1530859E-007  0.2411564E+04  0.7818608E-02  0.8435187E-01
          2   -1    0    0  501    0  0.00000000000E+00  0.00000000000E+00  0.10189867453E+04  0.10189867453E+04  0.00000000000E+00 0. -1.
         -1   -1    0    0    0  501 -0.00000000000E+00 -0.00000000000E+00 -0.14268190165E+04  0.14268190165E+04  0.00000000000E+00 0.  1.
         24    2    1    2    0    0  0.17802123371E+03  0.26187886149E+03  0.82546708484E+03  0.88797612831E+03  0.82665582635E+02 0.  0.
        254    2    1    2    0    0 -0.17802123371E+03 -0.26187886149E+03 -0.12332993561E+04  0.15578296335E+04  0.89751533000E+03 0.  0.
         23    2    4    4    0    0 -0.24405028311E+03 -0.17755420423E+02 -0.12606055799E+04  0.12872913662E+04  0.90093494434E+02 0.  0.
         23    2    4    4    0    0  0.66029049396E+02 -0.24412344107E+03  0.27306223841E+02  0.27053826731E+03  0.92137041266E+02 0.  0.
          4    1    3    3  502    0  0.85855082348E+02  0.18570317487E+03  0.57789481226E+03  0.61304092715E+03  0.00000000000E+00 0. -1.
         -3    1    3    3    0  502  0.92166151361E+02  0.76175686618E+02  0.24757227258E+03  0.27493520116E+03  0.00000000000E+00 0.  1.
         11    1    5    5    0    0 -0.76821321754E+01 -0.20012531733E+02 -0.62039319314E+02  0.65638355571E+02  0.00000000000E+00 0.  1.
        -11    1    5    5    0    0 -0.23636815093E+03  0.22571113101E+01 -0.11985662606E+04  0.12216530106E+04  0.00000000000E+00 0. -1.
          1    1    6    6  503    0  0.41392054372E+02 -0.16852768215E+03  0.61330272715E+02  0.18405511177E+03  0.00000000000E+00 0. -1.
         -1    1    6    6    0  503  0.24636995025E+02 -0.75595758916E+02 -0.34024048874E+02  0.86483155537E+02  0.00000000000E+00 0.  1.
<mgrwt>
<rscale>  0 0.24115635E+04</rscale>
<asrwt>0</asrwt>
<pdfrwt beam="1">  1        2 0.15676719E+00 0.24115635E+04</pdfrwt>
<pdfrwt beam="2">  1       -1 0.21951062E+00 0.24115635E+04</pdfrwt>
<totfact> 0.27817498E+00</totfact>
</mgrwt>
</event>
<event>
12    6  0.1530859E-007  0.1875427E+04  0.7818608E-02  0.8667186E-01
          2   -1    0    0  501    0  0.00000000000E+00  0.00000000000E+00  0.66738393732E+03  0.66738393732E+03  0.00000000000E+00 0. -1.
         -1   -1    0    0    0  501 -0.00000000000E+00 -0.00000000000E+00 -0.13175417359E+04  0.13175417359E+04  0.00000000000E+00 0.  1.
         24    2    1    2    0    0 -0.33863910092E+03  0.53949182562E+03 -0.66851332901E+03  0.92522311895E+03  0.58308474621E+02 0.  0.
        254    2    1    2    0    0  0.33863910092E+03 -0.53949182562E+03  0.18355530403E+02  0.10597025543E+04  0.84670225432E+03 0.  0.
         23    2    4    4    0    0 -0.55855221125E+02 -0.35732169995E+03  0.34499715304E+03  0.50841169845E+03  0.93063508067E+02 0.  0.
         23    2    4    4    0    0  0.39449432204E+03 -0.18217012567E+03 -0.32664162264E+03  0.55129085583E+03  0.91734035479E+02 0.  0.
          4    1    3    3  502    0 -0.30131807191E+02  0.24053005708E+02 -0.33200051314E+02  0.50879429001E+02  0.00000000000E+00 0. -1.
         -3    1    3    3    0  502 -0.30850729373E+03  0.51543881991E+03 -0.63531327769E+03  0.87434368995E+03  0.00000000000E+00 0.  1.
         11    1    5    5    0    0 -0.40286693802E+02 -0.83680046874E+02  0.49003271340E+02  0.10500804038E+03  0.00000000000E+00 0.  1.
        -11    1    5    5    0    0 -0.15568527323E+02 -0.27364165308E+03  0.29599388170E+03  0.40340365807E+03  0.00000000000E+00 0. -1.
          4    1    6    6  503    0  0.22386819479E+03 -0.13309269605E+03 -0.14860319501E+03  0.29985587195E+03  0.00000000000E+00 0. -1.
         -4    1    6    6    0  503  0.17062612725E+03 -0.49077429620E+02 -0.17803842763E+03  0.25143498387E+03  0.00000000000E+00 0.  1.
<mgrwt>
<rscale>  0 0.18754266E+04</rscale>
<asrwt>0</asrwt>
<pdfrwt beam="1">  1        2 0.10267445E+00 0.18754266E+04</pdfrwt>
<pdfrwt beam="2">  1       -1 0.20269872E+00 0.18754266E+04</pdfrwt>
<totfact> 0.67217833E+00</totfact>
</mgrwt>
</event>
<event>
12    6  0.1530859E-007  0.3493864E+04  0.7818608E-02  0.8115246E-01
         -1   -1    0    0    0  501 -0.00000000000E+00  0.00000000000E+00  0.78470743356E+03  0.78470743356E+03  0.00000000000E+00 0.  1.
          2   -1    0    0  501    0  0.00000000000E+00 -0.00000000000E+00 -0.38890568361E+04  0.38890568361E+04  0.00000000000E+00 0. -1.
         24    2    1    2    0    0  0.61387991112E+02  0.35004509837E+03  0.67825134928E+03  0.76984512608E+03  0.79602569088E+02 0.  0.
        254    2    1    2    0    0 -0.61387991112E+02 -0.35004509837E+03 -0.37826007518E+04  0.39039191435E+04  0.89789541463E+03 0.  0.
         23    2    4    4    0    0 -0.38120865077E+03 -0.40907853075E+03 -0.29715187939E+04  0.30250573101E+04  0.91556032174E+02 0.  0.
         23    2    4    4    0    0  0.31982065966E+03  0.59033432373E+02 -0.81108195784E+03  0.87886183342E+03  0.93669522448E+02 0.  0.
          4    1    3    3  502    0  0.54882812154E+01  0.18793018017E+01  0.42108259846E+02  0.42505982558E+02  0.00000000000E+00 0. -1.
         -3    1    3    3    0  502  0.55899709897E+02  0.34816579657E+03  0.63614308943E+03  0.72733914353E+03  0.00000000000E+00 0.  1.
         11    1    5    5    0    0 -0.24740298634E+03 -0.29669885577E+03 -0.18390358547E+04  0.18791730425E+04  0.00000000000E+00 0. -1.
        -11    1    5    5    0    0 -0.13380566443E+03 -0.11237967498E+03 -0.11324829393E+04  0.11458842677E+04  0.00000000000E+00 0.  1.
          1    1    6    6  503    0  0.23678523959E+03  0.59351773445E+02 -0.69112631198E+03  0.73297030077E+03  0.00000000000E+00 0. -1.
         -1    1    6    6    0  503  0.83035420066E+02 -0.31834107166E+00 -0.11995564586E+03  0.14589153265E+03  0.00000000000E+00 0.  1.
<mgrwt>
<rscale>  0 0.34938642E+04</rscale>
<asrwt>0</asrwt>
<pdfrwt beam="1">  1        2 0.59831644E+00 0.34938642E+04</pdfrwt>
<pdfrwt beam="2">  1       -1 0.12072422E+00 0.34938642E+04</pdfrwt>
<totfact> 0.23806841E-01</totfact>
</mgrwt>
</event>
<event>
12    6  0.1530859E-007  0.1808292E+04  0.7818608E-02  0.8701902E-01
          2   -1    0    0  501    0  0.00000000000E+00  0.00000000000E+00  0.99070306992E+03  0.99070306992E+03  0.00000000000E+00 0. -1.
         -1   -1    0    0    0  501 -0.00000000000E+00 -0.00000000000E+00 -0.82515132488E+03  0.82515132488E+03  0.00000000000E+00 0.  1.
         24    2    1    2    0    0 -0.52929581792E+03  0.29231617115E+03  0.35987166905E+03  0.71037583275E+03  0.97587902879E+02 0.  0.
        254    2    1    2    0    0  0.52929581792E+03 -0.29231617115E+03 -0.19431992402E+03  0.11054785621E+04  0.90483137186E+03 0.  0.
         23    2    4    4    0    0  0.30583047079E+03  0.28960309177E+03 -0.19597757337E+03  0.47515598048E+03  0.99818680095E+02 0.  0.
         23    2    4    4    0    0  0.22346534713E+03 -0.58191926292E+03  0.16576493573E+01  0.63032258157E+03  0.93472023121E+02 0.  0.
          4    1    3    3  502    0 -0.32776294063E+03  0.13525721309E+03  0.17795616239E+03  0.39672591883E+03  0.00000000000E+00 0. -1.
         -3    1    3    3    0  502 -0.20153287729E+03  0.15705895806E+03  0.18191550666E+03  0.31364991392E+03  0.00000000000E+00 0.  1.
         11    1    5    5    0    0  0.23977113901E+03  0.27475129218E+03 -0.17333804734E+03  0.40376298779E+03  0.00000000000E+00 0. -1.
        -11    1    5    5    0    0  0.66059331782E+02  0.14851799599E+02 -0.22639526031E+02  0.71392992694E+02  0.00000000000E+00 0.  1.
          2    1    6    6  503    0  0.23607353701E+01 -0.55655697669E+01  0.11436173517E+02  0.12935791550E+02  0.00000000000E+00 0.  1.
         -2    1    6    6    0  503  0.22110461176E+03 -0.57635369315E+03 -0.97785241593E+01  0.61738679002E+03  0.00000000000E+00 0. -1.
<mgrwt>
<rscale>  0 0.18082920E+04</rscale>
<asrwt>0</asrwt>
<pdfrwt beam="1">  1        2 0.15241586E+00 0.18082920E+04</pdfrwt>
<pdfrwt beam="2">  1       -1 0.12694636E+00 0.18082920E+04</pdfrwt>
<totfact> 0.14802607E+01</totfact>
</mgrwt>
</event>
<event>
12    6  0.1530859E-007  0.1249363E+04  0.7818608E-02  0.9070713E-01
         -3   -1    0    0    0  501 -0.00000000000E+00  0.00000000000E+00  0.39955398806E+03  0.39955398806E+03  0.00000000000E+00 0.  1.
          4   -1    0    0  501    0  0.00000000000E+00 -0.00000000000E+00 -0.97665695751E+03  0.97665695751E+03  0.00000000000E+00 0. -1.
         24    2    1    2    0    0 -0.23494511555E+03  0.13263261527E+03 -0.26745546196E+01  0.28141104884E+03  0.79965037432E+02 0.  0.
        254    2    1    2    0    0  0.23494511555E+03 -0.13263261527E+03 -0.57442841483E+03  0.10947998967E+04  0.89209203122E+03 0.  0.
         23    2    4    4    0    0  0.44043465128E+03 -0.21900961760E+03 -0.31890478503E+02  0.50081414005E+03  0.88599693057E+02 0.  0.
         23    2    4    4    0    0 -0.20548953573E+03  0.86377002329E+02 -0.54253793633E+03  0.59398575668E+03  0.93726895594E+02 0.  0.
          4    1    3    3  502    0 -0.15683744675E+03  0.83516009848E+02 -0.39570090613E+02  0.18204038199E+03  0.00000000000E+00 0. -1.
         -1    1    3    3    0  502 -0.78107668803E+02  0.49116605423E+02  0.36895535993E+02  0.99370666851E+02  0.00000000000E+00 0.  1.
         11    1    5    5    0    0  0.24005661483E+03 -0.15690974382E+03  0.96911213135E+01  0.28695254636E+03  0.00000000000E+00 0. -1.
        -11    1    5    5    0    0  0.20037803645E+03 -0.62099873780E+02 -0.41581599816E+02  0.21386159369E+03  0.00000000000E+00 0.  1.
          2    1    6    6  503    0 -0.85629149628E+02  0.86826869751E+02 -0.27395308032E+03  0.29986921615E+03  0.00000000000E+00 0. -1.
         -2    1    6    6    0  503 -0.11986038610E+03 -0.44986742151E+00 -0.26858485601E+03  0.29411654054E+03  0.00000000000E+00 0.  1.
<mgrwt>
<rscale>  0 0.12493633E+04</rscale>
<asrwt>0</asrwt>
<pdfrwt beam="1">  1        4 0.15025492E+00 0.12493633E+04</pdfrwt>
<pdfrwt beam="2">  1       -3 0.61469844E-01 0.12493633E+04</pdfrwt>
<totfact> 0.17188824E+00</totfact>
</mgrwt>
</event>
<event>
12    6  0.1530859E-007  0.1348481E+04  0.7818608E-02  0.8991979E-01
          2   -1    0    0  501    0  0.00000000000E+00  0.00000000000E+00  0.41478054121E+03  0.41478054121E+03  0.00000000000E+00 0. -1.
         -1   -1    0    0    0  501 -0.00000000000E+00 -0.00000000000E+00 -0.10960016596E+04  0.10960016596E+04  0.00000000000E+00 0.  1.
         24    2    1    2    0    0 -0.12727171964E+03 -0.32662287124E+03 -0.32335020354E+03  0.48333968714E+03  0.78621297360E+02 0.  0.
        254    2    1    2    0    0  0.12727171964E+03  0.32662287124E+03 -0.35787091486E+03  0.10274425137E+04  0.89704288447E+03 0.  0.
         23    2    4    4    0    0  0.47287460589E+03  0.12111521590E+03 -0.24104662589E+02  0.49704746038E+03  0.90530959817E+02 0.  0.
         23    2    4    4    0    0 -0.34560288626E+03  0.20550765534E+03 -0.33376625227E+03  0.53039505330E+03  0.90797852506E+02 0.  0.
          2    1    3    3  502    0 -0.18854054475E+02 -0.11231577892E+03 -0.14399813246E+03  0.18359131710E+03  0.00000000000E+00 0. -1.
         -1    1    3    3    0  502 -0.10841766516E+03 -0.21430709232E+03 -0.17935207108E+03  0.29974837004E+03  0.00000000000E+00 0.  1.
         11    1    5    5    0    0  0.44252223278E+03  0.93405673154E+02 -0.37490936977E+02  0.45382388284E+03  0.00000000000E+00 0. -1.
        -11    1    5    5    0    0  0.30352373117E+02  0.27709542747E+02  0.13386274389E+02  0.43223577537E+02  0.00000000000E+00 0.  1.
          3    1    6    6  503    0 -0.21929150904E+03  0.96942602651E+02 -0.15212725608E+03  0.28395305279E+03  0.00000000000E+00 0. -1.
         -3    1    6    6    0  503 -0.12631137722E+03  0.10856505269E+03 -0.18163899619E+03  0.24644200051E+03  0.00000000000E+00 0.  1.
<mgrwt>
<rscale>  0 0.13484809E+04</rscale>
<asrwt>0</asrwt>
<pdfrwt beam="1">  1        2 0.63812391E-01 0.13484809E+04</pdfrwt>
<pdfrwt beam="2">  1       -1 0.16861564E+00 0.13484809E+04</pdfrwt>
<totfact> 0.21488117E+01</totfact>
</mgrwt>
</event>
<event>
12    6  0.1530859E-007  0.1569691E+04  0.7818608E-02  0.8839387E-01
          2   -1    0    0  501    0  0.00000000000E+00  0.00000000000E+00  0.11493151609E+04  0.11493151609E+04  0.00000000000E+00 0. -1.
         -1   -1    0    0    0  501 -0.00000000000E+00 -0.00000000000E+00 -0.53595642185E+03  0.53595642185E+03  0.00000000000E+00 0.  1.
         24    2    1    2    0    0 -0.14169163168E+03  0.26998918450E+03  0.66455728731E+03  0.73537114855E+03  0.78508978934E+02 0.  0.
        254    2    1    2    0    0  0.14169163168E+03 -0.26998918450E+03 -0.51198548244E+02  0.94990043421E+03  0.89817529767E+03 0.  0.
         23    2    4    4    0    0 -0.20532365510E+03 -0.42543060079E+03  0.15740472519E+03  0.50628977333E+03  0.91673811050E+02 0.  0.
         23    2    4    4    0    0  0.34701528678E+03  0.15544141629E+03 -0.20860327343E+03  0.44361066089E+03  0.93238670129E+02 0.  0.
          2    1    3    3  502    0 -0.12348554191E+03  0.26078027127E+03  0.57275906194E+03  0.64133296498E+03  0.00000000000E+00 0. -1.
         -1    1    3    3    0  502 -0.18206089770E+02  0.92089132327E+01  0.91798225372E+02  0.94038183570E+02  0.00000000000E+00 0.  1.
         11    1    5    5    0    0 -0.16489853771E+03 -0.31949800390E+03  0.78108266842E+02  0.36792853054E+03  0.00000000000E+00 0. -1.
        -11    1    5    5    0    0 -0.40425117384E+02 -0.10593259689E+03  0.79296458346E+02  0.13836124279E+03  0.00000000000E+00 0.  1.
          3    1    6    6  503    0  0.27587416738E+03  0.12341444348E+03 -0.11900967190E+03  0.32480914872E+03  0.00000000000E+00 0. -1.
         -3    1    6    6    0  503  0.71141119396E+02  0.32026972812E+02 -0.89593601533E+02  0.11880151216E+03  0.00000000000E+00 0.  1.
<mgrwt>
<rscale>  0 0.15696915E+04</rscale>
<asrwt>0</asrwt>
<pdfrwt beam="1">  1        2 0.17681772E+00 0.15696915E+04</pdfrwt>
<pdfrwt beam="2">  1       -1 0.82454834E-01 0.15696915E+04</pdfrwt>
<totfact> 0.32572942E+01</totfact>
</mgrwt>
</event>
<event>
12    6  0.1530859E-007  0.1552828E+04  0.7818608E-02  0.8850063E-01
         -1   -1    0    0    0  501 -0.00000000000E+00  0.00000000000E+00  0.30223460962E+03  0.30223460962E+03  0.00000000000E+00 0.  1.
          2   -1    0    0  501    0  0.00000000000E+00 -0.00000000000E+00 -0.19945389053E+04  0.19945389053E+04  0.00000000000E+00 0. -1.
         24    2    1    2    0    0  0.18003486928E+03  0.84506214927E+02 -0.12620159809E+04  0.12801359003E+04  0.80682915463E+02 0.  0.
        254    2    1    2    0    0 -0.18003486928E+03 -0.84506214927E+02 -0.43028831487E+03  0.10166376146E+04  0.89936096818E+03 0.  0.
         23    2    4    4    0    0 -0.23933362366E+03 -0.45900662367E+03 -0.30447030884E+03  0.60723996263E+03  0.89836180114E+02 0.  0.
         23    2    4    4    0    0  0.59298754379E+02  0.37450040874E+03 -0.12581800602E+03  0.40939765202E+03  0.89495074820E+02 0.  0.
          4    1    3    3  502    0  0.18543107964E+03  0.73884995014E+02 -0.12274533030E+04  0.12435776168E+04  0.00000000000E+00 0. -1.
         -3    1    3    3    0  502 -0.53962103649E+01  0.10621219914E+02 -0.34562677825E+02  0.36558283565E+02  0.00000000000E+00 0.  1.
         11    1    5    5    0    0 -0.20131654988E+03 -0.29676064382E+03 -0.21461877133E+03  0.41791919074E+03  0.00000000000E+00 0.  1.
        -11    1    5    5    0    0 -0.38017073774E+02 -0.16224597985E+03 -0.89851537510E+02  0.18932077189E+03  0.00000000000E+00 0. -1.
          1    1    6    6  503    0  0.19482560488E+02  0.85572084345E+02 -0.70425745667E+02  0.11252527465E+03  0.00000000000E+00 0. -1.
         -1    1    6    6    0  503  0.39816193891E+02  0.28892832440E+03 -0.55392260354E+02  0.29687237737E+03  0.00000000000E+00 0.  1.
<mgrwt>
<rscale>  0 0.15528280E+04</rscale>
<asrwt>0</asrwt>
<pdfrwt beam="1">  1        2 0.30685213E+00 0.15528280E+04</pdfrwt>
<pdfrwt beam="2">  1       -1 0.46497633E-01 0.15528280E+04</pdfrwt>
<totfact> 0.33978347E+01</totfact>
</mgrwt>
</event>
<event>
12    6  0.1530859E-007  0.3436288E+04  0.7818608E-02  0.8129057E-01
          2   -1    0    0  501    0  0.00000000000E+00  0.00000000000E+00  0.19268836356E+04  0.19268836356E+04  0.00000000000E+00 0. -1.
         -1   -1    0    0    0  501 -0.00000000000E+00 -0.00000000000E+00 -0.15320171646E+04  0.15320171646E+04  0.00000000000E+00 0.  1.
         24    2    1    2    0    0 -0.14449064824E+04  0.68872352570E+03  0.17046403280E+03  0.16116557965E+04  0.79256432519E+02 0.  0.
        254    2    1    2    0    0  0.14449064824E+04 -0.68872352570E+03  0.22440243820E+03  0.18472450036E+04  0.89435049694E+03 0.  0.
         23    2    4    4    0    0  0.46026479862E+03 -0.53374905953E+03  0.42354283189E+03  0.82619170297E+03  0.80451576835E+02 0.  0.
         23    2    4    4    0    0  0.98464168380E+03 -0.15497446617E+03 -0.19914039369E+03  0.10210533007E+04  0.96729601215E+02 0.  0.
          4    1    3    3  502    0 -0.77170839685E+03  0.38488232250E+03  0.12840456851E+03  0.87186924774E+03  0.00000000000E+00 0. -1.
         -3    1    3    3    0  502 -0.67319808556E+03  0.30384120320E+03  0.42059464291E+02  0.73978654875E+03  0.00000000000E+00 0.  1.
         11    1    5    5    0    0  0.40912196599E+03 -0.46726107439E+03  0.40123483383E+03  0.73939372906E+03  0.00000000000E+00 0.  1.
        -11    1    5    5    0    0  0.51142832630E+02 -0.66487985143E+02  0.22307998058E+02  0.86797973911E+02  0.00000000000E+00 0. -1.
          1    1    6    6  503    0  0.25637274860E+03 -0.56390949946E+02 -0.93148274544E+02  0.27853819578E+03  0.00000000000E+00 0. -1.
         -1    1    6    6    0  503  0.72826893520E+03 -0.98583516221E+02 -0.10599211914E+03  0.74251510487E+03  0.00000000000E+00 0.  1.
<mgrwt>
<rscale>  0 0.34362880E+04</rscale>
<asrwt>0</asrwt>
<pdfrwt beam="1">  1        2 0.29644363E+00 0.34362880E+04</pdfrwt>
<pdfrwt beam="2">  1       -1 0.23569495E+00 0.34362880E+04</pdfrwt>
<totfact> 0.59667179E-01</totfact>
</mgrwt>
</event>
<event>
12    6  0.1530859E-007  0.1530785E+04  0.7818608E-02  0.8864235E-01
          2   -1    0    0  501    0  0.00000000000E+00  0.00000000000E+00  0.87459251106E+03  0.87459251106E+03  0.00000000000E+00 0. -1.
         -1   -1    0    0    0  501 -0.00000000000E+00 -0.00000000000E+00 -0.66982730119E+03  0.66982730119E+03  0.00000000000E+00 0.  1.
         24    2    1    2    0    0 -0.10116024324E+03  0.36053232735E+03 -0.26379822990E+03  0.46483161926E+03  0.79132637309E+02 0.  0.
        254    2    1    2    0    0  0.10116024324E+03 -0.36053232735E+03  0.46856343977E+03  0.10795881930E+04  0.89763133607E+03 0.  0.
         23    2    4    4    0    0  0.16231540508E+03  0.23890450394E+03 -0.12004653541E+02  0.30335298880E+03  0.91963424105E+02 0.  0.
         23    2    4    4    0    0 -0.61155161836E+02 -0.59943683129E+03  0.48056809331E+03  0.77623520420E+03  0.92363041330E+02 0.  0.
          4    1    3    3  502    0  0.46866227220E+01  0.50173708438E+02 -0.13103495177E+02  0.52067907936E+02  0.00000000000E+00 0. -1.
         -3    1    3    3    0  502 -0.10584686597E+03  0.31035861891E+03 -0.25069473473E+03  0.41276371132E+03  0.00000000000E+00 0.  1.
         11    1    5    5    0    0  0.35641591333E+02  0.51921768530E+01  0.75505660212E+01  0.36800717119E+02  0.00000000000E+00 0. -1.
        -11    1    5    5    0    0  0.12667381375E+03  0.23371232709E+03 -0.19555219562E+02  0.26655227168E+03  0.00000000000E+00 0.  1.
          1    1    6    6  503    0 -0.34202534083E+02 -0.67451099584E+02  0.77217239253E+02  0.10808314490E+03  0.00000000000E+00 0. -1.
         -1    1    6    6    0  503 -0.26952627753E+02 -0.53198573171E+03  0.40335085406E+03  0.66815205930E+03  0.00000000000E+00 0.  1.
<mgrwt>
<rscale>  0 0.15307853E+04</rscale>
<asrwt>0</asrwt>
<pdfrwt beam="1">  1        2 0.13455269E+00 0.15307853E+04</pdfrwt>
<pdfrwt beam="2">  1       -1 0.10305035E+00 0.15307853E+04</pdfrwt>
<totfact> 0.29868351E+01</totfact>
</mgrwt>
</event>
<event>
12    6  0.1530859E-007  0.1773341E+04  0.7818608E-02  0.8720606E-01
         -1   -1    0    0    0  501 -0.00000000000E+00  0.00000000000E+00  0.42643198864E+03  0.42643198864E+03  0.00000000000E+00 0.  1.
          2   -1    0    0  501    0  0.00000000000E+00 -0.00000000000E+00 -0.18436338266E+04  0.18436338266E+04  0.00000000000E+00 0. -1.
         24    2    1    2    0    0  0.25410724087E+03  0.29769814831E+03  0.16895127040E+03  0.43388898540E+03  0.80749257034E+02 0.  0.
        254    2    1    2    0    0 -0.25410724087E+03 -0.29769814831E+03 -0.15861531084E+04  0.18361768299E+04  0.83813423148E+03 0.  0.
         23    2    4    4    0    0 -0.47293991639E+03 -0.34125179103E+03 -0.68934395548E+03  0.90751868382E+03  0.90940217348E+02 0.  0.
         23    2    4    4    0    0  0.21883267552E+03  0.43553642719E+02 -0.89680915289E+03  0.92865814605E+03  0.91403697098E+02 0.  0.
          4    1    3    3  502    0  0.14527046232E+02  0.69003977189E+01 -0.76109091371E+01  0.17792596742E+02  0.00000000000E+00 0. -1.
         -3    1    3    3    0  502  0.23958019464E+03  0.29079775059E+03  0.17656217953E+03  0.41609638865E+03  0.00000000000E+00 0.  1.
         11    1    5    5    0    0 -0.16592755437E+02 -0.39476521562E+02 -0.42530852913E+02  0.60353862653E+02  0.00000000000E+00 0. -1.
        -11    1    5    5    0    0 -0.45634716095E+03 -0.30177526946E+03 -0.64681310257E+03  0.84716482117E+03  0.00000000000E+00 0.  1.
          2    1    6    6  503    0  0.17221024784E+03  0.53740352787E+02 -0.80741887508E+03  0.82732680050E+03  0.00000000000E+00 0. -1.
         -2    1    6    6    0  503  0.46622427679E+02 -0.10186710067E+02 -0.89390277804E+02  0.10133134555E+03  0.00000000000E+00 0.  1.
<mgrwt>
<rscale>  0 0.17733408E+04</rscale>
<asrwt>0</asrwt>
<pdfrwt beam="1">  1        2 0.28363597E+00 0.17733408E+04</pdfrwt>
<pdfrwt beam="2">  1       -1 0.65604922E-01 0.17733408E+04</pdfrwt>
<totfact> 0.20709252E+01</totfact>
</mgrwt>
</event>
<event>
12    6  0.1530859E-007  0.1152113E+04  0.7818608E-02  0.9155836E-01
          2   -1    0    0  501    0  0.00000000000E+00  0.00000000000E+00  0.60114900691E+03  0.60114900691E+03  0.00000000000E+00 0. -1.
         -1   -1    0    0    0  501 -0.00000000000E+00 -0.00000000000E+00 -0.55201141301E+03  0.55201141301E+03  0.00000000000E+00 0.  1.
         24    2    1    2    0    0  0.17155590086E+03 -0.11910491244E+03  0.64543838916E+02  0.23245852039E+03  0.79080018144E+02 0.  0.
        254    2    1    2    0    0 -0.17155590086E+03  0.11910491244E+03 -0.15406245018E+02  0.92070189953E+03  0.89656970065E+03 0.  0.
         23    2    4    4    0    0 -0.40642855026E+03 -0.22186254284E+03 -0.11235696018E+03  0.48580196420E+03  0.94722265264E+02 0.  0.
         23    2    4    4    0    0  0.23487264940E+03  0.34096745529E+03  0.96950715159E+02  0.43489993533E+03  0.91184130109E+02 0.  0.
          2    1    3    3  502    0  0.11455851986E+03 -0.36509986838E+02  0.53156676730E+02  0.13146203213E+03  0.00000000000E+00 0. -1.
         -1    1    3    3    0  502  0.56997381001E+02 -0.82594925607E+02  0.11387162186E+02  0.10099648825E+03  0.00000000000E+00 0.  1.
         11    1    5    5    0    0 -0.26794035673E+03 -0.14902613853E+03 -0.11975392148E+03  0.32915319600E+03  0.00000000000E+00 0. -1.
        -11    1    5    5    0    0 -0.13848819353E+03 -0.72836404312E+02  0.73969613045E+01  0.15664876820E+03  0.00000000000E+00 0.  1.
          2    1    6    6  503    0  0.53950464036E+02  0.15665346349E+03  0.37610581062E+02  0.16989854620E+03  0.00000000000E+00 0. -1.
         -2    1    6    6    0  503  0.18092218536E+03  0.18431399180E+03  0.59340134097E+02  0.26500138913E+03  0.00000000000E+00 0.  1.
<mgrwt>
<rscale>  0 0.11521130E+04</rscale>
<asrwt>0</asrwt>
<pdfrwt beam="1">  1        2 0.92484463E-01 0.11521130E+04</pdfrwt>
<pdfrwt beam="2">  1       -1 0.84924833E-01 0.11521130E+04</pdfrwt>
<totfact> 0.76816046E+01</totfact>
</mgrwt>
</event>
<event>
12    6  0.1530859E-007  0.1398979E+04  0.7818608E-02  0.8954558E-01
         -1   -1    0    0    0  501 -0.00000000000E+00  0.00000000000E+00  0.25491786772E+03  0.25491786772E+03  0.00000000000E+00 0.  1.
          2   -1    0    0  501    0  0.00000000000E+00 -0.00000000000E+00 -0.19193838961E+04  0.19193838961E+04  0.00000000000E+00 0. -1.
         24    2    1    2    0    0  0.23332201967E+02 -0.42049796235E+02  0.11548308446E+03  0.15702150605E+03  0.94904338958E+02 0.  0.
        254    2    1    2    0    0 -0.23332201967E+02  0.42049796235E+02 -0.17799491128E+04  0.20172802578E+04  0.94809715594E+03 0.  0.
         23    2    4    4    0    0  0.44874517293E+03 -0.32922719030E+02 -0.77760701718E+03  0.90303349732E+03  0.91327369704E+02 0.  0.
         23    2    4    4    0    0 -0.47207737489E+03  0.74972515265E+02 -0.10023420957E+04  0.11142467605E+04  0.91532729285E+02 0.  0.
          2    1    3    3  502    0  0.24386759158E+02 -0.25778627675E+01 -0.92335323494E+01  0.26203387536E+02  0.00000000000E+00 0. -1.
         -1    1    3    3    0  502 -0.10545571917E+01 -0.39471933468E+02  0.12471661681E+03  0.13081811851E+03  0.00000000000E+00 0.  1.
         11    1    5    5    0    0  0.22767261870E+03 -0.58251307931E+02 -0.36168287407E+03  0.43132648606E+03  0.00000000000E+00 0. -1.
        -11    1    5    5    0    0  0.22107255423E+03  0.25328588901E+02 -0.41592414311E+03  0.47170701126E+03  0.00000000000E+00 0.  1.
          2    1    6    6  503    0 -0.35177063915E+02 -0.17695235722E+02 -0.66245676629E+02  0.77065146888E+02  0.00000000000E+00 0.  1.
         -2    1    6    6    0  503 -0.43690031098E+03  0.92667750988E+02 -0.93609641902E+03  0.10371816136E+04  0.00000000000E+00 0. -1.
<mgrwt>
<rscale>  0 0.13989786E+04</rscale>
<asrwt>0</asrwt>
<pdfrwt beam="1">  1        2 0.29528982E+00 0.13989786E+04</pdfrwt>
<pdfrwt beam="2">  1       -1 0.39218135E-01 0.13989786E+04</pdfrwt>
<totfact> 0.51888042E+01</totfact>
</mgrwt>
</event>
<event>
12    6  0.1530859E-007  0.1336622E+04  0.7818608E-02  0.9001017E-01
         -1   -1    0    0    0  501 -0.00000000000E+00  0.00000000000E+00  0.95413537562E+03  0.95413537562E+03  0.00000000000E+00 0.  1.
          2   -1    0    0  501    0  0.00000000000E+00 -0.00000000000E+00 -0.46810950181E+03  0.46810950181E+03  0.00000000000E+00 0. -1.
         24    2    1    2    0    0 -0.14846705711E+03  0.28650166023E+03  0.30852347503E+03  0.45358100904E+03  0.80145672118E+02 0.  0.
        254    2    1    2    0    0  0.14846705711E+03 -0.28650166023E+03  0.17750239878E+03  0.96866386839E+03  0.89592238503E+03 0.  0.
         23    2    4    4    0    0 -0.17419518723E+03 -0.22765961931E+03  0.44399121342E+03  0.53635363301E+03  0.91510417611E+02 0.  0.
         23    2    4    4    0    0  0.32266224433E+03 -0.58842040920E+02 -0.26648881465E+03  0.43231023538E+03  0.91118283458E+02 0.  0.
          2    1    3    3  502    0  0.85010601107E+00 -0.47398263794E+01  0.21597990142E+01  0.52776288348E+01  0.00000000000E+00 0. -1.
         -1    1    3    3    0  502 -0.14931716312E+03  0.29124148661E+03  0.30636367602E+03  0.44830338021E+03  0.00000000000E+00 0.  1.
         11    1    5    5    0    0 -0.11388144506E+03 -0.14200937698E+03  0.35480100904E+03  0.39877236952E+03  0.00000000000E+00 0. -1.
        -11    1    5    5    0    0 -0.60313742165E+02 -0.85650242331E+02  0.89190204383E+02  0.13758126349E+03  0.00000000000E+00 0.  1.
          1    1    6    6  503    0  0.42660306292E+01 -0.16383685377E+02 -0.26078988651E+02  0.31092407641E+02  0.00000000000E+00 0. -1.
         -1    1    6    6    0  503  0.31839621370E+03 -0.42458355544E+02 -0.24040982600E+03  0.40121782773E+03  0.00000000000E+00 0.  1.
<mgrwt>
<rscale>  0 0.13366224E+04</rscale>
<asrwt>0</asrwt>
<pdfrwt beam="1">  1        2 0.72016846E-01 0.13366224E+04</pdfrwt>
<pdfrwt beam="2">  1       -1 0.14679006E+00 0.13366224E+04</pdfrwt>
<totfact> 0.27486706E+01</totfact>
</mgrwt>
</event>
<event>
12    6  0.1530859E-007  0.1662095E+04  0.7818608E-02  0.8783283E-01
         -1   -1    0    0    0  501 -0.00000000000E+00  0.00000000000E+00  0.90723783827E+03  0.90723783827E+03  0.00000000000E+00 0.  1.
          2   -1    0    0  501    0  0.00000000000E+00 -0.00000000000E+00 -0.76125542470E+03  0.76125542470E+03  0.00000000000E+00 0. -1.
         24    2    1    2    0    0  0.53021098470E+03 -0.23983974292E+03 -0.19743155334E+02  0.58751627769E+03  0.78350454951E+02 0.  0.
        254    2    1    2    0    0 -0.53021098470E+03  0.23983974292E+03  0.16572556890E+03  0.10809769853E+04  0.89576754123E+03 0.  0.
         23    2    4    4    0    0 -0.50260762364E+03 -0.12929503752E+03 -0.19004001660E+03  0.55986355611E+03  0.89444751056E+02 0.  0.
         23    2    4    4    0    0 -0.27603361062E+02  0.36913478043E+03  0.35576558550E+03  0.52111342916E+03  0.89261540201E+02 0.  0.
          4    1    3    3  502    0  0.26043794544E+03 -0.11003546895E+03 -0.48129603853E+02  0.28679642017E+03  0.00000000000E+00 0. -1.
         -3    1    3    3    0  502  0.26977303926E+03 -0.12980427397E+03  0.28386448519E+02  0.30071985752E+03  0.00000000000E+00 0.  1.
         11    1    5    5    0    0 -0.28995856537E+02 -0.31683282101E+02 -0.12423750964E+02  0.44709502894E+02  0.00000000000E+00 0. -1.
        -11    1    5    5    0    0 -0.47361176710E+03 -0.97611755415E+02 -0.17761626563E+03  0.51515405322E+03  0.00000000000E+00 0.  1.
          4    1    6    6  503    0 -0.74731165646E+01  0.22113737721E+03  0.26926649711E+03  0.34851403635E+03  0.00000000000E+00 0.  1.
         -4    1    6    6    0  503 -0.20130244498E+02  0.14799740323E+03  0.86499088388E+02  0.17259939281E+03  0.00000000000E+00 0. -1.
<mgrwt>
<rscale>  0 0.16620947E+04</rscale>
<asrwt>0</asrwt>
<pdfrwt beam="1">  1        2 0.11711622E+00 0.16620947E+04</pdfrwt>
<pdfrwt beam="2">  1       -1 0.13957505E+00 0.16620947E+04</pdfrwt>
<totfact> 0.16935041E+01</totfact>
</mgrwt>
</event>
<event>
12    6  0.1530859E-007  0.2426440E+04  0.7818608E-02  0.8429671E-01
          2   -1    0    0  501    0  0.00000000000E+00  0.00000000000E+00  0.17053032885E+04  0.17053032885E+04  0.00000000000E+00 0. -1.
         -1   -1    0    0    0  501 -0.00000000000E+00 -0.00000000000E+00 -0.86313270434E+03  0.86313270434E+03  0.00000000000E+00 0.  1.
         24    2    1    2    0    0 -0.10339104189E+04  0.12403317823E+03  0.26472548637E+03  0.10774911302E+04  0.80947939518E+02 0.  0.
        254    2    1    2    0    0  0.10339104189E+04 -0.12403317823E+03  0.57744509784E+03  0.14909448627E+04  0.89728410164E+03 0.  0.
         23    2    4    4    0    0  0.73612720145E+03  0.33461002796E+03  0.27137979419E+03  0.85774323974E+03  0.90715737930E+02 0.  0.
         23    2    4    4    0    0  0.29778321744E+03 -0.45864320619E+03  0.30606530365E+03  0.63320162297E+03  0.90773840146E+02 0.  0.
          2    1    3    3  502    0 -0.64600053145E+03  0.95972751197E+02  0.13007399233E+03  0.66591793720E+03  0.00000000000E+00 0. -1.
         -1    1    3    3    0  502 -0.38790988743E+03  0.28060427032E+02  0.13465149404E+03  0.41157319298E+03  0.00000000000E+00 0.  1.
         11    1    5    5    0    0  0.60452276368E+03  0.24406391542E+03  0.19360793046E+03  0.68007278828E+03  0.00000000000E+00 0.  1.
        -11    1    5    5    0    0  0.13160443777E+03  0.90546112546E+02  0.77771863723E+02  0.17767045147E+03  0.00000000000E+00 0. -1.
          2    1    6    6  503    0  0.52650726339E+02 -0.69781610189E+02  0.13850602003E+02  0.88506560664E+02  0.00000000000E+00 0. -1.
         -2    1    6    6    0  503  0.24513249110E+03 -0.38886159600E+03  0.29221470165E+03  0.54469506230E+03  0.00000000000E+00 0.  1.
<mgrwt>
<rscale>  0 0.24264402E+04</rscale>
<asrwt>0</asrwt>
<pdfrwt beam="1">  1        2 0.26235435E+00 0.24264402E+04</pdfrwt>
<pdfrwt beam="2">  1       -1 0.13278965E+00 0.24264402E+04</pdfrwt>
<totfact> 0.47816794E+00</totfact>
</mgrwt>
</event>
<event>
12    6  0.1530859E-007  0.1783564E+04  0.7818608E-02  0.8715089E-01
         -1   -1    0    0    0  501 -0.00000000000E+00  0.00000000000E+00  0.65221997824E+03  0.65221997824E+03  0.00000000000E+00 0.  1.
          2   -1    0    0  501    0  0.00000000000E+00 -0.00000000000E+00 -0.12193354071E+04  0.12193354071E+04  0.00000000000E+00 0. -1.
         24    2    1    2    0    0  0.43064165583E+03  0.44052409458E+03 -0.46720837815E+03  0.77726678637E+03  0.79663510723E+02 0.  0.
        254    2    1    2    0    0 -0.43064165583E+03 -0.44052409458E+03 -0.99907050737E+02  0.10942885990E+04  0.89887285278E+03 0.  0.
         23    2    4    4    0    0  0.25720961160E+03 -0.15683318249E+02 -0.56719192127E+02  0.27932726364E+03  0.91672802337E+02 0.  0.
         23    2    4    4    0    0 -0.68785126743E+03 -0.42484077633E+03 -0.43187858611E+02  0.81496133536E+03  0.93100674862E+02 0.  0.
          4    1    3    3  502    0  0.35702606750E+03  0.33031067588E+03 -0.39336180417E+03  0.62554477414E+03  0.00000000000E+00 0. -1.
         -1    1    3    3    0  502  0.73615588330E+02  0.11021341870E+03 -0.73846573981E+02  0.15172201223E+03  0.00000000000E+00 0.  1.
         11    1    5    5    0    0  0.18131048776E+03  0.30800745836E+02 -0.29525474913E+02  0.18626307360E+03  0.00000000000E+00 0.  1.
        -11    1    5    5    0    0  0.75899123834E+02 -0.46484064085E+02 -0.27193717213E+02  0.93064190044E+02  0.00000000000E+00 0. -1.
          1    1    6    6  503    0 -0.59317512723E+03 -0.35191950700E+03 -0.57712047430E+01  0.68973718021E+03  0.00000000000E+00 0. -1.
         -1    1    6    6    0  503 -0.94676140206E+02 -0.72921269337E+02 -0.37416653868E+02  0.12522415515E+03  0.00000000000E+00 0.  1.
<mgrwt>
<rscale>  0 0.17835638E+04</rscale>
<asrwt>0</asrwt>
<pdfrwt beam="1">  1        2 0.18759006E+00 0.17835638E+04</pdfrwt>
<pdfrwt beam="2">  1       -1 0.10034154E+00 0.17835638E+04</pdfrwt>
<totfact> 0.18802105E+01</totfact>
</mgrwt>
</event>
<event>
12    6  0.1530859E-007  0.1432414E+04  0.7818608E-02  0.8930684E-01
         -1   -1    0    0    0  501 -0.00000000000E+00  0.00000000000E+00  0.29756221021E+03  0.29756221021E+03  0.00000000000E+00 0.  1.
          2   -1    0    0  501    0  0.00000000000E+00 -0.00000000000E+00 -0.17238495752E+04  0.17238495752E+04  0.00000000000E+00 0. -1.
         24    2    1    2    0    0 -0.44853401400E+02  0.20664777926E+02  0.16088557792E+03  0.18597868716E+03  0.79152019738E+02 0.  0.
        254    2    1    2    0    0  0.44853401400E+02 -0.20664777926E+02 -0.15871729429E+04  0.18354330983E+04  0.92046610301E+03 0.  0.
         23    2    4    4    0    0  0.36499578034E+03 -0.29928987842E+03 -0.72109253972E+03  0.86655496025E+03  0.90259056564E+02 0.  0.
         23    2    4    4    0    0 -0.32014237894E+03  0.27862510049E+03 -0.86608040319E+03  0.96887813801E+03  0.92230646235E+02 0.  0.
          2    1    3    3  502    0  0.66779955349E+01  0.61018316464E+01 -0.59049749765E+01  0.10802624833E+02  0.00000000000E+00 0. -1.
         -1    1    3    3    0  502 -0.51531396935E+02  0.14562946280E+02  0.16679055290E+03  0.17517606232E+03  0.00000000000E+00 0.  1.
         11    1    5    5    0    0  0.56015024471E+02 -0.94464587888E+02 -0.16036462548E+03  0.19436577486E+03  0.00000000000E+00 0.  1.
        -11    1    5    5    0    0  0.30898075587E+03 -0.20482529053E+03 -0.56072791424E+03  0.67218918539E+03  0.00000000000E+00 0. -1.
          3    1    6    6  503    0 -0.30815048222E+03  0.23105439291E+03 -0.76138216798E+03  0.85325591582E+03  0.00000000000E+00 0. -1.
         -3    1    6    6    0  503 -0.11991896729E+02  0.47570707583E+02 -0.10469823522E+03  0.11562222219E+03  0.00000000000E+00 0.  1.
<mgrwt>
<rscale>  0 0.14324140E+04</rscale>
<asrwt>0</asrwt>
<pdfrwt beam="1">  1        2 0.26520763E+00 0.14324140E+04</pdfrwt>
<pdfrwt beam="2">  1       -1 0.45778801E-01 0.14324140E+04</pdfrwt>
<totfact> 0.49900914E+01</totfact>
</mgrwt>
</event>
<event>
12    6  0.1530859E-007  0.1419953E+04  0.7818608E-02  0.8939501E-01
          2   -1    0    0  501    0  0.00000000000E+00  0.00000000000E+00  0.69098101337E+03  0.69098101337E+03  0.00000000000E+00 0. -1.
         -1   -1    0    0    0  501 -0.00000000000E+00 -0.00000000000E+00 -0.72949445324E+03  0.72949445324E+03  0.00000000000E+00 0.  1.
         24    2    1    2    0    0  0.10092906822E+03  0.27723601004E+03  0.27654861102E+03  0.41285990114E+03  0.83232695711E+02 0.  0.
        254    2    1    2    0    0 -0.10092906822E+03 -0.27723601004E+03 -0.31506205089E+03  0.10076155655E+04  0.91048259171E+03 0.  0.
         23    2    4    4    0    0 -0.44790528781E+03  0.43546605389E+02 -0.24942358606E+03  0.52236457025E+03  0.90206237488E+02 0.  0.
         23    2    4    4    0    0  0.34697621959E+03 -0.32078261543E+03 -0.65638464826E+02  0.48525099523E+03  0.88691245233E+02 0.  0.
          2    1    3    3  502    0  0.63102195978E+02  0.24935961671E+03  0.25091696374E+03  0.35933470230E+03  0.00000000000E+00 0. -1.
         -1    1    3    3    0  502  0.37826872237E+02  0.27876393331E+02  0.25631647278E+02  0.53525198838E+02  0.00000000000E+00 0.  1.
         11    1    5    5    0    0 -0.17849976458E+03 -0.21499149061E+02 -0.12236949174E+03  0.21748257832E+03  0.00000000000E+00 0. -1.
        -11    1    5    5    0    0 -0.26940552323E+03  0.65045754450E+02 -0.12705409432E+03  0.30488199193E+03  0.00000000000E+00 0.  1.
          2    1    6    6  503    0  0.31006611589E+02 -0.70700234991E+00 -0.51843676175E+01  0.31444991369E+02  0.00000000000E+00 0. -1.
         -2    1    6    6    0  503  0.31596960800E+03 -0.32007561308E+03 -0.60454097209E+02  0.45380600386E+03  0.00000000000E+00 0.  1.
<mgrwt>
<rscale>  0 0.14199533E+04</rscale>
<asrwt>0</asrwt>
<pdfrwt beam="1">  1        2 0.10630477E+00 0.14199533E+04</pdfrwt>
<pdfrwt beam="2">  1       -1 0.11222992E+00 0.14199533E+04</pdfrwt>
<totfact> 0.33659403E+01</totfact>
</mgrwt>
</event>
<event>
12    6  0.1910675E-007  0.2376338E+04  0.7818608E-02  0.8448416E-01
         -1   -1    0    0    0  501 -0.00000000000E+00  0.00000000000E+00  0.59774945070E+03  0.59774945070E+03  0.00000000000E+00 0.  1.
          2   -1    0    0  501    0  0.00000000000E+00 -0.00000000000E+00 -0.23617677234E+04  0.23617677234E+04  0.00000000000E+00 0. -1.
         24    2    1    2    0    0 -0.84387350051E+03 -0.19038995250E+03 -0.14079633218E+04  0.16543937345E+04  0.79291200163E+02 0.  0.
        254    2    1    2    0    0  0.84387350051E+03  0.19038995250E+03 -0.35605495087E+03  0.13051234395E+04  0.91005562770E+03 0.  0.
         23    2    4    4    0    0  0.44199410369E+03  0.65932858900E+02 -0.64224562068E+03  0.78778308643E+03  0.91743252611E+02 0.  0.
         23    2    4    4    0    0  0.40187939682E+03  0.12445709360E+03  0.28619066982E+03  0.51734035311E+03  0.93484350179E+02 0.  0.
          2    1    3    3  502    0 -0.63520311870E+03 -0.17059499816E+03 -0.10264488821E+04  0.12190910397E+04  0.00000000000E+00 0. -1.
         -1    1    3    3    0  502 -0.20867038181E+03 -0.19794954341E+02 -0.38151443965E+03  0.43530269483E+03  0.00000000000E+00 0.  1.
         11    1    5    5    0    0  0.14680812613E+02 -0.13546671275E+02 -0.16569549549E+02  0.25953584221E+02  0.00000000000E+00 0. -1.
        -11    1    5    5    0    0  0.42731329107E+03  0.79479530175E+02 -0.62567607113E+03  0.76182950221E+03  0.00000000000E+00 0.  1.
          4    1    6    6  503    0  0.40084110540E+03  0.10902556942E+03  0.27794086502E+03  0.49981125539E+03  0.00000000000E+00 0.  1.
         -4    1    6    6    0  503  0.10382914164E+01  0.15431524180E+02  0.82498047996E+01  0.17529097718E+02  0.00000000000E+00 0. -1.
<mgrwt>
<rscale>  0 0.23763378E+04</rscale>
<asrwt>0</asrwt>
<pdfrwt beam="1">  1        2 0.36334887E+00 0.23763378E+04</pdfrwt>
<pdfrwt beam="2">  1       -1 0.91961456E-01 0.23763378E+04</pdfrwt>
<totfact> 0.49342926E+00</totfact>
</mgrwt>
</event>
<event>
12    6  0.1530859E-007  0.2811628E+04  0.7818608E-02  0.8299667E-01
         -1   -1    0    0    0  501 -0.00000000000E+00  0.00000000000E+00  0.16941991012E+04  0.16941991012E+04  0.00000000000E+00 0.  1.
          2   -1    0    0  501    0  0.00000000000E+00 -0.00000000000E+00 -0.11665174797E+04  0.11665174797E+04  0.00000000000E+00 0. -1.
         24    2    1    2    0    0  0.69610773765E+03 -0.26582448346E+03 -0.79688494823E+03  0.10938500265E+04  0.79079841598E+02 0.  0.
        254    2    1    2    0    0 -0.69610773765E+03  0.26582448346E+03  0.13245665697E+04  0.17668665545E+04  0.90117267229E+03 0.  0.
         23    2    4    4    0    0 -0.44543057742E+03  0.47886543524E+03  0.12558918626E+04  0.14188939876E+04  0.90968528447E+02 0.  0.
         23    2    4    4    0    0 -0.25067716023E+03 -0.21304095178E+03  0.68674707173E+02  0.34797256691E+03  0.90239714764E+02 0.  0.
          4    1    3    3  502    0  0.57217858006E+03 -0.22668571242E+03 -0.61273140343E+03  0.86845524493E+03  0.00000000000E+00 0. -1.
         -3    1    3    3    0  502  0.12392915759E+03 -0.39138771042E+02 -0.18415354480E+03  0.22539478158E+03  0.00000000000E+00 0.  1.
         11    1    5    5    0    0 -0.51765254146E+02  0.20993450412E+02  0.12420011808E+03  0.13618383101E+03  0.00000000000E+00 0. -1.
        -11    1    5    5    0    0 -0.39366532328E+03  0.45787198483E+03  0.11316917445E+04  0.12827101566E+04  0.00000000000E+00 0.  1.
          4    1    6    6  503    0 -0.15605111069E+03 -0.10335122640E+03  0.78073924770E+02  0.20280276842E+03  0.00000000000E+00 0. -1.
         -4    1    6    6    0  503 -0.94626049540E+02 -0.10968972538E+03 -0.93992175961E+01  0.14516979850E+03  0.00000000000E+00 0.  1.
<mgrwt>
<rscale>  0 0.28116279E+04</rscale>
<asrwt>0</asrwt>
<pdfrwt beam="1">  1        2 0.17946423E+00 0.28116279E+04</pdfrwt>
<pdfrwt beam="2">  1       -1 0.26064602E+00 0.28116279E+04</pdfrwt>
<totfact> 0.11677961E+00</totfact>
</mgrwt>
</event>
<event>
12    6  0.1530859E-007  0.2654394E+04  0.7818608E-02  0.8349956E-01
         -1   -1    0    0    0  501 -0.00000000000E+00  0.00000000000E+00  0.96603818801E+03  0.96603818801E+03  0.00000000000E+00 0.  1.
          2   -1    0    0  501    0  0.00000000000E+00 -0.00000000000E+00 -0.18233773191E+04  0.18233773191E+04  0.00000000000E+00 0. -1.
         24    2    1    2    0    0  0.11997403165E+03  0.22669729701E+03 -0.15810538492E+04  0.16039232557E+04  0.83982756867E+02 0.  0.
        254    2    1    2    0    0 -0.11997403165E+03 -0.22669729701E+03  0.72371471811E+03  0.11854922514E+04  0.90324052839E+03 0.  0.
         23    2    4    4    0    0 -0.12019685244E+02 -0.20696040561E+03 -0.16875887904E+03  0.28205429991E+03  0.89988813292E+02 0.  0.
         23    2    4    4    0    0 -0.10795434641E+03 -0.19736891395E+02  0.89247359715E+03  0.90343795147E+03  0.87448983762E+02 0.  0.
          2    1    3    3  502    0  0.10885268785E+03  0.15161105689E+03 -0.93665977265E+03  0.95507400233E+03  0.00000000000E+00 0. -1.
         -1    1    3    3    0  502  0.11121343803E+02  0.75086240118E+02 -0.64439407657E+03  0.64884925342E+03  0.00000000000E+00 0.  1.
         11    1    5    5    0    0 -0.70799344295E+01 -0.93924986572E+02 -0.13380814184E+03  0.16363571553E+03  0.00000000000E+00 0. -1.
        -11    1    5    5    0    0 -0.49397508145E+01 -0.11303541904E+03 -0.34950737199E+02  0.11841858438E+03  0.00000000000E+00 0.  1.
          4    1    6    6  503    0 -0.60929786874E+02 -0.18349037144E+02  0.21209701046E+03  0.22143682607E+03  0.00000000000E+00 0. -1.
         -4    1    6    6    0  503 -0.47024559537E+02 -0.13878542507E+01  0.68037658669E+03  0.68200112540E+03  0.00000000000E+00 0.  1.
<mgrwt>
<rscale>  0 0.26543942E+04</rscale>
<asrwt>0</asrwt>
<pdfrwt beam="1">  1        2 0.28051959E+00 0.26543942E+04</pdfrwt>
<pdfrwt beam="2">  1       -1 0.14862126E+00 0.26543942E+04</pdfrwt>
<totfact> 0.30022497E+00</totfact>
</mgrwt>
</event>
<event>
12    6  0.1530859E-007  0.1422098E+04  0.7818608E-02  0.8937977E-01
         -1   -1    0    0    0  501 -0.00000000000E+00  0.00000000000E+00  0.39338712083E+03  0.39338712083E+03  0.00000000000E+00 0.  1.
          2   -1    0    0  501    0  0.00000000000E+00 -0.00000000000E+00 -0.12852235450E+04  0.12852235450E+04  0.00000000000E+00 0. -1.
         24    2    1    2    0    0 -0.23243985164E+03  0.34400480712E+03 -0.14063299611E+03  0.44588336152E+03  0.81650110439E+02 0.  0.
        254    2    1    2    0    0  0.23243985164E+03 -0.34400480712E+03 -0.75120342810E+03  0.12327273043E+04  0.88484033844E+03 0.  0.
         23    2    4    4    0    0 -0.33058918299E+03 -0.13381467866E+03 -0.31519681665E+03  0.48488089777E+03  0.92546613486E+02 0.  0.
         23    2    4    4    0    0  0.56302903462E+03 -0.21019012846E+03 -0.43600661145E+03  0.74784640657E+03  0.89391826569E+02 0.  0.
          2    1    3    3  502    0 -0.39963210610E+02  0.18962769895E+02 -0.25078940884E+02  0.50848776978E+02  0.00000000000E+00 0. -1.
         -1    1    3    3    0  502 -0.19247664103E+03  0.32504203722E+03 -0.11555405522E+03  0.39503458454E+03  0.00000000000E+00 0.  1.
         11    1    5    5    0    0 -0.17632521234E+03 -0.71055218886E+02 -0.10658467789E+03  0.21794430067E+03  0.00000000000E+00 0.  1.
        -11    1    5    5    0    0 -0.15426397065E+03 -0.62759459770E+02 -0.20861213876E+03  0.26693659710E+03  0.00000000000E+00 0. -1.
          4    1    6    6  503    0  0.51012901484E+03 -0.21579589505E+03 -0.40613443840E+03  0.68683670705E+03  0.00000000000E+00 0.  1.
         -4    1    6    6    0  503  0.52900019781E+02  0.56057665900E+01 -0.29872173055E+02  0.61009699515E+02  0.00000000000E+00 0. -1.
<mgrwt>
<rscale>  0 0.14220976E+04</rscale>
<asrwt>0</asrwt>
<pdfrwt beam="1">  1        2 0.19772670E+00 0.14220976E+04</pdfrwt>
<pdfrwt beam="2">  1       -1 0.60521096E-01 0.14220976E+04</pdfrwt>
<totfact> 0.51718953E+01</totfact>
</mgrwt>
</event>
<event>
12    6  0.1530859E-007  0.1621045E+04  0.7818608E-02  0.8807722E-01
          2   -1    0    0  501    0  0.00000000000E+00  0.00000000000E+00  0.70878193906E+03  0.70878193906E+03  0.00000000000E+00 0. -1.
         -1   -1    0    0    0  501 -0.00000000000E+00 -0.00000000000E+00 -0.92686754914E+03  0.92686754914E+03  0.00000000000E+00 0.  1.
         24    2    1    2    0    0  0.30711052990E+03  0.10203108614E+03 -0.53797325112E+03  0.63362515809E+03  0.85664472988E+02 0.  0.
        254    2    1    2    0    0 -0.30711052990E+03 -0.10203108614E+03  0.31988764104E+03  0.10020243301E+04  0.89274712832E+03 0.  0.
         23    2    4    4    0    0  0.30695023084E+03 -0.59698105493E+02  0.76329354994E+02  0.33386395200E+03  0.88637802330E+02 0.  0.
         23    2    4    4    0    0 -0.61406076074E+03 -0.42332980647E+02  0.24355828605E+03  0.66816037811E+03  0.90856772134E+02 0.  0.
          4    1    3    3  502    0  0.10454363357E+03  0.11545580066E+02 -0.11397356215E+03  0.15508915052E+03  0.00000000000E+00 0. -1.
         -3    1    3    3    0  502  0.20256689633E+03  0.90485506075E+02 -0.42399968897E+03  0.47853600757E+03  0.00000000000E+00 0.  1.
         11    1    5    5    0    0  0.16813521312E+03 -0.65063223643E+02  0.74122611921E+02  0.19492776754E+03  0.00000000000E+00 0. -1.
        -11    1    5    5    0    0  0.13881501772E+03  0.53651181496E+01  0.22067430729E+01  0.13893618446E+03  0.00000000000E+00 0.  1.
          1    1    6    6  503    0 -0.10694245068E+02  0.55999522824E+01 -0.59792489801E+01  0.13471368212E+02  0.00000000000E+00 0. -1.
         -1    1    6    6    0  503 -0.60336651567E+03 -0.47932932930E+02  0.24953753503E+03  0.65468900990E+03  0.00000000000E+00 0.  1.
<mgrwt>
<rscale>  0 0.16210453E+04</rscale>
<asrwt>0</asrwt>
<pdfrwt beam="1">  1        2 0.10904338E+00 0.16210453E+04</pdfrwt>
<pdfrwt beam="2">  1       -1 0.14259501E+00 0.16210453E+04</pdfrwt>
<totfact> 0.17613060E+01</totfact>
</mgrwt>
</event>
<event>
12    6  0.1530859E-007  0.2378658E+04  0.7818608E-02  0.8447537E-01
          2   -1    0    0  501    0  0.00000000000E+00  0.00000000000E+00  0.11354336351E+04  0.11354336351E+04  0.00000000000E+00 0. -1.
         -1   -1    0    0    0  501 -0.00000000000E+00 -0.00000000000E+00 -0.12457826243E+04  0.12457826243E+04  0.00000000000E+00 0.  1.
         24    2    1    2    0    0  0.95715419448E+03 -0.15058349736E+03  0.26314338324E+03  0.10072143295E+04  0.80104455660E+02 0.  0.
        254    2    1    2    0    0 -0.95715419448E+03  0.15058349736E+03 -0.37349237242E+03  0.13740019298E+04  0.89975841714E+03 0.  0.
         23    2    4    4    0    0 -0.89517926030E+03 -0.12882907632E+03 -0.51164280310E+03  0.10430376529E+04  0.90588898015E+02 0.  0.
         23    2    4    4    0    0 -0.61974934171E+02  0.27941257368E+03  0.13815043068E+03  0.33096427691E+03  0.92409589854E+02 0.  0.
          4    1    3    3  502    0  0.69044511721E+03 -0.13045500664E+03  0.21994799894E+03  0.73628125799E+03  0.00000000000E+00 0. -1.
         -3    1    3    3    0  502  0.26670907727E+03 -0.20128490725E+02  0.43195384301E+02  0.27093307155E+03  0.00000000000E+00 0.  1.
         11    1    5    5    0    0 -0.88123437393E+02  0.12145648232E+02 -0.62566960739E+02  0.10875606450E+03  0.00000000000E+00 0.  1.
        -11    1    5    5    0    0 -0.80705582291E+03 -0.14097472455E+03 -0.44907584236E+03  0.93428158842E+03  0.00000000000E+00 0. -1.
          3    1    6    6  503    0 -0.30546035178E+02  0.89483264786E+02  0.94262078469E+02  0.13351274988E+03  0.00000000000E+00 0. -1.
         -3    1    6    6    0  503 -0.31428898993E+02  0.18992930889E+03  0.43888352216E+02  0.19745152703E+03  0.00000000000E+00 0.  1.
<mgrwt>
<rscale>  0 0.23786580E+04</rscale>
<asrwt>0</asrwt>
<pdfrwt beam="1">  1        2 0.17468210E+00 0.23786580E+04</pdfrwt>
<pdfrwt beam="2">  1       -1 0.19165886E+00 0.23786580E+04</pdfrwt>
<totfact> 0.36604755E+00</totfact>
</mgrwt>
</event>
<event>
12    6  0.1530859E-007  0.1662818E+04  0.7818608E-02  0.8782859E-01
          2   -1    0    0  501    0  0.00000000000E+00  0.00000000000E+00  0.12778037126E+04  0.12778037126E+04  0.00000000000E+00 0. -1.
         -1   -1    0    0    0  501 -0.00000000000E+00 -0.00000000000E+00 -0.54096029914E+03  0.54096029914E+03  0.00000000000E+00 0.  1.
         24    2    1    2    0    0  0.48634996739E+03  0.89563171798E+02 -0.38930473723E+02  0.50255804500E+03  0.80567699991E+02 0.  0.
        254    2    1    2    0    0 -0.48634996739E+03 -0.89563171798E+02  0.77577388716E+03  0.13162059667E+04  0.94128378841E+03 0.  0.
         23    2    4    4    0    0 -0.10822131274E+03  0.26020970000E+03  0.73469189737E+03  0.79196566296E+03  0.89534835339E+02 0.  0.
         23    2    4    4    0    0 -0.37812865465E+03 -0.34977287180E+03  0.41081989789E+02  0.52424030377E+03  0.88418464658E+02 0.  0.
          2    1    3    3  502    0  0.27168280335E+02  0.21648170733E+02 -0.14783874658E+02  0.37753432988E+02  0.00000000000E+00 0. -1.
         -1    1    3    3    0  502  0.45918168706E+03  0.67915001065E+02 -0.24146599065E+02  0.46480461201E+03  0.00000000000E+00 0.  1.
         11    1    5    5    0    0 -0.10539114223E+03  0.23569874597E+03  0.57404975746E+03  0.62943968397E+03  0.00000000000E+00 0. -1.
        -11    1    5    5    0    0 -0.28301705074E+01  0.24510954033E+02  0.16064213991E+03  0.16252597899E+03  0.00000000000E+00 0.  1.
          1    1    6    6  503    0 -0.37496686540E+03 -0.35452821401E+03  0.37276504633E+02  0.51737794935E+03  0.00000000000E+00 0. -1.
         -1    1    6    6    0  503 -0.31617892493E+01  0.47553422119E+01  0.38054851565E+01  0.68623544127E+01  0.00000000000E+00 0.  1.
<mgrwt>
<rscale>  0 0.16628182E+04</rscale>
<asrwt>0</asrwt>
<pdfrwt beam="1">  1        2 0.19658519E+00 0.16628182E+04</pdfrwt>
<pdfrwt beam="2">  1       -1 0.83224662E-01 0.16628182E+04</pdfrwt>
<totfact> 0.26560086E+01</totfact>
</mgrwt>
</event>
<event>
12    6  0.1530859E-007  0.1534766E+04  0.7818608E-02  0.8861657E-01
         -1   -1    0    0    0  501 -0.00000000000E+00  0.00000000000E+00  0.22338361934E+03  0.22338361934E+03  0.00000000000E+00 0.  1.
          2   -1    0    0  501    0  0.00000000000E+00 -0.00000000000E+00 -0.26361679130E+04  0.26361679130E+04  0.00000000000E+00 0. -1.
         24    2    1    2    0    0 -0.20708958057E+03  0.10242838116E+03 -0.16577740992E+04  0.16756819636E+04  0.79482145301E+02 0.  0.
        254    2    1    2    0    0  0.20708958057E+03 -0.10242838116E+03 -0.75501019444E+03  0.11838695687E+04  0.88211625904E+03 0.  0.
         23    2    4    4    0    0 -0.16939270393E+03 -0.12689260488E+03  0.94725170478E+02  0.24938709128E+03  0.91790206760E+02 0.  0.
         23    2    4    4    0    0  0.37648228450E+03  0.24464223719E+02 -0.84973536491E+03  0.93448247747E+03  0.94180154658E+02 0.  0.
          4    1    3    3  502    0 -0.88109357975E+02  0.76196509031E+02 -0.99569421999E+03  0.10024849858E+04  0.00000000000E+00 0. -1.
         -3    1    3    3    0  502 -0.11898022260E+03  0.26231872126E+02 -0.66207987921E+03  0.67319697782E+03  0.00000000000E+00 0.  1.
         11    1    5    5    0    0 -0.88362519228E+02 -0.32245773585E+02  0.20150881622E+01  0.94083926888E+02  0.00000000000E+00 0.  1.
        -11    1    5    5    0    0 -0.81030184699E+02 -0.94646831291E+02  0.92710082316E+02  0.15530316439E+03  0.00000000000E+00 0. -1.
          4    1    6    6  503    0  0.20099470867E+03  0.24984445807E+02 -0.34439481071E+03  0.39953833494E+03  0.00000000000E+00 0.  1.
         -4    1    6    6    0  503  0.17548757583E+03 -0.52022208714E+00 -0.50534055421E+03  0.53494414253E+03  0.00000000000E+00 0. -1.
<mgrwt>
<rscale>  0 0.15347661E+04</rscale>
<asrwt>0</asrwt>
<pdfrwt beam="1">  1        2 0.40556434E+00 0.15347661E+04</pdfrwt>
<pdfrwt beam="2">  1       -1 0.34366707E-01 0.15347661E+04</pdfrwt>
<totfact> 0.25585278E+01</totfact>
</mgrwt>
</event>
<event>
12    6  0.1530859E-007  0.1791384E+04  0.7818608E-02  0.8710895E-01
          2   -1    0    0  501    0  0.00000000000E+00  0.00000000000E+00  0.31025787928E+04  0.31025787928E+04  0.00000000000E+00 0. -1.
         -1   -1    0    0    0  501 -0.00000000000E+00 -0.00000000000E+00 -0.25857982699E+03  0.25857982699E+03  0.00000000000E+00 0.  1.
         24    2    1    2    0    0  0.53571324557E+03 -0.10579535887E+03  0.17546275580E+04  0.18394170553E+04  0.80968491431E+02 0.  0.
        254    2    1    2    0    0 -0.53571324557E+03  0.10579535887E+03  0.10893714079E+04  0.15217415645E+04  0.91147462145E+03 0.  0.
         23    2    4    4    0    0 -0.75863945558E+03 -0.58251773854E+02  0.85147427140E+03  0.11454536439E+04  0.90158320572E+02 0.  0.
         23    2    4    4    0    0  0.22292621001E+03  0.16404713272E+03  0.23789713645E+03  0.37628792062E+03  0.91596914872E+02 0.  0.
          2    1    3    3  502    0  0.22711478806E+03 -0.85800995638E+02  0.76871092956E+03  0.80613859294E+03  0.00000000000E+00 0. -1.
         -1    1    3    3    0  502  0.30859845751E+03 -0.19994363228E+02  0.98591662841E+03  0.10332784623E+04  0.00000000000E+00 0.  1.
         11    1    5    5    0    0 -0.41715754952E+03  0.55826124440E+01  0.42755833495E+03  0.59737569123E+03  0.00000000000E+00 0. -1.
        -11    1    5    5    0    0 -0.34148190606E+03 -0.63834386298E+02  0.42391593645E+03  0.54807795268E+03  0.00000000000E+00 0.  1.
          1    1    6    6  503    0  0.13161641019E+02  0.50411149453E+02  0.31901171965E+02  0.61091714301E+02  0.00000000000E+00 0. -1.
         -1    1    6    6    0  503  0.20976456899E+03  0.11363598327E+03  0.20599596449E+03  0.31519620632E+03  0.00000000000E+00 0.  1.
<mgrwt>
<rscale>  0 0.17913841E+04</rscale>
<asrwt>0</asrwt>
<pdfrwt beam="1">  1        2 0.47731979E+00 0.17913841E+04</pdfrwt>
<pdfrwt beam="2">  1       -1 0.39781514E-01 0.17913841E+04</pdfrwt>
<totfact> 0.99668713E+00</totfact>
</mgrwt>
</event>
<event>
12    6  0.1530859E-007  0.2409623E+04  0.7818608E-02  0.8435910E-01
         -1   -1    0    0    0  501 -0.00000000000E+00  0.00000000000E+00  0.13027137287E+04  0.13027137287E+04  0.00000000000E+00 0.  1.
          2   -1    0    0  501    0  0.00000000000E+00 -0.00000000000E+00 -0.11142665255E+04  0.11142665255E+04  0.00000000000E+00 0. -1.
         24    2    1    2    0    0 -0.35317203119E+03  0.97307936021E+03  0.16692344530E+03  0.10515189676E+04  0.78833862315E+02 0.  0.
        254    2    1    2    0    0  0.35317203119E+03 -0.97307936021E+03  0.21523757919E+02  0.13654612865E+04  0.89017263939E+03 0.  0.
         23    2    4    4    0    0  0.49602090845E+03 -0.96262987544E+03 -0.17988690302E+03  0.11014714987E+04  0.90482848550E+02 0.  0.
         23    2    4    4    0    0 -0.14284887726E+03 -0.10449484773E+02  0.20141066094E+03  0.26398978780E+03  0.92786638363E+02 0.  0.
          2    1    3    3  502    0 -0.34476348855E+03  0.96679221703E+03  0.15969969924E+03  0.10387747821E+04  0.00000000000E+00 0. -1.
         -1    1    3    3    0  502 -0.84085426414E+01  0.62871431810E+01  0.72237460530E+01  0.12744185567E+02  0.00000000000E+00 0.  1.
         11    1    5    5    0    0  0.82276840197E+02 -0.96930141649E+02 -0.24523963634E+02  0.12948496278E+03  0.00000000000E+00 0.  1.
        -11    1    5    5    0    0  0.41374406826E+03 -0.86569973379E+03 -0.15536293938E+03  0.97198653593E+03  0.00000000000E+00 0. -1.
          2    1    6    6  503    0 -0.11279299889E+03  0.19763307793E+02  0.93051357666E+02  0.14755136088E+03  0.00000000000E+00 0. -1.
         -2    1    6    6    0  503 -0.30055878370E+02 -0.30212792566E+02  0.10835930327E+03  0.11643842692E+03  0.00000000000E+00 0.  1.
<mgrwt>
<rscale>  0 0.24096226E+04</rscale>
<asrwt>0</asrwt>
<pdfrwt beam="1">  1        2 0.17142562E+00 0.24096226E+04</pdfrwt>
<pdfrwt beam="2">  1       -1 0.20041750E+00 0.24096226E+04</pdfrwt>
<totfact> 0.32694175E+00</totfact>
</mgrwt>
</event>
<event>
12    6  0.1530859E-007  0.1178837E+04  0.7818608E-02  0.9131584E-01
          2   -1    0    0  501    0  0.00000000000E+00  0.00000000000E+00  0.26854045289E+04  0.26854045289E+04  0.00000000000E+00 0. -1.
         -1   -1    0    0    0  501 -0.00000000000E+00 -0.00000000000E+00 -0.12937134800E+03  0.12937134800E+03  0.00000000000E+00 0.  1.
         24    2    1    2    0    0 -0.15988071518E+03  0.16717856966E+03  0.53432555223E+03  0.58757558540E+03  0.78935135093E+02 0.  0.
        254    2    1    2    0    0  0.15988071518E+03 -0.16717856966E+03  0.20217076286E+04  0.22272002915E+04  0.90532253113E+03 0.  0.
         23    2    4    4    0    0 -0.33044245978E+02 -0.30361300819E+03  0.19319829062E+04  0.19578926958E+04  0.86678010279E+02 0.  0.
         23    2    4    4    0    0  0.19292496116E+03  0.13643443853E+03  0.89724722392E+02  0.26930759563E+03  0.92960521737E+02 0.  0.
          4    1    3    3  502    0 -0.84476284226E+02  0.77190618600E+02  0.35712908830E+03  0.37501442627E+03  0.00000000000E+00 0. -1.
         -3    1    3    3    0  502 -0.75404430952E+02  0.89987951065E+02  0.17719646393E+03  0.21256115914E+03  0.00000000000E+00 0.  1.
         11    1    5    5    0    0 -0.15487734017E+02 -0.28991375736E+03  0.18606558496E+04  0.18831702120E+04  0.00000000000E+00 0. -1.
        -11    1    5    5    0    0 -0.17556511961E+02 -0.13699250829E+02  0.71327056633E+02  0.74722483855E+02  0.00000000000E+00 0.  1.
          2    1    6    6  503    0  0.14268247392E+03  0.10973856277E+03  0.22757806872E+02  0.18143527302E+03  0.00000000000E+00 0. -1.
         -2    1    6    6    0  503  0.50242487240E+02  0.26695875754E+02  0.66966915520E+02  0.87872322609E+02  0.00000000000E+00 0.  1.
<mgrwt>
<rscale>  0 0.11788374E+04</rscale>
<asrwt>0</asrwt>
<pdfrwt beam="1">  1        2 0.41313912E+00 0.11788374E+04</pdfrwt>
<pdfrwt beam="2">  1       -1 0.19903286E-01 0.11788374E+04</pdfrwt>
<totfact> 0.63484514E+01</totfact>
</mgrwt>
</event>
<event>
12    6  0.1530859E-007  0.2691041E+04  0.7818608E-02  0.8337918E-01
          2   -1    0    0  501    0  0.00000000000E+00  0.00000000000E+00  0.14216697860E+04  0.14216697860E+04  0.00000000000E+00 0. -1.
         -1   -1    0    0    0  501 -0.00000000000E+00 -0.00000000000E+00 -0.12734496988E+04  0.12734496988E+04  0.00000000000E+00 0.  1.
         24    2    1    2    0    0  0.67492079357E+03 -0.47569570071E+03  0.91611477959E+03  0.12358415838E+04  0.78953490759E+02 0.  0.
        254    2    1    2    0    0 -0.67492079357E+03  0.47569570071E+03 -0.76789469236E+03  0.14592779009E+04  0.92629652718E+03 0.  0.
         23    2    4    4    0    0 -0.30515098516E+03  0.30654974557E+02  0.16347460209E+03  0.35859098982E+03  0.88355538831E+02 0.  0.
         23    2    4    4    0    0 -0.36976980840E+03  0.44504072616E+03 -0.93136929445E+03  0.11006869111E+04  0.96290988439E+02 0.  0.
          2    1    3    3  502    0  0.57537413718E+03 -0.43750317816E+03  0.80247161393E+03  0.10800116295E+04  0.00000000000E+00 0. -1.
         -1    1    3    3    0  502  0.99546656392E+02 -0.38192522552E+02  0.11364316566E+03  0.15582995437E+03  0.00000000000E+00 0.  1.
         11    1    5    5    0    0 -0.25763506565E+03 -0.78402598597E+01  0.12641642722E+03  0.28708606688E+03  0.00000000000E+00 0.  1.
        -11    1    5    5    0    0 -0.47515919516E+02  0.38495234417E+02  0.37058174871E+02  0.71504922943E+02  0.00000000000E+00 0. -1.
          1    1    6    6  503    0 -0.13382824364E+03  0.23528347125E+03 -0.41608174492E+03  0.49637921904E+03  0.00000000000E+00 0. -1.
         -1    1    6    6    0  503 -0.23594156477E+03  0.20975725491E+03 -0.51528754952E+03  0.60430769204E+03  0.00000000000E+00 0.  1.
<mgrwt>
<rscale>  0 0.26910407E+04</rscale>
<asrwt>0</asrwt>
<pdfrwt beam="1">  1        2 0.21871843E+00 0.26910407E+04</pdfrwt>
<pdfrwt beam="2">  1       -1 0.19591534E+00 0.26910407E+04</pdfrwt>
<totfact> 0.22592412E+00</totfact>
</mgrwt>
</event>
<event>
12    6  0.1530859E-007  0.1983685E+04  0.7818608E-02  0.8614287E-01
          2   -1    0    0  501    0  0.00000000000E+00  0.00000000000E+00  0.14680977068E+04  0.14680977068E+04  0.00000000000E+00 0. -1.
         -1   -1    0    0    0  501 -0.00000000000E+00 -0.00000000000E+00 -0.67008593054E+03  0.67008593054E+03  0.00000000000E+00 0.  1.
         24    2    1    2    0    0  0.20220012343E+03 -0.68348316981E+03  0.66419196266E+03  0.97743196274E+03  0.78664764712E+02 0.  0.
        254    2    1    2    0    0 -0.20220012343E+03  0.68348316981E+03  0.13381981356E+03  0.11607516746E+04  0.90631262496E+03 0.  0.
         23    2    4    4    0    0 -0.23990133869E+03 -0.95752564433E+02  0.24477197885E+03  0.36802140382E+03  0.93836166485E+02 0.  0.
         23    2    4    4    0    0  0.37701215261E+02  0.77923573424E+03 -0.11095216529E+03  0.79273027073E+03  0.86493861116E+02 0.  0.
          4    1    3    3  502    0  0.70761597375E+02 -0.37687601095E+03  0.36026153169E+03  0.52614741519E+03  0.00000000000E+00 0. -1.
         -3    1    3    3    0  502  0.13143852605E+03 -0.30660715886E+03  0.30393043097E+03  0.45128454755E+03  0.00000000000E+00 0.  1.
         11    1    5    5    0    0 -0.19775242492E+03 -0.80340292008E+02  0.24253852591E+03  0.32308748139E+03  0.00000000000E+00 0.  1.
        -11    1    5    5    0    0 -0.42148913766E+02 -0.15412272425E+02  0.22334529434E+01  0.44933922431E+02  0.00000000000E+00 0. -1.
          1    1    6    6  503    0  0.28812811626E+02  0.80644324233E+02 -0.21722776166E+01  0.85664484676E+02  0.00000000000E+00 0. -1.
         -1    1    6    6    0  503  0.88884036341E+01  0.69859141001E+03 -0.10877988767E+03  0.70706578606E+03  0.00000000000E+00 0.  1.
<mgrwt>
<rscale>  0 0.19836851E+04</rscale>
<asrwt>0</asrwt>
<pdfrwt beam="1">  1        2 0.22586119E+00 0.19836851E+04</pdfrwt>
<pdfrwt beam="2">  1       -1 0.10309014E+00 0.19836851E+04</pdfrwt>
<totfact> 0.12463579E+01</totfact>
</mgrwt>
</event>
<event>
12    6  0.1530859E-007  0.1651016E+04  0.7818608E-02  0.8789806E-01
          2   -1    0    0  501    0  0.00000000000E+00  0.00000000000E+00  0.80302610266E+03  0.80302610266E+03  0.00000000000E+00 0. -1.
         -1   -1    0    0    0  501 -0.00000000000E+00 -0.00000000000E+00 -0.84861956418E+03  0.84861956418E+03  0.00000000000E+00 0.  1.
         24    2    1    2    0    0 -0.20244970309E+03  0.43497300203E+03 -0.33764019356E+03  0.59204932316E+03  0.79587096690E+02 0.  0.
        254    2    1    2    0    0  0.20244970309E+03 -0.43497300203E+03  0.29204673204E+03  0.10595963437E+04  0.89847967316E+03 0.  0.
         23    2    4    4    0    0  0.12201286687E+03  0.23988621086E+03  0.23952682662E+03  0.37185566313E+03  0.92038033952E+02 0.  0.
         23    2    4    4    0    0  0.80436836223E+02 -0.67485921290E+03  0.52519905427E+02  0.68774068056E+03  0.91235198099E+02 0.  0.
          4    1    3    3  502    0 -0.57649593155E+01  0.14479786653E+01  0.30150523866E+01  0.66649785460E+01  0.00000000000E+00 0. -1.
         -3    1    3    3    0  502 -0.19668474377E+03  0.43352502337E+03 -0.34065524595E+03  0.58538434461E+03  0.00000000000E+00 0.  1.
         11    1    5    5    0    0  0.22300659587E+01  0.83902120273E+02  0.10086715960E+03  0.13122013133E+03  0.00000000000E+00 0. -1.
        -11    1    5    5    0    0  0.11978280091E+03  0.15598409059E+03  0.13865966702E+03  0.24063553181E+03  0.00000000000E+00 0.  1.
          3    1    6    6  503    0 -0.43006402625E+01 -0.46153230632E+02  0.25203570449E+02  0.52762071300E+02  0.00000000000E+00 0. -1.
         -3    1    6    6    0  503  0.84737476486E+02 -0.62870598226E+03  0.27316334979E+02  0.63497860926E+03  0.00000000000E+00 0.  1.
<mgrwt>
<rscale>  0 0.16510162E+04</rscale>
<asrwt>0</asrwt>
<pdfrwt beam="1">  1        2 0.12354248E+00 0.16510162E+04</pdfrwt>
<pdfrwt beam="2">  1       -1 0.13055686E+00 0.16510162E+04</pdfrwt>
<totfact> 0.18753053E+01</totfact>
</mgrwt>
</event>
<event>
12    6  0.1530859E-007  0.1329797E+04  0.7818608E-02  0.9006264E-01
          2   -1    0    0  501    0  0.00000000000E+00  0.00000000000E+00  0.20370205779E+04  0.20370205779E+04  0.00000000000E+00 0. -1.
         -1   -1    0    0    0  501 -0.00000000000E+00 -0.00000000000E+00 -0.21702765704E+03  0.21702765704E+03  0.00000000000E+00 0.  1.
         24    2    1    2    0    0 -0.21236677012E+03 -0.21984325364E+03  0.77916355005E+03  0.84085742533E+03  0.80713510481E+02 0.  0.
        254    2    1    2    0    0  0.21236677012E+03  0.21984325364E+03  0.10408293708E+04  0.14131908096E+04  0.90573273319E+03 0.  0.
         23    2    4    4    0    0  0.17009720909E+03  0.28568156629E+03 -0.20835928850E+02  0.34489155434E+03  0.89269426289E+02 0.  0.
         23    2    4    4    0    0  0.42269561031E+02 -0.65838312645E+02  0.10616652996E+04  0.10682992552E+04  0.89491290625E+02 0.  0.
          4    1    3    3  502    0 -0.13523090717E+03 -0.81916418952E+02  0.39176757460E+03  0.42246837805E+03  0.00000000000E+00 0. -1.
         -3    1    3    3    0  502 -0.77135862947E+02 -0.13792683469E+03  0.38739597546E+03  0.41838904728E+03  0.00000000000E+00 0.  1.
         11    1    5    5    0    0  0.44344094045E+02  0.13710846916E+03 -0.39316229996E+02  0.14936832640E+03  0.00000000000E+00 0. -1.
        -11    1    5    5    0    0  0.12575311504E+03  0.14857309713E+03  0.18480301146E+02  0.19552322794E+03  0.00000000000E+00 0.  1.
          3    1    6    6  503    0 -0.13292355109E+02  0.99217912447E+01  0.60410487615E+02  0.62646274109E+02  0.00000000000E+00 0. -1.
         -3    1    6    6    0  503  0.55561916140E+02 -0.75760103890E+02  0.10012548120E+04  0.10056529811E+04  0.00000000000E+00 0.  1.
<mgrwt>
<rscale>  0 0.13297967E+04</rscale>
<asrwt>0</asrwt>
<pdfrwt beam="1">  1        2 0.31338777E+00 0.13297967E+04</pdfrwt>
<pdfrwt beam="2">  1       -1 0.33388872E-01 0.13297967E+04</pdfrwt>
<totfact> 0.59993580E+01</totfact>
</mgrwt>
</event>
<event>
12    6  0.1530859E-007  0.1396079E+04  0.7818608E-02  0.8956661E-01
          2   -1    0    0  501    0  0.00000000000E+00  0.00000000000E+00  0.11948845636E+04  0.11948845636E+04  0.00000000000E+00 0. -1.
         -1   -1    0    0    0  501 -0.00000000000E+00 -0.00000000000E+00 -0.40778781152E+03  0.40778781152E+03  0.00000000000E+00 0.  1.
         24    2    1    2    0    0 -0.27668720203E+03 -0.22650193419E+03 -0.68321379958E+01  0.36658455282E+03  0.80489889417E+02 0.  0.
        254    2    1    2    0    0  0.27668720203E+03  0.22650193419E+03  0.79392889006E+03  0.12360878223E+04  0.87734319851E+03 0.  0.
         23    2    4    4    0    0  0.28872584881E+03 -0.26273250463E+03  0.16006206945E+03  0.43011883375E+03  0.83614354702E+02 0.  0.
         23    2    4    4    0    0 -0.12038646782E+02  0.48923443881E+03  0.63386682061E+03  0.80596898853E+03  0.91124086094E+02 0.  0.
          2    1    3    3  502    0 -0.71742614975E+02 -0.64434072434E+02 -0.37591600441E+02  0.10349821698E+03  0.00000000000E+00 0. -1.
         -1    1    3    3    0  502 -0.20494458706E+03 -0.16206786175E+03  0.30759462446E+02  0.26308633584E+03  0.00000000000E+00 0.  1.
         11    1    5    5    0    0  0.13867829279E+03 -0.83826178963E+02  0.37162943258E+02  0.16625156096E+03  0.00000000000E+00 0.  1.
        -11    1    5    5    0    0  0.15004755602E+03 -0.17890632567E+03  0.12289912619E+03  0.26386727279E+03  0.00000000000E+00 0. -1.
          4    1    6    6  503    0 -0.29868587786E+02  0.20403026941E+03  0.20618069864E+03  0.29160069250E+03  0.00000000000E+00 0. -1.
         -4    1    6    6    0  503  0.17829941004E+02  0.28520416940E+03  0.42768612197E+03  0.51436829603E+03  0.00000000000E+00 0.  1.
<mgrwt>
<rscale>  0 0.13960793E+04</rscale>
<asrwt>0</asrwt>
<pdfrwt beam="1">  1        2 0.18382839E+00 0.13960793E+04</pdfrwt>
<pdfrwt beam="2">  1       -1 0.62736587E-01 0.13960793E+04</pdfrwt>
<totfact> 0.54568677E+01</totfact>
</mgrwt>
</event>
<event>
12    6  0.1530859E-007  0.1930591E+04  0.7818608E-02  0.8639778E-01
          2   -1    0    0  501    0  0.00000000000E+00  0.00000000000E+00  0.61088570384E+03  0.61088570384E+03  0.00000000000E+00 0. -1.
         -1   -1    0    0    0  501 -0.00000000000E+00 -0.00000000000E+00 -0.15253181585E+04  0.15253181585E+04  0.00000000000E+00 0.  1.
         24    2    1    2    0    0  0.28281304269E+03 -0.51815789173E+03  0.15943542275E+03  0.61689080165E+03  0.81632035686E+02 0.  0.
        254    2    1    2    0    0 -0.28281304269E+03  0.51815789173E+03 -0.10738678774E+04  0.15193130607E+04  0.89813648203E+03 0.  0.
         23    2    4    4    0    0  0.64178775197E+02 -0.15581484123E+03  0.10698536911E+02  0.19299866084E+03  0.93471088901E+02 0.  0.
         23    2    4    4    0    0 -0.34699181789E+03  0.67397273296E+03 -0.10845664143E+04  0.13263143999E+04  0.90460011651E+02 0.  0.
          2    1    3    3  502    0  0.24001173006E+03 -0.46773982315E+03  0.11786359045E+03  0.53877453418E+03  0.00000000000E+00 0. -1.
         -1    1    3    3    0  502  0.42801312629E+02 -0.50418068587E+02  0.41571832303E+02  0.78116267473E+02  0.00000000000E+00 0.  1.
         11    1    5    5    0    0 -0.19591114836E+02 -0.55618901631E+02 -0.12693952421E+02  0.60319237621E+02  0.00000000000E+00 0. -1.
        -11    1    5    5    0    0  0.83769890033E+02 -0.10019593960E+03  0.23392489332E+02  0.13267942322E+03  0.00000000000E+00 0.  1.
          4    1    6    6  503    0  0.74194016265E+00  0.41871969605E+01  0.83705315027E+00  0.43340225619E+01  0.00000000000E+00 0. -1.
         -4    1    6    6    0  503 -0.34773375805E+03  0.66978553600E+03 -0.10854034675E+04  0.13219803773E+04  0.00000000000E+00 0.  1.
<mgrwt>
<rscale>  0 0.19305906E+04</rscale>
<asrwt>0</asrwt>
<pdfrwt beam="1">  1        2 0.93982416E-01 0.19305906E+04</pdfrwt>
<pdfrwt beam="2">  1       -1 0.23466433E+00 0.19305906E+04</pdfrwt>
<totfact> 0.45511025E+00</totfact>
</mgrwt>
</event>
<event>
12    6  0.1530859E-007  0.1537888E+04  0.7818608E-02  0.8859642E-01
          2   -1    0    0  501    0  0.00000000000E+00  0.00000000000E+00  0.14617069529E+04  0.14617069529E+04  0.00000000000E+00 0. -1.
         -1   -1    0    0    0  501 -0.00000000000E+00 -0.00000000000E+00 -0.40450964664E+03  0.40450964664E+03  0.00000000000E+00 0.  1.
         24    2    1    2    0    0  0.14968638293E+03  0.47397431630E+03  0.26319421820E+03  0.56802691766E+03  0.79534375898E+02 0.  0.
        254    2    1    2    0    0 -0.14968638293E+03 -0.47397431630E+03  0.79400308803E+03  0.12981896819E+04  0.89877576766E+03 0.  0.
         23    2    4    4    0    0 -0.11154559729E+03  0.25394086006E+03  0.20621525992E+03  0.35722522300E+03  0.90314704451E+02 0.  0.
         23    2    4    4    0    0 -0.38140785645E+02 -0.72791517635E+03  0.58778782811E+03  0.94096445886E+03  0.92759681316E+02 0.  0.
          2    1    3    3  502    0  0.10148799948E+03  0.23859531711E+03  0.17145809595E+03  0.31084629329E+03  0.00000000000E+00 0. -1.
         -1    1    3    3    0  502  0.48198383449E+02  0.23537899919E+03  0.91736122242E+02  0.25718062437E+03  0.00000000000E+00 0.  1.
         11    1    5    5    0    0 -0.11596432033E+02  0.80346435382E+01  0.43847665623E+02  0.46061377675E+02  0.00000000000E+00 0.  1.
        -11    1    5    5    0    0 -0.99949165255E+02  0.24590621652E+03  0.16236759430E+03  0.31116384532E+03  0.00000000000E+00 0. -1.
          1    1    6    6  503    0  0.48417807663E+01 -0.49855385832E+03  0.36088220785E+03  0.61547978068E+03  0.00000000000E+00 0. -1.
         -1    1    6    6    0  503 -0.42982566411E+02 -0.22936131803E+03  0.22690562026E+03  0.32548467818E+03  0.00000000000E+00 0.  1.
<mgrwt>
<rscale>  0 0.15378876E+04</rscale>
<asrwt>0</asrwt>
<pdfrwt beam="1">  1        2 0.22487799E+00 0.15378876E+04</pdfrwt>
<pdfrwt beam="2">  1       -1 0.62232254E-01 0.15378876E+04</pdfrwt>
<totfact> 0.38368671E+01</totfact>
</mgrwt>
</event>
<event>
12    6  0.1530859E-007  0.1492554E+04  0.7818608E-02  0.8889420E-01
          2   -1    0    0  501    0  0.00000000000E+00  0.00000000000E+00  0.43925281171E+03  0.43925281171E+03  0.00000000000E+00 0. -1.
         -1   -1    0    0    0  501 -0.00000000000E+00 -0.00000000000E+00 -0.12679015486E+04  0.12679015486E+04  0.00000000000E+00 0.  1.
         24    2    1    2    0    0 -0.69982496528E+02  0.27893954102E+03  0.16200373425E+03  0.34108550711E+03  0.85961013785E+02 0.  0.
        254    2    1    2    0    0  0.69982496528E+02 -0.27893954102E+03 -0.99065247113E+03  0.13660688532E+04  0.89557075418E+03 0.  0.
         23    2    4    4    0    0 -0.26199264327E+03 -0.44194916035E+03 -0.37919499306E+03  0.64500786499E+03  0.91033497498E+02 0.  0.
         23    2    4    4    0    0  0.33197513980E+03  0.16300961934E+03 -0.61145747807E+03  0.72106098821E+03  0.96276018733E+02 0.  0.
          4    1    3    3  502    0 -0.54779350944E+02  0.22234326842E+03  0.16525257124E+03  0.28239284446E+03  0.00000000000E+00 0. -1.
         -3    1    3    3    0  502 -0.15203145584E+02  0.56596272597E+02 -0.32488369941E+01  0.58692662653E+02  0.00000000000E+00 0.  1.
         11    1    5    5    0    0 -0.16932273687E+03 -0.33338690791E+03 -0.31316586112E+03  0.48773955772E+03  0.00000000000E+00 0. -1.
        -11    1    5    5    0    0 -0.92669906398E+02 -0.10856225244E+03 -0.66029131940E+02  0.15726830727E+03  0.00000000000E+00 0.  1.
          1    1    6    6  503    0  0.18300364370E+02  0.32370088153E+02 -0.30777175122E+02  0.48269663885E+02  0.00000000000E+00 0. -1.
         -1    1    6    6    0  503  0.31367477543E+03  0.13063953118E+03 -0.58068030295E+03  0.67279132432E+03  0.00000000000E+00 0.  1.
<mgrwt>
<rscale>  0 0.14925539E+04</rscale>
<asrwt>0</asrwt>
<pdfrwt beam="1">  1        2 0.67577356E-01 0.14925539E+04</pdfrwt>
<pdfrwt beam="2">  1       -1 0.19506177E+00 0.14925539E+04</pdfrwt>
<totfact> 0.12872420E+01</totfact>
</mgrwt>
</event>
<event>
12    6  0.1530859E-007  0.2041874E+04  0.7818608E-02  0.8587290E-01
          2   -1    0    0  501    0  0.00000000000E+00  0.00000000000E+00  0.56091161368E+03  0.56091161368E+03  0.00000000000E+00 0. -1.
         -1   -1    0    0    0  501 -0.00000000000E+00 -0.00000000000E+00 -0.18582463866E+04  0.18582463866E+04  0.00000000000E+00 0.  1.
         24    2    1    2    0    0  0.63194594694E+03 -0.10529921584E+02 -0.11428012237E+04  0.13084737123E+04  0.81500058921E+02 0.  0.
        254    2    1    2    0    0 -0.63194594694E+03  0.10529921584E+02 -0.15453354923E+03  0.11106842881E+04  0.90015132662E+03 0.  0.
         23    2    4    4    0    0  0.16756652987E+03 -0.17424416209E+03 -0.11921486552E+03  0.28440133923E+03  0.90732395749E+02 0.  0.
         23    2    4    4    0    0 -0.79951247681E+03  0.18477408367E+03 -0.35318683712E+02  0.82628294884E+03  0.90191127891E+02 0.  0.
          4    1    3    3  502    0  0.99845654925E+02 -0.31431541325E+02 -0.18015738393E+03  0.20835973599E+03  0.00000000000E+00 0. -1.
         -3    1    3    3    0  502  0.53210029202E+03  0.20901619742E+02 -0.96264383980E+03  0.11001139763E+04  0.00000000000E+00 0.  1.
         11    1    5    5    0    0  0.81393424596E+02 -0.52544733688E+02 -0.90434483109E+02  0.13253012616E+03  0.00000000000E+00 0. -1.
        -11    1    5    5    0    0  0.86173105275E+02 -0.12169942840E+03 -0.28780382410E+02  0.15187121306E+03  0.00000000000E+00 0.  1.
          1    1    6    6  503    0 -0.39460729023E+02  0.30681103603E+02 -0.37663218936E+01  0.50126484357E+02  0.00000000000E+00 0. -1.
         -1    1    6    6    0  503 -0.76005174779E+03  0.15409298007E+03 -0.31552361819E+02  0.77615646448E+03  0.00000000000E+00 0.  1.
<mgrwt>
<rscale>  0 0.20418736E+04</rscale>
<asrwt>0</asrwt>
<pdfrwt beam="1">  1        2 0.86294094E-01 0.20418736E+04</pdfrwt>
<pdfrwt beam="2">  1       -1 0.28588406E+00 0.20418736E+04</pdfrwt>
<totfact> 0.23193390E+00</totfact>
</mgrwt>
</event>
<event>
12    6  0.1530859E-007  0.1960893E+04  0.7818608E-02  0.8625126E-01
         -1   -1    0    0    0  501 -0.00000000000E+00  0.00000000000E+00  0.64814937367E+03  0.64814937367E+03  0.00000000000E+00 0.  1.
          2   -1    0    0  501    0  0.00000000000E+00 -0.00000000000E+00 -0.14831082226E+04  0.14831082226E+04  0.00000000000E+00 0. -1.
         24    2    1    2    0    0 -0.25606391819E+03  0.17530308635E+02  0.45246546145E+03  0.52630502543E+03  0.79974646402E+02 0.  0.
        254    2    1    2    0    0  0.25606391819E+03 -0.17530308635E+02 -0.12874243104E+04  0.16049525709E+04  0.92332841276E+03 0.  0.
         23    2    4    4    0    0 -0.30289161884E+03  0.71448081853E+02 -0.21662590903E+03  0.39029330843E+03  0.92487409835E+02 0.  0.
         23    2    4    4    0    0  0.55895553703E+03 -0.88978390487E+02 -0.10707984014E+04  0.12146592624E+04  0.91866539672E+02 0.  0.
          2    1    3    3  502    0  0.37010240731E+01  0.56312186902E+01  0.38166493047E+01  0.77443537523E+01  0.00000000000E+00 0. -1.
         -1    1    3    3    0  502 -0.25976494227E+03  0.11899089944E+02  0.44864881214E+03  0.51856067168E+03  0.00000000000E+00 0.  1.
         11    1    5    5    0    0 -0.21150432065E+03  0.10478245262E+02 -0.16726594583E+03  0.26985508688E+03  0.00000000000E+00 0.  1.
        -11    1    5    5    0    0 -0.91387298182E+02  0.60969836591E+02 -0.49359963200E+02  0.12043822155E+03  0.00000000000E+00 0. -1.
          4    1    6    6  503    0  0.17293280682E+03 -0.19395802654E+01 -0.25728361421E+03  0.31000705764E+03  0.00000000000E+00 0. -1.
         -4    1    6    6    0  503  0.38602273021E+03 -0.87038810222E+02 -0.81351478717E+03  0.90465220480E+03  0.00000000000E+00 0.  1.
<mgrwt>
<rscale>  0 0.19608933E+04</rscale>
<asrwt>0</asrwt>
<pdfrwt beam="1">  1        2 0.22817050E+00 0.19608933E+04</pdfrwt>
<pdfrwt beam="2">  1       -1 0.99715289E-01 0.19608933E+04</pdfrwt>
<totfact> 0.13220498E+01</totfact>
</mgrwt>
</event>
<event>
12    6  0.1530859E-007  0.2070562E+04  0.7818608E-02  0.8574323E-01
         -1   -1    0    0    0  501 -0.00000000000E+00  0.00000000000E+00  0.35317695612E+03  0.35317695612E+03  0.00000000000E+00 0.  1.
          2   -1    0    0  501    0  0.00000000000E+00 -0.00000000000E+00 -0.30347593825E+04  0.30347593825E+04  0.00000000000E+00 0. -1.
         24    2    1    2    0    0  0.30032207615E+03  0.15580914564E+03  0.16440209327E+03  0.38456460753E+03  0.79950295844E+02 0.  0.
        254    2    1    2    0    0 -0.30032207615E+03 -0.15580914564E+03 -0.28459845197E+04  0.30033717311E+04  0.89785523878E+03 0.  0.
         23    2    4    4    0    0 -0.41942738776E+03  0.27048019872E+03 -0.14597934390E+04  0.15454065867E+04  0.90585662489E+02 0.  0.
         23    2    4    4    0    0  0.11910531161E+03 -0.42628934436E+03 -0.13861910807E+04  0.14579651444E+04  0.90708157118E+02 0.  0.
          2    1    3    3  502    0  0.11587156736E+03  0.52216049173E+02  0.20563606097E+02  0.12874625358E+03  0.00000000000E+00 0. -1.
         -1    1    3    3    0  502  0.18445050878E+03  0.10359309646E+03  0.14383848717E+03  0.25581835395E+03  0.00000000000E+00 0.  1.
         11    1    5    5    0    0 -0.19902787252E+03  0.18115978684E+03 -0.74880463313E+03  0.79570053476E+03  0.00000000000E+00 0.  1.
        -11    1    5    5    0    0 -0.22039951524E+03  0.89320411888E+02 -0.71098880587E+03  0.74970605198E+03  0.00000000000E+00 0. -1.
          3    1    6    6  503    0  0.32017389949E+02 -0.38925614139E+02 -0.10155699437E+03  0.11337609890E+03  0.00000000000E+00 0. -1.
         -3    1    6    6    0  503  0.87087921663E+02 -0.38736373022E+03 -0.12846340863E+04  0.13445890455E+04  0.00000000000E+00 0.  1.
<mgrwt>
<rscale>  0 0.20705623E+04</rscale>
<asrwt>0</asrwt>
<pdfrwt beam="1">  1        2 0.46688607E+00 0.20705623E+04</pdfrwt>
<pdfrwt beam="2">  1       -1 0.54334915E-01 0.20705623E+04</pdfrwt>
<totfact> 0.59670605E+00</totfact>
</mgrwt>
</event>
<event>
12    6  0.1530859E-007  0.1281276E+04  0.7818608E-02  0.9044546E-01
         -3   -1    0    0    0  501 -0.00000000000E+00  0.00000000000E+00  0.66890709678E+03  0.66890709678E+03  0.00000000000E+00 0.  1.
          4   -1    0    0  501    0  0.00000000000E+00 -0.00000000000E+00 -0.61356388811E+03  0.61356388811E+03  0.00000000000E+00 0. -1.
         24    2    1    2    0    0  0.15345389275E+00 -0.19246305602E+03 -0.19769028716E+03  0.28712197156E+03  0.79470280191E+02 0.  0.
        254    2    1    2    0    0 -0.15345389275E+00  0.19246305602E+03  0.25303349583E+03  0.99534901333E+03  0.94321347364E+03 0.  0.
         23    2    4    4    0    0  0.26907305098E+03 -0.37379171456E+01 -0.25461868362E+03  0.38160991840E+03  0.91548768362E+02 0.  0.
         23    2    4    4    0    0 -0.26922650487E+03  0.19620097317E+03  0.50765217945E+03  0.61373909493E+03  0.89371184073E+02 0.  0.
          4    1    3    3  502    0  0.38356122124E+02 -0.83494435586E+02 -0.10072320013E+03  0.13633662722E+03  0.00000000000E+00 0. -1.
         -3    1    3    3    0  502 -0.38202668231E+02 -0.10896862043E+03 -0.96967087031E+02  0.15078534434E+03  0.00000000000E+00 0.  1.
         11    1    5    5    0    0  0.93373473681E+01 -0.11925371907E+02 -0.45804568305E+02  0.48243746005E+02  0.00000000000E+00 0.  1.
        -11    1    5    5    0    0  0.25973570361E+03  0.81874547610E+01 -0.20881411532E+03  0.33336617240E+03  0.00000000000E+00 0. -1.
          3    1    6    6  503    0 -0.26097441245E+03  0.15915021558E+03  0.43345230413E+03  0.53039356616E+03  0.00000000000E+00 0. -1.
         -3    1    6    6    0  503 -0.82520924222E+01  0.37050757582E+02  0.74199875327E+02  0.83345528766E+02  0.00000000000E+00 0.  1.
<mgrwt>
<rscale>  0 0.12812763E+04</rscale>
<asrwt>0</asrwt>
<pdfrwt beam="1">  1        4 0.94394444E-01 0.12812763E+04</pdfrwt>
<pdfrwt beam="2">  1       -3 0.10290878E+00 0.12812763E+04</pdfrwt>
<totfact> 0.17351956E+00</totfact>
</mgrwt>
</event>
<event>
12    6  0.2154793E-007  0.2455838E+04  0.7818608E-02  0.8418890E-01
          2   -1    0    0  501    0  0.00000000000E+00  0.00000000000E+00  0.10802988220E+04  0.10802988220E+04  0.00000000000E+00 0. -1.
         -1   -1    0    0    0  501 -0.00000000000E+00 -0.00000000000E+00 -0.13957106544E+04  0.13957106544E+04  0.00000000000E+00 0.  1.
         24    2    1    2    0    0  0.53117240051E+01  0.62239823812E+03 -0.99490398005E+03  0.11761535461E+04  0.78073384284E+02 0.  0.
        254    2    1    2    0    0 -0.53117240051E+01 -0.62239823812E+03  0.67949214765E+03  0.12998559303E+04  0.91679227719E+03 0.  0.
         23    2    4    4    0    0  0.19155985423E+02  0.17224475891E+03 -0.62920062986E+02  0.20828968771E+03  0.96904339080E+02 0.  0.
         23    2    4    4    0    0 -0.24467709429E+02 -0.79464299703E+03  0.74241221064E+03  0.10915662426E+04  0.91020930850E+02 0.  0.
          2    1    3    3  502    0 -0.80836448853E+01  0.28563374879E+02 -0.80126980959E+02  0.85449077097E+02  0.00000000000E+00 0. -1.
         -1    1    3    3    0  502  0.13395368890E+02  0.59383486324E+03 -0.91477699909E+03  0.10907044690E+04  0.00000000000E+00 0.  1.
         11    1    5    5    0    0 -0.36701440269E+02  0.57519183508E+02 -0.57681046768E+01  0.68474252247E+02  0.00000000000E+00 0.  1.
        -11    1    5    5    0    0  0.55857425693E+02  0.11472557540E+03 -0.57151958309E+02  0.13981543547E+03  0.00000000000E+00 0. -1.
          4    1    6    6  503    0  0.55949945866E+01 -0.22915907911E+02  0.57884810135E+01  0.24288872190E+02  0.00000000000E+00 0.  1.
         -4    1    6    6    0  503 -0.30062704015E+02 -0.77172708912E+03  0.73662372963E+03  0.10672773704E+04  0.00000000000E+00 0. -1.
<mgrwt>
<rscale>  0 0.24558376E+04</rscale>
<asrwt>0</asrwt>
<pdfrwt beam="1">  1        2 0.16619982E+00 0.24558376E+04</pdfrwt>
<pdfrwt beam="2">  1       -1 0.21472472E+00 0.24558376E+04</pdfrwt>
<totfact> 0.27306135E+00</totfact>
</mgrwt>
</event>
<event>
12    6  0.1530859E-007  0.1945294E+04  0.7818608E-02  0.8632634E-01
          2   -1    0    0  501    0  0.00000000000E+00  0.00000000000E+00  0.15854165099E+04  0.15854165099E+04  0.00000000000E+00 0. -1.
         -1   -1    0    0    0  501 -0.00000000000E+00 -0.00000000000E+00 -0.59671494557E+03  0.59671494557E+03  0.00000000000E+00 0.  1.
         24    2    1    2    0    0  0.27800251243E+03 -0.37756986428E+03 -0.28438514817E+03  0.55413450477E+03  0.79660137762E+02 0.  0.
        254    2    1    2    0    0 -0.27800251243E+03  0.37756986428E+03  0.12730867126E+04  0.16279969507E+04  0.89987771093E+03 0.  0.
         23    2    4    4    0    0 -0.13813085693E+03  0.51888416595E+03  0.28219779864E+03  0.61324489033E+03  0.90071008853E+02 0.  0.
         23    2    4    4    0    0 -0.13987165550E+03 -0.14131430168E+03  0.99088891391E+03  0.10147520604E+04  0.91252904302E+02 0.  0.
          4    1    3    3  502    0  0.66225761075E+01 -0.13162933331E+01  0.40432518880E+01  0.78701352128E+01  0.00000000000E+00 0. -1.
         -3    1    3    3    0  502  0.27137993633E+03 -0.37625357094E+03 -0.28842840006E+03  0.54626436956E+03  0.00000000000E+00 0.  1.
         11    1    5    5    0    0 -0.47968259240E+02  0.70935183425E+02  0.26524631380E+02  0.89645469556E+02  0.00000000000E+00 0. -1.
        -11    1    5    5    0    0 -0.90162597693E+02  0.44794898253E+03  0.25567316726E+03  0.52359942077E+03  0.00000000000E+00 0.  1.
          1    1    6    6  503    0 -0.19141622026E+02 -0.59448096222E+02  0.17233583967E+03  0.18330335369E+03  0.00000000000E+00 0. -1.
         -1    1    6    6    0  503 -0.12073003348E+03 -0.81866205456E+02  0.81855307423E+03  0.83144870673E+03  0.00000000000E+00 0.  1.
<mgrwt>
<rscale>  0 0.19452935E+04</rscale>
<asrwt>0</asrwt>
<pdfrwt beam="1">  1        2 0.24391023E+00 0.19452935E+04</pdfrwt>
<pdfrwt beam="2">  1       -1 0.91802300E-01 0.19452935E+04</pdfrwt>
<totfact> 0.13964745E+01</totfact>
</mgrwt>
</event>
<event>
12    6  0.1530859E-007  0.1533113E+04  0.7818608E-02  0.8862727E-01
         -1   -1    0    0    0  501 -0.00000000000E+00  0.00000000000E+00  0.27488012853E+03  0.27488012853E+03  0.00000000000E+00 0.  1.
          2   -1    0    0  501    0  0.00000000000E+00 -0.00000000000E+00 -0.21376925212E+04  0.21376925212E+04  0.00000000000E+00 0. -1.
         24    2    1    2    0    0 -0.41587312751E+03  0.25823979488E+03 -0.72514371486E+03  0.87856535109E+03  0.80033862090E+02 0.  0.
        254    2    1    2    0    0  0.41587312751E+03 -0.25823979488E+03 -0.11376686778E+04  0.15340072987E+04  0.90512436824E+03 0.  0.
         23    2    4    4    0    0  0.42994672924E+02  0.20719545558E+03  0.17591841928E+02  0.23081102188E+03  0.90475169015E+02 0.  0.
         23    2    4    4    0    0  0.37287845458E+03 -0.46543525046E+03 -0.11552605198E+04  0.13031962768E+04  0.89584334714E+02 0.  0.
          2    1    3    3  502    0 -0.35495888560E+03  0.20112556670E+03 -0.64245699855E+03  0.76105078611E+03  0.00000000000E+00 0. -1.
         -1    1    3    3    0  502 -0.60914241910E+02  0.57114228180E+02 -0.82686716312E+02  0.11751456498E+03  0.00000000000E+00 0.  1.
         11    1    5    5    0    0  0.13737696848E+02  0.36529153571E+01 -0.17136173425E+02  0.22264692788E+02  0.00000000000E+00 0. -1.
        -11    1    5    5    0    0  0.29256976076E+02  0.20354254022E+03  0.34728015353E+02  0.20854632910E+03  0.00000000000E+00 0.  1.
          2    1    6    6  503    0  0.86319290735E+02 -0.13711963002E+03 -0.39422023428E+03  0.42621873024E+03  0.00000000000E+00 0. -1.
         -2    1    6    6    0  503  0.28655916385E+03 -0.32831562044E+03 -0.76104028548E+03  0.87697754655E+03  0.00000000000E+00 0.  1.
<mgrwt>
<rscale>  0 0.15331134E+04</rscale>
<asrwt>0</asrwt>
<pdfrwt beam="1">  1        2 0.32887578E+00 0.15331134E+04</pdfrwt>
<pdfrwt beam="2">  1       -1 0.42289249E-01 0.15331134E+04</pdfrwt>
<totfact> 0.33802807E+01</totfact>
</mgrwt>
</event>
<event>
12    6  0.1530859E-007  0.1470790E+04  0.7818608E-02  0.8904113E-01
          2   -1    0    0  501    0  0.00000000000E+00  0.00000000000E+00  0.12787849531E+04  0.12787849531E+04  0.00000000000E+00 0. -1.
         -1   -1    0    0    0  501 -0.00000000000E+00 -0.00000000000E+00 -0.42290606630E+03  0.42290606630E+03  0.00000000000E+00 0.  1.
         24    2    1    2    0    0 -0.32490057949E+02  0.35746203314E+03  0.59555499247E+03  0.69929651909E+03  0.74129370406E+02 0.  0.
        254    2    1    2    0    0  0.32490057949E+02 -0.35746203314E+03  0.26032389431E+03  0.10023945003E+04  0.89899471369E+03 0.  0.
         23    2    4    4    0    0 -0.44779878807E+02 -0.17601033403E+02 -0.31055457129E+03  0.32729248186E+03  0.91439559350E+02 0.  0.
         23    2    4    4    0    0  0.77269936755E+02 -0.33986099974E+03  0.57087846560E+03  0.67510201841E+03  0.91566208383E+02 0.  0.
          2    1    3    3  502    0 -0.43661259742E+02  0.11374034184E+03  0.21909701138E+03  0.25069238393E+03  0.00000000000E+00 0. -1.
         -1    1    3    3    0  502  0.11171201793E+02  0.24372169130E+03  0.37645798109E+03  0.44860413516E+03  0.00000000000E+00 0.  1.
         11    1    5    5    0    0  0.15444346516E+02  0.20766978653E+02 -0.14033854667E+03  0.14270495059E+03  0.00000000000E+00 0. -1.
        -11    1    5    5    0    0 -0.60224225323E+02 -0.38368012055E+02 -0.17021602462E+03  0.18458753127E+03  0.00000000000E+00 0.  1.
          3    1    6    6  503    0  0.60967931719E+01 -0.21760363875E+03  0.31863180662E+03  0.38589473004E+03  0.00000000000E+00 0. -1.
         -3    1    6    6    0  503  0.71173143583E+02 -0.12225736099E+03  0.25224665898E+03  0.28920728837E+03  0.00000000000E+00 0.  1.
<mgrwt>
<rscale>  0 0.14707901E+04</rscale>
<asrwt>0</asrwt>
<pdfrwt beam="1">  1        2 0.19673614E+00 0.14707901E+04</pdfrwt>
<pdfrwt beam="2">  1       -1 0.65062473E-01 0.14707901E+04</pdfrwt>
<totfact> 0.44973809E+01</totfact>
</mgrwt>
</event>
<event>
12    6  0.1530859E-007  0.2199496E+04  0.7818608E-02  0.8518638E-01
          2   -1    0    0  501    0  0.00000000000E+00  0.00000000000E+00  0.19385552936E+04  0.19385552936E+04  0.00000000000E+00 0. -1.
         -1   -1    0    0    0  501 -0.00000000000E+00 -0.00000000000E+00 -0.62389046704E+03  0.62389046704E+03  0.00000000000E+00 0.  1.
         24    2    1    2    0    0  0.33020485854E+03 -0.55423156651E+03 -0.21369309664E+03  0.68205711327E+03  0.57699985087E+02 0.  0.
        254    2    1    2    0    0 -0.33020485854E+03  0.55423156651E+03  0.15283579232E+04  0.18803886473E+04  0.88531104468E+03 0.  0.
         23    2    4    4    0    0 -0.26460176973E+03  0.78381303281E+03  0.12583854876E+04  0.15086228952E+04  0.89621634559E+02 0.  0.
         23    2    4    4    0    0 -0.65603088811E+02 -0.22958146630E+03  0.26997243552E+03  0.37176575217E+03  0.91176990607E+02 0.  0.
          2    1    3    3  502    0  0.85702317806E+02 -0.13373382485E+03 -0.27382044229E+02  0.16118126297E+03  0.00000000000E+00 0. -1.
         -1    1    3    3    0  502  0.24450254074E+03 -0.42049774166E+03 -0.18631105241E+03  0.52087585029E+03  0.00000000000E+00 0.  1.
         11    1    5    5    0    0 -0.23836370006E+03  0.63416087547E+03  0.97823533935E+03  0.11899250601E+04  0.00000000000E+00 0. -1.
        -11    1    5    5    0    0 -0.26238069671E+02  0.14965215735E+03  0.28015014828E+03  0.31869783507E+03  0.00000000000E+00 0.  1.
          2    1    6    6  503    0 -0.77823478238E+02 -0.10655158622E+03  0.14060850788E+03  0.19282242292E+03  0.00000000000E+00 0. -1.
         -2    1    6    6    0  503  0.12220389427E+02 -0.12302988008E+03  0.12936392764E+03  0.17894332925E+03  0.00000000000E+00 0.  1.
<mgrwt>
<rscale>  0 0.21994965E+04</rscale>
<asrwt>0</asrwt>
<pdfrwt beam="1">  1        2 0.29823927E+00 0.21994965E+04</pdfrwt>
<pdfrwt beam="2">  1       -1 0.95983150E-01 0.21994965E+04</pdfrwt>
<totfact> 0.78680337E+00</totfact>
</mgrwt>
</event>
<event>
12    6  0.1530859E-007  0.1498538E+04  0.7818608E-02  0.8885426E-01
         -1   -1    0    0    0  501 -0.00000000000E+00  0.00000000000E+00  0.77294022367E+03  0.77294022367E+03  0.00000000000E+00 0.  1.
          2   -1    0    0  501    0  0.00000000000E+00 -0.00000000000E+00 -0.72632253344E+03  0.72632253344E+03  0.00000000000E+00 0. -1.
         24    2    1    2    0    0  0.31445704661E+03  0.12244934036E+03 -0.32329123613E+03  0.47417194771E+03  0.80279122536E+02 0.  0.
        254    2    1    2    0    0 -0.31445704661E+03 -0.12244934036E+03  0.36990892637E+03  0.10250908094E+04  0.89448391746E+03 0.  0.
         23    2    4    4    0    0 -0.45264740715E+03 -0.30443680414E+03 -0.31430539380E+02  0.55411256742E+03  0.92094601635E+02 0.  0.
         23    2    4    4    0    0  0.13819036054E+03  0.18198746378E+03  0.40133946575E+03  0.47097824198E+03  0.92364089005E+02 0.  0.
          4    1    3    3  502    0  0.25080248910E+03  0.84247894143E+02 -0.29076675443E+03  0.39312199339E+03  0.00000000000E+00 0. -1.
         -3    1    3    3    0  502  0.63654557513E+02  0.38201446214E+02 -0.32524481707E+02  0.81049954320E+02  0.00000000000E+00 0.  1.
         11    1    5    5    0    0 -0.34710914530E+02 -0.57768647801E+02 -0.11766915987E+02  0.68414359370E+02  0.00000000000E+00 0. -1.
        -11    1    5    5    0    0 -0.41793649262E+03 -0.24666815634E+03 -0.19663623393E+02  0.48569820805E+03  0.00000000000E+00 0.  1.
          4    1    6    6  503    0  0.88195673154E+02  0.17402503397E+03  0.30310050056E+03  0.36046234568E+03  0.00000000000E+00 0. -1.
         -4    1    6    6    0  503  0.49994687385E+02  0.79624298058E+01  0.98238965187E+02  0.11051589631E+03  0.00000000000E+00 0.  1.
<mgrwt>
<rscale>  0 0.14985378E+04</rscale>
<asrwt>0</asrwt>
<pdfrwt beam="1">  1        2 0.11174193E+00 0.14985378E+04</pdfrwt>
<pdfrwt beam="2">  1       -1 0.11891388E+00 0.14985378E+04</pdfrwt>
<totfact> 0.27313723E+01</totfact>
</mgrwt>
</event>
<event>
12    6  0.1530859E-007  0.1242174E+04  0.7818608E-02  0.9076722E-01
         -1   -1    0    0    0  501 -0.00000000000E+00  0.00000000000E+00  0.22134801594E+03  0.22134801594E+03  0.00000000000E+00 0.  1.
          2   -1    0    0  501    0  0.00000000000E+00 -0.00000000000E+00 -0.17427262703E+04  0.17427262703E+04  0.00000000000E+00 0. -1.
         24    2    1    2    0    0  0.16809489772E+03  0.88624591589E+01  0.49732013019E+01  0.18508020561E+03  0.76782237242E+02 0.  0.
        254    2    1    2    0    0 -0.16809489772E+03 -0.88624591589E+01 -0.15263514556E+04  0.17789940806E+04  0.89818524533E+03 0.  0.
         23    2    4    4    0    0 -0.48044821988E+03 -0.18149321783E+03 -0.10887145523E+04  0.12070270559E+04  0.88570069621E+02 0.  0.
         23    2    4    4    0    0  0.31235332217E+03  0.17263075867E+03 -0.43763690337E+03  0.57196702472E+03  0.90852856133E+02 0.  0.
          4    1    3    3  502    0  0.36421942955E+02  0.29397008994E+01 -0.31583799192E+02  0.48298407235E+02  0.00000000000E+00 0. -1.
         -3    1    3    3    0  502  0.13167295476E+03  0.59227582596E+01  0.36557000494E+02  0.13678179837E+03  0.00000000000E+00 0.  1.
         11    1    5    5    0    0 -0.46815099824E+03 -0.15704325250E+03 -0.10331288741E+04  0.11450690856E+04  0.00000000000E+00 0. -1.
        -11    1    5    5    0    0 -0.12297221644E+02 -0.24449965336E+02 -0.55585678171E+02  0.61957970292E+02  0.00000000000E+00 0.  1.
          3    1    6    6  503    0  0.18457270396E+03  0.50151261870E+02 -0.22651706898E+03  0.29646621166E+03  0.00000000000E+00 0. -1.
         -3    1    6    6    0  503  0.12778061821E+03  0.12247949680E+03 -0.21111983439E+03  0.27550081307E+03  0.00000000000E+00 0.  1.
<mgrwt>
<rscale>  0 0.12421739E+04</rscale>
<asrwt>0</asrwt>
<pdfrwt beam="1">  1        2 0.26811173E+00 0.12421739E+04</pdfrwt>
<pdfrwt beam="2">  1       -1 0.34053541E-01 0.12421739E+04</pdfrwt>
<totfact> 0.84833439E+01</totfact>
</mgrwt>
</event>
<event>
12    6  0.1530859E-007  0.1611218E+04  0.7818608E-02  0.8813686E-01
          2   -1    0    0  501    0  0.00000000000E+00  0.00000000000E+00  0.95774246992E+03  0.95774246992E+03  0.00000000000E+00 0. -1.
         -1   -1    0    0    0  501 -0.00000000000E+00 -0.00000000000E+00 -0.67764142834E+03  0.67764142834E+03  0.00000000000E+00 0.  1.
         24    2    1    2    0    0 -0.15616267119E+03  0.68274602964E+02 -0.43487173724E+03  0.47382248105E+03  0.79662503224E+02 0.  0.
        254    2    1    2    0    0  0.15616267119E+03 -0.68274602964E+02  0.71497277882E+03  0.11615614172E+04  0.89943907531E+03 0.  0.
         23    2    4    4    0    0 -0.10449190327E+03  0.33897211011E+03  0.11117158038E+03  0.38280557295E+03  0.91434879095E+02 0.  0.
         23    2    4    4    0    0  0.26065457445E+03 -0.40724671308E+03  0.60380119844E+03  0.77875584425E+03  0.89967134109E+02 0.  0.
          4    1    3    3  502    0 -0.25212290293E+02 -0.18277042336E+02 -0.74891193254E+02  0.81107340515E+02  0.00000000000E+00 0. -1.
         -3    1    3    3    0  502 -0.13095038090E+03  0.86551645300E+02 -0.35998054398E+03  0.39271514054E+03  0.00000000000E+00 0.  1.
         11    1    5    5    0    0 -0.47839088620E+02  0.28074387610E+03  0.92624371737E+02  0.29947450076E+03  0.00000000000E+00 0.  1.
        -11    1    5    5    0    0 -0.56652814646E+02  0.58228234017E+02  0.18547208643E+02  0.83331072191E+02  0.00000000000E+00 0. -1.
          3    1    6    6  503    0 -0.60523102089E+01 -0.69705552234E+01  0.43959886248E+01  0.10224666986E+02  0.00000000000E+00 0. -1.
         -3    1    6    6    0  503  0.26670688466E+03 -0.40027615785E+03  0.59940520982E+03  0.76853117727E+03  0.00000000000E+00 0.  1.
<mgrwt>
<rscale>  0 0.16112181E+04</rscale>
<asrwt>0</asrwt>
<pdfrwt beam="1">  1        2 0.14734500E+00 0.16112181E+04</pdfrwt>
<pdfrwt beam="2">  1       -1 0.10425253E+00 0.16112181E+04</pdfrwt>
<totfact> 0.25400839E+01</totfact>
</mgrwt>
</event>
<event>
12    6  0.1530859E-007  0.1221255E+04  0.7818608E-02  0.9094453E-01
         -1   -1    0    0    0  501 -0.00000000000E+00  0.00000000000E+00  0.29752855702E+03  0.29752855702E+03  0.00000000000E+00 0.  1.
          2   -1    0    0  501    0  0.00000000000E+00 -0.00000000000E+00 -0.12532097645E+04  0.12532097645E+04  0.00000000000E+00 0. -1.
         24    2    1    2    0    0  0.18502467722E+03  0.19443127773E+03 -0.22115022909E+03  0.35816900901E+03  0.85673579617E+02 0.  0.
        254    2    1    2    0    0 -0.18502467722E+03 -0.19443127773E+03 -0.73453097837E+03  0.11925693125E+04  0.90036001355E+03 0.  0.
         23    2    4    4    0    0  0.91220500554E+02 -0.31554778654E+03  0.51938714685E+02  0.34506387593E+03  0.92086172008E+02 0.  0.
         23    2    4    4    0    0 -0.27624517778E+03  0.12111650881E+03 -0.78646969305E+03  0.84750543657E+03  0.93542931227E+02 0.  0.
          4    1    3    3  502    0  0.19181653896E+03  0.19399009681E+03 -0.22141899389E+03  0.35135752892E+03  0.00000000000E+00 0. -1.
         -3    1    3    3    0  502 -0.67918617363E+01  0.44118092621E+00  0.26876479248E+00  0.68114800865E+01  0.00000000000E+00 0.  1.
         11    1    5    5    0    0  0.52952425016E+02 -0.20485019960E+03  0.77231913186E+02  0.22523838928E+03  0.00000000000E+00 0. -1.
        -11    1    5    5    0    0  0.38268075537E+02 -0.11069758694E+03 -0.25293198501E+02  0.11982548664E+03  0.00000000000E+00 0.  1.
          4    1    6    6  503    0 -0.66509625017E+02 -0.18212535689E+01 -0.24668541446E+03  0.25550056926E+03  0.00000000000E+00 0. -1.
         -4    1    6    6    0  503 -0.20973555276E+03  0.12293776237E+03 -0.53978427859E+03  0.59200486732E+03  0.00000000000E+00 0.  1.
<mgrwt>
<rscale>  0 0.12212546E+04</rscale>
<asrwt>0</asrwt>
<pdfrwt beam="1">  1        2 0.19280151E+00 0.12212546E+04</pdfrwt>
<pdfrwt beam="2">  1       -1 0.45773623E-01 0.12212546E+04</pdfrwt>
<totfact> 0.93791386E+01</totfact>
</mgrwt>
</event>
<event>
12    6  0.1530859E-007  0.1901197E+04  0.7818608E-02  0.8654261E-01
          2   -1    0    0  501    0  0.00000000000E+00  0.00000000000E+00  0.72250285288E+03  0.72250285288E+03  0.00000000000E+00 0. -1.
         -1   -1    0    0    0  501 -0.00000000000E+00 -0.00000000000E+00 -0.12507048795E+04  0.12507048795E+04  0.00000000000E+00 0.  1.
         24    2    1    2    0    0 -0.62768061068E+02 -0.69447872801E+03  0.25303201668E+02  0.70260235441E+03  0.82275654126E+02 0.  0.
        254    2    1    2    0    0  0.62768061068E+02  0.69447872801E+03 -0.55350522834E+03  0.12706053780E+04  0.90654809895E+03 0.  0.
         23    2    4    4    0    0 -0.47876160545E+02  0.11278270529E+03  0.23502089539E+03  0.28010178488E+03  0.90609730516E+02 0.  0.
         23    2    4    4    0    0  0.11064422161E+03  0.58169602272E+03 -0.78852612373E+03  0.99050359314E+03  0.93335489491E+02 0.  0.
          4    1    3    3  502    0 -0.76139600651E+02 -0.66868993028E+03  0.22054747386E+02  0.67337201719E+03  0.00000000000E+00 0. -1.
         -3    1    3    3    0  502  0.13371539583E+02 -0.25788797727E+02  0.32484542829E+01  0.29230337224E+02  0.00000000000E+00 0.  1.
         11    1    5    5    0    0  0.23431616734E+02  0.26112026151E+02  0.29102991832E+02  0.45583579347E+02  0.00000000000E+00 0. -1.
        -11    1    5    5    0    0 -0.71307777279E+02  0.86670679141E+02  0.20591790356E+03  0.23451820554E+03  0.00000000000E+00 0.  1.
          4    1    6    6  503    0 -0.82720709513E+01  0.45891837564E+02 -0.35090075041E+02  0.58359243306E+02  0.00000000000E+00 0. -1.
         -4    1    6    6    0  503  0.11891629256E+03  0.53580418515E+03 -0.75343604869E+03  0.93214434983E+03  0.00000000000E+00 0.  1.
<mgrwt>
<rscale>  0 0.19011974E+04</rscale>
<asrwt>0</asrwt>
<pdfrwt beam="1">  1        2 0.11115428E+00 0.19011974E+04</pdfrwt>
<pdfrwt beam="2">  1       -1 0.19241614E+00 0.19011974E+04</pdfrwt>
<totfact> 0.71488117E+00</totfact>
</mgrwt>
</event>
<event>
12    6  0.1530859E-007  0.2212372E+04  0.7818608E-02  0.8513296E-01
          2   -1    0    0  501    0  0.00000000000E+00  0.00000000000E+00  0.13042629498E+04  0.13042629498E+04  0.00000000000E+00 0. -1.
         -1   -1    0    0    0  501 -0.00000000000E+00 -0.00000000000E+00 -0.93819042058E+03  0.93819042058E+03  0.00000000000E+00 0.  1.
         24    2    1    2    0    0  0.63606399431E+03  0.50766666112E+03 -0.27467963761E+03  0.86266877674E+03  0.80284938613E+02 0.  0.
        254    2    1    2    0    0 -0.63606399431E+03 -0.50766666112E+03  0.64075216685E+03  0.13797845937E+04  0.91155874298E+03 0.  0.
         23    2    4    4    0    0  0.22405025225E+03 -0.14796026689E+03  0.17923666905E+03  0.33538138059E+03  0.90907264858E+02 0.  0.
         23    2    4    4    0    0 -0.86011424656E+03 -0.35970639423E+03  0.46151549779E+03  0.10444032131E+04  0.92716285371E+02 0.  0.
          4    1    3    3  502    0  0.57914542986E+01  0.15091586659E+02  0.19144009784E+01  0.16277649151E+02  0.00000000000E+00 0. -1.
         -3    1    3    3    0  502  0.63027254001E+03  0.49257507446E+03 -0.27659403859E+03  0.84639112759E+03  0.00000000000E+00 0.  1.
         11    1    5    5    0    0  0.72605105186E+02 -0.88782232126E+02  0.10913424219E+03  0.15831635689E+03  0.00000000000E+00 0. -1.
        -11    1    5    5    0    0  0.15144514706E+03 -0.59178034765E+02  0.70102426866E+02  0.17706502371E+03  0.00000000000E+00 0.  1.
          1    1    6    6  503    0 -0.70648506267E+03 -0.25551873699E+03  0.36943831061E+03  0.83719509917E+03  0.00000000000E+00 0. -1.
         -1    1    6    6    0  503 -0.15362918389E+03 -0.10418765725E+03  0.92077187185E+02  0.20720811390E+03  0.00000000000E+00 0.  1.
<mgrwt>
<rscale>  0 0.22123716E+04</rscale>
<asrwt>0</asrwt>
<pdfrwt beam="1">  1        2 0.20065584E+00 0.22123716E+04</pdfrwt>
<pdfrwt beam="2">  1       -1 0.14433699E+00 0.22123716E+04</pdfrwt>
<totfact> 0.66162345E+00</totfact>
</mgrwt>
</event>
<event>
12    6  0.1530859E-007  0.2600346E+04  0.7818608E-02  0.8368084E-01
         -1   -1    0    0    0  501 -0.00000000000E+00  0.00000000000E+00  0.42303373783E+03  0.42303373783E+03  0.00000000000E+00 0.  1.
          2   -1    0    0  501    0  0.00000000000E+00 -0.00000000000E+00 -0.39960172046E+04  0.39960172046E+04  0.00000000000E+00 0. -1.
         24    2    1    2    0    0  0.32402678542E+02 -0.10825432520E+04 -0.22191296175E+04  0.24705817444E+04  0.79297355773E+02 0.  0.
        254    2    1    2    0    0 -0.32402678542E+02  0.10825432520E+04 -0.13538538493E+04  0.19484691980E+04  0.88919184898E+03 0.  0.
         23    2    4    4    0    0 -0.25005846897E+03  0.34633752949E+03 -0.59888737634E+02  0.44111970754E+03  0.92309334567E+02 0.  0.
         23    2    4    4    0    0  0.21765579043E+03  0.73620572254E+03 -0.12939651117E+04  0.15073494905E+04  0.91563460212E+02 0.  0.
          4    1    3    3  502    0 -0.96753481309E+01 -0.28681505220E+03 -0.52167452555E+03  0.59539969528E+03  0.00000000000E+00 0. -1.
         -3    1    3    3    0  502  0.42078026673E+02 -0.79572819983E+03 -0.16974550919E+04  0.18751820492E+04  0.00000000000E+00 0.  1.
         11    1    5    5    0    0 -0.17307403477E+03  0.18491501019E+03 -0.24664266088E+01  0.25328692379E+03  0.00000000000E+00 0.  1.
        -11    1    5    5    0    0 -0.76984434203E+02  0.16142251930E+03 -0.57422311025E+02  0.18783278375E+03  0.00000000000E+00 0. -1.
          2    1    6    6  503    0  0.14698935977E+02  0.16242515173E+03 -0.31243550943E+03  0.35243997529E+03  0.00000000000E+00 0. -1.
         -2    1    6    6    0  503  0.20295685445E+03  0.57378057081E+03 -0.98152960224E+03  0.11549095152E+04  0.00000000000E+00 0.  1.
<mgrwt>
<rscale>  0 0.26003462E+04</rscale>
<asrwt>0</asrwt>
<pdfrwt beam="1">  1        2 0.61477188E+00 0.26003462E+04</pdfrwt>
<pdfrwt beam="2">  1       -1 0.65082113E-01 0.26003462E+04</pdfrwt>
<totfact> 0.83173017E-01</totfact>
</mgrwt>
</event>
<event>
12    6  0.1530859E-007  0.2247975E+04  0.7818608E-02  0.8498721E-01
          2   -1    0    0  501    0  0.00000000000E+00  0.00000000000E+00  0.20474339055E+04  0.20474339055E+04  0.00000000000E+00 0. -1.
         -1   -1    0    0    0  501 -0.00000000000E+00 -0.00000000000E+00 -0.61703948892E+03  0.61703948892E+03  0.00000000000E+00 0.  1.
         24    2    1    2    0    0 -0.24465058817E+03 -0.82904004745E+03  0.96697084444E+03  0.12994688825E+04  0.80158917189E+02 0.  0.
        254    2    1    2    0    0  0.24465058817E+03  0.82904004745E+03  0.46342357212E+03  0.13650045119E+04  0.94937590016E+03 0.  0.
         23    2    4    4    0    0  0.44687356709E+03  0.31106932147E+03  0.56820236014E+03  0.79229265037E+03  0.91725754481E+02 0.  0.
         23    2    4    4    0    0 -0.20222297892E+03  0.51797072597E+03 -0.10477878802E+03  0.57271186155E+03  0.88501275537E+02 0.  0.
          4    1    3    3  502    0 -0.18200057046E+03 -0.62709871915E+03  0.77982610257E+03  0.10171065635E+04  0.00000000000E+00 0. -1.
         -3    1    3    3    0  502 -0.62650017701E+02 -0.20194132829E+03  0.18714474187E+03  0.28236231902E+03  0.00000000000E+00 0.  1.
         11    1    5    5    0    0  0.40615126041E+02  0.42465142160E+02  0.28423688129E+02  0.65274672031E+02  0.00000000000E+00 0. -1.
        -11    1    5    5    0    0  0.40625844105E+03  0.26860417931E+03  0.53977867201E+03  0.72701797834E+03  0.00000000000E+00 0.  1.
          3    1    6    6  503    0 -0.57851912664E+02  0.23000845584E+03 -0.11933673940E+02  0.23747241130E+03  0.00000000000E+00 0. -1.
         -3    1    6    6    0  503 -0.14437106626E+03  0.28796227013E+03 -0.92845114079E+02  0.33523945025E+03  0.00000000000E+00 0.  1.
<mgrwt>
<rscale>  0 0.22479747E+04</rscale>
<asrwt>0</asrwt>
<pdfrwt beam="1">  1        2 0.31498983E+00 0.22479747E+04</pdfrwt>
<pdfrwt beam="2">  1       -1 0.94929153E-01 0.22479747E+04</pdfrwt>
<totfact> 0.69865820E+00</totfact>
</mgrwt>
</event>
<event>
12    6  0.1530859E-007  0.1666656E+04  0.7818608E-02  0.8780613E-01
         -1   -1    0    0    0  501 -0.00000000000E+00  0.00000000000E+00  0.25246756799E+03  0.25246756799E+03  0.00000000000E+00 0.  1.
          2   -1    0    0  501    0  0.00000000000E+00 -0.00000000000E+00 -0.27505931957E+04  0.27505931957E+04  0.00000000000E+00 0. -1.
         24    2    1    2    0    0 -0.30007131462E+03  0.35743557300E+03 -0.24393916083E+03  0.53386419499E+03  0.87759226293E+02 0.  0.
        254    2    1    2    0    0  0.30007131462E+03 -0.35743557300E+03 -0.22541864669E+04  0.24691965688E+04  0.89318088021E+03 0.  0.
         23    2    4    4    0    0 -0.25205173565E+03 -0.79654901912E+02 -0.27001000965E+03  0.38877903443E+03  0.91480880299E+02 0.  0.
         23    2    4    4    0    0  0.55212305028E+03 -0.27778067109E+03 -0.19841764573E+04  0.20804175343E+04  0.95806782760E+02 0.  0.
          2    1    3    3  502    0 -0.47656268723E+01  0.41674398279E+02 -0.14215546019E+02  0.44289371412E+02  0.00000000000E+00 0. -1.
         -3    1    3    3    0  502 -0.29530568775E+03  0.31576117472E+03 -0.22972361482E+03  0.48957482358E+03  0.00000000000E+00 0.  1.
         11    1    5    5    0    0 -0.16872183230E+03 -0.93708736182E+02 -0.16444584650E+03  0.25355634554E+03  0.00000000000E+00 0. -1.
        -11    1    5    5    0    0 -0.83329903349E+02  0.14053834271E+02 -0.10556416316E+03  0.13522268890E+03  0.00000000000E+00 0.  1.
          3    1    6    6  503    0  0.17771622530E+03 -0.14006660580E+03 -0.74579052201E+03  0.77936205548E+03  0.00000000000E+00 0.  1.
         -3    1    6    6    0  503  0.37440682497E+03 -0.13771406529E+03 -0.12383859353E+04  0.13010554788E+04  0.00000000000E+00 0. -1.
<mgrwt>
<rscale>  0 0.16666560E+04</rscale>
<asrwt>0</asrwt>
<pdfrwt beam="1">  1        2 0.42316819E+00 0.16666560E+04</pdfrwt>
<pdfrwt beam="2">  1       -1 0.38841164E-01 0.16666560E+04</pdfrwt>
<totfact> 0.17349214E+01</totfact>
</mgrwt>
</event>
<event>
12    6  0.1530859E-007  0.1610107E+04  0.7818608E-02  0.8814363E-01
          2   -1    0    0  501    0  0.00000000000E+00  0.00000000000E+00  0.18289009285E+04  0.18289009285E+04  0.00000000000E+00 0. -1.
         -3   -1    0    0    0  501 -0.00000000000E+00 -0.00000000000E+00 -0.35437175742E+03  0.35437175742E+03  0.00000000000E+00 0.  1.
         24    2    1    2    0    0 -0.34695987572E+03  0.71350604281E+02  0.11660244724E+04  0.12218890301E+04  0.89037450944E+02 0.  0.
        254    2    1    2    0    0  0.34695987572E+03 -0.71350604281E+02  0.30850469869E+03  0.96138365577E+03  0.83881542689E+03 0.  0.
         23    2    4    4    0    0  0.27621956642E+03  0.31675568673E+03 -0.33031050906E+02  0.43151103207E+03  0.92083150071E+02 0.  0.
         23    2    4    4    0    0  0.70740309303E+02 -0.38810629101E+03  0.34153574960E+03  0.52987262370E+03  0.92128413704E+02 0.  0.
          2    1    3    3  502    0 -0.28857824572E+03  0.36919946661E+02  0.84179687966E+03  0.89065283527E+03  0.00000000000E+00 0. -1.
         -1    1    3    3    0  502 -0.58381630000E+02  0.34430657619E+02  0.32422759273E+03  0.33123619487E+03  0.00000000000E+00 0.  1.
         11    1    5    5    0    0  0.28351494080E+03  0.30510108985E+03 -0.32151464997E+02  0.41773330414E+03  0.00000000000E+00 0.  1.
        -11    1    5    5    0    0 -0.72953743763E+01  0.11654596881E+02 -0.87958590904E+00  0.13777727938E+02  0.00000000000E+00 0. -1.
          4    1    6    6  503    0  0.39352677458E+02 -0.46675735161E+02  0.37723217319E+02  0.71765580893E+02  0.00000000000E+00 0. -1.
         -4    1    6    6    0  503  0.31387631845E+02 -0.34143055585E+03  0.30381253228E+03  0.45810704281E+03  0.00000000000E+00 0.  1.
<mgrwt>
<rscale>  0 0.16101066E+04</rscale>
<asrwt>0</asrwt>
<pdfrwt beam="1">  1        2 0.28136937E+00 0.16101066E+04</pdfrwt>
<pdfrwt beam="2">  1       -3 0.54518733E-01 0.16101066E+04</pdfrwt>
<totfact> 0.16959688E+01</totfact>
</mgrwt>
</event>
<event>
12    6  0.1530859E-007  0.1757543E+04  0.7818608E-02  0.8729209E-01
          2   -1    0    0  501    0  0.00000000000E+00  0.00000000000E+00  0.29108690287E+04  0.29108690287E+04  0.00000000000E+00 0. -1.
         -1   -1    0    0    0  501 -0.00000000000E+00 -0.00000000000E+00 -0.26529521298E+03  0.26529521298E+03  0.00000000000E+00 0.  1.
         24    2    1    2    0    0  0.33026434139E+03  0.52350997045E+03  0.66161491550E+03  0.90948054377E+03  0.79267513811E+02 0.  0.
        254    2    1    2    0    0 -0.33026434139E+03 -0.52350997045E+03  0.19839589003E+04  0.22666836980E+04  0.90477889249E+03 0.  0.
         23    2    4    4    0    0 -0.29913902803E+03  0.72457035798E+02  0.13625641340E+04  0.13999177306E+04  0.91948099379E+02 0.  0.
         23    2    4    4    0    0 -0.31125313365E+02 -0.59596700624E+03  0.62139476623E+03  0.86676596735E+03  0.94901680687E+02 0.  0.
          4    1    3    3  502    0  0.42825259771E+02  0.37565853040E+02  0.39231514757E+02  0.69168691900E+02  0.00000000000E+00 0. -1.
         -3    1    3    3    0  502  0.28743908162E+03  0.48594411741E+03  0.62238340074E+03  0.84031185187E+03  0.00000000000E+00 0.  1.
         11    1    5    5    0    0 -0.29873559228E+03  0.74279326334E+02  0.13635089333E+04  0.13978258059E+04  0.00000000000E+00 0. -1.
        -11    1    5    5    0    0 -0.40343574943E+00 -0.18222905359E+01 -0.94479929453E+00  0.20919246899E+01  0.00000000000E+00 0.  1.
          1    1    6    6  503    0 -0.40388594498E+02 -0.14408038828E+03  0.12074314978E+03  0.19227403639E+03  0.00000000000E+00 0. -1.
         -1    1    6    6    0  503  0.92632811332E+01 -0.45188661796E+03  0.50065161645E+03  0.67449193096E+03  0.00000000000E+00 0.  1.
<mgrwt>
<rscale>  0 0.17575433E+04</rscale>
<asrwt>0</asrwt>
<pdfrwt beam="1">  1        2 0.44782598E+00 0.17575433E+04</pdfrwt>
<pdfrwt beam="2">  1       -1 0.40814650E-01 0.17575433E+04</pdfrwt>
<totfact> 0.12568639E+01</totfact>
</mgrwt>
</event>
<event>
12    6  0.1530859E-007  0.1874802E+04  0.7818608E-02  0.8667501E-01
          2   -1    0    0  501    0  0.00000000000E+00  0.00000000000E+00  0.25875161884E+04  0.25875161884E+04  0.00000000000E+00 0. -1.
         -1   -1    0    0    0  501 -0.00000000000E+00 -0.00000000000E+00 -0.33960019460E+03  0.33960019460E+03  0.00000000000E+00 0.  1.
         24    2    1    2    0    0 -0.21875413426E+03 -0.68857478216E+03  0.72791725168E+03  0.10286917540E+04  0.79715729352E+02 0.  0.
        254    2    1    2    0    0  0.21875413426E+03  0.68857478216E+03  0.15199987421E+04  0.18984246290E+04  0.87842546307E+03 0.  0.
         23    2    4    4    0    0  0.16214206362E+03 -0.18183908879E+03  0.33153837056E+03  0.42128427738E+03  0.90593864064E+02 0.  0.
         23    2    4    4    0    0  0.56612070634E+02  0.87041387096E+03  0.11884603716E+04  0.14771403517E+04  0.93168290714E+02 0.  0.
          2    1    3    3  502    0 -0.14680695482E+03 -0.55462867862E+03  0.59779353456E+03  0.82856645062E+03  0.00000000000E+00 0. -1.
         -1    1    3    3    0  502 -0.71947179442E+02 -0.13394610354E+03  0.13012371712E+03  0.20012530335E+03  0.00000000000E+00 0.  1.
         11    1    5    5    0    0  0.13259033703E+03 -0.90975541113E+02  0.24053297396E+03  0.28933174405E+03  0.00000000000E+00 0. -1.
        -11    1    5    5    0    0  0.29551726597E+02 -0.90863547681E+02  0.91005396598E+02  0.13195253333E+03  0.00000000000E+00 0.  1.
          4    1    6    6  503    0  0.15516542527E+01  0.39527173204E+03  0.47149547081E+03  0.61526427556E+03  0.00000000000E+00 0. -1.
         -4    1    6    6    0  503  0.55060416382E+02  0.47514213891E+03  0.71696490077E+03  0.86187607610E+03  0.00000000000E+00 0.  1.
<mgrwt>
<rscale>  0 0.18748024E+04</rscale>
<asrwt>0</asrwt>
<pdfrwt beam="1">  1        2 0.39807940E+00 0.18748024E+04</pdfrwt>
<pdfrwt beam="2">  1       -1 0.52246185E-01 0.18748024E+04</pdfrwt>
<totfact> 0.12216440E+01</totfact>
</mgrwt>
</event>
<event>
12    6  0.1530859E-007  0.1679149E+04  0.7818608E-02  0.8773347E-01
          2   -1    0    0  501    0  0.00000000000E+00  0.00000000000E+00  0.22057842219E+04  0.22057842219E+04  0.00000000000E+00 0. -1.
         -1   -1    0    0    0  501 -0.00000000000E+00 -0.00000000000E+00 -0.31956228205E+03  0.31956228205E+03  0.00000000000E+00 0.  1.
         24    2    1    2    0    0  0.12626497094E+02  0.46350819194E+03  0.11919871267E+04  0.12815513340E+04  0.80877926899E+02 0.  0.
        254    2    1    2    0    0 -0.12626497094E+02 -0.46350819194E+03  0.69423481315E+03  0.12437951700E+04  0.92198979201E+03 0.  0.
         23    2    4    4    0    0  0.49583149737E+02  0.11155837515E+03  0.63846016330E+03  0.65645673422E+03  0.91653172200E+02 0.  0.
         23    2    4    4    0    0 -0.62209646831E+02 -0.57506656710E+03  0.55774649852E+02  0.58733843573E+03  0.85346527599E+02 0.  0.
          2    1    3    3  502    0  0.27214634715E+02  0.12855030805E+03  0.26484399939E+03  0.29564871395E+03  0.00000000000E+00 0. -1.
         -1    1    3    3    0  502 -0.14588137621E+02  0.33495788389E+03  0.92714312731E+03  0.98590262007E+03  0.00000000000E+00 0.  1.
         11    1    5    5    0    0  0.46869512510E+02  0.27346386598E+02  0.12706034211E+03  0.13816260927E+03  0.00000000000E+00 0.  1.
        -11    1    5    5    0    0  0.27136372266E+01  0.84211988556E+02  0.51139982119E+03  0.51829412495E+03  0.00000000000E+00 0. -1.
          4    1    6    6  503    0 -0.62512357372E+02 -0.57444302453E+03  0.61930510280E+02  0.58114367532E+03  0.00000000000E+00 0. -1.
         -4    1    6    6    0  503  0.30271054143E+00 -0.62354256403E+00 -0.61558604282E+01  0.61947604161E+01  0.00000000000E+00 0.  1.
<mgrwt>
<rscale>  0 0.16791491E+04</rscale>
<asrwt>0</asrwt>
<pdfrwt beam="1">  1        2 0.33935141E+00 0.16791491E+04</pdfrwt>
<pdfrwt beam="2">  1       -1 0.49163429E-01 0.16791491E+04</pdfrwt>
<totfact> 0.23072091E+01</totfact>
</mgrwt>
</event>
<event>
12    6  0.1530859E-007  0.2518447E+04  0.7818608E-02  0.8396443E-01
         -1   -1    0    0    0  501 -0.00000000000E+00  0.00000000000E+00  0.83380155873E+03  0.83380155873E+03  0.00000000000E+00 0.  1.
          2   -1    0    0  501    0  0.00000000000E+00 -0.00000000000E+00 -0.19017041107E+04  0.19017041107E+04  0.00000000000E+00 0. -1.
         24    2    1    2    0    0  0.72277596103E+03  0.10879023494E+03  0.41882426138E+03  0.84615317570E+03  0.79504904072E+02 0.  0.
        254    2    1    2    0    0 -0.72277596103E+03 -0.10879023494E+03 -0.14867268133E+04  0.18893524937E+04  0.90832583524E+03 0.  0.
         23    2    4    4    0    0 -0.59585129343E+03  0.26576814768E+03 -0.51445833935E+03  0.83582582501E+03  0.90917295516E+02 0.  0.
         23    2    4    4    0    0 -0.12692466760E+03 -0.37455838262E+03 -0.97226847400E+03  0.10535266687E+04  0.90601340701E+02 0.  0.
          2    1    3    3  502    0  0.10717293226E+03  0.16493540983E+02  0.96562768983E+02  0.14519794302E+03  0.00000000000E+00 0. -1.
         -1    1    3    3    0  502  0.61560302877E+03  0.92296693961E+02  0.32226149240E+03  0.70095523268E+03  0.00000000000E+00 0.  1.
         11    1    5    5    0    0 -0.53925932170E+02  0.11421407094E+01 -0.26696854594E+02  0.60183325689E+02  0.00000000000E+00 0. -1.
        -11    1    5    5    0    0 -0.54192536126E+03  0.26462600697E+03 -0.48776148475E+03  0.77564249932E+03  0.00000000000E+00 0.  1.
          1    1    6    6  503    0 -0.86725083320E+01 -0.12054212816E+03 -0.37077362692E+03  0.38997269069E+03  0.00000000000E+00 0. -1.
         -1    1    6    6    0  503 -0.11825215927E+03 -0.25401625446E+03 -0.60149484707E+03  0.66355397803E+03  0.00000000000E+00 0.  1.
<mgrwt>
<rscale>  0 0.25184470E+04</rscale>
<asrwt>0</asrwt>
<pdfrwt beam="1">  1        2 0.29256986E+00 0.25184470E+04</pdfrwt>
<pdfrwt beam="2">  1       -1 0.12827716E+00 0.25184470E+04</pdfrwt>
<totfact> 0.40275671E+00</totfact>
</mgrwt>
</event>
<event>
12    6  0.1530859E-007  0.2465599E+04  0.7818608E-02  0.8415345E-01
          2   -1    0    0  501    0  0.00000000000E+00  0.00000000000E+00  0.28773523749E+04  0.28773523749E+04  0.00000000000E+00 0. -1.
         -3   -1    0    0    0  501 -0.00000000000E+00 -0.00000000000E+00 -0.52819200090E+03  0.52819200090E+03  0.00000000000E+00 0.  1.
         24    2    1    2    0    0 -0.36592215372E+03 -0.41812540090E+03  0.22722185967E+04  0.23405532932E+04  0.80526353194E+02 0.  0.
        254    2    1    2    0    0  0.36592215372E+03  0.41812540090E+03  0.76941777330E+02  0.10649910827E+04  0.90529448004E+03 0.  0.
         23    2    4    4    0    0  0.50284809492E+03  0.29012888416E+03 -0.28118167081E+03  0.65150975128E+03  0.91492338639E+02 0.  0.
         23    2    4    4    0    0 -0.13692594120E+03  0.12799651674E+03  0.35812344814E+03  0.41348133138E+03  0.87078043268E+02 0.  0.
          2    1    3    3  502    0 -0.32763413759E+03 -0.35472802835E+03  0.20580355792E+04  0.21139268075E+04  0.00000000000E+00 0. -1.
         -1    1    3    3    0  502 -0.38288016128E+02 -0.63397372548E+02  0.21418301745E+03  0.22662648563E+03  0.00000000000E+00 0.  1.
         11    1    5    5    0    0  0.48634036210E+03  0.26015343714E+03 -0.27648379274E+03  0.61696843218E+03  0.00000000000E+00 0.  1.
        -11    1    5    5    0    0  0.16507732826E+02  0.29975447020E+02 -0.46978780694E+01  0.34541319104E+02  0.00000000000E+00 0. -1.
          4    1    6    6  503    0 -0.10523871324E+03  0.10807327535E+03  0.19729815712E+03  0.24835777099E+03  0.00000000000E+00 0.  1.
         -4    1    6    6    0  503 -0.31687227964E+02  0.19923241396E+02  0.16082529102E+03  0.16512356039E+03  0.00000000000E+00 0. -1.
<mgrwt>
<rscale>  0 0.24655989E+04</rscale>
<asrwt>0</asrwt>
<pdfrwt beam="1">  1        2 0.44266959E+00 0.24655989E+04</pdfrwt>
<pdfrwt beam="2">  1       -3 0.81260310E-01 0.24655989E+04</pdfrwt>
<totfact> 0.16714413E+00</totfact>
</mgrwt>
</event>
<event>
12    6  0.1530859E-007  0.4442962E+04  0.7818608E-02  0.7920699E-01
          2   -1    0    0  501    0  0.00000000000E+00  0.00000000000E+00  0.36341226941E+04  0.36341226941E+04  0.00000000000E+00 0. -1.
         -1   -1    0    0    0  501 -0.00000000000E+00 -0.00000000000E+00 -0.13579560222E+04  0.13579560222E+04  0.00000000000E+00 0.  1.
         24    2    1    2    0    0  0.37470394338E+03  0.18440385991E+04 -0.28004291415E+02  0.18835997573E+04  0.79261623743E+02 0.  0.
        254    2    1    2    0    0 -0.37470394338E+03 -0.18440385991E+04  0.23041709633E+04  0.31084789590E+04  0.90141899789E+03 0.  0.
         23    2    4    4    0    0 -0.22281815688E+03 -0.16586958683E+04  0.14485098252E+04  0.22150790977E+04  0.86456815310E+02 0.  0.
         23    2    4    4    0    0 -0.15188578650E+03 -0.18534273081E+03  0.85566113816E+03  0.89339986124E+03  0.92661257824E+02 0.  0.
          4    1    3    3  502    0  0.37268012145E+02  0.12481529785E+03  0.14457586138E+02  0.13106023464E+03  0.00000000000E+00 0. -1.
         -3    1    3    3    0  502  0.33743593124E+03  0.17192233013E+04 -0.42461877553E+02  0.17525395226E+04  0.00000000000E+00 0.  1.
         11    1    5    5    0    0 -0.74808507380E+01 -0.19659235805E+03  0.19817136076E+03  0.27924255871E+03  0.00000000000E+00 0.  1.
        -11    1    5    5    0    0 -0.21533730615E+03 -0.14621035103E+04  0.12503384644E+04  0.19358365390E+04  0.00000000000E+00 0. -1.
          3    1    6    6  503    0 -0.12932895997E+03 -0.18845383893E+03  0.70761034591E+03  0.74360825098E+03  0.00000000000E+00 0. -1.
         -3    1    6    6    0  503 -0.22556826530E+02  0.31111081200E+01  0.14805079225E+03  0.14979161026E+03  0.00000000000E+00 0.  1.
<mgrwt>
<rscale>  0 0.44429624E+04</rscale>
<asrwt>0</asrwt>
<pdfrwt beam="1">  1        2 0.55909579E+00 0.44429624E+04</pdfrwt>
<pdfrwt beam="2">  1       -1 0.20891631E+00 0.44429624E+04</pdfrwt>
<totfact> 0.73505616E-02</totfact>
</mgrwt>
</event>
<event>
12    6  0.1530859E-007  0.1699303E+04  0.7818608E-02  0.8761762E-01
         -1   -1    0    0    0  501 -0.00000000000E+00  0.00000000000E+00  0.50656571722E+03  0.50656571722E+03  0.00000000000E+00 0.  1.
          2   -1    0    0  501    0  0.00000000000E+00 -0.00000000000E+00 -0.14251018599E+04  0.14251018599E+04  0.00000000000E+00 0. -1.
         24    2    1    2    0    0 -0.24366504168E+03 -0.44977940527E+03 -0.71548398124E+03  0.88305051062E+03  0.78655647907E+02 0.  0.
        254    2    1    2    0    0  0.24366504168E+03  0.44977940527E+03 -0.20305216142E+03  0.10486170665E+04  0.89257683474E+03 0.  0.
         23    2    4    4    0    0 -0.31154086692E+03  0.16764191141E+03  0.54360389670E+02  0.36889790454E+03  0.89269758539E+02 0.  0.
         23    2    4    4    0    0  0.55520590860E+03  0.28213749386E+03 -0.25741255110E+03  0.67971916194E+03  0.88891795219E+02 0.  0.
          4    1    3    3  502    0 -0.18719034203E+03 -0.37461382509E+03 -0.62666153931E+03  0.75371110311E+03  0.00000000000E+00 0. -1.
         -3    1    3    3    0  502 -0.56474699656E+02 -0.75165580176E+02 -0.88822441937E+02  0.12933940751E+03  0.00000000000E+00 0.  1.
         11    1    5    5    0    0 -0.87614961859E+02  0.86844295924E+02  0.42743669398E+02  0.13055778242E+03  0.00000000000E+00 0.  1.
        -11    1    5    5    0    0 -0.22392590506E+03  0.80797615483E+02  0.11616720273E+02  0.23834012213E+03  0.00000000000E+00 0. -1.
          1    1    6    6  503    0  0.53789095565E+03  0.25383225016E+03 -0.25259443442E+03  0.64618994088E+03  0.00000000000E+00 0. -1.
         -1    1    6    6    0  503  0.17314952953E+02  0.28305243699E+02 -0.48181166713E+01  0.33529221060E+02  0.00000000000E+00 0.  1.
<mgrwt>
<rscale>  0 0.16993031E+04</rscale>
<asrwt>0</asrwt>
<pdfrwt beam="1">  1        2 0.21924644E+00 0.16993031E+04</pdfrwt>
<pdfrwt beam="2">  1       -1 0.77933188E-01 0.16993031E+04</pdfrwt>
<totfact> 0.25039501E+01</totfact>
</mgrwt>
</event>
<event>
12    6  0.1781046E-007  0.1445607E+04  0.7818608E-02  0.8921452E-01
         -1   -1    0    0    0  501 -0.00000000000E+00  0.00000000000E+00  0.26306805404E+03  0.26306805404E+03  0.00000000000E+00 0.  1.
          2   -1    0    0  501    0  0.00000000000E+00 -0.00000000000E+00 -0.19859677071E+04  0.19859677071E+04  0.00000000000E+00 0. -1.
         24    2    1    2    0    0  0.98476472456E+02 -0.14029276668E+03  0.98006062833E+02  0.21236733252E+03  0.78198590525E+02 0.  0.
        254    2    1    2    0    0 -0.98476472456E+02  0.14029276668E+03 -0.18209057159E+04  0.20366684287E+04  0.89606974392E+03 0.  0.
         23    2    4    4    0    0 -0.39654379896E+03 -0.13011899650E+03 -0.52453707181E+03  0.67631825244E+03  0.89940542257E+02 0.  0.
         23    2    4    4    0    0  0.29806732650E+03  0.27041176318E+03 -0.12963686441E+04  0.13603501762E+04  0.89522553993E+02 0.  0.
          4    1    3    3  502    0  0.44644764219E+01  0.98717666682E+01  0.25826127195E+01  0.11137917908E+02  0.00000000000E+00 0. -1.
         -3    1    3    3    0  502  0.94011996034E+02 -0.15016453335E+03  0.95423450114E+02  0.20122941461E+03  0.00000000000E+00 0.  1.
         11    1    5    5    0    0 -0.14550344642E+03 -0.33091074863E+02 -0.12537728712E+03  0.19489929780E+03  0.00000000000E+00 0.  1.
        -11    1    5    5    0    0 -0.25104035253E+03 -0.97027921635E+02 -0.39915978468E+03  0.48141895464E+03  0.00000000000E+00 0. -1.
          2    1    6    6  503    0  0.36341854892E+02  0.42632599757E+02 -0.30289872849E+03  0.30803556402E+03  0.00000000000E+00 0.  1.
         -2    1    6    6    0  503  0.26172547161E+03  0.22777916342E+03 -0.99346991564E+03  0.10523146122E+04  0.00000000000E+00 0. -1.
<mgrwt>
<rscale>  0 0.14456067E+04</rscale>
<asrwt>0</asrwt>
<pdfrwt beam="1">  1        2 0.30553349E+00 0.14456067E+04</pdfrwt>
<pdfrwt beam="2">  1       -1 0.40472009E-01 0.14456067E+04</pdfrwt>
<totfact> 0.44830660E+01</totfact>
</mgrwt>
</event>
<event>
12    6  0.1530859E-007  0.1810569E+04  0.7818608E-02  0.8700699E-01
         -1   -1    0    0    0  501 -0.00000000000E+00  0.00000000000E+00  0.18412506961E+04  0.18412506961E+04  0.00000000000E+00 0.  1.
          2   -1    0    0  501    0  0.00000000000E+00 -0.00000000000E+00 -0.44509966256E+03  0.44509966256E+03  0.00000000000E+00 0. -1.
         24    2    1    2    0    0  0.27020229158E+03 -0.61725243973E+03  0.43434496866E+03  0.80561731303E+03  0.79711043944E+02 0.  0.
        254    2    1    2    0    0 -0.27020229158E+03  0.61725243973E+03  0.96180606491E+03  0.14807330456E+04  0.90193657940E+03 0.  0.
         23    2    4    4    0    0 -0.15182805931E+03  0.56000438608E+03  0.11146267731E+04  0.12598428765E+04  0.90302592749E+02 0.  0.
         23    2    4    4    0    0 -0.11837423227E+03  0.57248053649E+02 -0.15282070815E+03  0.22089016914E+03  0.90269039364E+02 0.  0.
          4    1    3    3  502    0  0.84135532917E+02 -0.14121153951E+03  0.74090928768E+02  0.18030239187E+03  0.00000000000E+00 0. -1.
         -3    1    3    3    0  502  0.18606675866E+03 -0.47604090022E+03  0.36025403989E+03  0.62531492116E+03  0.00000000000E+00 0.  1.
         11    1    5    5    0    0 -0.79747634103E+02  0.33521089763E+03  0.56676980212E+03  0.66329031323E+03  0.00000000000E+00 0. -1.
        -11    1    5    5    0    0 -0.72080425202E+02  0.22479348845E+03  0.54785697095E+03  0.59655256328E+03  0.00000000000E+00 0.  1.
          4    1    6    6  503    0  0.14363573604E+02  0.30698838003E+01 -0.65774138430E+01  0.16093439846E+02  0.00000000000E+00 0. -1.
         -4    1    6    6    0  503 -0.13273780588E+03  0.54178169849E+02 -0.14624329431E+03  0.20479672929E+03  0.00000000000E+00 0.  1.
<mgrwt>
<rscale>  0 0.18105690E+04</rscale>
<asrwt>0</asrwt>
<pdfrwt beam="1">  1        2 0.68476872E-01 0.18105690E+04</pdfrwt>
<pdfrwt beam="2">  1       -1 0.28326933E+00 0.18105690E+04</pdfrwt>
<totfact> 0.32211500E+00</totfact>
</mgrwt>
</event>
<event>
12    6  0.1530859E-007  0.1297069E+04  0.7818608E-02  0.9031892E-01
         -1   -1    0    0    0  501 -0.00000000000E+00  0.00000000000E+00  0.46050806090E+03  0.46050806090E+03  0.00000000000E+00 0.  1.
          2   -1    0    0  501    0  0.00000000000E+00 -0.00000000000E+00 -0.91333320031E+03  0.91333320031E+03  0.00000000000E+00 0. -1.
         24    2    1    2    0    0 -0.26019101476E+02 -0.19043710593E+02 -0.44585229003E+03  0.45428276812E+03  0.80925350372E+02 0.  0.
        254    2    1    2    0    0  0.26019101476E+02  0.19043710593E+02 -0.69728493733E+01  0.91955849309E+03  0.91896656361E+03 0.  0.
         23    2    4    4    0    0 -0.50272703033E+01  0.45493865356E+03  0.62414719057E+02  0.46817836645E+03  0.91109460006E+02 0.  0.
         23    2    4    4    0    0  0.31046371779E+02 -0.43589494297E+03 -0.69387568430E+02  0.45138012664E+03  0.89225027691E+02 0.  0.
          4    1    3    3  502    0 -0.34753309858E+02 -0.41331091400E+02 -0.38698647906E+03  0.39073595514E+03  0.00000000000E+00 0. -1.
         -3    1    3    3    0  502  0.87342083821E+01  0.22287380807E+02 -0.58865810974E+02  0.63546812988E+02  0.00000000000E+00 0.  1.
         11    1    5    5    0    0  0.16165977708E+02  0.15258583202E+03  0.60889930782E+02  0.16507985534E+03  0.00000000000E+00 0.  1.
        -11    1    5    5    0    0 -0.21193248011E+02  0.30235282155E+03  0.15247882748E+01  0.30309851111E+03  0.00000000000E+00 0. -1.
          2    1    6    6  503    0  0.33243975029E+01 -0.16033943039E+01  0.85208016365E+01  0.92858253580E+01  0.00000000000E+00 0.  1.
         -2    1    6    6    0  503  0.27721974276E+02 -0.43429154867E+03 -0.77908370066E+02  0.44209430128E+03  0.00000000000E+00 0. -1.
<mgrwt>
<rscale>  0 0.12970695E+04</rscale>
<asrwt>0</asrwt>
<pdfrwt beam="1">  1        2 0.14051280E+00 0.12970695E+04</pdfrwt>
<pdfrwt beam="2">  1       -1 0.70847395E-01 0.12970695E+04</pdfrwt>
<totfact> 0.64686226E+01</totfact>
</mgrwt>
</event>
<event>
12    6  0.1530859E-007  0.2224667E+04  0.7818608E-02  0.8508231E-01
         -3   -1    0    0    0  501 -0.00000000000E+00  0.00000000000E+00  0.28942105179E+04  0.28942105179E+04  0.00000000000E+00 0.  1.
          4   -1    0    0  501    0  0.00000000000E+00 -0.00000000000E+00 -0.42750385622E+03  0.42750385622E+03  0.00000000000E+00 0. -1.
         24    2    1    2    0    0 -0.76039969673E+03 -0.25421372411E+03  0.17178665913E+04  0.18974410100E+04  0.79902719798E+02 0.  0.
        254    2    1    2    0    0  0.76039969673E+03  0.25421372411E+03  0.74884007035E+03  0.14242733641E+04  0.90827355371E+03 0.  0.
         23    2    4    4    0    0 -0.10082925440E+03  0.28513252893E+03  0.34373656997E+03  0.46772706888E+03  0.95638296867E+02 0.  0.
         23    2    4    4    0    0  0.86122895113E+03 -0.30918804824E+02  0.40510350038E+03  0.95654629521E+03  0.90557661750E+02 0.  0.
          2    1    3    3  502    0 -0.32332962008E+03 -0.12139158925E+03  0.65234539057E+03  0.73812767849E+03  0.00000000000E+00 0. -1.
         -1    1    3    3    0  502 -0.43707007665E+03 -0.13282213485E+03  0.10655212008E+04  0.11593133315E+04  0.00000000000E+00 0.  1.
         11    1    5    5    0    0 -0.16577080765E+02  0.21271745925E+02  0.83207911677E+02  0.87469099384E+02  0.00000000000E+00 0.  1.
        -11    1    5    5    0    0 -0.84252173633E+02  0.26386078301E+03  0.26052865830E+03  0.38025796950E+03  0.00000000000E+00 0. -1.
          4    1    6    6  503    0  0.81563986290E+03 -0.47317397216E+02  0.37101417414E+03  0.89730643565E+03  0.00000000000E+00 0. -1.
         -4    1    6    6    0  503  0.45589088226E+02  0.16398592392E+02  0.34089326236E+02  0.59239859562E+02  0.00000000000E+00 0.  1.
<mgrwt>
<rscale>  0 0.22246673E+04</rscale>
<asrwt>0</asrwt>
<pdfrwt beam="1">  1        4 0.65769826E-01 0.22246673E+04</pdfrwt>
<pdfrwt beam="2">  1       -3 0.44526315E+00 0.22246673E+04</pdfrwt>
<totfact> 0.26863579E-02</totfact>
</mgrwt>
</event>
<event>
12    6  0.1530859E-007  0.1168454E+04  0.7818608E-02  0.9140926E-01
         -1   -1    0    0    0  501 -0.00000000000E+00  0.00000000000E+00  0.19330663577E+03  0.19330663577E+03  0.00000000000E+00 0.  1.
          2   -1    0    0  501    0  0.00000000000E+00 -0.00000000000E+00 -0.17656984838E+04  0.17656984838E+04  0.00000000000E+00 0. -1.
         24    2    1    2    0    0 -0.10109274065E+03 -0.19463447669E+03 -0.37294464959E+03  0.43981159331E+03  0.79020277261E+02 0.  0.
        254    2    1    2    0    0  0.10109274065E+03  0.19463447669E+03 -0.11994471984E+04  0.15191935263E+04  0.90618600005E+03 0.  0.
         23    2    4    4    0    0  0.14669890659E+03  0.18207226190E+03  0.58555331940E+02  0.25761673181E+03  0.90921811801E+02 0.  0.
         23    2    4    4    0    0 -0.45606165947E+02  0.12562214797E+02 -0.12580025304E+04  0.12615767945E+04  0.82267309909E+02 0.  0.
          4    1    3    3  502    0 -0.63204021673E+02 -0.16868448122E+03 -0.33450055195E+03  0.37992080992E+03  0.00000000000E+00 0. -1.
         -3    1    3    3    0  502 -0.37888718973E+02 -0.25949995475E+02 -0.38444097645E+02  0.59890783384E+02  0.00000000000E+00 0.  1.
         11    1    5    5    0    0  0.32383564852E+02  0.13160766359E+01  0.25429204433E+02  0.41195530927E+02  0.00000000000E+00 0. -1.
        -11    1    5    5    0    0  0.11431534174E+03  0.18075618526E+03  0.33126127507E+02  0.21642120088E+03  0.00000000000E+00 0.  1.
          1    1    6    6  503    0 -0.64050634460E+02  0.82356977547E+01 -0.63265161083E+03  0.63593896812E+03  0.00000000000E+00 0. -1.
         -1    1    6    6    0  503  0.18444468513E+02  0.43265170428E+01 -0.62535091955E+03  0.62563782634E+03  0.00000000000E+00 0.  1.
<mgrwt>
<rscale>  0 0.11684541E+04</rscale>
<asrwt>0</asrwt>
<pdfrwt beam="1">  1        2 0.27164593E+00 0.11684541E+04</pdfrwt>
<pdfrwt beam="2">  1       -1 0.29739481E-01 0.11684541E+04</pdfrwt>
<totfact> 0.10524113E+02</totfact>
</mgrwt>
</event>
<event>
12    6  0.1530859E-007  0.2752015E+04  0.7818608E-02  0.8318323E-01
          2   -1    0    0  501    0  0.00000000000E+00  0.00000000000E+00  0.25487463073E+04  0.25487463073E+04  0.00000000000E+00 0. -1.
         -1   -1    0    0    0  501 -0.00000000000E+00 -0.00000000000E+00 -0.74287359803E+03  0.74287359803E+03  0.00000000000E+00 0.  1.
         24    2    1    2    0    0 -0.33045466725E+03 -0.78121731678E+03  0.18713317182E+04  0.20561963489E+04  0.80995322474E+02 0.  0.
        254    2    1    2    0    0  0.33045466725E+03  0.78121731678E+03 -0.65459008911E+02  0.12354235565E+04  0.89581566130E+03 0.  0.
         23    2    4    4    0    0  0.27800633837E+03  0.74177044652E+03  0.30098832890E+03  0.85242420382E+03  0.92315381301E+02 0.  0.
         23    2    4    4    0    0  0.52448328875E+02  0.39446870257E+02 -0.36644733781E+03  0.38299935270E+03  0.89988721552E+02 0.  0.
          2    1    3    3  502    0 -0.25229873337E+03 -0.49882156525E+03  0.12140183206E+04  0.13365321124E+04  0.00000000000E+00 0. -1.
         -1    1    3    3    0  502 -0.78155933878E+02 -0.28239575153E+03  0.65731339765E+03  0.71966423644E+03  0.00000000000E+00 0.  1.
         11    1    5    5    0    0  0.25143374340E+03  0.59782553507E+03  0.21827445710E+03  0.68429382309E+03  0.00000000000E+00 0. -1.
        -11    1    5    5    0    0  0.26572594971E+02  0.14394491145E+03  0.82713871804E+02  0.16813038073E+03  0.00000000000E+00 0.  1.
          4    1    6    6  503    0  0.56096608134E+02 -0.12065982021E+02 -0.23158766490E+03  0.23859015885E+03  0.00000000000E+00 0. -1.
         -4    1    6    6    0  503 -0.36482792593E+01  0.51512852278E+02 -0.13485967292E+03  0.14440919386E+03  0.00000000000E+00 0.  1.
<mgrwt>
<rscale>  0 0.27520148E+04</rscale>
<asrwt>0</asrwt>
<pdfrwt beam="1">  1        2 0.39211481E+00 0.27520148E+04</pdfrwt>
<pdfrwt beam="2">  1       -1 0.11428825E+00 0.27520148E+04</pdfrwt>
<totfact> 0.22558192E+00</totfact>
</mgrwt>
</event>
<event>
12    6  0.1530859E-007  0.1959960E+04  0.7818608E-02  0.8625573E-01
         -1   -1    0    0    0  501 -0.00000000000E+00  0.00000000000E+00  0.53038039172E+03  0.53038039172E+03  0.00000000000E+00 0.  1.
          2   -1    0    0  501    0  0.00000000000E+00 -0.00000000000E+00 -0.18107010177E+04  0.18107010177E+04  0.00000000000E+00 0. -1.
         24    2    1    2    0    0  0.45889280485E+03 -0.50047189547E+03 -0.87819684517E+03  0.11126865534E+04  0.76071957287E+02 0.  0.
        254    2    1    2    0    0 -0.45889280485E+03  0.50047189547E+03 -0.40212378086E+03  0.12283948561E+04  0.94137965924E+03 0.  0.
         23    2    4    4    0    0 -0.32180810039E+03 -0.30296234579E+02  0.21402973196E+03  0.39871999101E+03  0.93223332706E+02 0.  0.
         23    2    4    4    0    0 -0.13708470446E+03  0.53076813005E+03 -0.61615351282E+03  0.82967486508E+03  0.90599151832E+02 0.  0.
          4    1    3    3  502    0  0.20619565266E+03 -0.25585584841E+03 -0.37264602456E+03  0.49683389776E+03  0.00000000000E+00 0. -1.
         -3    1    3    3    0  502  0.25269715219E+03 -0.24461604706E+03 -0.50555082061E+03  0.61585265562E+03  0.00000000000E+00 0.  1.
         11    1    5    5    0    0 -0.19203150087E+03  0.10566239043E+02  0.16716458484E+03  0.25481707391E+03  0.00000000000E+00 0.  1.
        -11    1    5    5    0    0 -0.12977659952E+03 -0.40862473622E+02  0.46865147121E+02  0.14390291710E+03  0.00000000000E+00 0. -1.
          2    1    6    6  503    0 -0.19505046555E+02  0.17072134054E+02 -0.13896702544E+02  0.29411272394E+02  0.00000000000E+00 0. -1.
         -2    1    6    6    0  503 -0.11757965791E+03  0.51369599600E+03 -0.60225681028E+03  0.80026359269E+03  0.00000000000E+00 0.  1.
<mgrwt>
<rscale>  0 0.19599595E+04</rscale>
<asrwt>0</asrwt>
<pdfrwt beam="1">  1        2 0.27856939E+00 0.19599595E+04</pdfrwt>
<pdfrwt beam="2">  1       -1 0.81596984E-01 0.19599595E+04</pdfrwt>
<totfact> 0.13508889E+01</totfact>
</mgrwt>
</event>
<event>
12    6  0.1530859E-007  0.2230813E+04  0.7818608E-02  0.8505711E-01
          2   -1    0    0  501    0  0.00000000000E+00  0.00000000000E+00  0.47500034765E+04  0.47500034765E+04  0.00000000000E+00 0. -1.
         -1   -1    0    0    0  501 -0.00000000000E+00 -0.00000000000E+00 -0.26192234999E+03  0.26192234999E+03  0.00000000000E+00 0.  1.
         24    2    1    2    0    0  0.90941159660E+03  0.16233887140E+03  0.16711695495E+04  0.19111047799E+04  0.78297225104E+02 0.  0.
        254    2    1    2    0    0 -0.90941159660E+03 -0.16233887140E+03  0.28169115770E+04  0.31008210465E+04  0.90923977527E+03 0.  0.
         23    2    4    4    0    0 -0.53143381258E+03  0.32665495640E+03  0.10256155794E+04  0.12039068062E+04  0.91536460631E+02 0.  0.
         23    2    4    4    0    0 -0.37797778402E+03 -0.48899382780E+03  0.17912959976E+04  0.18969142403E+04  0.86948924004E+02 0.  0.
          4    1    3    3  502    0  0.17166774118E+03  0.16580082202E+02  0.37085266860E+03  0.40899439396E+03  0.00000000000E+00 0. -1.
         -1    1    3    3    0  502  0.73774385542E+03  0.14575878920E+03  0.13003168809E+04  0.15021103860E+04  0.00000000000E+00 0.  1.
         11    1    5    5    0    0 -0.43386473477E+03  0.29635023778E+03  0.89819628992E+03  0.10405857229E+04  0.00000000000E+00 0.  1.
        -11    1    5    5    0    0 -0.97569077809E+02  0.30304718627E+02  0.12741928947E+03  0.16332108328E+03  0.00000000000E+00 0. -1.
          3    1    6    6  503    0 -0.48380533244E+02 -0.69782535643E+02  0.34930916751E+03  0.35948181148E+03  0.00000000000E+00 0. -1.
         -3    1    6    6    0  503 -0.32959725078E+03 -0.41921129216E+03  0.14419868301E+04  0.15374324289E+04  0.00000000000E+00 0.  1.
<mgrwt>
<rscale>  0 0.22308134E+04</rscale>
<asrwt>0</asrwt>
<pdfrwt beam="1">  1        2 0.73076970E+00 0.22308134E+04</pdfrwt>
<pdfrwt beam="2">  1       -1 0.40295750E-01 0.22308134E+04</pdfrwt>
<totfact> 0.42784519E-01</totfact>
</mgrwt>
</event>
<event>
12    6  0.1530859E-007  0.1491467E+04  0.7818608E-02  0.8890147E-01
          2   -1    0    0  501    0  0.00000000000E+00  0.00000000000E+00  0.79013671252E+03  0.79013671252E+03  0.00000000000E+00 0. -1.
         -1   -1    0    0    0  501 -0.00000000000E+00 -0.00000000000E+00 -0.70382575682E+03  0.70382575682E+03  0.00000000000E+00 0.  1.
         24    2    1    2    0    0 -0.10152805463E+03 -0.39607463553E+03  0.26139464697E+03  0.49166555735E+03  0.78897376611E+02 0.  0.
        254    2    1    2    0    0  0.10152805463E+03  0.39607463553E+03 -0.17508369127E+03  0.10022969120E+04  0.89819916390E+03 0.  0.
         23    2    4    4    0    0  0.35325346136E+03  0.18316629030E+03  0.23269472372E+03  0.46996183135E+03  0.91539011410E+02 0.  0.
         23    2    4    4    0    0 -0.25172540673E+03  0.21290834522E+03 -0.40777841498E+03  0.53233508064E+03  0.91661106735E+02 0.  0.
          2    1    3    3  502    0 -0.48526988748E+02 -0.25126690695E+03  0.20347841187E+03  0.32694554785E+03  0.00000000000E+00 0. -1.
         -1    1    3    3    0  502 -0.53001065884E+02 -0.14480772858E+03  0.57916235103E+02  0.16472000950E+03  0.00000000000E+00 0.  1.
         11    1    5    5    0    0  0.48996930284E+02  0.44791442522E+01  0.58558304424E+02  0.76484226658E+02  0.00000000000E+00 0. -1.
        -11    1    5    5    0    0  0.30425653108E+03  0.17868714605E+03  0.17413641929E+03  0.39347760469E+03  0.00000000000E+00 0.  1.
          3    1    6    6  503    0 -0.30751594348E+02  0.72991582309E+02 -0.75032109829E+02  0.10910201258E+03  0.00000000000E+00 0. -1.
         -3    1    6    6    0  503 -0.22097381238E+03  0.13991676291E+03 -0.33274630516E+03  0.42323306806E+03  0.00000000000E+00 0.  1.
<mgrwt>
<rscale>  0 0.14914672E+04</rscale>
<asrwt>0</asrwt>
<pdfrwt beam="1">  1        2 0.12155949E+00 0.14914672E+04</pdfrwt>
<pdfrwt beam="2">  1       -1 0.10828089E+00 0.14914672E+04</pdfrwt>
<totfact> 0.30630714E+01</totfact>
</mgrwt>
</event>
<event>
12    6  0.1530859E-007  0.1694560E+04  0.7818608E-02  0.8764473E-01
         -1   -1    0    0    0  501 -0.00000000000E+00  0.00000000000E+00  0.17721888082E+04  0.17721888082E+04  0.00000000000E+00 0.  1.
          2   -1    0    0  501    0  0.00000000000E+00 -0.00000000000E+00 -0.40508275796E+03  0.40508275796E+03  0.00000000000E+00 0. -1.
         24    2    1    2    0    0  0.35339791997E+03 -0.40458167537E+03  0.12917409465E+03  0.55840039809E+03  0.80923642839E+02 0.  0.
        254    2    1    2    0    0 -0.35339791997E+03  0.40458167537E+03  0.12379319556E+04  0.16188711681E+04  0.89425494701E+03 0.  0.
         23    2    4    4    0    0 -0.20376074876E+03  0.39836922829E+03  0.13405997757E+04  0.14161126266E+04  0.89166853528E+02 0.  0.
         23    2    4    4    0    0 -0.14963717121E+03  0.62124470752E+01 -0.10266782016E+03  0.20275854144E+03  0.90224538376E+02 0.  0.
          2    1    3    3  502    0  0.20128073661E+03 -0.18470315828E+03  0.37466258490E+02  0.27574066101E+03  0.00000000000E+00 0. -1.
         -1    1    3    3    0  502  0.15211718336E+03 -0.21987851709E+03  0.91707836159E+02  0.28265973708E+03  0.00000000000E+00 0.  1.
         11    1    5    5    0    0 -0.66562207049E+02  0.61483396985E+02  0.21913405779E+03  0.23712964976E+03  0.00000000000E+00 0. -1.
        -11    1    5    5    0    0 -0.13719854171E+03  0.33688583131E+03  0.11214657180E+04  0.11789829769E+04  0.00000000000E+00 0.  1.
          4    1    6    6  503    0  0.14394168711E+00  0.17986846307E+02 -0.32037150741E+02  0.36741344381E+02  0.00000000000E+00 0. -1.
         -4    1    6    6    0  503 -0.14978111289E+03 -0.11774399232E+02 -0.70630669419E+02  0.16601719706E+03  0.00000000000E+00 0.  1.
<mgrwt>
<rscale>  0 0.16945597E+04</rscale>
<asrwt>0</asrwt>
<pdfrwt beam="1">  1        2 0.62320425E-01 0.16945597E+04</pdfrwt>
<pdfrwt beam="2">  1       -1 0.27264443E+00 0.16945597E+04</pdfrwt>
<totfact> 0.42418811E+00</totfact>
</mgrwt>
</event>
<event>
12    6  0.1530859E-007  0.2011994E+04  0.7818608E-02  0.8601033E-01
          2   -1    0    0  501    0  0.00000000000E+00  0.00000000000E+00  0.27890255369E+04  0.27890255369E+04  0.00000000000E+00 0. -1.
         -1   -1    0    0    0  501 -0.00000000000E+00 -0.00000000000E+00 -0.36286162479E+03  0.36286162479E+03  0.00000000000E+00 0.  1.
         24    2    1    2    0    0  0.64294669302E+03 -0.29149987406E+03  0.15791290299E+04  0.17314679116E+04  0.77330519102E+02 0.  0.
        254    2    1    2    0    0 -0.64294669302E+03  0.29149987406E+03  0.84703488216E+03  0.14204192500E+04  0.89541617568E+03 0.  0.
         23    2    4    4    0    0 -0.23114442178E+03  0.54645906416E+03  0.66224863828E+03  0.89404485316E+03  0.93261396181E+02 0.  0.
         23    2    4    4    0    0 -0.41180227123E+03 -0.25495919011E+03  0.18478624388E+03  0.52637439689E+03  0.91316759494E+02 0.  0.
          2    1    3    3  502    0  0.33012696683E+03 -0.10723124919E+03  0.77235651078E+03  0.84676852491E+03  0.00000000000E+00 0. -1.
         -1    1    3    3    0  502  0.31281972618E+03 -0.18426862486E+03  0.80677251912E+03  0.88469938669E+03  0.00000000000E+00 0.  1.
         11    1    5    5    0    0 -0.31184459499E+02  0.31857267543E+02  0.25791232376E+02  0.51502851154E+02  0.00000000000E+00 0. -1.
        -11    1    5    5    0    0 -0.19995996228E+03  0.51460179662E+03  0.63645740591E+03  0.84254200200E+03  0.00000000000E+00 0.  1.
          1    1    6    6  503    0 -0.92695071161E+02 -0.98368096136E+02  0.73775895938E+02  0.15398552327E+03  0.00000000000E+00 0. -1.
         -1    1    6    6    0  503 -0.31910720007E+03 -0.15659109397E+03  0.11101034794E+03  0.37238887362E+03  0.00000000000E+00 0.  1.
<mgrwt>
<rscale>  0 0.20119944E+04</rscale>
<asrwt>0</asrwt>
<pdfrwt beam="1">  1        2 0.42908084E+00 0.20119944E+04</pdfrwt>
<pdfrwt beam="2">  1       -1 0.55824867E-01 0.20119944E+04</pdfrwt>
<totfact> 0.80625490E+00</totfact>
</mgrwt>
</event>
<event>
12    6  0.1530859E-007  0.2608549E+04  0.7818608E-02  0.8365303E-01
         -1   -1    0    0    0  501 -0.00000000000E+00  0.00000000000E+00  0.97439122314E+03  0.97439122314E+03  0.00000000000E+00 0.  1.
          2   -1    0    0  501    0  0.00000000000E+00 -0.00000000000E+00 -0.17458404803E+04  0.17458404803E+04  0.00000000000E+00 0. -1.
         24    2    1    2    0    0 -0.38988284992E+03  0.91873383999E+03  0.25494060628E+03  0.10331357093E+04  0.79335841584E+02 0.  0.
        254    2    1    2    0    0  0.38988284992E+03 -0.91873383999E+03 -0.10263898634E+04  0.16870959941E+04  0.89260082687E+03 0.  0.
         23    2    4    4    0    0 -0.34982063748E+01  0.12533978952E+03 -0.34030733995E+03  0.37414627518E+03  0.91945904325E+02 0.  0.
         23    2    4    4    0    0  0.39338105630E+03 -0.10440736295E+04 -0.68608252347E+03  0.13129497189E+04  0.91045791106E+02 0.  0.
          2    1    3    3  502    0 -0.78882413266E+02  0.11628829278E+03  0.39846624315E+02  0.14605874034E+03  0.00000000000E+00 0. -1.
         -1    1    3    3    0  502 -0.31100043666E+03  0.80244554721E+03  0.21509398197E+03  0.88707696900E+03  0.00000000000E+00 0.  1.
         11    1    5    5    0    0 -0.24356465377E+01 -0.13964041543E+02 -0.17209519509E+02  0.22295613739E+02  0.00000000000E+00 0. -1.
        -11    1    5    5    0    0 -0.10625598371E+01  0.13930383106E+03 -0.32309782044E+03  0.35185066144E+03  0.00000000000E+00 0.  1.
          1    1    6    6  503    0  0.15894746282E+03 -0.49644576772E+03 -0.27684559038E+03  0.59022553074E+03  0.00000000000E+00 0. -1.
         -1    1    6    6    0  503  0.23443359347E+03 -0.54762786179E+03 -0.40923693309E+03  0.72272418817E+03  0.00000000000E+00 0.  1.
<mgrwt>
<rscale>  0 0.26085487E+04</rscale>
<asrwt>0</asrwt>
<pdfrwt beam="1">  1        2 0.26859084E+00 0.26085487E+04</pdfrwt>
<pdfrwt beam="2">  1       -1 0.14990634E+00 0.26085487E+04</pdfrwt>
<totfact> 0.32521171E+00</totfact>
</mgrwt>
</event>
<event>
12    6  0.1530859E-007  0.2271388E+04  0.7818608E-02  0.8489289E-01
         -1   -1    0    0    0  501 -0.00000000000E+00  0.00000000000E+00  0.17854082980E+04  0.17854082980E+04  0.00000000000E+00 0.  1.
          2   -1    0    0  501    0  0.00000000000E+00 -0.00000000000E+00 -0.72241196990E+03  0.72241196990E+03  0.00000000000E+00 0. -1.
         24    2    1    2    0    0 -0.17190657466E+03  0.75745088474E+03  0.10716261520E+04  0.13260756451E+04  0.82524503949E+02 0.  0.
        254    2    1    2    0    0  0.17190657466E+03 -0.75745088474E+03 -0.86298239201E+01  0.11817446227E+04  0.89059652274E+03 0.  0.
         23    2    4    4    0    0 -0.24375438031E+03 -0.14180866313E+03 -0.25803538122E+03  0.39294856224E+03  0.91106639421E+02 0.  0.
         23    2    4    4    0    0  0.41566095497E+03 -0.61564222161E+03  0.24940555730E+03  0.78879606051E+03  0.90590940776E+02 0.  0.
          4    1    3    3  502    0 -0.55204618263E+02  0.26811922903E+03  0.31306247288E+03  0.41586486120E+03  0.00000000000E+00 0. -1.
         -1    1    3    3    0  502 -0.11670195640E+03  0.48933165571E+03  0.75856367911E+03  0.91021078393E+03  0.00000000000E+00 0.  1.
         11    1    5    5    0    0 -0.24118364553E+03 -0.12824059849E+03 -0.26208783415E+03  0.37855677881E+03  0.00000000000E+00 0. -1.
        -11    1    5    5    0    0 -0.25707347739E+01 -0.13568064637E+02  0.40524529373E+01  0.14391783423E+02  0.00000000000E+00 0.  1.
          1    1    6    6  503    0  0.33206605415E+03 -0.47324910790E+03  0.15479360843E+03  0.59849281003E+03  0.00000000000E+00 0. -1.
         -1    1    6    6    0  503  0.83594900820E+02 -0.14239311371E+03  0.94611948866E+02  0.19030325048E+03  0.00000000000E+00 0.  1.
<mgrwt>
<rscale>  0 0.22713875E+04</rscale>
<asrwt>0</asrwt>
<pdfrwt beam="1">  1        2 0.11114030E+00 0.22713875E+04</pdfrwt>
<pdfrwt beam="2">  1       -1 0.27467820E+00 0.22713875E+04</pdfrwt>
<totfact> 0.19666247E+00</totfact>
</mgrwt>
</event>
<event>
12    6  0.1530859E-007  0.1565952E+04  0.7818608E-02  0.8841743E-01
          2   -1    0    0  501    0  0.00000000000E+00  0.00000000000E+00  0.25811892476E+04  0.25811892476E+04  0.00000000000E+00 0. -1.
         -1   -1    0    0    0  501 -0.00000000000E+00 -0.00000000000E+00 -0.23750719835E+03  0.23750719835E+03  0.00000000000E+00 0.  1.
         24    2    1    2    0    0  0.28912304284E+03 -0.11216147929E+03  0.15384731164E+04  0.15714492321E+04  0.79880082633E+02 0.  0.
        254    2    1    2    0    0 -0.28912304284E+03  0.11216147929E+03  0.80520893280E+03  0.12472472139E+04  0.90060638225E+03 0.  0.
         23    2    4    4    0    0  0.72973099456E+02 -0.30441911380E+03  0.53387690286E+03  0.62551874505E+03  0.90846479867E+02 0.  0.
         23    2    4    4    0    0 -0.36209614230E+03  0.41658059310E+03  0.27133202994E+03  0.62172846884E+03  0.90951699720E+02 0.  0.
          4    1    3    3  502    0  0.23595542393E+03 -0.75452330567E+02  0.13405692221E+04  0.13632658785E+04  0.00000000000E+00 0. -1.
         -3    1    3    3    0  502  0.53167618906E+02 -0.36709148724E+02  0.19790389431E+03  0.20818335352E+03  0.00000000000E+00 0.  1.
         11    1    5    5    0    0  0.49624416210E+02 -0.17710703715E+03  0.39473036651E+03  0.43547852707E+03  0.00000000000E+00 0.  1.
        -11    1    5    5    0    0  0.23348683247E+02 -0.12731207665E+03  0.13914653635E+03  0.19004021798E+03  0.00000000000E+00 0. -1.
          2    1    6    6  503    0 -0.14867821561E+03  0.11347308997E+03  0.11386002055E+03  0.21896451362E+03  0.00000000000E+00 0. -1.
         -2    1    6    6    0  503 -0.21341792669E+03  0.30310750313E+03  0.15747200939E+03  0.40276395522E+03  0.00000000000E+00 0.  1.
<mgrwt>
<rscale>  0 0.15659515E+04</rscale>
<asrwt>0</asrwt>
<pdfrwt beam="1">  1        2 0.39710602E+00 0.15659515E+04</pdfrwt>
<pdfrwt beam="2">  1       -1 0.36539571E-01 0.15659515E+04</pdfrwt>
<totfact> 0.24612685E+01</totfact>
</mgrwt>
</event>
<event>
12    6  0.1530859E-007  0.2194781E+04  0.7818608E-02  0.8520604E-01
          2   -1    0    0  501    0  0.00000000000E+00  0.00000000000E+00  0.19393306537E+04  0.19393306537E+04  0.00000000000E+00 0. -1.
         -1   -1    0    0    0  501 -0.00000000000E+00 -0.00000000000E+00 -0.62096985894E+03  0.62096985894E+03  0.00000000000E+00 0.  1.
         24    2    1    2    0    0 -0.71786231632E+03  0.48703066169E+03  0.24307649627E+03  0.90446070429E+03  0.80235976642E+02 0.  0.
        254    2    1    2    0    0  0.71786231632E+03 -0.48703066169E+03  0.10752842985E+04  0.16558398083E+04  0.91271242879E+03 0.  0.
         23    2    4    4    0    0  0.34922782567E+03 -0.24315201795E+03  0.11206749825E+04  0.12022833718E+04  0.92140717166E+02 0.  0.
         23    2    4    4    0    0  0.36863449065E+03 -0.24387864374E+03 -0.45390684024E+02  0.45355643648E+03  0.91021680432E+02 0.  0.
          2    1    3    3  502    0 -0.45867043154E+03  0.31941487229E+03  0.19557110661E+03  0.59215917046E+03  0.00000000000E+00 0. -1.
         -1    1    3    3    0  502 -0.25919188478E+03  0.16761578940E+03  0.47505389667E+02  0.31230153384E+03  0.00000000000E+00 0.  1.
         11    1    5    5    0    0  0.32679101580E+03 -0.24716638284E+03  0.10866263502E+04  0.11613097837E+04  0.00000000000E+00 0.  1.
        -11    1    5    5    0    0  0.22436809870E+02  0.40143648930E+01  0.34048632330E+02  0.40973588154E+02  0.00000000000E+00 0. -1.
          4    1    6    6  503    0  0.18180408852E+03 -0.67605402055E+02 -0.95000838488E+01  0.19419955866E+03  0.00000000000E+00 0. -1.
         -4    1    6    6    0  503  0.18683040213E+03 -0.17627324168E+03 -0.35890600176E+02  0.25935687782E+03  0.00000000000E+00 0.  1.
<mgrwt>
<rscale>  0 0.21947810E+04</rscale>
<asrwt>0</asrwt>
<pdfrwt beam="1">  1        2 0.29835856E+00 0.21947810E+04</pdfrwt>
<pdfrwt beam="2">  1       -1 0.95533825E-01 0.21947810E+04</pdfrwt>
<totfact> 0.79469665E+00</totfact>
</mgrwt>
</event>
<event>
12    6  0.1530859E-007  0.1656119E+04  0.7818608E-02  0.8786795E-01
          2   -1    0    0  501    0  0.00000000000E+00  0.00000000000E+00  0.54117778629E+03  0.54117778629E+03  0.00000000000E+00 0. -1.
         -1   -1    0    0    0  501 -0.00000000000E+00 -0.00000000000E+00 -0.12670185996E+04  0.12670185996E+04  0.00000000000E+00 0.  1.
         24    2    1    2    0    0 -0.52589380783E+03 -0.58791199427E+02  0.16816788230E+01  0.53524912250E+03  0.80424454286E+02 0.  0.
        254    2    1    2    0    0  0.52589380783E+03  0.58791199427E+02 -0.72752249213E+03  0.12729472634E+04  0.90060260746E+03 0.  0.
         23    2    4    4    0    0  0.29939060729E+03  0.38070713695E+03 -0.71706285004E+03  0.86889981698E+03  0.78962656875E+02 0.  0.
         23    2    4    4    0    0  0.22650320054E+03 -0.32191593752E+03 -0.10459642088E+02  0.40404744641E+03  0.90616577686E+02 0.  0.
          4    1    3    3  502    0 -0.38134006357E+03 -0.62368431705E+02 -0.28781594072E+02  0.38747702579E+03  0.00000000000E+00 0. -1.
         -3    1    3    3    0  502 -0.14455374426E+03  0.35772322784E+01  0.30463272895E+02  0.14777209671E+03  0.00000000000E+00 0.  1.
         11    1    5    5    0    0  0.27205746589E+03  0.37315963646E+03 -0.66511775595E+03  0.80971909222E+03  0.00000000000E+00 0. -1.
        -11    1    5    5    0    0  0.27333141403E+02  0.75475004841E+01 -0.51945094091E+02  0.59180724756E+02  0.00000000000E+00 0.  1.
          4    1    6    6  503    0  0.21669484602E+03 -0.24855175670E+03 -0.43392527898E+01  0.32977789672E+03  0.00000000000E+00 0. -1.
         -4    1    6    6    0  503  0.98083545226E+01 -0.73364180821E+02 -0.61203892980E+01  0.74269549690E+02  0.00000000000E+00 0.  1.
<mgrwt>
<rscale>  0 0.16561187E+04</rscale>
<asrwt>0</asrwt>
<pdfrwt beam="1">  1        2 0.83258122E-01 0.16561187E+04</pdfrwt>
<pdfrwt beam="2">  1       -1 0.19492594E+00 0.16561187E+04</pdfrwt>
<totfact> 0.99919057E+00</totfact>
</mgrwt>
</event>
<event>
12    6  0.1530859E-007  0.1920295E+04  0.7818608E-02  0.8644820E-01
         -1   -1    0    0    0  501 -0.00000000000E+00  0.00000000000E+00  0.52163658239E+03  0.52163658239E+03  0.00000000000E+00 0.  1.
          2   -1    0    0  501    0  0.00000000000E+00 -0.00000000000E+00 -0.17672894475E+04  0.17672894475E+04  0.00000000000E+00 0. -1.
         24    2    1    2    0    0  0.29006048717E+03  0.30307326048E+03 -0.12407829130E+04  0.13122139880E+04  0.79842504934E+02 0.  0.
        254    2    1    2    0    0 -0.29006048717E+03 -0.30307326048E+03 -0.48699520492E+01  0.97671204185E+03  0.88201712502E+03 0.  0.
         23    2    4    4    0    0 -0.24235800087E+03 -0.48873105764E+03  0.28146547293E+03  0.62024578088E+03  0.88806356555E+02 0.  0.
         23    2    4    4    0    0 -0.47702486305E+02  0.18565779716E+03 -0.28633542498E+03  0.35646626097E+03  0.91301011854E+02 0.  0.
          4    1    3    3  502    0  0.27681145874E+03  0.27005363065E+03 -0.11803379139E+04  0.12420753351E+04  0.00000000000E+00 0. -1.
         -3    1    3    3    0  502  0.13249028437E+02  0.33019629826E+02 -0.60444999150E+02  0.70138652900E+02  0.00000000000E+00 0.  1.
         11    1    5    5    0    0 -0.94035218777E+02 -0.23861407726E+03  0.88758460437E+02  0.27139890297E+03  0.00000000000E+00 0.  1.
        -11    1    5    5    0    0 -0.14832278209E+03 -0.25011698038E+03  0.19270701250E+03  0.34884687791E+03  0.00000000000E+00 0. -1.
          2    1    6    6  503    0 -0.27590393720E+02  0.43497012882E+01 -0.56577714393E+02  0.63096651994E+02  0.00000000000E+00 0. -1.
         -2    1    6    6    0  503 -0.20112092585E+02  0.18130809587E+03 -0.22975771059E+03  0.29336960898E+03  0.00000000000E+00 0.  1.
<mgrwt>
<rscale>  0 0.19202946E+04</rscale>
<asrwt>0</asrwt>
<pdfrwt beam="1">  1        2 0.27189068E+00 0.19202946E+04</pdfrwt>
<pdfrwt beam="2">  1       -1 0.80251783E-01 0.19202946E+04</pdfrwt>
<totfact> 0.14845652E+01</totfact>
</mgrwt>
</event>
<event>
12    6  0.1530859E-007  0.1383346E+04  0.7818608E-02  0.8965963E-01
         -1   -1    0    0    0  501 -0.00000000000E+00  0.00000000000E+00  0.44707692833E+03  0.44707692833E+03  0.00000000000E+00 0.  1.
          2   -1    0    0  501    0  0.00000000000E+00 -0.00000000000E+00 -0.10700875123E+04  0.10700875123E+04  0.00000000000E+00 0. -1.
         24    2    1    2    0    0 -0.29297070552E+03  0.25024073165E+03 -0.22073888219E+03  0.45111622490E+03  0.79548326087E+02 0.  0.
        254    2    1    2    0    0  0.29297070552E+03 -0.25024073165E+03 -0.40227170175E+03  0.10660482157E+04  0.90894665307E+03 0.  0.
         23    2    4    4    0    0  0.43530823596E+03 -0.59095557138E+02 -0.59756296503E+03  0.74694595372E+03  0.88663495480E+02 0.  0.
         23    2    4    4    0    0 -0.14233753044E+03 -0.19114517452E+03  0.19529126328E+03  0.31910226199E+03  0.83012804939E+02 0.  0.
          2    1    3    3  502    0 -0.21978733833E+03  0.20669434712E+03 -0.13588432546E+03  0.33089813709E+03  0.00000000000E+00 0. -1.
         -1    1    3    3    0  502 -0.73183367185E+02  0.43546384535E+02 -0.84854556727E+02  0.12021808781E+03  0.00000000000E+00 0.  1.
         11    1    5    5    0    0  0.34084436812E+03 -0.24088600625E+02 -0.50753396446E+03  0.61183810688E+03  0.00000000000E+00 0.  1.
        -11    1    5    5    0    0  0.94463867836E+02 -0.35006956513E+02 -0.90029000575E+02  0.13510784683E+03  0.00000000000E+00 0. -1.
          1    1    6    6  503    0 -0.21042536470E+02 -0.95683306202E+02  0.78574612919E+02  0.12558683539E+03  0.00000000000E+00 0. -1.
         -1    1    6    6    0  503 -0.12129499397E+03 -0.95461868313E+02  0.11671665037E+03  0.19351542661E+03  0.00000000000E+00 0.  1.
<mgrwt>
<rscale>  0 0.13833459E+04</rscale>
<asrwt>0</asrwt>
<pdfrwt beam="1">  1        2 0.16462885E+00 0.13833459E+04</pdfrwt>
<pdfrwt beam="2">  1       -1 0.68781066E-01 0.13833459E+04</pdfrwt>
<totfact> 0.54068247E+01</totfact>
</mgrwt>
</event>
<event>
12    6  0.1530859E-007  0.2230550E+04  0.7818608E-02  0.8505819E-01
         -1   -1    0    0    0  501 -0.00000000000E+00  0.00000000000E+00  0.44387451790E+03  0.44387451790E+03  0.00000000000E+00 0.  1.
          2   -1    0    0  501    0  0.00000000000E+00 -0.00000000000E+00 -0.28022285445E+04  0.28022285445E+04  0.00000000000E+00 0. -1.
         24    2    1    2    0    0 -0.72899433048E+03 -0.29314027753E+03 -0.26299540793E+03  0.83199617395E+03  0.75412815230E+02 0.  0.
        254    2    1    2    0    0  0.72899433048E+03  0.29314027753E+03 -0.20953586186E+04  0.24141068884E+04  0.90554976221E+03 0.  0.
         23    2    4    4    0    0  0.76588730845E+03  0.52807488919E+03 -0.15219242742E+04  0.17859725786E+04  0.89432082654E+02 0.  0.
         23    2    4    4    0    0 -0.36892977967E+02 -0.23493461166E+03 -0.57343434449E+03  0.62813430983E+03  0.95762206363E+02 0.  0.
          4    1    3    3  502    0 -0.99104023742E+02 -0.68902564537E+02 -0.42313448190E+02  0.12790464737E+03  0.00000000000E+00 0. -1.
         -3    1    3    3    0  502 -0.62989030674E+03 -0.22423771299E+03 -0.22068195974E+03  0.70409152658E+03  0.00000000000E+00 0.  1.
         11    1    5    5    0    0  0.11740020385E+03  0.12246291705E+03 -0.26949130172E+03  0.31844235839E+03  0.00000000000E+00 0. -1.
        -11    1    5    5    0    0  0.64848710460E+03  0.40561197214E+03 -0.12524329724E+04  0.14675302202E+04  0.00000000000E+00 0.  1.
          1    1    6    6  503    0  0.27431084193E+02 -0.53001589521E+02 -0.18535933580E+03  0.19472985451E+03  0.00000000000E+00 0. -1.
         -1    1    6    6    0  503 -0.64324062160E+02 -0.18193302214E+03 -0.38807500870E+03  0.43340445532E+03  0.00000000000E+00 0.  1.
<mgrwt>
<rscale>  0 0.22305496E+04</rscale>
<asrwt>0</asrwt>
<pdfrwt beam="1">  1        2 0.43111209E+00 0.22305496E+04</pdfrwt>
<pdfrwt beam="2">  1       -1 0.68288386E-01 0.22305496E+04</pdfrwt>
<totfact> 0.51941127E+00</totfact>
</mgrwt>
</event>
<event>
12    6  0.1530859E-007  0.2219025E+04  0.7818608E-02  0.8510551E-01
          2   -1    0    0  501    0  0.00000000000E+00  0.00000000000E+00  0.91535106291E+03  0.91535106291E+03  0.00000000000E+00 0. -1.
         -1   -1    0    0    0  501 -0.00000000000E+00 -0.00000000000E+00 -0.13448591919E+04  0.13448591919E+04  0.00000000000E+00 0.  1.
         24    2    1    2    0    0 -0.68277272675E+03 -0.86339974523E+02  0.45930878427E+03  0.83136593726E+03  0.81065249908E+02 0.  0.
        254    2    1    2    0    0  0.68277272675E+03  0.86339974523E+02 -0.88881691326E+03  0.14288443175E+04  0.88202459767E+03 0.  0.
         23    2    4    4    0    0 -0.36622989360E+02  0.22277534815E+03  0.36095470130E+02  0.24589326104E+03  0.90501457276E+02 0.  0.
         23    2    4    4    0    0  0.71939571611E+03 -0.13643537362E+03 -0.92491238339E+03  0.11829510565E+04  0.88121947388E+02 0.  0.
          2    1    3    3  502    0 -0.44439245639E+03 -0.19008451178E+02  0.28037219117E+03  0.52578944654E+03  0.00000000000E+00 0. -1.
         -1    1    3    3    0  502 -0.23838027036E+03 -0.67331523344E+02  0.17893659310E+03  0.30557649072E+03  0.00000000000E+00 0.  1.
         11    1    5    5    0    0 -0.42751639833E+01  0.68672707364E+02 -0.30077702667E+02  0.75092516015E+02  0.00000000000E+00 0.  1.
        -11    1    5    5    0    0 -0.32347825376E+02  0.15410264078E+03  0.66173172797E+02  0.17080074502E+03  0.00000000000E+00 0. -1.
          1    1    6    6  503    0  0.57973201599E+03 -0.76548246911E+02 -0.75553869600E+03  0.95539916560E+03  0.00000000000E+00 0. -1.
         -1    1    6    6    0  503  0.13966370012E+03 -0.59887126713E+02 -0.16937368738E+03  0.22755189091E+03  0.00000000000E+00 0.  1.
<mgrwt>
<rscale>  0 0.22190253E+04</rscale>
<asrwt>0</asrwt>
<pdfrwt beam="1">  1        2 0.14082324E+00 0.22190253E+04</pdfrwt>
<pdfrwt beam="2">  1       -1 0.20690141E+00 0.22190253E+04</pdfrwt>
<totfact> 0.40218493E+00</totfact>
</mgrwt>
</event>
<event>
12    6  0.1530859E-007  0.2304493E+04  0.7818608E-02  0.8476152E-01
          2   -1    0    0  501    0  0.00000000000E+00  0.00000000000E+00  0.26614824044E+04  0.26614824044E+04  0.00000000000E+00 0. -1.
         -1   -1    0    0    0  501 -0.00000000000E+00 -0.00000000000E+00 -0.49884675831E+03  0.49884675831E+03  0.00000000000E+00 0.  1.
         24    2    1    2    0    0  0.23970158614E+03 -0.81959074599E+02  0.22238114245E+04  0.22396201131E+04  0.79917824303E+02 0.  0.
        254    2    1    2    0    0 -0.23970158614E+03  0.81959074599E+02 -0.61175778431E+02  0.92070904966E+03  0.88305636171E+03 0.  0.
         23    2    4    4    0    0 -0.27409279508E+03 -0.26964374700E+03  0.22687953430E+03  0.45586333925E+03  0.92208732654E+02 0.  0.
         23    2    4    4    0    0  0.34391208942E+02  0.35160282160E+03 -0.28805531273E+03  0.46484571041E+03  0.91095399882E+02 0.  0.
          4    1    3    3  502    0  0.94175229114E+02  0.21094284244E+01  0.97744986460E+03  0.98197844237E+03  0.00000000000E+00 0. -1.
         -3    1    3    3    0  502  0.14552635703E+03 -0.84068503024E+02  0.12463615599E+04  0.12576416707E+04  0.00000000000E+00 0.  1.
         11    1    5    5    0    0 -0.26022532327E+03 -0.22346685054E+03  0.17511548222E+03  0.38512346628E+03  0.00000000000E+00 0.  1.
        -11    1    5    5    0    0 -0.13867471810E+02 -0.46176896456E+02  0.51764052082E+02  0.70739872976E+02  0.00000000000E+00 0. -1.
          4    1    6    6  503    0 -0.27675205106E+02  0.85668437260E+02 -0.52563219832E+02  0.10424917361E+03  0.00000000000E+00 0. -1.
         -4    1    6    6    0  503  0.62066414048E+02  0.26593438434E+03 -0.23549209290E+03  0.36059653679E+03  0.00000000000E+00 0.  1.
<mgrwt>
<rscale>  0 0.23044929E+04</rscale>
<asrwt>0</asrwt>
<pdfrwt beam="1">  1        2 0.40945882E+00 0.23044929E+04</pdfrwt>
<pdfrwt beam="2">  1       -1 0.76745657E-01 0.23044929E+04</pdfrwt>
<totfact> 0.49175202E+00</totfact>
</mgrwt>
</event>
<event>
12    6  0.1530859E-007  0.2554790E+04  0.7818608E-02  0.8383722E-01
         -3   -1    0    0    0  501 -0.00000000000E+00  0.00000000000E+00  0.91311364270E+03  0.91311364270E+03  0.00000000000E+00 0.  1.
          4   -1    0    0  501    0  0.00000000000E+00 -0.00000000000E+00 -0.17870043393E+04  0.17870043393E+04  0.00000000000E+00 0. -1.
         24    2    1    2    0    0 -0.87373415077E+03 -0.26323342012E+03  0.29718382112E+03  0.96298626617E+03  0.79505506810E+02 0.  0.
        254    2    1    2    0    0  0.87373415077E+03  0.26323342012E+03 -0.11710745177E+04  0.17371317158E+04  0.90194671259E+03 0.  0.
         23    2    4    4    0    0 -0.44970677994E+02 -0.52099866992E+02 -0.59006221128E+03  0.60153741705E+03  0.94536198977E+02 0.  0.
         23    2    4    4    0    0  0.91870482876E+03  0.31533328711E+03 -0.58101230641E+03  0.11355942987E+04  0.92441693955E+02 0.  0.
          2    1    3    3  502    0 -0.13851027327E+03 -0.15100304660E+02  0.58780374442E+02  0.15122250964E+03  0.00000000000E+00 0. -1.
         -1    1    3    3    0  502 -0.73522387749E+03 -0.24813311546E+03  0.23840344668E+03  0.81176375653E+03  0.00000000000E+00 0.  1.
         11    1    5    5    0    0  0.53775099665E+01  0.17711176015E+02 -0.32758230374E+02  0.37625855824E+02  0.00000000000E+00 0.  1.
        -11    1    5    5    0    0 -0.50348187960E+02 -0.69811043007E+02 -0.55730398091E+03  0.56391156123E+03  0.00000000000E+00 0. -1.
          2    1    6    6  503    0  0.54395934540E+03  0.22283137339E+03 -0.38495329380E+03  0.70266252840E+03  0.00000000000E+00 0. -1.
         -2    1    6    6    0  503  0.37474548336E+03  0.92501913724E+02 -0.19605901261E+03  0.43293177034E+03  0.00000000000E+00 0.  1.
<mgrwt>
<rscale>  0 0.25547900E+04</rscale>
<asrwt>0</asrwt>
<pdfrwt beam="1">  1        4 0.27492374E+00 0.25547900E+04</pdfrwt>
<pdfrwt beam="2">  1       -3 0.14047902E+00 0.25547900E+04</pdfrwt>
<totfact> 0.34084459E-02</totfact>
</mgrwt>
</event>
<event>
12    6  0.1530859E-007  0.3011179E+04  0.7818608E-02  0.8240546E-01
          2   -1    0    0  501    0  0.00000000000E+00  0.00000000000E+00  0.30644859652E+04  0.30644859652E+04  0.00000000000E+00 0. -1.
         -1   -1    0    0    0  501 -0.00000000000E+00 -0.00000000000E+00 -0.73970001155E+03  0.73970001155E+03  0.00000000000E+00 0.  1.
         24    2    1    2    0    0 -0.61503991037E+03  0.12097266443E+04  0.83028348088E+03  0.15930323987E+04  0.81663451935E+02 0.  0.
        254    2    1    2    0    0  0.61503991037E+03 -0.12097266443E+04  0.14945024728E+04  0.22111535781E+04  0.90219169785E+03 0.  0.
         23    2    4    4    0    0 -0.53406254193E+02 -0.13154466373E+03 -0.84671056101E+02  0.18352554393E+03  0.79725848942E+02 0.  0.
         23    2    4    4    0    0  0.66844616456E+03 -0.10781819805E+04  0.15791735289E+04  0.20276280342E+04  0.90497251999E+02 0.  0.
          2    1    3    3  502    0 -0.30290203186E+03  0.54121026499E+03  0.34143303933E+03  0.70797931621E+03  0.00000000000E+00 0. -1.
         -1    1    3    3    0  502 -0.31213787851E+03  0.66851637926E+03  0.48885044155E+03  0.88505308244E+03  0.00000000000E+00 0.  1.
         11    1    5    5    0    0 -0.44324933994E+02 -0.64311912182E+02 -0.41268226112E+01  0.78216062845E+02  0.00000000000E+00 0.  1.
        -11    1    5    5    0    0 -0.90813201994E+01 -0.67232751550E+02 -0.80544233490E+02  0.10530948108E+03  0.00000000000E+00 0. -1.
          2    1    6    6  503    0  0.33154987208E+03 -0.61979099816E+03  0.86602409512E+03  0.11153761394E+04  0.00000000000E+00 0. -1.
         -2    1    6    6    0  503  0.33689629248E+03 -0.45839098236E+03  0.71314943380E+03  0.91225189478E+03  0.00000000000E+00 0.  1.
<mgrwt>
<rscale>  0 0.30111794E+04</rscale>
<asrwt>0</asrwt>
<pdfrwt beam="1">  1        2 0.47145937E+00 0.30111794E+04</pdfrwt>
<pdfrwt beam="2">  1       -1 0.11380000E+00 0.30111794E+04</pdfrwt>
<totfact> 0.10835873E+00</totfact>
</mgrwt>
</event>
<event>
12    6  0.1530859E-007  0.2206354E+04  0.7818608E-02  0.8515788E-01
          2   -1    0    0  501    0  0.00000000000E+00  0.00000000000E+00  0.16809411090E+04  0.16809411090E+04  0.00000000000E+00 0. -1.
         -1   -1    0    0    0  501 -0.00000000000E+00 -0.00000000000E+00 -0.72399895841E+03  0.72399895841E+03  0.00000000000E+00 0.  1.
         24    2    1    2    0    0 -0.49195436826E+03  0.15041941417E+03  0.12362362348E+04  0.13414223193E+04  0.80552528048E+02 0.  0.
        254    2    1    2    0    0  0.49195436826E+03 -0.15041941417E+03 -0.27929408419E+03  0.10635177482E+04  0.88793001671E+03 0.  0.
         23    2    4    4    0    0  0.26724810501E+03 -0.21668596768E+03  0.27824190257E+03  0.45188986438E+03  0.91714420693E+02 0.  0.
         23    2    4    4    0    0  0.22470626325E+03  0.66266553508E+02 -0.55753598677E+03  0.61162788377E+03  0.91422813395E+02 0.  0.
          4    1    3    3  502    0 -0.34587798257E+03  0.83996095912E+02  0.76845611619E+03  0.84688353713E+03  0.00000000000E+00 0. -1.
         -3    1    3    3    0  502 -0.14607638569E+03  0.66423318262E+02  0.46778011862E+03  0.49453878214E+03  0.00000000000E+00 0.  1.
         11    1    5    5    0    0  0.70751613626E+02 -0.93445896826E+02  0.13711156632E+03  0.18038156248E+03  0.00000000000E+00 0. -1.
        -11    1    5    5    0    0  0.19649649138E+03 -0.12324007086E+03  0.14113033625E+03  0.27150830190E+03  0.00000000000E+00 0.  1.
          3    1    6    6  503    0  0.13203564024E+03 -0.82273918420E+01 -0.27897104933E+03  0.30874900264E+03  0.00000000000E+00 0. -1.
         -3    1    6    6    0  503  0.92670623007E+02  0.74493945350E+02 -0.27856493744E+03  0.30287888113E+03  0.00000000000E+00 0.  1.
<mgrwt>
<rscale>  0 0.22063541E+04</rscale>
<asrwt>0</asrwt>
<pdfrwt beam="1">  1        2 0.25860632E+00 0.22063541E+04</pdfrwt>
<pdfrwt beam="2">  1       -1 0.11138446E+00 0.22063541E+04</pdfrwt>
<totfact> 0.77457570E+00</totfact>
</mgrwt>
</event>
<event>
12    6  0.1530859E-007  0.2157811E+04  0.7818608E-02  0.8536196E-01
          2   -1    0    0  501    0  0.00000000000E+00  0.00000000000E+00  0.78467082107E+03  0.78467082107E+03  0.00000000000E+00 0. -1.
         -3   -1    0    0    0  501 -0.00000000000E+00 -0.00000000000E+00 -0.14834716758E+04  0.14834716758E+04  0.00000000000E+00 0.  1.
         24    2    1    2    0    0  0.18702113364E+03  0.32454537585E+00  0.62581515630E+03  0.65816152620E+03  0.80962799803E+02 0.  0.
        254    2    1    2    0    0 -0.18702113364E+03 -0.32454537585E+00 -0.13246160110E+04  0.16099809707E+04  0.89579804615E+03 0.  0.
         23    2    4    4    0    0  0.95042119193E+02  0.23461477410E+03 -0.11719175689E+04  0.12024351179E+04  0.91555053295E+02 0.  0.
         23    2    4    4    0    0 -0.28206325283E+03 -0.23493931947E+03 -0.15269844216E+03  0.40754585281E+03  0.89558056431E+02 0.  0.
          2    1    3    3  502    0  0.13661257926E+03 -0.36445993668E+02  0.43699445999E+03  0.45929888453E+03  0.00000000000E+00 0. -1.
         -1    1    3    3    0  502  0.50408554385E+02  0.36770539044E+02  0.18882069631E+03  0.19886264167E+03  0.00000000000E+00 0.  1.
         11    1    5    5    0    0  0.10582554879E+03  0.19952822206E+03 -0.10818668718E+04  0.11051907015E+04  0.00000000000E+00 0. -1.
        -11    1    5    5    0    0 -0.10783429597E+02  0.35086552036E+02 -0.90050697024E+02  0.97244416406E+02  0.00000000000E+00 0.  1.
          4    1    6    6  503    0 -0.22309210432E+03 -0.22301484050E+03 -0.14398809484E+03  0.34675391497E+03  0.00000000000E+00 0. -1.
         -4    1    6    6    0  503 -0.58971148517E+02 -0.11924478978E+02 -0.87103473192E+01  0.60791937843E+02  0.00000000000E+00 0.  1.
<mgrwt>
<rscale>  0 0.21578109E+04</rscale>
<asrwt>0</asrwt>
<pdfrwt beam="1">  1        2 0.12071859E+00 0.21578109E+04</pdfrwt>
<pdfrwt beam="2">  1       -3 0.22822641E+00 0.21578109E+04</pdfrwt>
<totfact> 0.19970130E+00</totfact>
</mgrwt>
</event>
<event>
12    6  0.1530859E-007  0.2284366E+04  0.7818608E-02  0.8484111E-01
         -1   -1    0    0    0  501 -0.00000000000E+00  0.00000000000E+00  0.10968976803E+04  0.10968976803E+04  0.00000000000E+00 0.  1.
          2   -1    0    0  501    0  0.00000000000E+00 -0.00000000000E+00 -0.11893374996E+04  0.11893374996E+04  0.00000000000E+00 0. -1.
         24    2    1    2    0    0 -0.83080548568E+03  0.39129855145E+03  0.92577356582E+02  0.92614208129E+03  0.76264515826E+02 0.  0.
        254    2    1    2    0    0  0.83080548568E+03 -0.39129855145E+03 -0.18501717588E+03  0.13600930986E+04  0.98603730666E+03 0.  0.
         23    2    4    4    0    0  0.90345394460E+03 -0.37912513450E+03  0.15905234966E+03  0.99684232222E+03  0.91826291442E+02 0.  0.
         23    2    4    4    0    0 -0.72648458921E+02 -0.12173416951E+02 -0.34406952553E+03  0.36325077640E+03  0.90229138819E+02 0.  0.
          2    1    3    3  502    0 -0.10866836589E+03  0.56413155378E+02  0.38280310390E+02  0.12828343622E+03  0.00000000000E+00 0. -1.
         -1    1    3    3    0  502 -0.72213711979E+03  0.33488539607E+03  0.54297046192E+02  0.79785864507E+03  0.00000000000E+00 0.  1.
         11    1    5    5    0    0  0.20508630874E+03 -0.84818708888E+02 -0.25839505869E+01  0.22194883242E+03  0.00000000000E+00 0. -1.
        -11    1    5    5    0    0  0.69836763586E+03 -0.29430642561E+03  0.16163630024E+03  0.77489348980E+03  0.00000000000E+00 0.  1.
          1    1    6    6  503    0  0.56902657747E+01  0.24847064935E+02 -0.43262942439E+02  0.50213921864E+02  0.00000000000E+00 0. -1.
         -1    1    6    6    0  503 -0.78338724696E+02 -0.37020481887E+02 -0.30080658310E+03  0.31303685454E+03  0.00000000000E+00 0.  1.
<mgrwt>
<rscale>  0 0.22843656E+04</rscale>
<asrwt>0</asrwt>
<pdfrwt beam="1">  1        2 0.18297500E+00 0.22843656E+04</pdfrwt>
<pdfrwt beam="2">  1       -1 0.16875349E+00 0.22843656E+04</pdfrwt>
<totfact> 0.49991854E+00</totfact>
</mgrwt>
</event>
<event>
12    6  0.1530859E-007  0.1187490E+04  0.7818608E-02  0.9123878E-01
          2   -1    0    0  501    0  0.00000000000E+00  0.00000000000E+00  0.71110960616E+03  0.71110960616E+03  0.00000000000E+00 0. -1.
         -1   -1    0    0    0  501 -0.00000000000E+00 -0.00000000000E+00 -0.49575075898E+03  0.49575075898E+03  0.00000000000E+00 0.  1.
         24    2    1    2    0    0 -0.14832467637E+03 -0.77606286063E+02  0.21577873991E+03  0.28465980287E+03  0.80298153886E+02 0.  0.
        254    2    1    2    0    0  0.14832467637E+03  0.77606286063E+02 -0.41989271949E+00  0.92220056227E+03  0.90687968083E+03 0.  0.
         23    2    4    4    0    0  0.46856868778E+03  0.44597600869E+02  0.21397406912E+03  0.52486494480E+03  0.90292562513E+02 0.  0.
         23    2    4    4    0    0 -0.32024401141E+03  0.33008685194E+02 -0.21439396184E+03  0.39733561748E+03  0.90912165851E+02 0.  0.
          4    1    3    3  502    0 -0.11663953277E+03 -0.25799034686E+02  0.17356154637E+03  0.21069879253E+03  0.00000000000E+00 0. -1.
         -3    1    3    3    0  502 -0.31685143600E+02 -0.51807251377E+02  0.42217193534E+02  0.73961010338E+02  0.00000000000E+00 0.  1.
         11    1    5    5    0    0  0.41993911080E+03  0.67551801181E+02  0.19413371693E+03  0.46754679196E+03  0.00000000000E+00 0.  1.
        -11    1    5    5    0    0  0.48629576981E+02 -0.22954200312E+02  0.19840352191E+02  0.57318152835E+02  0.00000000000E+00 0. -1.
          1    1    6    6  503    0 -0.66910342579E+02  0.28520853925E+01 -0.47724916782E+01  0.67140933952E+02  0.00000000000E+00 0. -1.
         -1    1    6    6    0  503 -0.25333366883E+03  0.30156599801E+02 -0.20962147016E+03  0.33019468353E+03  0.00000000000E+00 0.  1.
<mgrwt>
<rscale>  0 0.11874900E+04</rscale>
<asrwt>0</asrwt>
<pdfrwt beam="1">  1        2 0.10940148E+00 0.11874900E+04</pdfrwt>
<pdfrwt beam="2">  1       -1 0.76269347E-01 0.11874900E+04</pdfrwt>
<totfact> 0.78215991E+01</totfact>
</mgrwt>
</event>
<event>
12    6  0.1530859E-007  0.3063613E+04  0.7818608E-02  0.8225796E-01
          2   -1    0    0  501    0  0.00000000000E+00  0.00000000000E+00  0.12465347575E+04  0.12465347575E+04  0.00000000000E+00 0. -1.
         -1   -1    0    0    0  501 -0.00000000000E+00 -0.00000000000E+00 -0.18823632879E+04  0.18823632879E+04  0.00000000000E+00 0.  1.
         24    2    1    2    0    0  0.10833826151E+04  0.10522786793E+03 -0.12001307778E+04  0.16220053916E+04  0.76136797316E+02 0.  0.
        254    2    1    2    0    0 -0.10833826151E+04 -0.10522786793E+03  0.56430224736E+03  0.15068926537E+04  0.87606943135E+03 0.  0.
         23    2    4    4    0    0 -0.55565910564E+03 -0.54634796271E+02 -0.17502277126E+03  0.59230401932E+03  0.91918867473E+02 0.  0.
         23    2    4    4    0    0 -0.52772350944E+03 -0.50593071660E+02  0.73932501861E+03  0.91458863438E+03  0.93910200053E+02 0.  0.
          2    1    3    3  502    0  0.39052936044E+00 -0.17877680050E+01  0.13131420843E+00  0.18346310372E+01  0.00000000000E+00 0. -1.
         -1    1    3    3    0  502  0.10829920857E+04  0.10701563594E+03 -0.12002620920E+04  0.16201707606E+04  0.00000000000E+00 0.  1.
         11    1    5    5    0    0 -0.15295562095E+03 -0.25395936991E+01 -0.78467688670E+01  0.15317781595E+03  0.00000000000E+00 0. -1.
        -11    1    5    5    0    0 -0.40270348469E+03 -0.52095202571E+02 -0.16717600239E+03  0.43912620337E+03  0.00000000000E+00 0.  1.
          3    1    6    6  503    0 -0.55976409093E+02 -0.24738208445E+01  0.13690072225E+03  0.14792324333E+03  0.00000000000E+00 0. -1.
         -3    1    6    6    0  503 -0.47174710035E+03 -0.48119250815E+02  0.60242429636E+03  0.76666539105E+03  0.00000000000E+00 0.  1.
<mgrwt>
<rscale>  0 0.30636131E+04</rscale>
<asrwt>0</asrwt>
<pdfrwt beam="1">  1        2 0.19177458E+00 0.30636131E+04</pdfrwt>
<pdfrwt beam="2">  1       -1 0.28959435E+00 0.30636131E+04</pdfrwt>
<totfact> 0.66489419E-01</totfact>
</mgrwt>
</event>
<event>
12    6  0.1530859E-007  0.1239330E+04  0.7818608E-02  0.9079111E-01
         -1   -1    0    0    0  501 -0.00000000000E+00  0.00000000000E+00  0.36285155088E+03  0.36285155088E+03  0.00000000000E+00 0.  1.
          2   -1    0    0  501    0  0.00000000000E+00 -0.00000000000E+00 -0.10582412339E+04  0.10582412339E+04  0.00000000000E+00 0. -1.
         24    2    1    2    0    0  0.21705807533E+03 -0.16069238738E+03 -0.79860055511E+02  0.30062968740E+03  0.10518711447E+03 0.  0.
        254    2    1    2    0    0 -0.21705807533E+03  0.16069238738E+03 -0.61552962756E+03  0.11204630974E+04  0.89645110232E+03 0.  0.
         23    2    4    4    0    0 -0.67702058502E+01  0.46041112717E+03 -0.57142909171E+03  0.74060489023E+03  0.99700325304E+02 0.  0.
         23    2    4    4    0    0 -0.21028786948E+03 -0.29971873979E+03 -0.44100535846E+02  0.37985820719E+03  0.91077380713E+02 0.  0.
          4    1    3    3  502    0  0.64003732609E+02  0.45423106210E+01 -0.24615458782E+02  0.68724312909E+02  0.00000000000E+00 0. -1.
         -3    1    3    3    0  502  0.15305434272E+03 -0.16523469800E+03 -0.55244596730E+02  0.23190537449E+03  0.00000000000E+00 0.  1.
         11    1    5    5    0    0  0.10742913517E+02  0.40121231263E+02 -0.17535289925E+02  0.45084473842E+02  0.00000000000E+00 0. -1.
        -11    1    5    5    0    0 -0.17513119367E+02  0.42028989591E+03 -0.55389380179E+03  0.69552041639E+03  0.00000000000E+00 0.  1.
          3    1    6    6  503    0 -0.12086146419E+02  0.32686732591E+01  0.67885170990E+01  0.14242300535E+02  0.00000000000E+00 0. -1.
         -3    1    6    6    0  503 -0.19820172306E+03 -0.30298741305E+03 -0.50889052945E+02  0.36561590666E+03  0.00000000000E+00 0.  1.
<mgrwt>
<rscale>  0 0.12393296E+04</rscale>
<asrwt>0</asrwt>
<pdfrwt beam="1">  1        2 0.16280634E+00 0.12393296E+04</pdfrwt>
<pdfrwt beam="2">  1       -1 0.55823316E-01 0.12393296E+04</pdfrwt>
<totfact> 0.84266138E+01</totfact>
</mgrwt>
</event>
<event>
12    6  0.1530859E-007  0.1395548E+04  0.7818608E-02  0.8957048E-01
         -1   -1    0    0    0  501 -0.00000000000E+00  0.00000000000E+00  0.55601427470E+03  0.55601427470E+03  0.00000000000E+00 0.  1.
          2   -1    0    0  501    0  0.00000000000E+00 -0.00000000000E+00 -0.87567623833E+03  0.87567623833E+03  0.00000000000E+00 0. -1.
         24    2    1    2    0    0  0.31184181972E+03  0.68433990085E+02  0.15675719117E+03  0.36482536013E+03  0.81216961817E+02 0.  0.
        254    2    1    2    0    0 -0.31184181972E+03 -0.68433990085E+02 -0.47641915480E+03  0.10668651529E+04  0.89960964418E+03 0.  0.
         23    2    4    4    0    0 -0.79551358382E+02 -0.25102491702E+03 -0.65295806724E+03  0.70992073585E+03  0.91056499175E+02 0.  0.
         23    2    4    4    0    0 -0.23229046134E+03  0.18259092694E+03  0.17653891244E+03  0.35694441705E+03  0.94578138217E+02 0.  0.
          2    1    3    3  502    0 -0.47738767329E+01 -0.15074584870E+01  0.39351858000E+01  0.63677325188E+01  0.00000000000E+00 0. -1.
         -1    1    3    3    0  502  0.31661569646E+03  0.69941448572E+02  0.15282200537E+03  0.35845762761E+03  0.00000000000E+00 0.  1.
         11    1    5    5    0    0 -0.49386620035E+02 -0.12976841841E+03 -0.45600164391E+03  0.47667219334E+03  0.00000000000E+00 0. -1.
        -11    1    5    5    0    0 -0.30164738347E+02 -0.12125649862E+03 -0.19695642332E+03  0.23324854251E+03  0.00000000000E+00 0.  1.
          4    1    6    6  503    0 -0.18108778872E+03  0.18125197966E+03  0.12811882160E+03  0.28646029359E+03  0.00000000000E+00 0.  1.
         -4    1    6    6    0  503 -0.51202672624E+02  0.13389472752E+01  0.48420090836E+02  0.70484123462E+02  0.00000000000E+00 0. -1.
<mgrwt>
<rscale>  0 0.13955479E+04</rscale>
<asrwt>0</asrwt>
<pdfrwt beam="1">  1        2 0.13471942E+00 0.13955479E+04</pdfrwt>
<pdfrwt beam="2">  1       -1 0.85540657E-01 0.13955479E+04</pdfrwt>
<totfact> 0.45731224E+01</totfact>
</mgrwt>
</event>
<event>
12    6  0.1530859E-007  0.1449270E+04  0.7818608E-02  0.8918907E-01
          2   -1    0    0  501    0  0.00000000000E+00  0.00000000000E+00  0.10325115673E+04  0.10325115673E+04  0.00000000000E+00 0. -1.
         -1   -1    0    0    0  501 -0.00000000000E+00 -0.00000000000E+00 -0.50856192479E+03  0.50856192479E+03  0.00000000000E+00 0.  1.
         24    2    1    2    0    0 -0.71119830513E+02 -0.37186248244E+03  0.40043379701E+03  0.55685039710E+03  0.79971262501E+02 0.  0.
        254    2    1    2    0    0  0.71119830513E+02  0.37186248244E+03  0.12351584547E+03  0.98422309496E+03  0.90005510966E+03 0.  0.
         23    2    4    4    0    0  0.78232482327E+02 -0.93504731723E+02  0.40494792566E+03  0.43261985261E+03  0.91179264254E+02 0.  0.
         23    2    4    4    0    0 -0.71126518134E+01  0.46536721417E+03 -0.28143208019E+03  0.55160324235E+03  0.91896068326E+02 0.  0.
          2    1    3    3  502    0 -0.40938296797E+02 -0.15809455109E+03  0.11859479860E+03  0.20182803939E+03  0.00000000000E+00 0. -1.
         -1    1    3    3    0  502 -0.30181533716E+02 -0.21376793135E+03  0.28183899841E+03  0.35502235771E+03  0.00000000000E+00 0.  1.
         11    1    5    5    0    0  0.24563779566E+02 -0.12776848553E+02  0.23771226384E+03  0.23931934210E+03  0.00000000000E+00 0. -1.
        -11    1    5    5    0    0  0.53668702761E+02 -0.80727883171E+02  0.16723566182E+03  0.19330051051E+03  0.00000000000E+00 0.  1.
          2    1    6    6  503    0  0.83459585582E+01  0.14840956556E+03 -0.13994447494E+03  0.20415560301E+03  0.00000000000E+00 0. -1.
         -2    1    6    6    0  503 -0.15458610372E+02  0.31695764861E+03 -0.14148760526E+03  0.34744763934E+03  0.00000000000E+00 0.  1.
<mgrwt>
<rscale>  0 0.14492703E+04</rscale>
<asrwt>0</asrwt>
<pdfrwt beam="1">  1        2 0.15884793E+00 0.14492703E+04</pdfrwt>
<pdfrwt beam="2">  1       -1 0.78240296E-01 0.14492703E+04</pdfrwt>
<totfact> 0.43456454E+01</totfact>
</mgrwt>
</event>
<event>
12    6  0.1530859E-007  0.1903370E+04  0.7818608E-02  0.8653181E-01
          2   -1    0    0  501    0  0.00000000000E+00  0.00000000000E+00  0.19877911423E+04  0.19877911423E+04  0.00000000000E+00 0. -1.
         -1   -1    0    0    0  501 -0.00000000000E+00 -0.00000000000E+00 -0.45563347834E+03  0.45563347834E+03  0.00000000000E+00 0.  1.
         24    2    1    2    0    0  0.82683269918E+02 -0.24062689022E+03  0.14823148422E+04  0.15060880815E+04  0.79411552348E+02 0.  0.
        254    2    1    2    0    0 -0.82683269918E+02  0.24062689022E+03  0.49842821806E+02  0.93733653910E+03  0.90076503997E+03 0.  0.
         23    2    4    4    0    0  0.24185594834E+03 -0.22333346234E+03 -0.82719674485E+02  0.34883635668E+03  0.80449512393E+02 0.  0.
         23    2    4    4    0    0 -0.32453921825E+03  0.46396035257E+03  0.13256249629E+03  0.58850018243E+03  0.90414248643E+02 0.  0.
          4    1    3    3  502    0  0.42756627321E+02 -0.19135098905E+03  0.95102019828E+03  0.97102149705E+03  0.00000000000E+00 0. -1.
         -1    1    3    3    0  502  0.39926642597E+02 -0.49275901170E+02  0.53129464388E+03  0.53506658449E+03  0.00000000000E+00 0.  1.
         11    1    5    5    0    0  0.55470644312E+02 -0.42378292609E+02  0.14799817986E+02  0.71357877472E+02  0.00000000000E+00 0. -1.
        -11    1    5    5    0    0  0.18638530402E+03 -0.18095516973E+03 -0.97519492471E+02  0.27747847920E+03  0.00000000000E+00 0.  1.
          1    1    6    6  503    0 -0.17333253992E+03  0.17141927072E+03  0.65613491276E+02  0.25245567137E+03  0.00000000000E+00 0. -1.
         -1    1    6    6    0  503 -0.15120667834E+03  0.29254108185E+03  0.66949005015E+02  0.33604451106E+03  0.00000000000E+00 0.  1.
<mgrwt>
<rscale>  0 0.19033698E+04</rscale>
<asrwt>0</asrwt>
<pdfrwt beam="1">  1        2 0.30581402E+00 0.19033698E+04</pdfrwt>
<pdfrwt beam="2">  1       -1 0.70097459E-01 0.19033698E+04</pdfrwt>
<totfact> 0.14885775E+01</totfact>
</mgrwt>
</event>
<event>
12    6  0.1530859E-007  0.1975349E+04  0.7818608E-02  0.8618233E-01
          2   -1    0    0  501    0  0.00000000000E+00  0.00000000000E+00  0.91028663703E+03  0.91028663703E+03  0.00000000000E+00 0. -1.
         -1   -1    0    0    0  501 -0.00000000000E+00 -0.00000000000E+00 -0.10716419355E+04  0.10716419355E+04  0.00000000000E+00 0.  1.
         24    2    1    2    0    0 -0.93392019819E+02  0.58042913501E+03  0.45023894617E+03  0.74514922731E+03  0.83139714864E+02 0.  0.
        254    2    1    2    0    0  0.93392019819E+02 -0.58042913501E+03 -0.61159424464E+03  0.12367793452E+04  0.89997532107E+03 0.  0.
         23    2    4    4    0    0  0.14789352286E+03 -0.77876834387E+03 -0.30383368573E+03  0.85481621178E+03  0.10021586609E+03 0.  0.
         23    2    4    4    0    0 -0.54501503045E+02  0.19833920886E+03 -0.30776055891E+03  0.38196313344E+03  0.94182896967E+02 0.  0.
          4    1    3    3  502    0 -0.10155888496E+03  0.57499387101E+03  0.44166453792E+03  0.73212001944E+03  0.00000000000E+00 0. -1.
         -3    1    3    3    0  502  0.81668651397E+01  0.54352639981E+01  0.85744082468E+01  0.13029207870E+02  0.00000000000E+00 0.  1.
         11    1    5    5    0    0  0.25192290754E+02 -0.48150884725E+02 -0.69541440586E+00  0.54347426935E+02  0.00000000000E+00 0. -1.
        -11    1    5    5    0    0  0.12270123211E+03 -0.73061745914E+03 -0.30313827132E+03  0.80046878484E+03  0.00000000000E+00 0.  1.
          2    1    6    6  503    0  0.41791445450E+01 -0.94059736278E+01 -0.15948757610E+02  0.18981582081E+02  0.00000000000E+00 0. -1.
         -2    1    6    6    0  503 -0.58680647590E+02  0.20774518249E+03 -0.29181180130E+03  0.36298155135E+03  0.00000000000E+00 0.  1.
<mgrwt>
<rscale>  0 0.19753494E+04</rscale>
<asrwt>0</asrwt>
<pdfrwt beam="1">  1        2 0.14004410E+00 0.19753494E+04</pdfrwt>
<pdfrwt beam="2">  1       -1 0.16486799E+00 0.19753494E+04</pdfrwt>
<totfact> 0.82323266E+00</totfact>
</mgrwt>
</event>
<event>
12    6  0.1530859E-007  0.1874920E+04  0.7818608E-02  0.8667442E-01
          2   -1    0    0  501    0  0.00000000000E+00  0.00000000000E+00  0.21542480239E+04  0.21542480239E+04  0.00000000000E+00 0. -1.
         -1   -1    0    0    0  501 -0.00000000000E+00 -0.00000000000E+00 -0.40795280783E+03  0.40795280783E+03  0.00000000000E+00 0.  1.
         24    2    1    2    0    0  0.59878662226E+02 -0.19180270039E+02 -0.30560175874E+03  0.32213379108E+03  0.80152401454E+02 0.  0.
        254    2    1    2    0    0 -0.59878662226E+02  0.19180270039E+02  0.20518969748E+04  0.22400670407E+04  0.89647410138E+03 0.  0.
         23    2    4    4    0    0 -0.33633270734E+03  0.21277021179E+03  0.48164910346E+03  0.63141052818E+03  0.91118292252E+02 0.  0.
         23    2    4    4    0    0  0.27645404512E+03 -0.19358994175E+03  0.15702478714E+04  0.16086565125E+04  0.90517915551E+02 0.  0.
          4    1    3    3  502    0  0.55602867272E+02  0.18940759248E+02 -0.13421035657E+03  0.14650205125E+03  0.00000000000E+00 0. -1.
         -3    1    3    3    0  502  0.42757949534E+01 -0.38121029287E+02 -0.17139140217E+03  0.17563173982E+03  0.00000000000E+00 0.  1.
         11    1    5    5    0    0 -0.23578142269E+02 -0.30038204210E+01  0.56024659800E+02  0.60858148474E+02  0.00000000000E+00 0. -1.
        -11    1    5    5    0    0 -0.31275456507E+03  0.21577403221E+03  0.42562444366E+03  0.57055237971E+03  0.00000000000E+00 0.  1.
          1    1    6    6  503    0  0.12516704155E+03 -0.11068226204E+03  0.58390093963E+03  0.60733652840E+03  0.00000000000E+00 0. -1.
         -1    1    6    6    0  503  0.15128700357E+03 -0.82907679704E+02  0.98634693175E+03  0.10013199841E+04  0.00000000000E+00 0.  1.
<mgrwt>
<rscale>  0 0.18749203E+04</rscale>
<asrwt>0</asrwt>
<pdfrwt beam="1">  1        2 0.33142277E+00 0.18749203E+04</pdfrwt>
<pdfrwt beam="2">  1       -1 0.62761972E-01 0.18749203E+04</pdfrwt>
<totfact> 0.15076282E+01</totfact>
</mgrwt>
</event>
<event>
12    6  0.1530859E-007  0.1504773E+04  0.7818608E-02  0.8881285E-01
         -1   -1    0    0    0  501 -0.00000000000E+00  0.00000000000E+00  0.26909222283E+03  0.26909222283E+03  0.00000000000E+00 0.  1.
          2   -1    0    0  501    0  0.00000000000E+00 -0.00000000000E+00 -0.21036864750E+04  0.21036864750E+04  0.00000000000E+00 0. -1.
         24    2    1    2    0    0  0.37924087486E+03  0.26336602761E+03 -0.77816977233E+03  0.90846066263E+03  0.81038727224E+02 0.  0.
        254    2    1    2    0    0 -0.37924087486E+03 -0.26336602761E+03 -0.10564244798E+04  0.14643180352E+04  0.90277866664E+03 0.  0.
         23    2    4    4    0    0 -0.56325834179E+02 -0.33470473874E+03 -0.10653992346E+04  0.11219143812E+04  0.91741419190E+02 0.  0.
         23    2    4    4    0    0 -0.32291504068E+03  0.71338711126E+02  0.89747547525E+01  0.34240365398E+03  0.88297116790E+02 0.  0.
          4    1    3    3  502    0  0.23808891254E+03  0.13723335773E+03 -0.39644797915E+03  0.48237985543E+03  0.00000000000E+00 0. -1.
         -3    1    3    3    0  502  0.14115196232E+03  0.12613266988E+03 -0.38172179317E+03  0.42608080720E+03  0.00000000000E+00 0.  1.
         11    1    5    5    0    0  0.22590562818E+02 -0.44484356156E+02 -0.18235987511E+03  0.18906167121E+03  0.00000000000E+00 0.  1.
        -11    1    5    5    0    0 -0.78916396997E+02 -0.29022038258E+03 -0.88303935946E+03  0.93285270999E+03  0.00000000000E+00 0. -1.
          3    1    6    6  503    0 -0.24120693492E+03  0.38719312725E+02 -0.30092055033E+02  0.24614122452E+03  0.00000000000E+00 0. -1.
         -3    1    6    6    0  503 -0.81708105763E+02  0.32619398402E+02  0.39066809786E+02  0.96262429464E+02  0.00000000000E+00 0.  1.
<mgrwt>
<rscale>  0 0.15047733E+04</rscale>
<asrwt>0</asrwt>
<pdfrwt beam="1">  1        2 0.32364407E+00 0.15047733E+04</pdfrwt>
<pdfrwt beam="2">  1       -1 0.41398804E-01 0.15047733E+04</pdfrwt>
<totfact> 0.36811754E+01</totfact>
</mgrwt>
</event>
<event>
12    6  0.1530859E-007  0.1666961E+04  0.7818608E-02  0.8780435E-01
          2   -1    0    0  501    0  0.00000000000E+00  0.00000000000E+00  0.20496400159E+04  0.20496400159E+04  0.00000000000E+00 0. -1.
         -1   -1    0    0    0  501 -0.00000000000E+00 -0.00000000000E+00 -0.33893270050E+03  0.33893270050E+03  0.00000000000E+00 0.  1.
         24    2    1    2    0    0  0.40573843768E+03  0.23946603837E+03  0.11088940924E+04  0.12074544433E+04  0.79576762225E+02 0.  0.
        254    2    1    2    0    0 -0.40573843768E+03 -0.23946603837E+03  0.60181322291E+03  0.11811182730E+04  0.90049628332E+03 0.  0.
         23    2    4    4    0    0 -0.44639572926E+02  0.17900903809E+03  0.58581172147E+03  0.62102449412E+03  0.91973485882E+02 0.  0.
         23    2    4    4    0    0 -0.36109886476E+03 -0.41847507646E+03  0.16001501445E+02  0.56009377891E+03  0.89079814635E+02 0.  0.
          4    1    3    3  502    0  0.33571813890E+03  0.23033530146E+03  0.93828826796E+03  0.10228127364E+04  0.00000000000E+00 0. -1.
         -3    1    3    3    0  502  0.70020298784E+02  0.91307369177E+01  0.17060582448E+03  0.18464170695E+03  0.00000000000E+00 0.  1.
         11    1    5    5    0    0  0.24700709904E+02  0.56521722609E+02  0.12842107163E+03  0.14246684469E+03  0.00000000000E+00 0. -1.
        -11    1    5    5    0    0 -0.69340282829E+02  0.12248731548E+03  0.45739064984E+03  0.47855764944E+03  0.00000000000E+00 0.  1.
          1    1    6    6  503    0 -0.33402170954E+03 -0.33912277096E+03  0.11848852801E+02  0.47614614515E+03  0.00000000000E+00 0. -1.
         -1    1    6    6    0  503 -0.27077155217E+02 -0.79352305502E+02  0.41526486437E+01  0.83947633760E+02  0.00000000000E+00 0.  1.
<mgrwt>
<rscale>  0 0.16669613E+04</rscale>
<asrwt>0</asrwt>
<pdfrwt beam="1">  1        2 0.31532923E+00 0.16669613E+04</pdfrwt>
<pdfrwt beam="2">  1       -1 0.52143494E-01 0.16669613E+04</pdfrwt>
<totfact> 0.25235537E+01</totfact>
</mgrwt>
</event>
<event>
12    6  0.1530859E-007  0.1760055E+04  0.7818608E-02  0.8727835E-01
          2   -1    0    0  501    0  0.00000000000E+00  0.00000000000E+00  0.36194200134E+04  0.36194200134E+04  0.00000000000E+00 0. -1.
         -1   -1    0    0    0  501 -0.00000000000E+00 -0.00000000000E+00 -0.21397038142E+03  0.21397038142E+03  0.00000000000E+00 0.  1.
         24    2    1    2    0    0 -0.30914344010E+03  0.33331384659E+03  0.27342912939E+03  0.53892070244E+03  0.94890715239E+02 0.  0.
        254    2    1    2    0    0  0.30914344010E+03 -0.33331384659E+03  0.31320205026E+04  0.32944696924E+04  0.91504663186E+03 0.  0.
         23    2    4    4    0    0  0.49707555146E+03  0.70571236189E+02  0.11041236569E+04  0.12165321455E+04  0.93792365710E+02 0.  0.
         23    2    4    4    0    0 -0.18793211136E+03 -0.40388508278E+03  0.20278968456E+04  0.20779375469E+04  0.83768692039E+02 0.  0.
          4    1    3    3  502    0  0.13317154319E+01 -0.48763724116E+01  0.50045025598E+01  0.71131933587E+01  0.00000000000E+00 0. -1.
         -3    1    3    3    0  502 -0.31047515553E+03  0.33819021900E+03  0.26842462683E+03  0.53180750909E+03  0.00000000000E+00 0.  1.
         11    1    5    5    0    0  0.50686865411E+02  0.36807778442E+02  0.11965606802E+03  0.13506126570E+03  0.00000000000E+00 0.  1.
        -11    1    5    5    0    0  0.44638868605E+03  0.33763457747E+02  0.98446758893E+03  0.10814708798E+04  0.00000000000E+00 0. -1.
          1    1    6    6  503    0 -0.96687672974E+02 -0.12447281793E+03  0.79663635680E+03  0.81207848973E+03  0.00000000000E+00 0. -1.
         -1    1    6    6    0  503 -0.91244438387E+02 -0.27941226485E+03  0.12312604888E+04  0.12658590572E+04  0.00000000000E+00 0.  1.
<mgrwt>
<rscale>  0 0.17600553E+04</rscale>
<asrwt>0</asrwt>
<pdfrwt beam="1">  1        2 0.55683380E+00 0.17600553E+04</pdfrwt>
<pdfrwt beam="2">  1       -1 0.32918523E-01 0.17600553E+04</pdfrwt>
<totfact> 0.63056454E+00</totfact>
</mgrwt>
</event>
<event>
12    6  0.1530859E-007  0.1294879E+04  0.7818608E-02  0.9033636E-01
          2   -1    0    0  501    0  0.00000000000E+00  0.00000000000E+00  0.16294225034E+04  0.16294225034E+04  0.00000000000E+00 0. -1.
         -1   -1    0    0    0  501 -0.00000000000E+00 -0.00000000000E+00 -0.25725543525E+03  0.25725543525E+03  0.00000000000E+00 0.  1.
         24    2    1    2    0    0 -0.61728264261E+02  0.14256879700E+02  0.81052611879E+03  0.81685874935E+03  0.79322064613E+02 0.  0.
        254    2    1    2    0    0  0.61728264261E+02 -0.14256879700E+02  0.56164094936E+03  0.10698191893E+04  0.90832753153E+03 0.  0.
         23    2    4    4    0    0  0.35521957761E+03  0.24398834608E+03  0.49305608681E+03  0.66055677553E+03  0.86716132429E+02 0.  0.
         23    2    4    4    0    0 -0.29349131335E+03 -0.25824522578E+03  0.68584862551E+02  0.40926241375E+03  0.99820299985E+02 0.  0.
          2    1    3    3  502    0 -0.45318445700E+02  0.38805746668E+02  0.32468957026E+03  0.33012567990E+03  0.00000000000E+00 0. -1.
         -1    1    3    3    0  502 -0.16409818561E+02 -0.24548866968E+02  0.48583654852E+03  0.48673306945E+03  0.00000000000E+00 0.  1.
         11    1    5    5    0    0  0.37322935259E-01  0.15453431674E+02  0.80350977472E+01  0.17417598552E+02  0.00000000000E+00 0.  1.
        -11    1    5    5    0    0  0.35518225467E+03  0.22853491441E+03  0.48502098906E+03  0.64313917698E+03  0.00000000000E+00 0. -1.
          4    1    6    6  503    0 -0.24803036571E+02 -0.34204236626E+02 -0.22349351285E+02  0.47797635183E+02  0.00000000000E+00 0. -1.
         -4    1    6    6    0  503 -0.26868827678E+03 -0.22404098916E+03  0.90934213836E+02  0.36146477857E+03  0.00000000000E+00 0.  1.
<mgrwt>
<rscale>  0 0.12948788E+04</rscale>
<asrwt>0</asrwt>
<pdfrwt beam="1">  1        2 0.25068038E+00 0.12948788E+04</pdfrwt>
<pdfrwt beam="2">  1       -1 0.39577760E-01 0.12948788E+04</pdfrwt>
<totfact> 0.74478769E+01</totfact>
</mgrwt>
</event>
<event>
12    6  0.1530859E-007  0.1650875E+04  0.7818608E-02  0.8789889E-01
          2   -1    0    0  501    0  0.00000000000E+00  0.00000000000E+00  0.68037800110E+03  0.68037800110E+03  0.00000000000E+00 0. -1.
         -1   -1    0    0    0  501 -0.00000000000E+00 -0.00000000000E+00 -0.10014242675E+04  0.10014242675E+04  0.00000000000E+00 0.  1.
         24    2    1    2    0    0 -0.83300092341E+02 -0.20938622215E+03 -0.64068997438E+03  0.68378233551E+03  0.79329336741E+02 0.  0.
        254    2    1    2    0    0  0.83300092341E+02  0.20938622215E+03  0.31964370802E+03  0.99801993306E+03  0.91819942893E+03 0.  0.
         23    2    4    4    0    0  0.36863632655E+03 -0.17324039789E+03  0.29502399246E+03  0.51165798268E+03  0.94073154510E+02 0.  0.
         23    2    4    4    0    0 -0.28533623420E+03  0.38262662004E+03  0.24619715552E+02  0.48636195038E+03  0.90121692562E+02 0.  0.
          2    1    3    3  502    0 -0.75749748394E+02 -0.93897177214E+02 -0.27729469714E+03  0.30240213844E+03  0.00000000000E+00 0. -1.
         -1    1    3    3    0  502 -0.75503439465E+01 -0.11548904494E+03 -0.36339527724E+03  0.38138019707E+03  0.00000000000E+00 0.  1.
         11    1    5    5    0    0  0.18958788340E+03 -0.12991246571E+03  0.19851602005E+03  0.30369297736E+03  0.00000000000E+00 0. -1.
        -11    1    5    5    0    0  0.17904844314E+03 -0.43327932176E+02  0.96507972417E+02  0.20796500532E+03  0.00000000000E+00 0.  1.
          3    1    6    6  503    0 -0.19515839496E+03  0.29790048858E+03  0.51221814721E+02  0.35979879728E+03  0.00000000000E+00 0. -1.
         -3    1    6    6    0  503 -0.90177839240E+02  0.84726131461E+02 -0.26602099170E+02  0.12656315310E+03  0.00000000000E+00 0.  1.
<mgrwt>
<rscale>  0 0.16508750E+04</rscale>
<asrwt>0</asrwt>
<pdfrwt beam="1">  1        2 0.10467354E+00 0.16508750E+04</pdfrwt>
<pdfrwt beam="2">  1       -1 0.15406527E+00 0.16508750E+04</pdfrwt>
<totfact> 0.15033530E+01</totfact>
</mgrwt>
</event>
<event>
12    6  0.1943230E-007  0.2562128E+04  0.7818608E-02  0.8381181E-01
          2   -1    0    0  501    0  0.00000000000E+00  0.00000000000E+00  0.33724894639E+04  0.33724894639E+04  0.00000000000E+00 0. -1.
         -1   -1    0    0    0  501 -0.00000000000E+00 -0.00000000000E+00 -0.48662105977E+03  0.48662105977E+03  0.00000000000E+00 0.  1.
         24    2    1    2    0    0  0.12444843828E+03 -0.50774617465E+01  0.29461474307E+04  0.29498603988E+04  0.79865480188E+02 0.  0.
        254    2    1    2    0    0 -0.12444843828E+03  0.50774617465E+01 -0.60279026567E+02  0.90925012482E+03  0.89865957627E+03 0.  0.
         23    2    4    4    0    0  0.14654831245E+03 -0.14073755916E+03  0.33377340571E+03  0.40108003350E+03  0.90426978709E+02 0.  0.
         23    2    4    4    0    0 -0.27099675073E+03  0.14581502091E+03 -0.39405243227E+03  0.50817009131E+03  0.90874986101E+02 0.  0.
          2    1    3    3  502    0  0.11275296854E+03  0.13957264400E+02  0.18500280177E+04  0.18535133405E+04  0.00000000000E+00 0. -1.
         -1    1    3    3    0  502  0.11695469745E+02 -0.19034726146E+02  0.10961194130E+04  0.10963470583E+04  0.00000000000E+00 0.  1.
         11    1    5    5    0    0  0.14596993987E+03 -0.93206938987E+02  0.28072723299E+03  0.32985229446E+03  0.00000000000E+00 0. -1.
        -11    1    5    5    0    0  0.57837257854E+00 -0.47530620172E+02  0.53046172716E+02  0.71227739039E+02  0.00000000000E+00 0.  1.
          1    1    6    6  503    0 -0.24022166189E+03  0.12440655047E+03 -0.38333486905E+03  0.46917913261E+03  0.00000000000E+00 0. -1.
         -1    1    6    6    0  503 -0.30775088842E+02  0.21408470436E+02 -0.10717563217E+02  0.38990958708E+02  0.00000000000E+00 0.  1.
<mgrwt>
<rscale>  0 0.25621276E+04</rscale>
<asrwt>0</asrwt>
<pdfrwt beam="1">  1        2 0.51884452E+00 0.25621276E+04</pdfrwt>
<pdfrwt beam="2">  1       -1 0.74864781E-01 0.25621276E+04</pdfrwt>
<totfact> 0.18036244E+00</totfact>
</mgrwt>
</event>
<event>
12    6  0.1530859E-007  0.3486229E+04  0.7818608E-02  0.8117061E-01
         -1   -1    0    0    0  501 -0.00000000000E+00  0.00000000000E+00  0.79106282777E+03  0.79106282777E+03  0.00000000000E+00 0.  1.
          2   -1    0    0  501    0  0.00000000000E+00 -0.00000000000E+00 -0.38409699464E+04  0.38409699464E+04  0.00000000000E+00 0. -1.
         24    2    1    2    0    0  0.51628447388E+02  0.12635800453E+04 -0.64677238281E+02  0.12687035042E+04  0.78264990993E+02 0.  0.
        254    2    1    2    0    0 -0.51628447388E+02 -0.12635800453E+04 -0.29852298803E+04  0.33633292700E+04  0.89503425208E+03 0.  0.
         23    2    4    4    0    0 -0.10219006284E+03 -0.24644674102E+03 -0.16899533158E+04  0.17131127712E+04  0.87374779821E+02 0.  0.
         23    2    4    4    0    0  0.50561615456E+02 -0.10171333043E+04 -0.12952765645E+04  0.16502164988E+04  0.91413776836E+02 0.  0.
          4    1    3    3  502    0  0.15183560741E+02  0.16397975978E+03  0.16517076016E+02  0.16550744979E+03  0.00000000000E+00 0. -1.
         -3    1    3    3    0  502  0.36444886648E+02  0.10996002855E+04 -0.81194314297E+02  0.11031960544E+04  0.00000000000E+00 0.  1.
         11    1    5    5    0    0 -0.11350196252E+03 -0.22517507028E+03 -0.16093602304E+04  0.16289956596E+04  0.00000000000E+00 0.  1.
        -11    1    5    5    0    0  0.11311899680E+02 -0.21271670742E+02 -0.80593085384E+02  0.84117111590E+02  0.00000000000E+00 0. -1.
          4    1    6    6  503    0  0.47195149473E+02 -0.75420769993E+03 -0.89584808883E+03  0.11720070115E+04  0.00000000000E+00 0.  1.
         -4    1    6    6    0  503  0.33664659829E+01 -0.26292560436E+03 -0.39942847572E+03  0.47820948730E+03  0.00000000000E+00 0. -1.
<mgrwt>
<rscale>  0 0.34862292E+04</rscale>
<asrwt>0</asrwt>
<pdfrwt beam="1">  1        2 0.59091845E+00 0.34862292E+04</pdfrwt>
<pdfrwt beam="2">  1       -1 0.12170197E+00 0.34862292E+04</pdfrwt>
<totfact> 0.25452485E-01</totfact>
</mgrwt>
</event>
<event>
12    6  0.1530859E-007  0.1819818E+04  0.7818608E-02  0.8695831E-01
          2   -1    0    0  501    0  0.00000000000E+00  0.00000000000E+00  0.78046463265E+03  0.78046463265E+03  0.00000000000E+00 0. -1.
         -1   -1    0    0    0  501 -0.00000000000E+00 -0.00000000000E+00 -0.10608225833E+04  0.10608225833E+04  0.00000000000E+00 0.  1.
         24    2    1    2    0    0 -0.50501271780E+02 -0.67502453265E+03 -0.12663328676E+03  0.69316813075E+03  0.78978288410E+02 0.  0.
        254    2    1    2    0    0  0.50501271780E+02  0.67502453265E+03 -0.15372466388E+03  0.11481190852E+04  0.91451498803E+03 0.  0.
         23    2    4    4    0    0  0.71860094913E+02  0.55506840243E+03  0.31971455744E+03  0.65090914344E+03  0.90556668216E+02 0.  0.
         23    2    4    4    0    0 -0.21358823133E+02  0.11995613023E+03 -0.47343922132E+03  0.49720994174E+03  0.90704781426E+02 0.  0.
          4    1    3    3  502    0  0.14301498048E+02 -0.21875833389E+03 -0.19915759076E+02  0.22012809669E+03  0.00000000000E+00 0. -1.
         -3    1    3    3    0  502 -0.64802769828E+02 -0.45626619877E+03 -0.10671752768E+03  0.47304003407E+03  0.00000000000E+00 0.  1.
         11    1    5    5    0    0  0.47466582907E+01  0.26826545666E+03  0.11338613341E+03  0.29128216776E+03  0.00000000000E+00 0.  1.
        -11    1    5    5    0    0  0.67113436622E+02  0.28680294576E+03  0.20632842404E+03  0.35962697568E+03  0.00000000000E+00 0. -1.
          3    1    6    6  503    0 -0.51882497164E+02  0.10602868299E+03 -0.35503499212E+03  0.37414398399E+03  0.00000000000E+00 0. -1.
         -3    1    6    6    0  503  0.30523674031E+02  0.13927447234E+02 -0.11840422921E+03  0.12306595775E+03  0.00000000000E+00 0.  1.
<mgrwt>
<rscale>  0 0.18198181E+04</rscale>
<asrwt>0</asrwt>
<pdfrwt beam="1">  1        2 0.12007148E+00 0.18198181E+04</pdfrwt>
<pdfrwt beam="2">  1       -1 0.16320347E+00 0.18198181E+04</pdfrwt>
<totfact> 0.10586570E+01</totfact>
</mgrwt>
</event>
<event>
12    6  0.1530859E-007  0.1188823E+04  0.7818608E-02  0.9122697E-01
          2   -1    0    0  501    0  0.00000000000E+00  0.00000000000E+00  0.18178634986E+04  0.18178634986E+04  0.00000000000E+00 0. -1.
         -1   -1    0    0    0  501 -0.00000000000E+00 -0.00000000000E+00 -0.19436266691E+03  0.19436266691E+03  0.00000000000E+00 0.  1.
         24    2    1    2    0    0  0.16785321152E+03  0.86573907208E+02  0.61044533725E+03  0.64395823434E+03  0.79805737684E+02 0.  0.
        254    2    1    2    0    0 -0.16785321152E+03 -0.86573907208E+02  0.10130554944E+04  0.13682679311E+04  0.90011441195E+03 0.  0.
         23    2    4    4    0    0 -0.52401469443E+03 -0.11200038279E+03  0.69190258056E+03  0.87970943394E+03  0.89576902498E+02 0.  0.
         23    2    4    4    0    0  0.35616148291E+03  0.25426475583E+02  0.32115291386E+03  0.48855849720E+03  0.89736857213E+02 0.  0.
          2    1    3    3  502    0  0.16697657538E+03  0.96928382366E+02  0.55701935436E+03  0.58953104173E+03  0.00000000000E+00 0. -1.
         -1    1    3    3    0  502  0.87663614525E+00 -0.10354475158E+02  0.53425982896E+02  0.54427192608E+02  0.00000000000E+00 0.  1.
         11    1    5    5    0    0 -0.19563979133E+02 -0.13004227913E+02  0.94954442497E+01  0.25338166560E+02  0.00000000000E+00 0.  1.
        -11    1    5    5    0    0 -0.50445071529E+03 -0.98996154877E+02  0.68240713631E+03  0.85437126738E+03  0.00000000000E+00 0. -1.
          2    1    6    6  503    0  0.32516467985E+03  0.46269211815E+02  0.26973817611E+03  0.42500775597E+03  0.00000000000E+00 0. -1.
         -2    1    6    6    0  503  0.30996803056E+02 -0.20842736232E+02  0.51414737749E+02  0.63550741231E+02  0.00000000000E+00 0.  1.
<mgrwt>
<rscale>  0 0.11888226E+04</rscale>
<asrwt>0</asrwt>
<pdfrwt beam="1">  1        2 0.27967130E+00 0.11888226E+04</pdfrwt>
<pdfrwt beam="2">  1       -1 0.29901950E-01 0.11888226E+04</pdfrwt>
<totfact> 0.97403629E+01</totfact>
</mgrwt>
</event>
<event>
12    6  0.1530859E-007  0.1280150E+04  0.7818608E-02  0.9045457E-01
         -1   -1    0    0    0  501 -0.00000000000E+00  0.00000000000E+00  0.24871117415E+03  0.24871117415E+03  0.00000000000E+00 0.  1.
          2   -1    0    0  501    0  0.00000000000E+00 -0.00000000000E+00 -0.16472750321E+04  0.16472750321E+04  0.00000000000E+00 0. -1.
         24    2    1    2    0    0 -0.13294760204E+03  0.12208930824E+03 -0.72011627361E+03  0.74694759200E+03  0.82355288881E+02 0.  0.
        254    2    1    2    0    0  0.13294760204E+03 -0.12208930824E+03 -0.67844758431E+03  0.11490386142E+04  0.90962505914E+03 0.  0.
         23    2    4    4    0    0 -0.59069908441E+02 -0.45393053013E+03 -0.57436210044E+03  0.74035787664E+03  0.93251181281E+02 0.  0.
         23    2    4    4    0    0  0.19201751048E+03  0.33184122189E+03 -0.10408548387E+03  0.40868073758E+03  0.95900137842E+02 0.  0.
          2    1    3    3  502    0 -0.65128191855E+02  0.94243985868E+02 -0.54836865954E+03  0.56020692339E+03  0.00000000000E+00 0. -1.
         -3    1    3    3    0  502 -0.67819410184E+02  0.27845322372E+02 -0.17174761406E+03  0.18674066861E+03  0.00000000000E+00 0.  1.
         11    1    5    5    0    0 -0.75015412072E+02 -0.21717747102E+03 -0.29029141816E+03  0.37021949358E+03  0.00000000000E+00 0. -1.
        -11    1    5    5    0    0  0.15945503631E+02 -0.23675305910E+03 -0.28407068228E+03  0.37013838306E+03  0.00000000000E+00 0.  1.
          3    1    6    6  503    0  0.20271450435E+03  0.31279481635E+03 -0.92909458170E+02  0.38414311764E+03  0.00000000000E+00 0. -1.
         -3    1    6    6    0  503 -0.10696993872E+02  0.19046405534E+02 -0.11176025700E+02  0.24537619936E+02  0.00000000000E+00 0.  1.
<mgrwt>
<rscale>  0 0.12801495E+04</rscale>
<asrwt>0</asrwt>
<pdfrwt beam="1">  1        2 0.25342693E+00 0.12801495E+04</pdfrwt>
<pdfrwt beam="2">  1       -1 0.38263257E-01 0.12801495E+04</pdfrwt>
<totfact> 0.77491876E+01</totfact>
</mgrwt>
</event>
<event>
12    6  0.1530859E-007  0.3103028E+04  0.7818608E-02  0.8214907E-01
         -1   -1    0    0    0  501 -0.00000000000E+00  0.00000000000E+00  0.12107743099E+04  0.12107743099E+04  0.00000000000E+00 0.  1.
          2   -1    0    0  501    0  0.00000000000E+00 -0.00000000000E+00 -0.19881458569E+04  0.19881458569E+04  0.00000000000E+00 0. -1.
         24    2    1    2    0    0 -0.11029895234E+04 -0.72781624872E+03  0.18096738325E+03  0.13362462679E+04  0.80638168655E+02 0.  0.
        254    2    1    2    0    0  0.11029895234E+04  0.72781624872E+03 -0.95833893029E+03  0.18626738989E+04  0.89712773218E+03 0.  0.
         23    2    4    4    0    0 -0.84946644446E+02  0.22333830906E+03 -0.34835081358E+03  0.43230770720E+03  0.91900662027E+02 0.  0.
         23    2    4    4    0    0  0.11879361678E+04  0.50447793965E+03 -0.60998811671E+03  0.14303661917E+04  0.90396955197E+02 0.  0.
          2    1    3    3  502    0 -0.15333136507E+03 -0.92326636876E+02  0.51618824543E+02  0.18627726227E+03  0.00000000000E+00 0. -1.
         -1    1    3    3    0  502 -0.94965815828E+03 -0.63548961184E+03  0.12934855870E+03  0.11499690057E+04  0.00000000000E+00 0.  1.
         11    1    5    5    0    0 -0.26841666825E+02  0.28108343111E+02 -0.15020890598E+02  0.41667507542E+02  0.00000000000E+00 0.  1.
        -11    1    5    5    0    0 -0.58104977622E+02  0.19522996595E+03 -0.33332992299E+03  0.39064019966E+03  0.00000000000E+00 0. -1.
          1    1    6    6  503    0  0.78543031637E+03  0.34002594055E+03 -0.35723120127E+03  0.92743331473E+03  0.00000000000E+00 0. -1.
         -1    1    6    6    0  503  0.40250585144E+03  0.16445199910E+03 -0.25275691544E+03  0.50293287698E+03  0.00000000000E+00 0.  1.
<mgrwt>
<rscale>  0 0.31030282E+04</rscale>
<asrwt>0</asrwt>
<pdfrwt beam="1">  1        2 0.30586859E+00 0.31030282E+04</pdfrwt>
<pdfrwt beam="2">  1       -1 0.18627297E+00 0.31030282E+04</pdfrwt>
<totfact> 0.12295648E+00</totfact>
</mgrwt>
</event>
<event>
12    6  0.1530859E-007  0.1491781E+04  0.7818608E-02  0.8889937E-01
          2   -1    0    0  501    0  0.00000000000E+00  0.00000000000E+00  0.18958940206E+04  0.18958940206E+04  0.00000000000E+00 0. -1.
         -1   -1    0    0    0  501 -0.00000000000E+00 -0.00000000000E+00 -0.29345149020E+03  0.29345149020E+03  0.00000000000E+00 0.  1.
         24    2    1    2    0    0  0.29461688784E+03 -0.18406432320E+03  0.48637969684E+02  0.35941621823E+03  0.78329944190E+02 0.  0.
        254    2    1    2    0    0 -0.29461688784E+03  0.18406432320E+03  0.15538045608E+04  0.18299292926E+04  0.90202761447E+03 0.  0.
         23    2    4    4    0    0 -0.18622344964E+02 -0.13229539832E+03  0.13402349978E+04  0.13499483106E+04  0.91003999305E+02 0.  0.
         23    2    4    4    0    0 -0.27599454287E+03  0.31635972152E+03  0.21356956298E+03  0.47998098201E+03  0.92267674536E+02 0.  0.
          2    1    3    3  502    0  0.37550983646E+02 -0.26643539712E+02 -0.20103678193E+02  0.50240545957E+02  0.00000000000E+00 0. -1.
         -1    1    3    3    0  502  0.25706590419E+03 -0.15742078349E+03  0.68741647878E+02  0.30917567227E+03  0.00000000000E+00 0.  1.
         11    1    5    5    0    0  0.21260138166E+02 -0.11375500303E+03  0.87043969330E+03  0.87809877227E+03  0.00000000000E+00 0. -1.
        -11    1    5    5    0    0 -0.39882483130E+02 -0.18540395287E+02  0.46979530449E+03  0.47184953835E+03  0.00000000000E+00 0.  1.
          2    1    6    6  503    0 -0.25999349662E+03  0.26563950241E+03  0.20941923346E+03  0.42663494802E+03  0.00000000000E+00 0. -1.
         -2    1    6    6    0  503 -0.16001046254E+02  0.50720219107E+02  0.41503295151E+01  0.53346033991E+02  0.00000000000E+00 0.  1.
<mgrwt>
<rscale>  0 0.14917814E+04</rscale>
<asrwt>0</asrwt>
<pdfrwt beam="1">  1        2 0.29167599E+00 0.14917814E+04</pdfrwt>
<pdfrwt beam="2">  1       -1 0.45146384E-01 0.14917814E+04</pdfrwt>
<totfact> 0.40928603E+01</totfact>
</mgrwt>
</event>
<event>
12    6  0.1530859E-007  0.1694304E+04  0.7818608E-02  0.8764620E-01
          2   -1    0    0  501    0  0.00000000000E+00  0.00000000000E+00  0.13609515478E+04  0.13609515478E+04  0.00000000000E+00 0. -1.
         -1   -1    0    0    0  501 -0.00000000000E+00 -0.00000000000E+00 -0.52732672472E+03  0.52732672472E+03  0.00000000000E+00 0.  1.
         24    2    1    2    0    0 -0.56386437720E+03  0.17810061749E+03  0.43973801897E+03  0.74119713886E+03  0.79629187512E+02 0.  0.
        254    2    1    2    0    0  0.56386437720E+03 -0.17810061749E+03  0.39388680412E+03  0.11470811337E+04  0.90054730411E+03 0.  0.
         23    2    4    4    0    0  0.51802626253E+03  0.28219398203E+03  0.14597317536E+03  0.61427633677E+03  0.89680531989E+02 0.  0.
         23    2    4    4    0    0  0.45838114665E+02 -0.46029459952E+03  0.24791362876E+03  0.53280479690E+03  0.91910462775E+02 0.  0.
          2    1    3    3  502    0 -0.15077184235E+03  0.41919880192E+02  0.16136392909E+03  0.22478376812E+03  0.00000000000E+00 0. -1.
         -1    1    3    3    0  502 -0.41309253485E+03  0.13618073730E+03  0.27837408988E+03  0.51641337074E+03  0.00000000000E+00 0.  1.
         11    1    5    5    0    0  0.22329628155E+03  0.11896286187E+03  0.17199849868E+02  0.25359263927E+03  0.00000000000E+00 0. -1.
        -11    1    5    5    0    0  0.29472998099E+03  0.16323112017E+03  0.12877332549E+03  0.36068369750E+03  0.00000000000E+00 0.  1.
          3    1    6    6  503    0  0.62945236715E+02 -0.42081633205E+03  0.24163994874E+03  0.48932438420E+03  0.00000000000E+00 0. -1.
         -3    1    6    6    0  503 -0.17107122049E+02 -0.39478267477E+02  0.62736800188E+01  0.43480412702E+02  0.00000000000E+00 0.  1.
<mgrwt>
<rscale>  0 0.16943035E+04</rscale>
<asrwt>0</asrwt>
<pdfrwt beam="1">  1        2 0.20937716E+00 0.16943035E+04</pdfrwt>
<pdfrwt beam="2">  1       -1 0.81127189E-01 0.16943035E+04</pdfrwt>
<totfact> 0.25033999E+01</totfact>
</mgrwt>
</event>
<event>
12    6  0.1530859E-007  0.1681116E+04  0.7818608E-02  0.8772209E-01
          2   -1    0    0  501    0  0.00000000000E+00  0.00000000000E+00  0.91616206119E+03  0.91616206119E+03  0.00000000000E+00 0. -1.
         -1   -1    0    0    0  501 -0.00000000000E+00 -0.00000000000E+00 -0.77119280880E+03  0.77119280880E+03  0.00000000000E+00 0.  1.
         24    2    1    2    0    0  0.13534922973E+02  0.53952746934E+03 -0.21123027052E+03  0.58502203564E+03  0.79746289546E+02 0.  0.
        254    2    1    2    0    0 -0.13534922973E+02 -0.53952746934E+03  0.35619952292E+03  0.11023328343E+04  0.89274100009E+03 0.  0.
         23    2    4    4    0    0 -0.16088045227E+03 -0.40407692657E+03  0.61744619256E+03  0.76067606187E+03  0.90706052097E+02 0.  0.
         23    2    4    4    0    0  0.14734552930E+03 -0.13545054277E+03 -0.26124666964E+03  0.34165677248E+03  0.91771309479E+02 0.  0.
          2    1    3    3  502    0  0.91995975388E+01  0.22999325507E+03 -0.13255247937E+03  0.26561568056E+03  0.00000000000E+00 0. -1.
         -1    1    3    3    0  502  0.43353254347E+01  0.30953421427E+03 -0.78677791159E+02  0.31940635509E+03  0.00000000000E+00 0.  1.
         11    1    5    5    0    0 -0.37289570008E+02 -0.21595665977E+03  0.31001517855E+03  0.37965405550E+03  0.00000000000E+00 0.  1.
        -11    1    5    5    0    0 -0.12359088226E+03 -0.18812026680E+03  0.30743101401E+03  0.38102200637E+03  0.00000000000E+00 0. -1.
          3    1    6    6  503    0  0.13548473646E+03 -0.97887977290E+02 -0.15350584489E+03  0.22694099305E+03  0.00000000000E+00 0. -1.
         -3    1    6    6    0  503  0.11860792837E+02 -0.37562565475E+02 -0.10774082475E+03  0.11471577943E+03  0.00000000000E+00 0.  1.
<mgrwt>
<rscale>  0 0.16811158E+04</rscale>
<asrwt>0</asrwt>
<pdfrwt beam="1">  1        2 0.14094801E+00 0.16811158E+04</pdfrwt>
<pdfrwt beam="2">  1       -1 0.11864505E+00 0.16811158E+04</pdfrwt>
<totfact> 0.19798209E+01</totfact>
</mgrwt>
</event>
<event>
12    6  0.1530859E-007  0.1427198E+04  0.7818608E-02  0.8934363E-01
          2   -1    0    0  501    0  0.00000000000E+00  0.00000000000E+00  0.66523470175E+03  0.66523470175E+03  0.00000000000E+00 0. -1.
         -1   -1    0    0    0  501 -0.00000000000E+00 -0.00000000000E+00 -0.76547996865E+03  0.76547996865E+03  0.00000000000E+00 0.  1.
         24    2    1    2    0    0 -0.30386179022E+03  0.76478620777E+02 -0.31767963639E+03  0.45319846085E+03  0.79293925031E+02 0.  0.
        254    2    1    2    0    0  0.30386179022E+03 -0.76478620777E+02  0.21743436949E+03  0.97751620955E+03  0.90004403665E+03 0.  0.
         23    2    4    4    0    0  0.94319814340E+02  0.29651255045E+03  0.38962785424E+03  0.50670232780E+03  0.90119166975E+02 0.  0.
         23    2    4    4    0    0  0.20954197588E+03 -0.37299117122E+03 -0.17219348475E+03  0.47081388175E+03  0.94788509806E+02 0.  0.
          4    1    3    3  502    0 -0.25340688840E+03  0.92175723083E+02 -0.25389895566E+03  0.37037291302E+03  0.00000000000E+00 0. -1.
         -3    1    3    3    0  502 -0.50454901821E+02 -0.15697102306E+02 -0.63780680732E+02  0.82825547829E+02  0.00000000000E+00 0.  1.
         11    1    5    5    0    0  0.25426542268E+02  0.14587235473E+02  0.15359787614E+02  0.33094101680E+02  0.00000000000E+00 0.  1.
        -11    1    5    5    0    0  0.68893272072E+02  0.28192531497E+03  0.37426806662E+03  0.47360822612E+03  0.00000000000E+00 0. -1.
          1    1    6    6  503    0  0.19703370401E+03 -0.36811432336E+03 -0.18066423622E+03  0.45493955843E+03  0.00000000000E+00 0. -1.
         -1    1    6    6    0  503  0.12508271870E+02 -0.48768478671E+01  0.84707514728E+01  0.15874323318E+02  0.00000000000E+00 0.  1.
<mgrwt>
<rscale>  0 0.14271984E+04</rscale>
<asrwt>0</asrwt>
<pdfrwt beam="1">  1        2 0.10234380E+00 0.14271984E+04</pdfrwt>
<pdfrwt beam="2">  1       -1 0.11776615E+00 0.14271984E+04</pdfrwt>
<totfact> 0.31431936E+01</totfact>
</mgrwt>
</event>
<event>
12    6  0.1530859E-007  0.1234842E+04  0.7818608E-02  0.9082895E-01
         -1   -1    0    0    0  501 -0.00000000000E+00  0.00000000000E+00  0.17981974451E+03  0.17981974451E+03  0.00000000000E+00 0.  1.
          2   -1    0    0  501    0  0.00000000000E+00 -0.00000000000E+00 -0.21199477850E+04  0.21199477850E+04  0.00000000000E+00 0. -1.
         24    2    1    2    0    0  0.14326200692E+03  0.16945220100E+03 -0.76372082313E+03  0.79916300039E+03  0.78447144381E+02 0.  0.
        254    2    1    2    0    0 -0.14326200692E+03 -0.16945220100E+03 -0.11764072174E+04  0.15006045292E+04  0.90478835135E+03 0.  0.
         23    2    4    4    0    0 -0.34972024578E+03 -0.22515071337E+03 -0.11941485877E+04  0.12678145373E+04  0.91464514786E+02 0.  0.
         23    2    4    4    0    0  0.20645823886E+03  0.55698512372E+02  0.17741370315E+02  0.23278999184E+03  0.90272340227E+02 0.  0.
          4    1    3    3  502    0  0.13620432836E+03  0.17672534995E+03 -0.74700159179E+03  0.77961198459E+03  0.00000000000E+00 0. -1.
         -3    1    3    3    0  502  0.70576785619E+01 -0.72731489490E+01 -0.16719231344E+02  0.19551015806E+02  0.00000000000E+00 0.  1.
         11    1    5    5    0    0 -0.27634800352E+03 -0.16953030020E+03 -0.80304477501E+03  0.86601942957E+03  0.00000000000E+00 0. -1.
        -11    1    5    5    0    0 -0.73372242260E+02 -0.55620413173E+02 -0.39110381270E+03  0.40179510774E+03  0.00000000000E+00 0.  1.
          2    1    6    6  503    0  0.17033923575E+03  0.64835677963E+02  0.43643802666E+02  0.18741371850E+03  0.00000000000E+00 0. -1.
         -2    1    6    6    0  503  0.36119003106E+02 -0.91371655909E+01 -0.25902432351E+02  0.45376273338E+02  0.00000000000E+00 0.  1.
<mgrwt>
<rscale>  0 0.12348416E+04</rscale>
<asrwt>0</asrwt>
<pdfrwt beam="1">  1        2 0.32614582E+00 0.12348416E+04</pdfrwt>
<pdfrwt beam="2">  1       -1 0.27664576E-01 0.12348416E+04</pdfrwt>
<totfact> 0.75659737E+01</totfact>
</mgrwt>
</event>
<event>
12    6  0.1530859E-007  0.1561499E+04  0.7818608E-02  0.8844556E-01
         -1   -1    0    0    0  501 -0.00000000000E+00  0.00000000000E+00  0.35827880390E+03  0.35827880390E+03  0.00000000000E+00 0.  1.
          2   -1    0    0  501    0  0.00000000000E+00 -0.00000000000E+00 -0.17013843370E+04  0.17013843370E+04  0.00000000000E+00 0. -1.
         24    2    1    2    0    0 -0.46288262546E+03  0.14659674534E+03 -0.67835983293E+03  0.83793951492E+03  0.78864675411E+02 0.  0.
        254    2    1    2    0    0  0.46288262546E+03 -0.14659674534E+03 -0.66474570014E+03  0.12217236260E+04  0.90275735482E+03 0.  0.
         23    2    4    4    0    0 -0.24843438545E+03 -0.15753841856E+03 -0.20161554856E+03  0.36778507053E+03  0.89883432765E+02 0.  0.
         23    2    4    4    0    0  0.71131701091E+03  0.10941673219E+02 -0.46313015158E+03  0.85393855543E+03  0.92897303112E+02 0.  0.
          4    1    3    3  502    0 -0.43589434377E+03  0.13259607242E+03 -0.59637716337E+03  0.75050071176E+03  0.00000000000E+00 0. -1.
         -3    1    3    3    0  502 -0.26988281696E+02  0.14000672919E+02 -0.81982669556E+02  0.87438803164E+02  0.00000000000E+00 0.  1.
         11    1    5    5    0    0 -0.12496198492E+03 -0.93938755455E+02 -0.54739746829E+02  0.16563944982E+03  0.00000000000E+00 0.  1.
        -11    1    5    5    0    0 -0.12347240053E+03 -0.63599663106E+02 -0.14687580173E+03  0.20214562071E+03  0.00000000000E+00 0. -1.
          3    1    6    6  503    0  0.41170711940E+03 -0.49717528733E+01 -0.21440687627E+03  0.46421738343E+03  0.00000000000E+00 0.  1.
         -3    1    6    6    0  503  0.29960989152E+03  0.15913426093E+02 -0.24872327532E+03  0.38972117200E+03  0.00000000000E+00 0. -1.
<mgrwt>
<rscale>  0 0.15614992E+04</rscale>
<asrwt>0</asrwt>
<pdfrwt beam="1">  1        2 0.26175144E+00 0.15614992E+04</pdfrwt>
<pdfrwt beam="2">  1       -1 0.55119816E-01 0.15614992E+04</pdfrwt>
<totfact> 0.35683030E+01</totfact>
</mgrwt>
</event>
<event>
12    6  0.1530859E-007  0.3172255E+04  0.7818608E-02  0.8196183E-01
          2   -1    0    0  501    0  0.00000000000E+00  0.00000000000E+00  0.14145320024E+04  0.14145320024E+04  0.00000000000E+00 0. -1.
         -1   -1    0    0    0  501 -0.00000000000E+00 -0.00000000000E+00 -0.17785387569E+04  0.17785387569E+04  0.00000000000E+00 0.  1.
         24    2    1    2    0    0  0.53159928143E+03 -0.18581678853E+03  0.11862739902E+04  0.13155707507E+04  0.79716656037E+02 0.  0.
        254    2    1    2    0    0 -0.53159928143E+03  0.18581678853E+03 -0.15502807447E+04  0.18775000087E+04  0.89694493721E+03 0.  0.
         23    2    4    4    0    0 -0.10558511882E+03  0.16885563601E+02  0.93459774811E+02  0.16895570482E+03  0.91531202935E+02 0.  0.
         23    2    4    4    0    0 -0.42601416261E+03  0.16893122493E+03 -0.16437405195E+04  0.17085443039E+04  0.84940669526E+02 0.  0.
          2    1    3    3  502    0  0.33467057343E+03 -0.13839718407E+03  0.68329582913E+03  0.77333780677E+03  0.00000000000E+00 0. -1.
         -1    1    3    3    0  502  0.19692870800E+03 -0.47419604455E+02  0.50297816108E+03  0.54223294390E+03  0.00000000000E+00 0.  1.
         11    1    5    5    0    0  0.26056996346E+01  0.27960587624E+02  0.44782166697E+01  0.28436570739E+02  0.00000000000E+00 0. -1.
        -11    1    5    5    0    0 -0.10819081845E+03 -0.11075024023E+02  0.88981558142E+02  0.14051913408E+03  0.00000000000E+00 0.  1.
          3    1    6    6  503    0 -0.22884638205E+03  0.49707418464E+02 -0.89690537848E+03  0.92697397588E+03  0.00000000000E+00 0. -1.
         -3    1    6    6    0  503 -0.19716778056E+03  0.11922380646E+03 -0.74683514103E+03  0.78157032799E+03  0.00000000000E+00 0.  1.
<mgrwt>
<rscale>  0 0.31722547E+04</rscale>
<asrwt>0</asrwt>
<pdfrwt beam="1">  1        2 0.21762031E+00 0.31722547E+04</pdfrwt>
<pdfrwt beam="2">  1       -1 0.27362135E+00 0.31722547E+04</pdfrwt>
<totfact> 0.66780335E-01</totfact>
</mgrwt>
</event>
<event>
12    6  0.1530859E-007  0.2019238E+04  0.7818608E-02  0.8597679E-01
         -1   -1    0    0    0  501 -0.00000000000E+00  0.00000000000E+00  0.42483034820E+03  0.42483034820E+03  0.00000000000E+00 0.  1.
          2   -1    0    0  501    0  0.00000000000E+00 -0.00000000000E+00 -0.23993821810E+04  0.23993821810E+04  0.00000000000E+00 0. -1.
         24    2    1    2    0    0  0.23405663442E+03  0.63655905755E+03 -0.14708244797E+04  0.16216310812E+04  0.79829642296E+02 0.  0.
        254    2    1    2    0    0 -0.23405663442E+03 -0.63655905755E+03 -0.50372735317E+03  0.12025814480E+04  0.85584516759E+03 0.  0.
         23    2    4    4    0    0 -0.43387848084E+03 -0.37732962936E+02 -0.27717455665E+03  0.52621051609E+03  0.10196793496E+03 0.  0.
         23    2    4    4    0    0  0.19982184642E+03 -0.59882609461E+03 -0.22655279652E+03  0.67637093192E+03  0.87349905762E+02 0.  0.
          4    1    3    3  502    0  0.10583155963E+03  0.32220521676E+03 -0.82552653661E+03  0.89247441608E+03  0.00000000000E+00 0. -1.
         -3    1    3    3    0  502  0.12822507479E+03  0.31435384079E+03 -0.64529794307E+03  0.72915666516E+03  0.00000000000E+00 0.  1.
         11    1    5    5    0    0 -0.15370073518E+03  0.23734613441E+02 -0.13558849823E+03  0.20632859405E+03  0.00000000000E+00 0. -1.
        -11    1    5    5    0    0 -0.28017774566E+03 -0.61467576377E+02 -0.14158605842E+03  0.31988192204E+03  0.00000000000E+00 0.  1.
          4    1    6    6  503    0  0.19565837443E+03 -0.53036367469E+03 -0.22297493498E+03  0.60768877605E+03  0.00000000000E+00 0. -1.
         -4    1    6    6    0  503  0.41634719874E+01 -0.68462419926E+02 -0.35778615443E+01  0.68682155865E+02  0.00000000000E+00 0.  1.
<mgrwt>
<rscale>  0 0.20192378E+04</rscale>
<asrwt>0</asrwt>
<pdfrwt beam="1">  1        2 0.36913572E+00 0.20192378E+04</pdfrwt>
<pdfrwt beam="2">  1       -1 0.65358516E-01 0.20192378E+04</pdfrwt>
<totfact> 0.99732009E+00</totfact>
</mgrwt>
</event>
<event>
12    6  0.1530859E-007  0.1792527E+04  0.7818608E-02  0.8710284E-01
          2   -1    0    0  501    0  0.00000000000E+00  0.00000000000E+00  0.19614067519E+04  0.19614067519E+04  0.00000000000E+00 0. -1.
         -1   -1    0    0    0  501 -0.00000000000E+00 -0.00000000000E+00 -0.40954705553E+03  0.40954705553E+03  0.00000000000E+00 0.  1.
         24    2    1    2    0    0  0.37443802936E+03  0.26789940365E+03 -0.53597926813E+02  0.47068118529E+03  0.81817553883E+02 0.  0.
        254    2    1    2    0    0 -0.37443802936E+03 -0.26789940365E+03  0.16054576232E+04  0.19002726222E+04  0.90640384507E+03 0.  0.
         23    2    4    4    0    0  0.71456985989E+02 -0.15970994870E+03  0.13548630205E+04  0.13694343914E+04  0.95306764406E+02 0.  0.
         23    2    4    4    0    0 -0.44589501535E+03 -0.10818945495E+03  0.25059460266E+03  0.53083823078E+03  0.92001355945E+02 0.  0.
          4    1    3    3  502    0  0.76195279648E+02  0.56716084346E+02  0.22004101235E+02  0.97501873497E+02  0.00000000000E+00 0. -1.
         -3    1    3    3    0  502  0.29824274971E+03  0.21118331930E+03 -0.75602028048E+02  0.37317931179E+03  0.00000000000E+00 0.  1.
         11    1    5    5    0    0  0.19863259973E+02 -0.13868324094E+03  0.10739749383E+04  0.10830742165E+04  0.00000000000E+00 0. -1.
        -11    1    5    5    0    0  0.51593726016E+02 -0.21026707760E+02  0.28088808229E+03  0.28636017491E+03  0.00000000000E+00 0.  1.
          3    1    6    6  503    0 -0.41620298583E+03 -0.75981075497E+02  0.23715808993E+03  0.48501753460E+03  0.00000000000E+00 0. -1.
         -3    1    6    6    0  503 -0.29692029521E+02 -0.32208379454E+02  0.13436512728E+02  0.45820696180E+02  0.00000000000E+00 0.  1.
<mgrwt>
<rscale>  0 0.17925271E+04</rscale>
<asrwt>0</asrwt>
<pdfrwt beam="1">  1        2 0.30175488E+00 0.17925271E+04</pdfrwt>
<pdfrwt beam="2">  1       -1 0.63007240E-01 0.17925271E+04</pdfrwt>
<totfact> 0.19294143E+01</totfact>
</mgrwt>
</event>
<event>
12    6  0.1530859E-007  0.2779823E+04  0.7818608E-02  0.8309560E-01
          2   -1    0    0  501    0  0.00000000000E+00  0.00000000000E+00  0.19603270248E+04  0.19603270248E+04  0.00000000000E+00 0. -1.
         -1   -1    0    0    0  501 -0.00000000000E+00 -0.00000000000E+00 -0.98547512072E+03  0.98547512072E+03  0.00000000000E+00 0.  1.
         24    2    1    2    0    0  0.61880052839E+03  0.83983476384E+03 -0.27837703983E+03  0.10827162539E+04  0.80896141156E+02 0.  0.
        254    2    1    2    0    0 -0.61880052839E+03 -0.83983476384E+03  0.12532289439E+04  0.18630858916E+04  0.90126007857E+03 0.  0.
         23    2    4    4    0    0  0.22499653794E+03 -0.22385616522E+03  0.31595017235E+03  0.45597265341E+03  0.85741031374E+02 0.  0.
         23    2    4    4    0    0 -0.84379706633E+03 -0.61597859862E+03  0.93727877153E+03  0.14071132382E+04  0.10026488133E+03 0.  0.
          4    1    3    3  502    0  0.44215156677E+03  0.64902328862E+03 -0.18884770681E+03  0.80770829731E+03  0.00000000000E+00 0. -1.
         -3    1    3    3    0  502  0.17664896162E+03  0.19081147522E+03 -0.89529333014E+02  0.27500795659E+03  0.00000000000E+00 0.  1.
         11    1    5    5    0    0 -0.57155668984E+01 -0.93878795960E+01  0.18759759779E+01  0.11149855342E+02  0.00000000000E+00 0.  1.
        -11    1    5    5    0    0  0.23071210484E+03 -0.21446828562E+03  0.31407419637E+03  0.44482279807E+03  0.00000000000E+00 0. -1.
          3    1    6    6  503    0 -0.58921416286E+03 -0.41210335038E+03  0.70253189611E+03  0.10052629338E+04  0.00000000000E+00 0. -1.
         -3    1    6    6    0  503 -0.25458290347E+03 -0.20387524824E+03  0.23474687541E+03  0.40185030434E+03  0.00000000000E+00 0.  1.
<mgrwt>
<rscale>  0 0.27798227E+04</rscale>
<asrwt>0</asrwt>
<pdfrwt beam="1">  1        2 0.30158877E+00 0.27798227E+04</pdfrwt>
<pdfrwt beam="2">  1       -1 0.15161156E+00 0.27798227E+04</pdfrwt>
<totfact> 0.23627369E+00</totfact>
</mgrwt>
</event>
<event>
12    6  0.1530859E-007  0.2412544E+04  0.7818608E-02  0.8434822E-01
         -1   -1    0    0    0  501 -0.00000000000E+00  0.00000000000E+00  0.53137401881E+03  0.53137401881E+03  0.00000000000E+00 0.  1.
          2   -1    0    0  501    0  0.00000000000E+00 -0.00000000000E+00 -0.27383567754E+04  0.27383567754E+04  0.00000000000E+00 0. -1.
         24    2    1    2    0    0  0.10143699577E+04  0.24529107034E+03 -0.69486448725E+03  0.12563905040E+04  0.81032848498E+02 0.  0.
        254    2    1    2    0    0 -0.10143699577E+04 -0.24529107034E+03 -0.15121182694E+04  0.20133402903E+04  0.82336100438E+03 0.  0.
         23    2    4    4    0    0 -0.92382963280E+03 -0.45370355650E+03 -0.96081937568E+03  0.14109502594E+04  0.91096949320E+02 0.  0.
         23    2    4    4    0    0 -0.90540324918E+02  0.20841248617E+03 -0.55129889370E+03  0.60239003088E+03  0.85498329134E+02 0.  0.
          2    1    3    3  502    0  0.19603056540E+03  0.71469601035E+02 -0.16619242831E+03  0.26675046330E+03  0.00000000000E+00 0. -1.
         -1    1    3    3    0  502  0.81833939232E+03  0.17382146930E+03 -0.52867205894E+03  0.98964004068E+03  0.00000000000E+00 0.  1.
         11    1    5    5    0    0 -0.48770933845E+03 -0.24407909678E+03 -0.57072638360E+03  0.78940712515E+03  0.00000000000E+00 0.  1.
        -11    1    5    5    0    0 -0.43612029436E+03 -0.20962445972E+03 -0.39009299209E+03  0.62154313425E+03  0.00000000000E+00 0. -1.
          1    1    6    6  503    0  0.19153564823E+01  0.40082452618E+02 -0.42018317729E+02  0.58101726507E+02  0.00000000000E+00 0. -1.
         -1    1    6    6    0  503 -0.92455681400E+02  0.16833003355E+03 -0.50928057597E+03  0.54428830437E+03  0.00000000000E+00 0.  1.
<mgrwt>
<rscale>  0 0.24125436E+04</rscale>
<asrwt>0</asrwt>
<pdfrwt beam="1">  1        2 0.42128565E+00 0.24125436E+04</pdfrwt>
<pdfrwt beam="2">  1       -1 0.81749850E-01 0.24125436E+04</pdfrwt>
<totfact> 0.38334216E+00</totfact>
</mgrwt>
</event>
<event>
12    6  0.1530859E-007  0.1086127E+04  0.7818608E-02  0.9218820E-01
         -1   -1    0    0    0  501 -0.00000000000E+00  0.00000000000E+00  0.29289583701E+03  0.29289583701E+03  0.00000000000E+00 0.  1.
          2   -1    0    0  501    0  0.00000000000E+00 -0.00000000000E+00 -0.10069041858E+04  0.10069041858E+04  0.00000000000E+00 0. -1.
         24    2    1    2    0    0 -0.17157209745E+03  0.11305084808E+03 -0.30121053139E+03  0.37284701413E+03  0.77907848466E+02 0.  0.
        254    2    1    2    0    0  0.17157209745E+03 -0.11305084808E+03 -0.41279781744E+03  0.92695300872E+03  0.80412832521E+03 0.  0.
         23    2    4    4    0    0  0.58974634580E+02  0.26857926970E+03 -0.43010954254E+03  0.51828300667E+03  0.89499859124E+02 0.  0.
         23    2    4    4    0    0  0.11259746287E+03 -0.38163011778E+03  0.17311725101E+02  0.40867000204E+03  0.91606437013E+02 0.  0.
          2    1    3    3  502    0 -0.17957766564E+03  0.11118822838E+03 -0.29332968472E+03  0.36145990658E+03  0.00000000000E+00 0. -1.
         -1    1    3    3    0  502  0.80055681901E+01  0.18626197013E+01 -0.78808466730E+01  0.11387107555E+02  0.00000000000E+00 0.  1.
         11    1    5    5    0    0  0.65154778818E+02  0.20140811724E+03 -0.37725513464E+03  0.43258734552E+03  0.00000000000E+00 0. -1.
        -11    1    5    5    0    0 -0.61801442378E+01  0.67171152463E+02 -0.52854407910E+02  0.85695661159E+02  0.00000000000E+00 0.  1.
          4    1    6    6  503    0  0.93658865964E+02 -0.24729163728E+03  0.50003486530E+02  0.26911983522E+03  0.00000000000E+00 0. -1.
         -4    1    6    6    0  503  0.18938596907E+02 -0.13433848050E+03 -0.32691761428E+02  0.13955016682E+03  0.00000000000E+00 0.  1.
<mgrwt>
<rscale>  0 0.10861271E+04</rscale>
<asrwt>0</asrwt>
<pdfrwt beam="1">  1        2 0.15490834E+00 0.10861271E+04</pdfrwt>
<pdfrwt beam="2">  1       -1 0.45060898E-01 0.10861271E+04</pdfrwt>
<totfact> 0.13794049E+02</totfact>
</mgrwt>
</event>
<event>
12    6  0.1530859E-007  0.1993298E+04  0.7818608E-02  0.8609760E-01
         -1   -1    0    0    0  501 -0.00000000000E+00  0.00000000000E+00  0.12488609768E+04  0.12488609768E+04  0.00000000000E+00 0.  1.
          2   -1    0    0  501    0  0.00000000000E+00 -0.00000000000E+00 -0.79537248276E+03  0.79537248276E+03  0.00000000000E+00 0. -1.
         24    2    1    2    0    0  0.25893605899E+03  0.12470939569E+02 -0.57032510869E+03  0.63126907412E+03  0.77630582589E+02 0.  0.
        254    2    1    2    0    0 -0.25893605899E+03 -0.12470939569E+02  0.10238136027E+04  0.14129643854E+04  0.93865363922E+03 0.  0.
         23    2    4    4    0    0  0.28804028127E+03 -0.10785368106E+03  0.10998667982E+03  0.33974346119E+03  0.93428740402E+02 0.  0.
         23    2    4    4    0    0 -0.54697634026E+03  0.95382741494E+02  0.91382692289E+03  0.10732209242E+04  0.91883203219E+02 0.  0.
          4    1    3    3  502    0  0.11169697690E+03  0.15309798622E+02 -0.33697666582E+03  0.35533628845E+03  0.00000000000E+00 0. -1.
         -3    1    3    3    0  502  0.14723908209E+03 -0.28388590523E+01 -0.23334844287E+03  0.27593278567E+03  0.00000000000E+00 0.  1.
         11    1    5    5    0    0 -0.69094671896E+01 -0.55777746217E+01  0.59341043912E+01  0.10680163927E+02  0.00000000000E+00 0.  1.
        -11    1    5    5    0    0  0.29494974846E+03 -0.10227590644E+03  0.10405257542E+03  0.32906329727E+03  0.00000000000E+00 0. -1.
          2    1    6    6  503    0 -0.53357859037E+03  0.84227382825E+02  0.90429411314E+03  0.10533509421E+04  0.00000000000E+00 0. -1.
         -2    1    6    6    0  503 -0.13397749897E+02  0.11155358669E+02  0.95328097586E+01  0.19869982165E+02  0.00000000000E+00 0.  1.
<mgrwt>
<rscale>  0 0.19932984E+04</rscale>
<asrwt>0</asrwt>
<pdfrwt beam="1">  1        2 0.12236500E+00 0.19932984E+04</pdfrwt>
<pdfrwt beam="2">  1       -1 0.19213246E+00 0.19932984E+04</pdfrwt>
<totfact> 0.62864902E+00</totfact>
</mgrwt>
</event>
<event>
12    6  0.1530859E-007  0.1649469E+04  0.7818608E-02  0.8790721E-01
          2   -1    0    0  501    0  0.00000000000E+00  0.00000000000E+00  0.11472486342E+04  0.11472486342E+04  0.00000000000E+00 0. -1.
         -1   -1    0    0    0  501 -0.00000000000E+00 -0.00000000000E+00 -0.59288561248E+03  0.59288561248E+03  0.00000000000E+00 0.  1.
         24    2    1    2    0    0 -0.29662002578E+03 -0.34484151291E+03 -0.18110148678E+03  0.49588404769E+03  0.78766309585E+02 0.  0.
        254    2    1    2    0    0  0.29662002578E+03  0.34484151291E+03  0.73546450853E+03  0.12442501990E+04  0.89462361123E+03 0.  0.
         23    2    4    4    0    0  0.46882382256E+03  0.51684469837E+03  0.68026028625E+03  0.97870877256E+03  0.90512902991E+02 0.  0.
         23    2    4    4    0    0 -0.17220379679E+03 -0.17200318546E+03  0.55204222281E+02  0.26554142647E+03  0.90694539955E+02 0.  0.
          4    1    3    3  502    0 -0.10789041869E+03 -0.14474321314E+03 -0.33117354445E+02  0.18354209152E+03  0.00000000000E+00 0. -1.
         -3    1    3    3    0  502 -0.18872960709E+03 -0.20009829977E+03 -0.14798413233E+03  0.31234195617E+03  0.00000000000E+00 0.  1.
         11    1    5    5    0    0  0.35547873134E+03  0.34258796439E+03  0.51221561887E+03  0.71140458390E+03  0.00000000000E+00 0.  1.
        -11    1    5    5    0    0  0.11334509122E+03  0.17425673398E+03  0.16804466738E+03  0.26730418866E+03  0.00000000000E+00 0. -1.
          2    1    6    6  503    0 -0.55806637001E+02 -0.71040717175E+02  0.64773613366E+02  0.11116107780E+03  0.00000000000E+00 0. -1.
         -2    1    6    6    0  503 -0.11639715978E+03 -0.10096246828E+03 -0.95693910848E+01  0.15438034866E+03  0.00000000000E+00 0.  1.
<mgrwt>
<rscale>  0 0.16494693E+04</rscale>
<asrwt>0</asrwt>
<pdfrwt beam="1">  1        2 0.17649979E+00 0.16494693E+04</pdfrwt>
<pdfrwt beam="2">  1       -1 0.91213171E-01 0.16494693E+04</pdfrwt>
<totfact> 0.26041088E+01</totfact>
</mgrwt>
</event>
<event>
12    6  0.1530859E-007  0.1492876E+04  0.7818608E-02  0.8889204E-01
         -1   -1    0    0    0  501 -0.00000000000E+00  0.00000000000E+00  0.18521306915E+03  0.18521306915E+03  0.00000000000E+00 0.  1.
          2   -1    0    0  501    0  0.00000000000E+00 -0.00000000000E+00 -0.30082614140E+04  0.30082614140E+04  0.00000000000E+00 0. -1.
         24    2    1    2    0    0  0.16758176047E+03  0.94448953836E+02 -0.18197864485E+04  0.18318637344E+04  0.84248277592E+02 0.  0.
        254    2    1    2    0    0 -0.16758176047E+03 -0.94448953836E+02 -0.10032618964E+04  0.13616107487E+04  0.90024726984E+03 0.  0.
         23    2    4    4    0    0 -0.21790001713E+02 -0.15330261282E+02  0.15876785646E+03  0.18428124660E+03  0.89680123319E+02 0.  0.
         23    2    4    4    0    0 -0.14579175876E+03 -0.79118692554E+02 -0.11620297528E+04  0.11773295021E+04  0.90975851442E+02 0.  0.
          4    1    3    3  502    0  0.16662948379E+03  0.64304813403E+02 -0.14790247434E+04  0.14897700109E+04  0.00000000000E+00 0. -1.
         -3    1    3    3    0  502  0.95227668055E+00  0.30144140433E+02 -0.34076170505E+03  0.34209372351E+03  0.00000000000E+00 0.  1.
         11    1    5    5    0    0  0.22918516669E+02 -0.37102466922E+02  0.67965000924E+02  0.80753283578E+02  0.00000000000E+00 0. -1.
        -11    1    5    5    0    0 -0.44708518382E+02  0.21772205640E+02  0.90802855535E+02  0.10352796302E+03  0.00000000000E+00 0.  1.
          3    1    6    6  503    0 -0.57037120759E+02  0.13270180281E+02 -0.45917091985E+03  0.46289012137E+03  0.00000000000E+00 0. -1.
         -3    1    6    6    0  503 -0.88754638002E+02 -0.92388872835E+02 -0.70285883297E+03  0.71443938069E+03  0.00000000000E+00 0.  1.
<mgrwt>
<rscale>  0 0.14928755E+04</rscale>
<asrwt>0</asrwt>
<pdfrwt beam="1">  1        2 0.46280945E+00 0.14928755E+04</pdfrwt>
<pdfrwt beam="2">  1       -1 0.28494318E-01 0.14928755E+04</pdfrwt>
<totfact> 0.21311169E+01</totfact>
</mgrwt>
</event>
<event>
12    6  0.1530859E-007  0.1522577E+04  0.7818608E-02  0.8869577E-01
          2   -1    0    0  501    0  0.00000000000E+00  0.00000000000E+00  0.59796543672E+03  0.59796543672E+03  0.00000000000E+00 0. -1.
         -1   -1    0    0    0  501 -0.00000000000E+00 -0.00000000000E+00 -0.96921968333E+03  0.96921968333E+03  0.00000000000E+00 0.  1.
         24    2    1    2    0    0 -0.43115628337E+03  0.24078365961E+03 -0.82287008893E+02  0.50689579971E+03  0.79370577096E+02 0.  0.
        254    2    1    2    0    0  0.43115628337E+03 -0.24078365961E+03 -0.28896723771E+03  0.10602893203E+04  0.89265831477E+03 0.  0.
         23    2    4    4    0    0 -0.20710424376E+03 -0.40232564163E+02 -0.31084426880E+03  0.38508493922E+03  0.84589739106E+02 0.  0.
         23    2    4    4    0    0  0.63826052712E+03 -0.20055109544E+03  0.21877031087E+02  0.67520438112E+03  0.88459648602E+02 0.  0.
          4    1    3    3  502    0 -0.11151894571E+03  0.58642711457E+02 -0.56549846368E+02  0.13810621993E+03  0.00000000000E+00 0. -1.
         -3    1    3    3    0  502 -0.31963733766E+03  0.18214094815E+03 -0.25737162525E+02  0.36878957978E+03  0.00000000000E+00 0.  1.
         11    1    5    5    0    0 -0.61698590936E+02  0.63267462536E+01 -0.38896916283E+02  0.73210067190E+02  0.00000000000E+00 0. -1.
        -11    1    5    5    0    0 -0.14540565282E+03 -0.46559310417E+02 -0.27194735252E+03  0.31187487202E+03  0.00000000000E+00 0.  1.
          3    1    6    6  503    0  0.63098200474E+03 -0.19708403672E+03  0.10335318778E+02  0.66112572681E+03  0.00000000000E+00 0. -1.
         -3    1    6    6    0  503  0.72785223855E+01 -0.34670587271E+01  0.11541712309E+02  0.14078654316E+02  0.00000000000E+00 0.  1.
<mgrwt>
<rscale>  0 0.15225766E+04</rscale>
<asrwt>0</asrwt>
<pdfrwt beam="1">  1        2 0.91994684E-01 0.15225766E+04</pdfrwt>
<pdfrwt beam="2">  1       -1 0.14911072E+00 0.15225766E+04</pdfrwt>
<totfact> 0.19461677E+01</totfact>
</mgrwt>
</event>
<event>
12    6  0.1530859E-007  0.1448166E+04  0.7818608E-02  0.8919673E-01
          2   -1    0    0  501    0  0.00000000000E+00  0.00000000000E+00  0.35688877514E+04  0.35688877514E+04  0.00000000000E+00 0. -1.
         -1   -1    0    0    0  501 -0.00000000000E+00 -0.00000000000E+00 -0.14690738178E+03  0.14690738178E+03  0.00000000000E+00 0.  1.
         24    2    1    2    0    0  0.41773698776E+02 -0.16721099824E+03  0.36396393871E+01  0.18975428217E+03  0.79302463933E+02 0.  0.
        254    2    1    2    0    0 -0.41773698776E+02  0.16721099824E+03  0.34183407303E+04  0.35260408511E+04  0.84747045684E+03 0.  0.
         23    2    4    4    0    0 -0.27064444787E+03 -0.18798955248E+03  0.23278579119E+04  0.23531420099E+04  0.98824956225E+02 0.  0.
         23    2    4    4    0    0  0.22887074910E+03  0.35520055071E+03  0.10904828184E+04  0.11728988412E+04  0.89384916466E+02 0.  0.
          4    1    3    3  502    0 -0.10753210588E+02 -0.40293420415E+00  0.10091651216E+02  0.14752468206E+02  0.00000000000E+00 0. -1.
         -3    1    3    3    0  502  0.52526909363E+02 -0.16680806403E+03 -0.64520118284E+01  0.17500181396E+03  0.00000000000E+00 0.  1.
         11    1    5    5    0    0 -0.28993750798E+02 -0.10037921653E+02  0.48853708495E+03  0.48949962291E+03  0.00000000000E+00 0.  1.
        -11    1    5    5    0    0 -0.24165069707E+03 -0.17795163082E+03  0.18393208269E+04  0.18636423870E+04  0.00000000000E+00 0. -1.
          3    1    6    6  503    0  0.22991890153E+03  0.32018318847E+03  0.95954938093E+03  0.10373596242E+04  0.00000000000E+00 0. -1.
         -3    1    6    6    0  503 -0.10481524297E+01  0.35017362244E+02  0.13093343749E+03  0.13553921697E+03  0.00000000000E+00 0.  1.
<mgrwt>
<rscale>  0 0.14481657E+04</rscale>
<asrwt>0</asrwt>
<pdfrwt beam="1">  1        2 0.54905959E+00 0.14481657E+04</pdfrwt>
<pdfrwt beam="2">  1       -1 0.22601138E-01 0.14481657E+04</pdfrwt>
<totfact> 0.13586131E+01</totfact>
</mgrwt>
</event>
<event>
12    6  0.1530859E-007  0.2388029E+04  0.7818608E-02  0.8443999E-01
         -1   -1    0    0    0  501 -0.00000000000E+00  0.00000000000E+00  0.82777010380E+03  0.82777010380E+03  0.00000000000E+00 0.  1.
          2   -1    0    0  501    0  0.00000000000E+00 -0.00000000000E+00 -0.17223021508E+04  0.17223021508E+04  0.00000000000E+00 0. -1.
         24    2    1    2    0    0  0.85997121828E+03 -0.52288455027E+03 -0.19526261992E+03  0.10282482579E+04  0.78792385011E+02 0.  0.
        254    2    1    2    0    0 -0.85997121828E+03  0.52288455027E+03 -0.69926942710E+03  0.15218239967E+04  0.90222602275E+03 0.  0.
         23    2    4    4    0    0 -0.85361955550E+03  0.20287944408E+03 -0.17298978075E+03  0.89895417576E+03  0.91469839301E+02 0.  0.
         23    2    4    4    0    0 -0.63516627805E+01  0.32000510619E+03 -0.52627964635E+03  0.62286982096E+03  0.92482085246E+02 0.  0.
          4    1    3    3  502    0  0.48854480662E+03 -0.31417151944E+03 -0.14930641155E+03  0.59972675130E+03  0.00000000000E+00 0. -1.
         -3    1    3    3    0  502  0.37142641167E+03 -0.20871303083E+03 -0.45956208367E+02  0.42852150659E+03  0.00000000000E+00 0.  1.
         11    1    5    5    0    0 -0.88584599822E+02  0.49768970521E+02 -0.12027075636E+02  0.10231731183E+03  0.00000000000E+00 0.  1.
        -11    1    5    5    0    0 -0.76503495568E+03  0.15311047356E+03 -0.16096270512E+03  0.79663686393E+03  0.00000000000E+00 0. -1.
          1    1    6    6  503    0 -0.21954284630E+02  0.29634212668E+03 -0.50980373486E+03  0.59008515888E+03  0.00000000000E+00 0. -1.
         -1    1    6    6    0  503  0.15602621849E+02  0.23662979516E+02 -0.16475911492E+02  0.32784662079E+02  0.00000000000E+00 0.  1.
<mgrwt>
<rscale>  0 0.23880287E+04</rscale>
<asrwt>0</asrwt>
<pdfrwt beam="1">  1        2 0.26496956E+00 0.23880287E+04</pdfrwt>
<pdfrwt beam="2">  1       -1 0.12734925E+00 0.23880287E+04</pdfrwt>
<totfact> 0.52173189E+00</totfact>
</mgrwt>
</event>
<event>
12    6  0.1530859E-007  0.1521794E+04  0.7818608E-02  0.8870088E-01
         -1   -1    0    0    0  501 -0.00000000000E+00  0.00000000000E+00  0.62188222568E+03  0.62188222568E+03  0.00000000000E+00 0.  1.
          2   -1    0    0  501    0  0.00000000000E+00 -0.00000000000E+00 -0.93098724720E+03  0.93098724720E+03  0.00000000000E+00 0. -1.
         24    2    1    2    0    0  0.30242367731E+02  0.48454032971E+03 -0.16763104683E+03  0.51948233919E+03  0.77896090757E+02 0.  0.
        254    2    1    2    0    0 -0.30242367731E+02 -0.48454032971E+03 -0.14147397469E+03  0.10333871337E+04  0.90121038090E+03 0.  0.
         23    2    4    4    0    0  0.10420494305E+03  0.15368237084E+03 -0.29152320060E+03  0.35762933875E+03  0.91847842538E+02 0.  0.
         23    2    4    4    0    0 -0.13444731078E+03 -0.63822270055E+03  0.15004922592E+03  0.67575779494E+03  0.93431966483E+02 0.  0.
          4    1    3    3  502    0  0.27059179417E+02  0.48474711194E+03 -0.17110059976E+03  0.51476924633E+03  0.00000000000E+00 0. -1.
         -3    1    3    3    0  502  0.31831883142E+01 -0.20678223842E+00  0.34695529367E+01  0.47130928612E+01  0.00000000000E+00 0.  1.
         11    1    5    5    0    0  0.10890053813E+02  0.91981836841E+02 -0.10394675949E+03  0.13922708210E+03  0.00000000000E+00 0. -1.
        -11    1    5    5    0    0  0.93314889233E+02  0.61700534000E+02 -0.18757644111E+03  0.21840225665E+03  0.00000000000E+00 0.  1.
          4    1    6    6  503    0 -0.73570674789E+02 -0.51265412332E+03  0.99767486027E+02  0.52742814261E+03  0.00000000000E+00 0. -1.
         -4    1    6    6    0  503 -0.60876635988E+02 -0.12556857722E+03  0.50281739888E+02  0.14832965233E+03  0.00000000000E+00 0.  1.
<mgrwt>
<rscale>  0 0.15217942E+04</rscale>
<asrwt>0</asrwt>
<pdfrwt beam="1">  1        2 0.14322881E+00 0.15217942E+04</pdfrwt>
<pdfrwt beam="2">  1       -1 0.95674189E-01 0.15217942E+04</pdfrwt>
<totfact> 0.32432203E+01</totfact>
</mgrwt>
</event>
<event>
12    6  0.1530859E-007  0.2540907E+04  0.7818608E-02  0.8388556E-01
          2   -1    0    0  501    0  0.00000000000E+00  0.00000000000E+00  0.23066216721E+04  0.23066216721E+04  0.00000000000E+00 0. -1.
         -1   -1    0    0    0  501 -0.00000000000E+00 -0.00000000000E+00 -0.69974701230E+03  0.69974701230E+03  0.00000000000E+00 0.  1.
         24    2    1    2    0    0  0.86111222667E+03 -0.86306580552E+02 -0.11196705869E+03  0.87628866509E+03  0.79888106562E+02 0.  0.
        254    2    1    2    0    0 -0.86111222667E+03  0.86306580552E+02  0.17188417185E+04  0.21300800193E+04  0.91315986698E+03 0.  0.
         23    2    4    4    0    0 -0.47696167778E+03 -0.27758886997E+03  0.13955005616E+04  0.15033034267E+04  0.89170357574E+02 0.  0.
         23    2    4    4    0    0 -0.38415054889E+03  0.36389545052E+03  0.32334115695E+03  0.62677659260E+03  0.91147408815E+02 0.  0.
          2    1    3    3  502    0  0.32591954337E+03 -0.65850144203E+02 -0.22312537896E+02  0.33325311640E+03  0.00000000000E+00 0. -1.
         -1    1    3    3    0  502  0.53519268330E+03 -0.20456436349E+02 -0.89654520797E+02  0.54303554869E+03  0.00000000000E+00 0.  1.
         11    1    5    5    0    0 -0.35675476016E+03 -0.23872722490E+03  0.11433462160E+04  0.12212719666E+04  0.00000000000E+00 0. -1.
        -11    1    5    5    0    0 -0.12020691763E+03 -0.38861645064E+02  0.25215434556E+03  0.28203146010E+03  0.00000000000E+00 0.  1.
          1    1    6    6  503    0 -0.33370454942E+03  0.34418719989E+03  0.26747902596E+03  0.54897047662E+03  0.00000000000E+00 0. -1.
         -1    1    6    6    0  503 -0.50445999468E+02  0.19708250628E+02  0.55862130987E+02  0.77806115978E+02  0.00000000000E+00 0.  1.
<mgrwt>
<rscale>  0 0.25409066E+04</rscale>
<asrwt>0</asrwt>
<pdfrwt beam="1">  1        2 0.35486487E+00 0.25409066E+04</pdfrwt>
<pdfrwt beam="2">  1       -1 0.10765339E+00 0.25409066E+04</pdfrwt>
<totfact> 0.36484131E+00</totfact>
</mgrwt>
</event>
<event>
12    6  0.1530859E-007  0.1894080E+04  0.7818608E-02  0.8657809E-01
          2   -1    0    0  501    0  0.00000000000E+00  0.00000000000E+00  0.94300637214E+03  0.94300637214E+03  0.00000000000E+00 0. -1.
         -1   -1    0    0    0  501 -0.00000000000E+00 -0.00000000000E+00 -0.95109091607E+03  0.95109091607E+03  0.00000000000E+00 0.  1.
         24    2    1    2    0    0  0.35537595029E+02  0.70861358547E+03  0.14797041443E+03  0.72896792364E+03  0.78120778090E+02 0.  0.
        254    2    1    2    0    0 -0.35537595029E+02 -0.70861358547E+03 -0.15605495836E+03  0.11651293646E+04  0.91092104596E+03 0.  0.
         23    2    4    4    0    0 -0.35484440600E+03  0.51185328920E+01 -0.76751806131E+02  0.37418008856E+03  0.90438637135E+02 0.  0.
         23    2    4    4    0    0  0.31930681097E+03 -0.71373211836E+03 -0.79303152228E+02  0.79094927601E+03  0.89114482240E+02 0.  0.
          2    1    3    3  502    0  0.15147238458E+02  0.46315306022E+03  0.13345393267E+03  0.48223453648E+03  0.00000000000E+00 0. -1.
         -1    1    3    3    0  502  0.20390356570E+02  0.24546052525E+03  0.14516481760E+02  0.24673338716E+03  0.00000000000E+00 0.  1.
         11    1    5    5    0    0 -0.35540765311E+03 -0.17313136273E+01 -0.82907186553E+02  0.36495369421E+03  0.00000000000E+00 0.  1.
        -11    1    5    5    0    0  0.56324711092E+00  0.68498465193E+01  0.61553804223E+01  0.92263943547E+01  0.00000000000E+00 0. -1.
          4    1    6    6  503    0  0.24639828475E+02 -0.13474148594E+03 -0.22482258444E+02  0.13880864932E+03  0.00000000000E+00 0. -1.
         -4    1    6    6    0  503  0.29466698249E+03 -0.57899063242E+03 -0.56820893785E+02  0.65214062669E+03  0.00000000000E+00 0.  1.
<mgrwt>
<rscale>  0 0.18940800E+04</rscale>
<asrwt>0</asrwt>
<pdfrwt beam="1">  1        2 0.14507790E+00 0.18940800E+04</pdfrwt>
<pdfrwt beam="2">  1       -1 0.14632168E+00 0.18940800E+04</pdfrwt>
<totfact> 0.10941731E+01</totfact>
</mgrwt>
</event>
<event>
12    6  0.1530859E-007  0.1246691E+04  0.7818608E-02  0.9072942E-01
         -1   -1    0    0    0  501 -0.00000000000E+00  0.00000000000E+00  0.12656806439E+03  0.12656806439E+03  0.00000000000E+00 0.  1.
          2   -1    0    0  501    0  0.00000000000E+00 -0.00000000000E+00 -0.30699672976E+04  0.30699672976E+04  0.00000000000E+00 0. -1.
         24    2    1    2    0    0 -0.55347777989E+01 -0.50544699499E+02 -0.13347126404E+04  0.13380576023E+04  0.79717716833E+02 0.  0.
        254    2    1    2    0    0  0.55347777989E+01  0.50544699499E+02 -0.16086865928E+04  0.18584777596E+04  0.92923712189E+03 0.  0.
         23    2    4    4    0    0  0.43117041709E+03  0.17813618169E+03 -0.76879084314E+03  0.90394653671E+03  0.91867039423E+02 0.  0.
         23    2    4    4    0    0 -0.42563563930E+03 -0.12759148219E+03 -0.83989574966E+03  0.95453122290E+03  0.90882899518E+02 0.  0.
          2    1    3    3  502    0 -0.19192388063E+02  0.85615154532E+01 -0.73159209667E+03  0.73189387429E+03  0.00000000000E+00 0. -1.
         -1    1    3    3    0  502  0.13657610264E+02 -0.59106214952E+02 -0.60312054371E+03  0.60616372805E+03  0.00000000000E+00 0.  1.
         11    1    5    5    0    0  0.27340029712E+03  0.10467729789E+03 -0.39532324453E+03  0.49192024437E+03  0.00000000000E+00 0. -1.
        -11    1    5    5    0    0  0.15777011997E+03  0.73458883802E+02 -0.37346759861E+03  0.41202629234E+03  0.00000000000E+00 0.  1.
          4    1    6    6  503    0 -0.39701302463E+03 -0.12655402196E+03 -0.72595648301E+03  0.83704723727E+03  0.00000000000E+00 0. -1.
         -4    1    6    6    0  503 -0.28622614666E+02 -0.10374602299E+01 -0.11393926665E+03  0.11748398562E+03  0.00000000000E+00 0.  1.
<mgrwt>
<rscale>  0 0.12466913E+04</rscale>
<asrwt>0</asrwt>
<pdfrwt beam="1">  1        2 0.47230261E+00 0.12466913E+04</pdfrwt>
<pdfrwt beam="2">  1       -1 0.19472012E-01 0.12466913E+04</pdfrwt>
<totfact> 0.38232717E+01</totfact>
</mgrwt>
</event>
<event>
12    6  0.1530859E-007  0.1488372E+04  0.7818608E-02  0.8892223E-01
          2   -1    0    0  501    0  0.00000000000E+00  0.00000000000E+00  0.47708279956E+03  0.47708279956E+03  0.00000000000E+00 0. -1.
         -1   -1    0    0    0  501 -0.00000000000E+00 -0.00000000000E+00 -0.11608311313E+04  0.11608311313E+04  0.00000000000E+00 0.  1.
         24    2    1    2    0    0  0.24767556261E+03  0.29863462751E+03  0.84719486725E+00  0.39562177938E+03  0.77395410216E+02 0.  0.
        254    2    1    2    0    0 -0.24767556261E+03 -0.29863462751E+03 -0.68459552663E+03  0.12422921515E+04  0.96129752394E+03 0.  0.
         23    2    4    4    0    0 -0.44399531157E+03 -0.24778273884E+03 -0.82918311085E+03  0.97762861850E+03  0.98412204706E+02 0.  0.
         23    2    4    4    0    0  0.19631974896E+03 -0.50851888668E+02  0.14458758422E+03  0.26466353300E+03  0.89520152928E+02 0.  0.
          2    1    3    3  502    0  0.25223734926E+03  0.28682789710E+03 -0.42300885610E+01  0.38198405276E+03  0.00000000000E+00 0. -1.
         -1    1    3    3    0  502 -0.45617866493E+01  0.11806730408E+02  0.50772834283E+01  0.13637726620E+02  0.00000000000E+00 0.  1.
         11    1    5    5    0    0 -0.29774024812E+03 -0.17276572538E+03 -0.46957750882E+03  0.58223731245E+03  0.00000000000E+00 0.  1.
        -11    1    5    5    0    0 -0.14625506345E+03 -0.75017013461E+02 -0.35960560203E+03  0.39539130605E+03  0.00000000000E+00 0. -1.
          4    1    6    6  503    0 -0.66969811769E-01 -0.11095552422E+02 -0.72562314154E+01  0.13257777448E+02  0.00000000000E+00 0.  1.
         -4    1    6    6    0  503  0.19638671877E+03 -0.39756336247E+02  0.15184381563E+03  0.25140575555E+03  0.00000000000E+00 0. -1.
<mgrwt>
<rscale>  0 0.14883717E+04</rscale>
<asrwt>0</asrwt>
<pdfrwt beam="1">  1        2 0.73397355E-01 0.14883717E+04</pdfrwt>
<pdfrwt beam="2">  1       -1 0.17858940E+00 0.14883717E+04</pdfrwt>
<totfact> 0.15315770E+01</totfact>
</mgrwt>
</event>
<event>
12    6  0.1530859E-007  0.1893211E+04  0.7818608E-02  0.8658243E-01
         -1   -1    0    0    0  501 -0.00000000000E+00  0.00000000000E+00  0.63908953847E+03  0.63908953847E+03  0.00000000000E+00 0.  1.
          2   -1    0    0  501    0  0.00000000000E+00 -0.00000000000E+00 -0.14020920179E+04  0.14020920179E+04  0.00000000000E+00 0. -1.
         24    2    1    2    0    0  0.69877281295E+03  0.16700036132E+03 -0.16429571758E+03  0.74127229110E+03  0.79491898626E+02 0.  0.
        254    2    1    2    0    0 -0.69877281295E+03 -0.16700036132E+03 -0.59870676189E+03  0.12999092653E+04  0.90285200697E+03 0.  0.
         23    2    4    4    0    0 -0.67520514544E+02 -0.27130958914E+03 -0.58331912280E+03  0.65313481767E+03  0.90310453393E+02 0.  0.
         23    2    4    4    0    0 -0.63125229840E+03  0.10430922781E+03 -0.15387639089E+02  0.64677444763E+03  0.93383764234E+02 0.  0.
          2    1    3    3  502    0  0.80137084576E+02  0.39381426749E+02 -0.29960950014E+01  0.89341063809E+02  0.00000000000E+00 0. -1.
         -3    1    3    3    0  502  0.61863572837E+03  0.12761893458E+03 -0.16129962258E+03  0.65193122730E+03  0.00000000000E+00 0.  1.
         11    1    5    5    0    0 -0.27456772243E+02 -0.12642724721E+03 -0.37161657567E+03  0.39349282394E+03  0.00000000000E+00 0. -1.
        -11    1    5    5    0    0 -0.40063742301E+02 -0.14488234192E+03 -0.21170254713E+03  0.25964199373E+03  0.00000000000E+00 0.  1.
          2    1    6    6  503    0 -0.28205955369E+03  0.58227776216E+01  0.16213971177E+02  0.28258518968E+03  0.00000000000E+00 0. -1.
         -2    1    6    6    0  503 -0.34919274472E+03  0.98486450190E+02 -0.31601610266E+02  0.36418925795E+03  0.00000000000E+00 0.  1.
<mgrwt>
<rscale>  0 0.18932114E+04</rscale>
<asrwt>0</asrwt>
<pdfrwt beam="1">  1        2 0.21570646E+00 0.18932114E+04</pdfrwt>
<pdfrwt beam="2">  1       -1 0.98321469E-01 0.18932114E+04</pdfrwt>
<totfact> 0.15268137E+01</totfact>
</mgrwt>
</event>
<event>
12    6  0.1530859E-007  0.2950994E+04  0.7818608E-02  0.8257865E-01
         -1   -1    0    0    0  501 -0.00000000000E+00  0.00000000000E+00  0.91420138256E+03  0.91420138256E+03  0.00000000000E+00 0.  1.
          2   -1    0    0  501    0  0.00000000000E+00 -0.00000000000E+00 -0.23814130383E+04  0.23814130383E+04  0.00000000000E+00 0. -1.
         24    2    1    2    0    0  0.12483480598E+04  0.19232251209E+03 -0.15878922320E+03  0.12760313389E+04  0.87642076153E+02 0.  0.
        254    2    1    2    0    0 -0.12483480598E+04 -0.19232251209E+03 -0.13084224325E+04  0.20195830819E+04  0.87828568001E+03 0.  0.
         23    2    4    4    0    0 -0.28448432378E+03  0.31963812076E+03 -0.29877663103E+03  0.52988611370E+03  0.91716735277E+02 0.  0.
         23    2    4    4    0    0 -0.96386373602E+03 -0.51196063284E+03 -0.10096458015E+04  0.14896969682E+04  0.93141942131E+02 0.  0.
          4    1    3    3  502    0  0.37398458011E+02 -0.65171438271E+01  0.37551382695E+01  0.38147331345E+02  0.00000000000E+00 0. -1.
         -3    1    3    3    0  502  0.12109496018E+04  0.19883965591E+03 -0.16254436147E+03  0.12378840076E+04  0.00000000000E+00 0.  1.
         11    1    5    5    0    0 -0.41970551117E+02  0.36513565888E+02 -0.61622168508E+01  0.55970890393E+02  0.00000000000E+00 0. -1.
        -11    1    5    5    0    0 -0.24251377266E+03  0.28312455487E+03 -0.29261441417E+03  0.47391522331E+03  0.00000000000E+00 0.  1.
          4    1    6    6  503    0 -0.66721706735E+03 -0.32311595883E+03 -0.72975599413E+03  0.10402530215E+04  0.00000000000E+00 0. -1.
         -4    1    6    6    0  503 -0.29664666867E+03 -0.18884467401E+03 -0.27988980733E+03  0.44944394665E+03  0.00000000000E+00 0.  1.
<mgrwt>
<rscale>  0 0.29509938E+04</rscale>
<asrwt>0</asrwt>
<pdfrwt beam="1">  1        2 0.36637124E+00 0.29509938E+04</pdfrwt>
<pdfrwt beam="2">  1       -1 0.14064636E+00 0.29509938E+04</pdfrwt>
<totfact> 0.16482735E+00</totfact>
</mgrwt>
</event>
<event>
12    6  0.1530859E-007  0.1261494E+04  0.7818608E-02  0.9060670E-01
         -1   -1    0    0    0  501 -0.00000000000E+00  0.00000000000E+00  0.23841919688E+03  0.23841919688E+03  0.00000000000E+00 0.  1.
          2   -1    0    0  501    0  0.00000000000E+00 -0.00000000000E+00 -0.16686659716E+04  0.16686659716E+04  0.00000000000E+00 0. -1.
         24    2    1    2    0    0  0.11706338443E+02 -0.30054421177E+03 -0.32830128644E+03  0.45233355436E+03  0.79749909881E+02 0.  0.
        254    2    1    2    0    0 -0.11706338443E+02  0.30054421177E+03 -0.11019454883E+04  0.14547516141E+04  0.90086321830E+03 0.  0.
         23    2    4    4    0    0 -0.26622179010E+02  0.55915768445E+03 -0.10214433992E+04  0.11683968320E+04  0.91861214390E+02 0.  0.
         23    2    4    4    0    0  0.14915840568E+02 -0.25861347268E+03 -0.80502089075E+02  0.28635478215E+03  0.91733659920E+02 0.  0.
          4    1    3    3  502    0 -0.26520899607E+01  0.17217660437E+01  0.24793658670E+01  0.40181232648E+01  0.00000000000E+00 0. -1.
         -3    1    3    3    0  502  0.14358428403E+02 -0.30226597782E+03 -0.33078065231E+03  0.44831543109E+03  0.00000000000E+00 0.  1.
         11    1    5    5    0    0 -0.27575254527E+02  0.18617564214E+03 -0.42685716515E+03  0.46650702441E+03  0.00000000000E+00 0. -1.
        -11    1    5    5    0    0  0.95307551718E+00  0.37298204231E+03 -0.59458623407E+03  0.70188980758E+03  0.00000000000E+00 0.  1.
          3    1    6    6  503    0  0.22777040364E+02 -0.26255162795E+03 -0.84419995640E+02  0.27672890447E+03  0.00000000000E+00 0.  1.
         -3    1    6    6    0  503 -0.78611997962E+01  0.39381552700E+01  0.39179065652E+01  0.96258776753E+01  0.00000000000E+00 0. -1.
<mgrwt>
<rscale>  0 0.12614944E+04</rscale>
<asrwt>0</asrwt>
<pdfrwt beam="1">  1        2 0.25671783E+00 0.12614944E+04</pdfrwt>
<pdfrwt beam="2">  1       -1 0.36679878E-01 0.12614944E+04</pdfrwt>
<totfact> 0.81499885E+01</totfact>
</mgrwt>
</event>
<event>
12    6  0.1530859E-007  0.3164536E+04  0.7818608E-02  0.8198246E-01
          2   -1    0    0  501    0  0.00000000000E+00  0.00000000000E+00  0.28831205928E+04  0.28831205928E+04  0.00000000000E+00 0. -1.
         -1   -1    0    0    0  501 -0.00000000000E+00 -0.00000000000E+00 -0.86835477099E+03  0.86835477099E+03  0.00000000000E+00 0.  1.
         24    2    1    2    0    0 -0.12140944405E+04  0.39625405729E+03  0.99149472495E+02  0.12836125144E+04  0.82388596380E+02 0.  0.
        254    2    1    2    0    0  0.12140944405E+04 -0.39625405729E+03  0.19156163493E+04  0.24678628494E+04  0.88866104750E+03 0.  0.
         23    2    4    4    0    0  0.99875198212E+03  0.53867263653E+02  0.97800577523E+03  0.14019429576E+04  0.92420539209E+02 0.  0.
         23    2    4    4    0    0  0.21534245837E+03 -0.45012132095E+03  0.93761057409E+03  0.10659198918E+04  0.89944700658E+02 0.  0.
          4    1    3    3  502    0 -0.30708926717E+03  0.67290065238E+02  0.41076278160E+02  0.31704736478E+03  0.00000000000E+00 0. -1.
         -3    1    3    3    0  502 -0.90700517333E+03  0.32896399206E+03  0.58073194335E+02  0.96656514960E+03  0.00000000000E+00 0.  1.
         11    1    5    5    0    0  0.28145019832E+03  0.46389656687E+02  0.31769723423E+03  0.42696340244E+03  0.00000000000E+00 0. -1.
        -11    1    5    5    0    0  0.71730178381E+03  0.74776069659E+01  0.66030854099E+03  0.97497955515E+03  0.00000000000E+00 0.  1.
          4    1    6    6  503    0  0.23061963226E+02 -0.94564942286E+01  0.65142763369E+02  0.69748541564E+02  0.00000000000E+00 0. -1.
         -4    1    6    6    0  503  0.19228049514E+03 -0.44066482672E+03  0.87246781072E+03  0.99617135025E+03  0.00000000000E+00 0.  1.
<mgrwt>
<rscale>  0 0.31645357E+04</rscale>
<asrwt>0</asrwt>
<pdfrwt beam="1">  1        2 0.44355701E+00 0.31645357E+04</pdfrwt>
<pdfrwt beam="2">  1       -1 0.13359304E+00 0.31645357E+04</pdfrwt>
<totfact> 0.93356875E-01</totfact>
</mgrwt>
</event>
<event>
12    6  0.1530859E-007  0.1859631E+04  0.7818608E-02  0.8675216E-01
         -1   -1    0    0    0  501 -0.00000000000E+00  0.00000000000E+00  0.74507419599E+03  0.74507419599E+03  0.00000000000E+00 0.  1.
          2   -1    0    0  501    0  0.00000000000E+00 -0.00000000000E+00 -0.11603635658E+04  0.11603635658E+04  0.00000000000E+00 0. -1.
         24    2    1    2    0    0  0.84540770422E+02  0.36483899723E+03 -0.78116846444E+03  0.86996616639E+03  0.79764184050E+02 0.  0.
        254    2    1    2    0    0 -0.84540770422E+02 -0.36483899723E+03  0.36587909466E+03  0.10354715954E+04  0.89335282904E+03 0.  0.
         23    2    4    4    0    0 -0.58630747466E+02 -0.33340260736E+03  0.64725436326E+03  0.73596514821E+03  0.90064562791E+02 0.  0.
         23    2    4    4    0    0 -0.25910022956E+02 -0.31436389869E+02 -0.28137526860E+03  0.29950644716E+03  0.94193918142E+02 0.  0.
          2    1    3    3  502    0  0.42701446675E+02  0.18187556923E+03 -0.48032497434E+03  0.51537774225E+03  0.00000000000E+00 0. -1.
         -1    1    3    3    0  502  0.41839323747E+02  0.18296342799E+03 -0.30084349010E+03  0.35458842414E+03  0.00000000000E+00 0.  1.
         11    1    5    5    0    0 -0.45635668118E+02 -0.29427570710E+03  0.48998305790E+03  0.57337963255E+03  0.00000000000E+00 0. -1.
        -11    1    5    5    0    0 -0.12995079348E+02 -0.39126900259E+02  0.15727130536E+03  0.16258551566E+03  0.00000000000E+00 0.  1.
          3    1    6    6  503    0 -0.57265979988E+02 -0.39936077907E+02 -0.20274596650E+03  0.21442996459E+03  0.00000000000E+00 0. -1.
         -3    1    6    6    0  503  0.31355957031E+02  0.84996880380E+01 -0.78629302103E+02  0.85076482575E+02  0.00000000000E+00 0.  1.
<mgrwt>
<rscale>  0 0.18596311E+04</rscale>
<asrwt>0</asrwt>
<pdfrwt beam="1">  1        2 0.17851747E+00 0.18596311E+04</pdfrwt>
<pdfrwt beam="2">  1       -1 0.11462680E+00 0.18596311E+04</pdfrwt>
<totfact> 0.14833781E+01</totfact>
</mgrwt>
</event>
<event>
12    6  0.1530859E-007  0.2626670E+04  0.7818608E-02  0.8359198E-01
         -1   -1    0    0    0  501 -0.00000000000E+00  0.00000000000E+00  0.86416368367E+03  0.86416368367E+03  0.00000000000E+00 0.  1.
          2   -1    0    0  501    0  0.00000000000E+00 -0.00000000000E+00 -0.19959752156E+04  0.19959752156E+04  0.00000000000E+00 0. -1.
         24    2    1    2    0    0 -0.41127606446E+03  0.11442329007E+02  0.67734334220E+03  0.79643753424E+03  0.78992497283E+02 0.  0.
        254    2    1    2    0    0  0.41127606446E+03 -0.11442329007E+02 -0.18091548741E+04  0.20637013650E+04  0.90362770948E+03 0.  0.
         23    2    4    4    0    0  0.23160242531E+03  0.42477338347E+03 -0.70721862140E+03  0.86155862337E+03  0.89738354857E+02 0.  0.
         23    2    4    4    0    0  0.17967363915E+03 -0.43621571248E+03 -0.11019362527E+04  0.12021427417E+04  0.91197049436E+02 0.  0.
          2    1    3    3  502    0 -0.13684271188E+02 -0.12245032606E+02  0.50739340933E+02  0.53959992770E+02  0.00000000000E+00 0. -1.
         -1    1    3    3    0  502 -0.39759179328E+03  0.23687361613E+02  0.62660400127E+03  0.74247754147E+03  0.00000000000E+00 0.  1.
         11    1    5    5    0    0  0.11552653828E+03  0.29812713919E+03 -0.47905710427E+03  0.57595302007E+03  0.00000000000E+00 0.  1.
        -11    1    5    5    0    0  0.11607588704E+03  0.12664624428E+03 -0.22816151713E+03  0.28560560331E+03  0.00000000000E+00 0. -1.
          3    1    6    6  503    0  0.83210277769E+02 -0.31058345267E+03 -0.76540573672E+03  0.83019995977E+03  0.00000000000E+00 0. -1.
         -3    1    6    6    0  503  0.96463361380E+02 -0.12563225981E+03 -0.33653051600E+03  0.37194278188E+03  0.00000000000E+00 0.  1.
<mgrwt>
<rscale>  0 0.26266704E+04</rscale>
<asrwt>0</asrwt>
<pdfrwt beam="1">  1        2 0.30707310E+00 0.26266704E+04</pdfrwt>
<pdfrwt beam="2">  1       -1 0.13294826E+00 0.26266704E+04</pdfrwt>
<totfact> 0.32306659E+00</totfact>
</mgrwt>
</event>
<event>
12    6  0.1530859E-007  0.2329402E+04  0.7818608E-02  0.8466418E-01
         -3   -1    0    0    0  501 -0.00000000000E+00  0.00000000000E+00  0.70161208379E+03  0.70161208379E+03  0.00000000000E+00 0.  1.
          4   -1    0    0  501    0  0.00000000000E+00 -0.00000000000E+00 -0.19334446453E+04  0.19334446453E+04  0.00000000000E+00 0. -1.
         24    2    1    2    0    0  0.18039816234E+03 -0.96532037657E+03 -0.38938519377E+03  0.10594257568E+04  0.79844716144E+02 0.  0.
        254    2    1    2    0    0 -0.18039816234E+03  0.96532037657E+03 -0.84244736777E+03  0.15756309723E+04  0.89917098873E+03 0.  0.
         23    2    4    4    0    0  0.27167033558E+03  0.64426909474E+02 -0.67508915315E+02  0.30082392003E+03  0.89341923620E+02 0.  0.
         23    2    4    4    0    0 -0.45206849792E+03  0.90089346710E+03 -0.77493845245E+03  0.12748070523E+04  0.92889447907E+02 0.  0.
          4    1    3    3  502    0  0.10580289339E+02 -0.70890681986E+02 -0.51837943023E+02  0.88456789744E+02  0.00000000000E+00 0. -1.
         -3    1    3    3    0  502  0.16981787300E+03 -0.89442969458E+03 -0.33754725075E+03  0.97096896708E+03  0.00000000000E+00 0.  1.
         11    1    5    5    0    0  0.27200750263E+03  0.71251299050E+02 -0.54916513442E+02  0.28649721212E+03  0.00000000000E+00 0. -1.
        -11    1    5    5    0    0 -0.33716704575E+00 -0.68243895769E+01 -0.12592401873E+02  0.14326707914E+02  0.00000000000E+00 0.  1.
          3    1    6    6  503    0 -0.40549086370E+03  0.85691837642E+03 -0.73122694013E+03  0.11972571914E+04  0.00000000000E+00 0. -1.
         -3    1    6    6    0  503 -0.46577634220E+02  0.43975090674E+02 -0.43711512323E+02  0.77549860856E+02  0.00000000000E+00 0.  1.
<mgrwt>
<rscale>  0 0.23294017E+04</rscale>
<asrwt>0</asrwt>
<pdfrwt beam="1">  1        4 0.29745301E+00 0.23294017E+04</pdfrwt>
<pdfrwt beam="2">  1       -3 0.10794032E+00 0.23294017E+04</pdfrwt>
<totfact> 0.48135260E-02</totfact>
</mgrwt>
</event>
<event>
12    6  0.1530859E-007  0.1912483E+04  0.7818608E-02  0.8648668E-01
          2   -1    0    0  501    0  0.00000000000E+00  0.00000000000E+00  0.16941058591E+04  0.16941058591E+04  0.00000000000E+00 0. -1.
         -1   -1    0    0    0  501 -0.00000000000E+00 -0.00000000000E+00 -0.53975233632E+03  0.53975233632E+03  0.00000000000E+00 0.  1.
         24    2    1    2    0    0 -0.64362040667E+03 -0.17759334069E+03  0.72861675980E+02  0.67647011761E+03  0.80724058698E+02 0.  0.
        254    2    1    2    0    0  0.64362040667E+03  0.17759334069E+03  0.10814918468E+04  0.15573880778E+04  0.90002577053E+03 0.  0.
         23    2    4    4    0    0  0.81901757080E+03 -0.55517399605E+01  0.95227368426E+03  0.12590084186E+04  0.86350594706E+02 0.  0.
         23    2    4    4    0    0 -0.17539716412E+03  0.18314508065E+03  0.12921816251E+03  0.29837965920E+03  0.89592420194E+02 0.  0.
          2    1    3    3  502    0 -0.16363434358E+03 -0.73572939274E+02  0.42652872771E+02  0.18441378297E+03  0.00000000000E+00 0. -1.
         -1    1    3    3    0  502 -0.47998606309E+03 -0.10402040142E+03  0.30208803208E+02  0.49205633465E+03  0.00000000000E+00 0.  1.
         11    1    5    5    0    0  0.39669556495E+03 -0.66007119473E+01  0.52713225576E+03  0.65975704294E+03  0.00000000000E+00 0.  1.
        -11    1    5    5    0    0  0.42232200585E+03  0.10489719868E+01  0.42514142850E+03  0.59925137562E+03  0.00000000000E+00 0. -1.
          1    1    6    6  503    0 -0.37670038701E+02 -0.15988046208E+01  0.26528889825E+02  0.46101735188E+02  0.00000000000E+00 0. -1.
         -1    1    6    6    0  503 -0.13772712542E+03  0.18474388527E+03  0.10268927268E+03  0.25227792401E+03  0.00000000000E+00 0.  1.
<mgrwt>
<rscale>  0 0.19124828E+04</rscale>
<asrwt>0</asrwt>
<pdfrwt beam="1">  1        2 0.26063167E+00 0.19124828E+04</pdfrwt>
<pdfrwt beam="2">  1       -1 0.83038821E-01 0.19124828E+04</pdfrwt>
<totfact> 0.15163801E+01</totfact>
</mgrwt>
</event>
<event>
12    6  0.1530859E-007  0.1876329E+04  0.7818608E-02  0.8666730E-01
          2   -1    0    0  501    0  0.00000000000E+00  0.00000000000E+00  0.18386971656E+04  0.18386971656E+04  0.00000000000E+00 0. -1.
         -1   -1    0    0    0  501 -0.00000000000E+00 -0.00000000000E+00 -0.47868265949E+03  0.47868265949E+03  0.00000000000E+00 0.  1.
         24    2    1    2    0    0 -0.11702529450E+03  0.58282143429E+03  0.76255914019E+00  0.59978290025E+03  0.79769681724E+02 0.  0.
        254    2    1    2    0    0  0.11702529450E+03 -0.58282143429E+03  0.13592519469E+04  0.17175969248E+04  0.86556201226E+03 0.  0.
         23    2    4    4    0    0  0.34711630007E+03 -0.59563284832E+03  0.12770202788E+04  0.14549014611E+04  0.10338884596E+03 0.  0.
         23    2    4    4    0    0 -0.23009100557E+03  0.12811414037E+02  0.82231668167E+02  0.26269546367E+03  0.95607825043E+02 0.  0.
          2    1    3    3  502    0 -0.86122345028E+02  0.37724947615E+03 -0.36185047156E+02  0.38864325957E+03  0.00000000000E+00 0. -1.
         -1    1    3    3    0  502 -0.30902949471E+02  0.20557195814E+03  0.36947606296E+02  0.21113964068E+03  0.00000000000E+00 0.  1.
         11    1    5    5    0    0  0.33558141797E+03 -0.51611874315E+03  0.11545856407E+04  0.13084576595E+04  0.00000000000E+00 0. -1.
        -11    1    5    5    0    0  0.11534882098E+02 -0.79514105178E+02  0.12243463811E+03  0.14644380164E+03  0.00000000000E+00 0.  1.
          2    1    6    6  503    0 -0.19809965546E+03 -0.25315106987E+02  0.64780228074E+02  0.20995429523E+03  0.00000000000E+00 0. -1.
         -2    1    6    6    0  503 -0.31991350108E+02  0.38126521025E+02  0.17451440094E+02  0.52741168441E+02  0.00000000000E+00 0.  1.
<mgrwt>
<rscale>  0 0.18763288E+04</rscale>
<asrwt>0</asrwt>
<pdfrwt beam="1">  1        2 0.28287648E+00 0.18763288E+04</pdfrwt>
<pdfrwt beam="2">  1       -1 0.73643487E-01 0.18763288E+04</pdfrwt>
<totfact> 0.16299883E+01</totfact>
</mgrwt>
</event>
<event>
12    6  0.1530859E-007  0.2008960E+04  0.7818608E-02  0.8602443E-01
         -1   -1    0    0    0  501 -0.00000000000E+00  0.00000000000E+00  0.70158641544E+03  0.70158641544E+03  0.00000000000E+00 0.  1.
          2   -1    0    0  501    0  0.00000000000E+00 -0.00000000000E+00 -0.14381402275E+04  0.14381402275E+04  0.00000000000E+00 0. -1.
         24    2    1    2    0    0 -0.22948117664E+03  0.28260882799E+03 -0.10582778593E+04  0.11221127847E+04  0.81582559545E+02 0.  0.
        254    2    1    2    0    0  0.22948117664E+03 -0.28260882799E+03  0.32172404719E+03  0.10176138583E+04  0.89414889248E+03 0.  0.
         23    2    4    4    0    0  0.72402897092E+02 -0.46285268860E+03 -0.13507428416E+03  0.49582983839E+03  0.90151958075E+02 0.  0.
         23    2    4    4    0    0  0.15707827955E+03  0.18024386061E+03  0.45679833135E+03  0.52178401989E+03  0.80202323454E+02 0.  0.
          2    1    3    3  502    0 -0.15655738598E+03  0.17915611021E+03 -0.56924865834E+03  0.61696933631E+03  0.00000000000E+00 0. -1.
         -1    1    3    3    0  502 -0.72923790662E+02  0.10345271778E+03 -0.48902920092E+03  0.50514344835E+03  0.00000000000E+00 0.  1.
         11    1    5    5    0    0  0.91280404143E+02 -0.41103561086E+03 -0.12889241580E+03  0.44033582687E+03  0.00000000000E+00 0.  1.
        -11    1    5    5    0    0 -0.18877507052E+02 -0.51817077746E+02 -0.61818683602E+01  0.55494011524E+02  0.00000000000E+00 0. -1.
          3    1    6    6  503    0  0.45922403827E+00 -0.51117772437E+01  0.74176119993E+00  0.51856882845E+01  0.00000000000E+00 0. -1.
         -3    1    6    6    0  503  0.15661905551E+03  0.18535563786E+03  0.45605657015E+03  0.51659833160E+03  0.00000000000E+00 0.  1.
<mgrwt>
<rscale>  0 0.20089596E+04</rscale>
<asrwt>0</asrwt>
<pdfrwt beam="1">  1        2 0.22125234E+00 0.20089596E+04</pdfrwt>
<pdfrwt beam="2">  1       -1 0.10793637E+00 0.20089596E+04</pdfrwt>
<totfact> 0.11619990E+01</totfact>
</mgrwt>
</event>
<event>
12    6  0.1530859E-007  0.1321089E+04  0.7818608E-02  0.9013007E-01
          2   -1    0    0  501    0  0.00000000000E+00  0.00000000000E+00  0.15506714183E+04  0.15506714183E+04  0.00000000000E+00 0. -1.
         -1   -1    0    0    0  501 -0.00000000000E+00 -0.00000000000E+00 -0.28137419377E+03  0.28137419377E+03  0.00000000000E+00 0.  1.
         24    2    1    2    0    0 -0.18225616512E+03 -0.27716267363E+03  0.19928732012E+03  0.39531040329E+03  0.80736742678E+02 0.  0.
        254    2    1    2    0    0  0.18225616512E+03  0.27716267363E+03  0.10700099044E+04  0.14367352088E+04  0.89958346317E+03 0.  0.
         23    2    4    4    0    0  0.50161653733E+03 -0.21586139005E+02  0.61241934838E+03  0.79715684272E+03  0.91194636347E+02 0.  0.
         23    2    4    4    0    0 -0.31936037221E+03  0.29874881263E+03  0.45759055600E+03  0.63957836604E+03  0.91812139568E+02 0.  0.
          4    1    3    3  502    0 -0.84608371290E+02 -0.18066670674E+03  0.14942583974E+03  0.24925311833E+03  0.00000000000E+00 0. -1.
         -3    1    3    3    0  502 -0.97647793828E+02 -0.96495966885E+02  0.49861480375E+02  0.14605728496E+03  0.00000000000E+00 0.  1.
         11    1    5    5    0    0  0.43615738775E+03  0.85699248256E+01  0.49929776218E+03  0.66302712299E+03  0.00000000000E+00 0. -1.
        -11    1    5    5    0    0  0.65459149577E+02 -0.30156063831E+02  0.11312158620E+03  0.13412971973E+03  0.00000000000E+00 0.  1.
          2    1    6    6  503    0 -0.29987423997E+03  0.28336029126E+03  0.39063293243E+03  0.56816520693E+03  0.00000000000E+00 0. -1.
         -2    1    6    6    0  503 -0.19486132243E+02  0.15388521365E+02  0.66957623574E+02  0.71413159111E+02  0.00000000000E+00 0.  1.
<mgrwt>
<rscale>  0 0.13210888E+04</rscale>
<asrwt>0</asrwt>
<pdfrwt beam="1">  1        2 0.23856483E+00 0.13210888E+04</pdfrwt>
<pdfrwt beam="2">  1       -1 0.43288338E-01 0.13210888E+04</pdfrwt>
<totfact> 0.69765198E+01</totfact>
</mgrwt>
</event>
<event>
12    6  0.1530859E-007  0.1207202E+04  0.7818608E-02  0.9106576E-01
         -1   -1    0    0    0  501 -0.00000000000E+00  0.00000000000E+00  0.60281077805E+03  0.60281077805E+03  0.00000000000E+00 0.  1.
          2   -1    0    0  501    0  0.00000000000E+00 -0.00000000000E+00 -0.60439231734E+03  0.60439231734E+03  0.00000000000E+00 0. -1.
         24    2    1    2    0    0 -0.14419736596E+03  0.70135315733E+02 -0.20015983728E+03  0.26890642761E+03  0.80838502533E+02 0.  0.
        254    2    1    2    0    0  0.14419736596E+03 -0.70135315733E+02  0.19857829798E+03  0.93829666777E+03  0.90291497577E+03 0.  0.
         23    2    4    4    0    0  0.93314335254E+02 -0.35104513524E+03 -0.21155301918E+03  0.43017543469E+03  0.91411008915E+02 0.  0.
         23    2    4    4    0    0  0.50883030702E+02  0.28090981950E+03  0.41013131716E+03  0.50812123308E+03  0.92087353584E+02 0.  0.
          4    1    3    3  502    0 -0.85158983278E+02  0.79211387675E+02 -0.10578056087E+03  0.15721330551E+03  0.00000000000E+00 0. -1.
         -3    1    3    3    0  502 -0.59038382678E+02 -0.90760719417E+01 -0.94379276405E+02  0.11169312211E+03  0.00000000000E+00 0.  1.
         11    1    5    5    0    0  0.37830808397E+02 -0.15781150660E+03 -0.14716869146E+03  0.21907593530E+03  0.00000000000E+00 0. -1.
        -11    1    5    5    0    0  0.55483526857E+02 -0.19323362864E+03 -0.64384327713E+02  0.21109949939E+03  0.00000000000E+00 0.  1.
          1    1    6    6  503    0  0.37223139096E+01  0.70524974854E+02  0.17702550988E+03  0.19059291395E+03  0.00000000000E+00 0. -1.
         -1    1    6    6    0  503  0.47160716793E+02  0.21038484465E+03  0.23310580728E+03  0.31752831914E+03  0.00000000000E+00 0.  1.
<mgrwt>
<rscale>  0 0.12072021E+04</rscale>
<asrwt>0</asrwt>
<pdfrwt beam="1">  1        2 0.92983434E-01 0.12072021E+04</pdfrwt>
<pdfrwt beam="2">  1       -1 0.92740119E-01 0.12072021E+04</pdfrwt>
<totfact> 0.62653081E+01</totfact>
</mgrwt>
</event>
<event>
12    6  0.1530859E-007  0.1233236E+04  0.7818608E-02  0.9084252E-01
         -1   -1    0    0    0  501 -0.00000000000E+00  0.00000000000E+00  0.46149613743E+03  0.46149613743E+03  0.00000000000E+00 0.  1.
          2   -1    0    0  501    0  0.00000000000E+00 -0.00000000000E+00 -0.82388110339E+03  0.82388110339E+03  0.00000000000E+00 0. -1.
         24    2    1    2    0    0  0.14905148817E+03  0.21832296592E+03 -0.23380721514E+02  0.27901563517E+03  0.86149886558E+02 0.  0.
        254    2    1    2    0    0 -0.14905148817E+03 -0.21832296592E+03 -0.33900424444E+03  0.10063616056E+04  0.90992227141E+03 0.  0.
         23    2    4    4    0    0 -0.16299097549E+03 -0.51124446793E+03  0.56780911605E+01  0.54456933556E+03  0.92663673750E+02 0.  0.
         23    2    4    4    0    0  0.13939487324E+02  0.29292150200E+03 -0.34468233560E+03  0.46179227009E+03  0.91917749071E+02 0.  0.
          2    1    3    3  502    0  0.16643012442E+02  0.22073865823E+02 -0.31786969907E+02  0.42126676482E+02  0.00000000000E+00 0. -1.
         -1    1    3    3    0  502  0.13240847573E+03  0.19624910010E+03  0.84062483939E+01  0.23688895869E+03  0.00000000000E+00 0.  1.
         11    1    5    5    0    0 -0.43504085047E+02 -0.21760982734E+03  0.40729674681E+02  0.22562258037E+03  0.00000000000E+00 0.  1.
        -11    1    5    5    0    0 -0.11948689045E+03 -0.29363464058E+03 -0.35051583520E+02  0.31894675519E+03  0.00000000000E+00 0. -1.
          3    1    6    6  503    0 -0.99264276205E+01  0.10116078324E+03 -0.60995725166E+02  0.11854331074E+03  0.00000000000E+00 0. -1.
         -3    1    6    6    0  503  0.23865914944E+02  0.19176071876E+03 -0.28368661043E+03  0.34324895935E+03  0.00000000000E+00 0.  1.
<mgrwt>
<rscale>  0 0.12332363E+04</rscale>
<asrwt>0</asrwt>
<pdfrwt beam="1">  1        2 0.12675094E+00 0.12332363E+04</pdfrwt>
<pdfrwt beam="2">  1       -1 0.70999407E-01 0.12332363E+04</pdfrwt>
<totfact> 0.74601214E+01</totfact>
</mgrwt>
</event>
<event>
12    6  0.1530859E-007  0.1510606E+04  0.7818608E-02  0.8877430E-01
          2   -1    0    0  501    0  0.00000000000E+00  0.00000000000E+00  0.18498346370E+04  0.18498346370E+04  0.00000000000E+00 0. -1.
         -1   -1    0    0    0  501 -0.00000000000E+00 -0.00000000000E+00 -0.30839669087E+03  0.30839669087E+03  0.00000000000E+00 0.  1.
         24    2    1    2    0    0 -0.14229844088E+03 -0.34018686881E+02  0.11578788364E+04  0.11697117658E+04  0.78333249009E+02 0.  0.
        254    2    1    2    0    0  0.14229844088E+03  0.34018686881E+02  0.38355910975E+03  0.98851956211E+03  0.89924813966E+03 0.  0.
         23    2    4    4    0    0  0.67525035877E+02 -0.18899993462E+03 -0.23386335869E+03  0.32152949714E+03  0.91698098339E+02 0.  0.
         23    2    4    4    0    0  0.74773405000E+02  0.22301862150E+03  0.61742246844E+03  0.66699006497E+03  0.91306487218E+02 0.  0.
          4    1    3    3  502    0 -0.12592402018E+03  0.35354242735E+00  0.80573676178E+03  0.81551745116E+03  0.00000000000E+00 0. -1.
         -3    1    3    3    0  502 -0.16374420700E+02 -0.34372229309E+02  0.35214207460E+03  0.35419431462E+03  0.00000000000E+00 0.  1.
         11    1    5    5    0    0  0.54135627212E+02 -0.19691690937E+03 -0.20908185526E+03  0.29227069221E+03  0.00000000000E+00 0.  1.
        -11    1    5    5    0    0  0.13389408664E+02  0.79169747491E+01 -0.24781503429E+02  0.29258804927E+02  0.00000000000E+00 0. -1.
          1    1    6    6  503    0 -0.15618910927E+02  0.54037388748E+02  0.19848452750E+03  0.20630098744E+03  0.00000000000E+00 0. -1.
         -1    1    6    6    0  503  0.90392315927E+02  0.16898123275E+03  0.41893794094E+03  0.46068907753E+03  0.00000000000E+00 0.  1.
<mgrwt>
<rscale>  0 0.15106063E+04</rscale>
<asrwt>0</asrwt>
<pdfrwt beam="1">  1        2 0.28458994E+00 0.15106063E+04</pdfrwt>
<pdfrwt beam="2">  1       -1 0.47445646E-01 0.15106063E+04</pdfrwt>
<totfact> 0.39481724E+01</totfact>
</mgrwt>
</event>
<event>
12    6  0.1530859E-007  0.2414417E+04  0.7818608E-02  0.8434126E-01
          2   -1    0    0  501    0  0.00000000000E+00  0.00000000000E+00  0.35389907763E+04  0.35389907763E+04  0.00000000000E+00 0. -1.
         -1   -1    0    0    0  501 -0.00000000000E+00 -0.00000000000E+00 -0.41179895278E+03  0.41179895278E+03  0.00000000000E+00 0.  1.
         24    2    1    2    0    0  0.77059321281E+03 -0.62275377252E+03  0.85725266039E+03  0.13125682077E+04  0.79479654011E+02 0.  0.
        254    2    1    2    0    0 -0.77059321281E+03  0.62275377252E+03  0.22699391631E+04  0.26382215214E+04  0.90881947084E+03 0.  0.
         23    2    4    4    0    0 -0.55257286747E+03 -0.89265850707E+02  0.12467080934E+04  0.13699256572E+04  0.95446688093E+02 0.  0.
         23    2    4    4    0    0 -0.21802034534E+03  0.71201962323E+03  0.10232310697E+04  0.12682958641E+04  0.84069982729E+02 0.  0.
          4    1    3    3  502    0  0.30208787054E+03 -0.25591411695E+03  0.29304905886E+03  0.49257168786E+03  0.00000000000E+00 0. -1.
         -3    1    3    3    0  502  0.46850534227E+03 -0.36683965557E+03  0.56420360153E+03  0.81999651988E+03  0.00000000000E+00 0.  1.
         11    1    5    5    0    0 -0.23142584228E+03 -0.52285797642E+02  0.42201150657E+03  0.48413369722E+03  0.00000000000E+00 0. -1.
        -11    1    5    5    0    0 -0.32114702519E+03 -0.36980053065E+02  0.82469658683E+03  0.88579196003E+03  0.00000000000E+00 0.  1.
          3    1    6    6  503    0 -0.11774040538E+03  0.48859448362E+03  0.72950493680E+03  0.88586953063E+03  0.00000000000E+00 0. -1.
         -3    1    6    6    0  503 -0.10027993997E+03  0.22342513961E+03  0.29372613293E+03  0.38242633348E+03  0.00000000000E+00 0.  1.
<mgrwt>
<rscale>  0 0.24144173E+04</rscale>
<asrwt>0</asrwt>
<pdfrwt beam="1">  1        2 0.54446010E+00 0.24144173E+04</pdfrwt>
<pdfrwt beam="2">  1       -1 0.63353687E-01 0.24144173E+04</pdfrwt>
<totfact> 0.19741128E+00</totfact>
</mgrwt>
</event>
<event>
12    6  0.1530859E-007  0.1353035E+04  0.7818608E-02  0.8988534E-01
          2   -1    0    0  501    0  0.00000000000E+00  0.00000000000E+00  0.24814192797E+04  0.24814192797E+04  0.00000000000E+00 0. -1.
         -1   -1    0    0    0  501 -0.00000000000E+00 -0.00000000000E+00 -0.18444114422E+03  0.18444114422E+03  0.00000000000E+00 0.  1.
         24    2    1    2    0    0 -0.18752362029E+03 -0.22216700555E+03  0.19156422606E+03  0.35665709726E+03  0.77357260769E+02 0.  0.
        254    2    1    2    0    0  0.18752362029E+03  0.22216700555E+03  0.21054139094E+04  0.23092033267E+04  0.90284494092E+03 0.  0.
         23    2    4    4    0    0 -0.21437665864E+03 -0.17612770250E+03  0.12221750027E+04  0.12566332229E+04  0.91853145427E+02 0.  0.
         23    2    4    4    0    0  0.40190027894E+03  0.39829470805E+03  0.88323890678E+03  0.10525701038E+04  0.87351864955E+02 0.  0.
          4    1    3    3  502    0 -0.11429940302E+03 -0.13580127549E+03  0.70761921480E+02  0.19108529375E+03  0.00000000000E+00 0. -1.
         -3    1    3    3    0  502 -0.73224217269E+02 -0.86365730056E+02  0.12080230458E+03  0.16557180350E+03  0.00000000000E+00 0.  1.
         11    1    5    5    0    0 -0.56324123223E+02 -0.95233191449E+02  0.37147645560E+03  0.38760356639E+03  0.00000000000E+00 0.  1.
        -11    1    5    5    0    0 -0.15805253542E+03 -0.80894511052E+02  0.85069854705E+03  0.86902965647E+03  0.00000000000E+00 0. -1.
          3    1    6    6  503    0  0.66976335497E+02  0.26247656603E+02  0.10977729494E+03  0.13124718465E+03  0.00000000000E+00 0. -1.
         -3    1    6    6    0  503  0.33492394344E+03  0.37204705145E+03  0.77346161184E+03  0.92132291916E+03  0.00000000000E+00 0.  1.
<mgrwt>
<rscale>  0 0.13530348E+04</rscale>
<asrwt>0</asrwt>
<pdfrwt beam="1">  1        2 0.38175679E+00 0.13530348E+04</pdfrwt>
<pdfrwt beam="2">  1       -1 0.28375562E-01 0.13530348E+04</pdfrwt>
<totfact> 0.44826549E+01</totfact>
</mgrwt>
</event>
<event>
12    6  0.1530859E-007  0.3016572E+04  0.7818608E-02  0.8239014E-01
         -1   -1    0    0    0  501 -0.00000000000E+00  0.00000000000E+00  0.16079997325E+04  0.16079997325E+04  0.00000000000E+00 0.  1.
          2   -1    0    0  501    0  0.00000000000E+00 -0.00000000000E+00 -0.14147554079E+04  0.14147554079E+04  0.00000000000E+00 0. -1.
         24    2    1    2    0    0  0.90041110666E+02  0.10269377128E+04 -0.82290535043E+03  0.13215730422E+04  0.81692242904E+02 0.  0.
        254    2    1    2    0    0 -0.90041110666E+02 -0.10269377128E+04  0.10161496751E+04  0.17011820982E+04  0.89372921050E+03 0.  0.
         23    2    4    4    0    0 -0.46833675813E+02 -0.11645564783E+04  0.98222014600E+03  0.15267739274E+04  0.88865210886E+02 0.  0.
         23    2    4    4    0    0 -0.43207434853E+02  0.13761876554E+03  0.33929529058E+02  0.17440817086E+03  0.91984727344E+02 0.  0.
          4    1    3    3  502    0  0.92714042790E+02  0.91249409441E+03 -0.75869890457E+03  0.11903215506E+04  0.00000000000E+00 0. -1.
         -3    1    3    3    0  502 -0.26729321236E+01  0.11444361838E+03 -0.64206445863E+02  0.13125149159E+03  0.00000000000E+00 0.  1.
         11    1    5    5    0    0 -0.51269450932E+02 -0.81096572653E+03  0.63601242716E+03  0.10318942648E+04  0.00000000000E+00 0. -1.
        -11    1    5    5    0    0  0.44357751185E+01 -0.35359075180E+03  0.34620771884E+03  0.49487966259E+03  0.00000000000E+00 0.  1.
          1    1    6    6  503    0 -0.44716655855E+02  0.35123064854E+02  0.43304293373E+02  0.71473567282E+02  0.00000000000E+00 0. -1.
         -1    1    6    6    0  503  0.15092210019E+01  0.10249570069E+03 -0.93747643144E+01  0.10293460358E+03  0.00000000000E+00 0.  1.
<mgrwt>
<rscale>  0 0.30165718E+04</rscale>
<asrwt>0</asrwt>
<pdfrwt beam="1">  1        2 0.21765468E+00 0.30165718E+04</pdfrwt>
<pdfrwt beam="2">  1       -1 0.24738457E+00 0.30165718E+04</pdfrwt>
<totfact> 0.10019433E+00</totfact>
</mgrwt>
</event>
<event>
12    6  0.1530859E-007  0.1794011E+04  0.7818608E-02  0.8709491E-01
         -1   -1    0    0    0  501 -0.00000000000E+00  0.00000000000E+00  0.30336418169E+03  0.30336418169E+03  0.00000000000E+00 0.  1.
          2   -1    0    0  501    0  0.00000000000E+00 -0.00000000000E+00 -0.26523205489E+04  0.26523205489E+04  0.00000000000E+00 0. -1.
         24    2    1    2    0    0  0.45940382815E+03 -0.37805288264E+03 -0.13715848808E+04  0.14970616263E+04  0.77282394562E+02 0.  0.
        254    2    1    2    0    0 -0.45940382815E+03  0.37805288264E+03 -0.97737148644E+03  0.14586231042E+04  0.90462725935E+03 0.  0.
         23    2    4    4    0    0 -0.48009005789E+03 -0.17326630702E+03 -0.54050173471E+03  0.74886961607E+03  0.90310020619E+02 0.  0.
         23    2    4    4    0    0  0.20686229744E+02  0.55131918966E+03 -0.43686975173E+03  0.70975348818E+03  0.92271691312E+02 0.  0.
          2    1    3    3  502    0  0.83430450511E+01 -0.13127946290E+02 -0.14982205443E+02  0.21596663040E+02  0.00000000000E+00 0. -1.
         -1    1    3    3    0  502  0.45106078309E+03 -0.36492493635E+03 -0.13566026753E+04  0.14754649633E+04  0.00000000000E+00 0.  1.
         11    1    5    5    0    0 -0.17021943128E+03 -0.34884634195E+02 -0.13461794619E+03  0.21980351209E+03  0.00000000000E+00 0. -1.
        -11    1    5    5    0    0 -0.30987062660E+03 -0.13838167282E+03 -0.40588378851E+03  0.52906610398E+03  0.00000000000E+00 0.  1.
          1    1    6    6  503    0  0.36820528722E+02  0.84894620408E+02 -0.66650715730E+02  0.11404019387E+03  0.00000000000E+00 0. -1.
         -1    1    6    6    0  503 -0.16134298978E+02  0.46642456925E+03 -0.37021903600E+03  0.59571329431E+03  0.00000000000E+00 0.  1.
<mgrwt>
<rscale>  0 0.17940112E+04</rscale>
<asrwt>0</asrwt>
<pdfrwt beam="1">  1        2 0.40804933E+00 0.17940112E+04</pdfrwt>
<pdfrwt beam="2">  1       -1 0.46671411E-01 0.17940112E+04</pdfrwt>
<totfact> 0.13966932E+01</totfact>
</mgrwt>
</event>
<event>
12    6  0.1530859E-007  0.1574464E+04  0.7818608E-02  0.8836391E-01
         -1   -1    0    0    0  501 -0.00000000000E+00  0.00000000000E+00  0.47046076683E+03  0.47046076683E+03  0.00000000000E+00 0.  1.
          2   -1    0    0  501    0  0.00000000000E+00 -0.00000000000E+00 -0.13172925790E+04  0.13172925790E+04  0.00000000000E+00 0. -1.
         24    2    1    2    0    0  0.18760479009E+03 -0.28252543042E+03  0.16851117415E+03  0.38728106543E+03  0.81082869498E+02 0.  0.
        254    2    1    2    0    0 -0.18760479009E+03  0.28252543042E+03 -0.10153429863E+04  0.14004722804E+04  0.90298673975E+03 0.  0.
         23    2    4    4    0    0 -0.48871108808E+03  0.38663204583E+03 -0.60789399547E+03  0.87499909221E+03  0.88121706488E+02 0.  0.
         23    2    4    4    0    0  0.30110629799E+03 -0.10410661541E+03 -0.40744899086E+03  0.52547318819E+03  0.92758834051E+02 0.  0.
          4    1    3    3  502    0  0.11509380223E+03 -0.10074623882E+03  0.71326314148E+02  0.16877153503E+03  0.00000000000E+00 0. -1.
         -3    1    3    3    0  502  0.72510987868E+02 -0.18177919160E+03  0.97184860007E+02  0.21850953040E+03  0.00000000000E+00 0.  1.
         11    1    5    5    0    0 -0.31650174108E+03  0.24585521013E+03 -0.33069760904E+03  0.51959507800E+03  0.00000000000E+00 0.  1.
        -11    1    5    5    0    0 -0.17220934700E+03  0.14077683570E+03 -0.27719638643E+03  0.35540401421E+03  0.00000000000E+00 0. -1.
          3    1    6    6  503    0  0.13871497095E+03 -0.88622413158E+02 -0.16350529472E+03  0.23201240631E+03  0.00000000000E+00 0. -1.
         -3    1    6    6    0  503  0.16239132704E+03 -0.15484202249E+02 -0.24394369614E+03  0.29346078188E+03  0.00000000000E+00 0.  1.
<mgrwt>
<rscale>  0 0.15744643E+04</rscale>
<asrwt>0</asrwt>
<pdfrwt beam="1">  1        2 0.20266040E+00 0.15744643E+04</pdfrwt>
<pdfrwt beam="2">  1       -1 0.72378580E-01 0.15744643E+04</pdfrwt>
<totfact> 0.34066038E+01</totfact>
</mgrwt>
</event>
<event>
12    6  0.1530859E-007  0.1370408E+04  0.7818608E-02  0.8975522E-01
         -1   -1    0    0    0  501 -0.00000000000E+00  0.00000000000E+00  0.47279972060E+03  0.47279972060E+03  0.00000000000E+00 0.  1.
          2   -1    0    0  501    0  0.00000000000E+00 -0.00000000000E+00 -0.99303054896E+03  0.99303054896E+03  0.00000000000E+00 0. -1.
         24    2    1    2    0    0 -0.34265641065E+03  0.15957137051E+03 -0.52293173448E+02  0.38963430194E+03  0.78764682551E+02 0.  0.
        254    2    1    2    0    0  0.34265641065E+03 -0.15957137051E+03 -0.46793765491E+03  0.10761959676E+04  0.89238762529E+03 0.  0.
         23    2    4    4    0    0  0.60793227389E+03 -0.17095402301E+03 -0.47491122480E+03  0.79528328393E+03  0.90154881422E+02 0.  0.
         23    2    4    4    0    0 -0.26527586324E+03  0.11382652496E+02  0.69735698911E+01  0.28091268368E+03  0.91446469473E+02 0.  0.
          4    1    3    3  502    0 -0.30913987988E+03  0.13197608290E+03 -0.22310196182E+02  0.33687222599E+03  0.00000000000E+00 0. -1.
         -3    1    3    3    0  502 -0.33516530764E+02  0.27595287619E+02 -0.29982977266E+02  0.52762075954E+02  0.00000000000E+00 0.  1.
         11    1    5    5    0    0  0.35900471694E+03 -0.14607142382E+03 -0.27983002066E+03  0.47804402318E+03  0.00000000000E+00 0.  1.
        -11    1    5    5    0    0  0.24892755695E+03 -0.24882599194E+02 -0.19508120415E+03  0.31723926075E+03  0.00000000000E+00 0. -1.
          3    1    6    6  503    0 -0.23268152888E+03 -0.17512972509E+02  0.23065119136E+02  0.23447685986E+03  0.00000000000E+00 0. -1.
         -3    1    6    6    0  503 -0.32594334360E+02  0.28895625006E+02 -0.16091549245E+02  0.46435823821E+02  0.00000000000E+00 0.  1.
<mgrwt>
<rscale>  0 0.13704081E+04</rscale>
<asrwt>0</asrwt>
<pdfrwt beam="1">  1        2 0.15277393E+00 0.13704081E+04</pdfrwt>
<pdfrwt beam="2">  1       -1 0.72738420E-01 0.13704081E+04</pdfrwt>
<totfact> 0.53986926E+01</totfact>
</mgrwt>
</event>
<event>
12    6  0.1530859E-007  0.2879799E+04  0.7818608E-02  0.8278913E-01
          2   -1    0    0  501    0  0.00000000000E+00  0.00000000000E+00  0.11837718437E+04  0.11837718437E+04  0.00000000000E+00 0. -1.
         -1   -1    0    0    0  501 -0.00000000000E+00 -0.00000000000E+00 -0.17514447132E+04  0.17514447132E+04  0.00000000000E+00 0.  1.
         24    2    1    2    0    0 -0.88708666440E+03 -0.36863283300E+03  0.61143418106E+03  0.11413815989E+04  0.78021028808E+02 0.  0.
        254    2    1    2    0    0  0.88708666440E+03  0.36863283300E+03 -0.11791070506E+04  0.17938349580E+04  0.95117690467E+03 0.  0.
         23    2    4    4    0    0  0.25950119727E+02  0.37051064695E+03 -0.71595345288E+03  0.81163461348E+03  0.90608227510E+02 0.  0.
         23    2    4    4    0    0  0.86113654467E+03 -0.18778139512E+01 -0.46315359772E+03  0.98220034450E+03  0.92987025467E+02 0.  0.
          2    1    3    3  502    0 -0.75997111002E+03 -0.30526590919E+03  0.55061307021E+03  0.98687289783E+03  0.00000000000E+00 0. -1.
         -1    1    3    3    0  502 -0.12711555438E+03 -0.63366923808E+02  0.60821110849E+02  0.15450870112E+03  0.00000000000E+00 0.  1.
         11    1    5    5    0    0  0.27300742510E+02  0.13914809235E+03 -0.19035177455E+03  0.23736326637E+03  0.00000000000E+00 0. -1.
        -11    1    5    5    0    0 -0.13506227828E+01  0.23136255460E+03 -0.52560167833E+03  0.57427134711E+03  0.00000000000E+00 0.  1.
          1    1    6    6  503    0  0.13475394076E+03 -0.28949325945E+02 -0.95016934801E+02  0.16740640944E+03  0.00000000000E+00 0. -1.
         -1    1    6    6    0  503  0.72638260391E+03  0.27071511994E+02 -0.36813666292E+03  0.81479393506E+03  0.00000000000E+00 0.  1.
<mgrwt>
<rscale>  0 0.28797993E+04</rscale>
<asrwt>0</asrwt>
<pdfrwt beam="1">  1        2 0.18211875E+00 0.28797993E+04</pdfrwt>
<pdfrwt beam="2">  1       -1 0.26945303E+00 0.28797993E+04</pdfrwt>
<totfact> 0.99384617E-01</totfact>
</mgrwt>
</event>
<event>
12    6  0.1530859E-007  0.1917073E+04  0.7818608E-02  0.8646404E-01
          2   -1    0    0  501    0  0.00000000000E+00  0.00000000000E+00  0.77812986574E+03  0.77812986574E+03  0.00000000000E+00 0. -1.
         -1   -1    0    0    0  501 -0.00000000000E+00 -0.00000000000E+00 -0.11807701795E+04  0.11807701795E+04  0.00000000000E+00 0.  1.
         24    2    1    2    0    0  0.70991620233E+03  0.19520529994E+03 -0.27551528532E+03  0.79071782810E+03  0.85087530062E+02 0.  0.
        254    2    1    2    0    0 -0.70991620233E+03 -0.19520529994E+03 -0.12712502843E+03  0.11681822171E+04  0.89799932968E+03 0.  0.
         23    2    4    4    0    0 -0.55014620590E+03  0.25587443575E+03  0.11502897764E+03  0.62425487172E+03  0.91268310139E+02 0.  0.
         23    2    4    4    0    0 -0.15976999643E+03 -0.45107973569E+03 -0.24215400607E+03  0.54392734541E+03  0.90658781805E+02 0.  0.
          4    1    3    3  502    0  0.14927068279E+03  0.74927556215E+02 -0.47505004203E+02  0.17364504267E+03  0.00000000000E+00 0. -1.
         -3    1    3    3    0  502  0.56064551954E+03  0.12027774373E+03 -0.22801028112E+03  0.61707278542E+03  0.00000000000E+00 0.  1.
         11    1    5    5    0    0 -0.24695831661E+03  0.16240067927E+03  0.70633098767E+02  0.30389377323E+03  0.00000000000E+00 0.  1.
        -11    1    5    5    0    0 -0.30318788929E+03  0.93473756479E+02  0.44395878878E+02  0.32036109849E+03  0.00000000000E+00 0. -1.
          2    1    6    6  503    0 -0.33209186222E+02 -0.22802518502E+03 -0.12160047119E+03  0.26054751898E+03  0.00000000000E+00 0. -1.
         -2    1    6    6    0  503 -0.12656081021E+03 -0.22305455067E+03 -0.12055353488E+03  0.28337982643E+03  0.00000000000E+00 0.  1.
<mgrwt>
<rscale>  0 0.19170733E+04</rscale>
<asrwt>0</asrwt>
<pdfrwt beam="1">  1        2 0.11971229E+00 0.19170733E+04</pdfrwt>
<pdfrwt beam="2">  1       -1 0.18165695E+00 0.19170733E+04</pdfrwt>
<totfact> 0.77244368E+00</totfact>
</mgrwt>
</event>
<event>
12    6  0.1530859E-007  0.1551774E+04  0.7818608E-02  0.8850735E-01
         -1   -1    0    0    0  501 -0.00000000000E+00  0.00000000000E+00  0.92868763780E+03  0.92868763780E+03  0.00000000000E+00 0.  1.
          2   -1    0    0  501    0  0.00000000000E+00 -0.00000000000E+00 -0.64822744526E+03  0.64822744526E+03  0.00000000000E+00 0. -1.
         24    2    1    2    0    0 -0.12440173249E+02  0.34209464630E+03 -0.29339310204E+03  0.45768227441E+03  0.78803851764E+02 0.  0.
        254    2    1    2    0    0  0.12440173249E+02 -0.34209464630E+03  0.57385329457E+03  0.11192328087E+04  0.89788137932E+03 0.  0.
         23    2    4    4    0    0  0.36648345783E+03  0.87333778479E+02  0.16047488193E+03  0.42005610307E+03  0.93582200596E+02 0.  0.
         23    2    4    4    0    0 -0.35404328459E+03 -0.42942842478E+03  0.41337841264E+03  0.69917670558E+03  0.90614205391E+02 0.  0.
          2    1    3    3  502    0  0.18441553210E+02  0.27461039486E+03 -0.24933995268E+03  0.37137766741E+03  0.00000000000E+00 0. -1.
         -1    1    3    3    0  502 -0.30881726459E+02  0.67484251438E+02 -0.44053149354E+02  0.86304606999E+02  0.00000000000E+00 0.  1.
         11    1    5    5    0    0  0.12617998240E+03 -0.11152538959E+02  0.71954798631E+02  0.14568205150E+03  0.00000000000E+00 0.  1.
        -11    1    5    5    0    0  0.24030347543E+03  0.98486317438E+02  0.88520083301E+02  0.27437405157E+03  0.00000000000E+00 0. -1.
          2    1    6    6  503    0 -0.26472753483E+03 -0.36671148811E+03  0.35784234073E+03  0.57672274450E+03  0.00000000000E+00 0. -1.
         -2    1    6    6    0  503 -0.89315749757E+02 -0.62716936671E+02  0.55536071908E+02  0.12245396108E+03  0.00000000000E+00 0.  1.
<mgrwt>
<rscale>  0 0.15517742E+04</rscale>
<asrwt>0</asrwt>
<pdfrwt beam="1">  1        2 0.99727299E-01 0.15517742E+04</pdfrwt>
<pdfrwt beam="2">  1       -1 0.14287502E+00 0.15517742E+04</pdfrwt>
<totfact> 0.19711102E+01</totfact>
</mgrwt>
</event>
<event>
12    6  0.1530859E-007  0.1623445E+04  0.7818608E-02  0.8806273E-01
          2   -1    0    0  501    0  0.00000000000E+00  0.00000000000E+00  0.20856947721E+04  0.20856947721E+04  0.00000000000E+00 0. -1.
         -1   -1    0    0    0  501 -0.00000000000E+00 -0.00000000000E+00 -0.31591059601E+03  0.31591059601E+03  0.00000000000E+00 0.  1.
         24    2    1    2    0    0  0.30238408655E+03 -0.15257489192E+02  0.12559017045E+04  0.12942504024E+04  0.78269316335E+02 0.  0.
        254    2    1    2    0    0 -0.30238408655E+03  0.15257489192E+02  0.51388247163E+03  0.11073549658E+04  0.93300101759E+03 0.  0.
         23    2    4    4    0    0  0.13787997041E+03  0.18281432511E+03  0.57324944751E+03  0.62399408414E+03  0.91223485297E+02 0.  0.
         23    2    4    4    0    0 -0.44026405697E+03 -0.16755683591E+03 -0.59366975884E+02  0.48336088164E+03  0.90584606605E+02 0.  0.
          2    1    3    3  502    0  0.30255365027E+03 -0.82410505251E+01  0.11865246421E+04  0.12245192332E+04  0.00000000000E+00 0. -1.
         -1    1    3    3    0  502 -0.16956372181E+00 -0.70164386667E+01  0.69377062420E+02  0.69731169167E+02  0.00000000000E+00 0.  1.
         11    1    5    5    0    0  0.91976763482E+02  0.17679268891E+03  0.48475595769E+03  0.52412185452E+03  0.00000000000E+00 0.  1.
        -11    1    5    5    0    0  0.45903206931E+02  0.60216362013E+01  0.88493489823E+02  0.99872229625E+02  0.00000000000E+00 0. -1.
          3    1    6    6  503    0 -0.18418501179E+02  0.87970285428E+01  0.64883773471E+01  0.21417934949E+02  0.00000000000E+00 0. -1.
         -3    1    6    6    0  503 -0.42184555579E+03 -0.17635386446E+03 -0.65855353231E+02  0.46194294669E+03  0.00000000000E+00 0.  1.
<mgrwt>
<rscale>  0 0.16234446E+04</rscale>
<asrwt>0</asrwt>
<pdfrwt beam="1">  1        2 0.32087611E+00 0.16234446E+04</pdfrwt>
<pdfrwt beam="2">  1       -1 0.48601631E-01 0.16234446E+04</pdfrwt>
<totfact> 0.27653154E+01</totfact>
</mgrwt>
</event>
<event>
12    6  0.1530859E-007  0.1802536E+04  0.7818608E-02  0.8704952E-01
         -1   -1    0    0    0  501 -0.00000000000E+00  0.00000000000E+00  0.19626855782E+03  0.19626855782E+03  0.00000000000E+00 0.  1.
          2   -1    0    0  501    0  0.00000000000E+00 -0.00000000000E+00 -0.41386356911E+04  0.41386356911E+04  0.00000000000E+00 0. -1.
         24    2    1    2    0    0 -0.58368235097E+03 -0.24717165557E+03 -0.20399133832E+04  0.21374051478E+04  0.73994868140E+02 0.  0.
        254    2    1    2    0    0  0.58368235097E+03  0.24717165557E+03 -0.19024537501E+04  0.21974991011E+04  0.89882874579E+03 0.  0.
         23    2    4    4    0    0  0.63046223715E+03  0.44131336226E+03 -0.98023670446E+03  0.12497783299E+04  0.94030638106E+02 0.  0.
         23    2    4    4    0    0 -0.46779886178E+02 -0.19414170669E+03 -0.92221704560E+03  0.94772077125E+03  0.88379981066E+02 0.  0.
          4    1    3    3  502    0 -0.53103788874E+03 -0.21801622474E+03 -0.19064722802E+04  0.19910220663E+04  0.00000000000E+00 0. -1.
         -3    1    3    3    0  502 -0.52644462229E+02 -0.29155430824E+02 -0.13344110306E+03  0.14638308146E+03  0.00000000000E+00 0.  1.
         11    1    5    5    0    0  0.15296115666E+02  0.96654582528E+01 -0.53611784594E+01  0.18871525433E+02  0.00000000000E+00 0. -1.
        -11    1    5    5    0    0  0.61516612148E+03  0.43164790401E+03 -0.97487552600E+03  0.12309068045E+04  0.00000000000E+00 0.  1.
          3    1    6    6  503    0 -0.45439158493E+02 -0.30678025638E+02 -0.24336119316E+03  0.24946047527E+03  0.00000000000E+00 0. -1.
         -3    1    6    6    0  503 -0.13407276842E+01 -0.16346368105E+03 -0.67885585243E+03  0.69826029599E+03  0.00000000000E+00 0.  1.
<mgrwt>
<rscale>  0 0.18025361E+04</rscale>
<asrwt>0</asrwt>
<pdfrwt beam="1">  1        2 0.63671319E+00 0.18025361E+04</pdfrwt>
<pdfrwt beam="2">  1       -1 0.30195163E-01 0.18025361E+04</pdfrwt>
<totfact> 0.28936211E+00</totfact>
</mgrwt>
</event>
<event>
12    6  0.1530859E-007  0.1637632E+04  0.7818608E-02  0.8797757E-01
         -1   -1    0    0    0  501 -0.00000000000E+00  0.00000000000E+00  0.25807108733E+03  0.25807108733E+03  0.00000000000E+00 0.  1.
          2   -1    0    0  501    0  0.00000000000E+00 -0.00000000000E+00 -0.25979636942E+04  0.25979636942E+04  0.00000000000E+00 0. -1.
         24    2    1    2    0    0 -0.18308039410E+02 -0.23205404693E+03 -0.17506749597E+04  0.17681303309E+04  0.85075186422E+02 0.  0.
        254    2    1    2    0    0  0.18308039410E+02  0.23205404693E+03 -0.58921764712E+03  0.10879044506E+04  0.88440623756E+03 0.  0.
         23    2    4    4    0    0 -0.68185821997E+02 -0.11776506538E+03  0.17631759453E+03  0.23739259335E+03  0.82154928582E+02 0.  0.
         23    2    4    4    0    0  0.86493861406E+02  0.34981911231E+03 -0.76553524165E+03  0.85051185730E+03  0.86438497190E+02 0.  0.
          4    1    3    3  502    0 -0.10139180959E+02 -0.21024992929E+03 -0.13067252202E+04  0.13235704125E+04  0.00000000000E+00 0. -1.
         -3    1    3    3    0  502 -0.81688584510E+01 -0.21804117645E+02 -0.44394973955E+03  0.44455991839E+03  0.00000000000E+00 0.  1.
         11    1    5    5    0    0 -0.37024108502E+02 -0.85208043910E+02  0.16739970723E+03  0.19145197136E+03  0.00000000000E+00 0. -1.
        -11    1    5    5    0    0 -0.31161713495E+02 -0.32557021466E+02  0.89178873030E+01  0.45940621988E+02  0.00000000000E+00 0.  1.
          2    1    6    6  503    0  0.92733768119E+02  0.28092176882E+03 -0.55527927456E+03  0.62916743773E+03  0.00000000000E+00 0. -1.
         -2    1    6    6    0  503 -0.62399067123E+01  0.68897343492E+02 -0.21025596709E+03  0.22134441957E+03  0.00000000000E+00 0.  1.
<mgrwt>
<rscale>  0 0.16376316E+04</rscale>
<asrwt>0</asrwt>
<pdfrwt beam="1">  1        2 0.39968673E+00 0.16376316E+04</pdfrwt>
<pdfrwt beam="2">  1       -1 0.39703243E-01 0.16376316E+04</pdfrwt>
<totfact> 0.20567704E+01</totfact>
</mgrwt>
</event>
<event>
12    6  0.1530859E-007  0.1596281E+04  0.7818608E-02  0.8822836E-01
         -1   -1    0    0    0  501 -0.00000000000E+00  0.00000000000E+00  0.39868314644E+03  0.39868314644E+03  0.00000000000E+00 0.  1.
          2   -1    0    0  501    0  0.00000000000E+00 -0.00000000000E+00 -0.15978318065E+04  0.15978318065E+04  0.00000000000E+00 0. -1.
         24    2    1    2    0    0  0.50325171315E+03  0.20134667233E+03 -0.33428111456E+03  0.64210950628E+03  0.82206966022E+02 0.  0.
        254    2    1    2    0    0 -0.50325171315E+03 -0.20134667233E+03 -0.86486754546E+03  0.13544054466E+04  0.89028954471E+03 0.  0.
         23    2    4    4    0    0  0.12758578475E+03 -0.22976291353E+03  0.20831999257E+01  0.27803817129E+03  0.90729025491E+02 0.  0.
         23    2    4    4    0    0 -0.63083749790E+03  0.28416241207E+02 -0.86695074538E+03  0.10763672753E+04  0.90551007571E+02 0.  0.
          4    1    3    3  502    0  0.34718691606E+03  0.16192172041E+03 -0.19817715919E+03  0.43131378908E+03  0.00000000000E+00 0. -1.
         -3    1    3    3    0  502  0.15606479708E+03  0.39424951915E+02 -0.13610395537E+03  0.21079571720E+03  0.00000000000E+00 0.  1.
         11    1    5    5    0    0  0.10767537472E+03 -0.11378992544E+03 -0.21199512801E+02  0.15808716835E+03  0.00000000000E+00 0. -1.
        -11    1    5    5    0    0  0.19910410027E+02 -0.11597298809E+03  0.23282712727E+02  0.11995100294E+03  0.00000000000E+00 0.  1.
          3    1    6    6  503    0 -0.22310400288E+03  0.35205393609E+02 -0.25102205327E+03  0.33767867428E+03  0.00000000000E+00 0.  1.
         -3    1    6    6    0  503 -0.40773349502E+03 -0.67891524021E+01 -0.61592869211E+03  0.73868860105E+03  0.00000000000E+00 0. -1.
<mgrwt>
<rscale>  0 0.15962814E+04</rscale>
<asrwt>0</asrwt>
<pdfrwt beam="1">  1        2 0.24582028E+00 0.15962814E+04</pdfrwt>
<pdfrwt beam="2">  1       -1 0.61335869E-01 0.15962814E+04</pdfrwt>
<totfact> 0.32947033E+01</totfact>
</mgrwt>
</event>
<event>
12    6  0.1530859E-007  0.1428833E+04  0.7818608E-02  0.8933208E-01
         -1   -1    0    0    0  501 -0.00000000000E+00  0.00000000000E+00  0.51221610875E+03  0.51221610875E+03  0.00000000000E+00 0.  1.
          2   -1    0    0  501    0  0.00000000000E+00 -0.00000000000E+00 -0.99643610722E+03  0.99643610722E+03  0.00000000000E+00 0. -1.
         24    2    1    2    0    0 -0.22670745914E+03 -0.15019744632E+03 -0.49066447782E+03  0.56675892409E+03  0.80675295615E+02 0.  0.
        254    2    1    2    0    0  0.22670745914E+03  0.15019744632E+03  0.64444793569E+01  0.94189329188E+03  0.90175711645E+03 0.  0.
         23    2    4    4    0    0  0.73077403323E+02  0.14052838987E+03 -0.43277851775E+03  0.46913137139E+03  0.87740885380E+02 0.  0.
         23    2    4    4    0    0  0.15363005582E+03  0.96690564499E+01  0.43922299710E+03  0.47276192049E+03  0.83013899896E+02 0.  0.
          4    1    3    3  502    0 -0.14842125982E+03 -0.13426155540E+03 -0.38894172134E+03  0.43741364659E+03  0.00000000000E+00 0. -1.
         -3    1    3    3    0  502 -0.78286199322E+02 -0.15935890918E+02 -0.10172275648E+03  0.12934527749E+03  0.00000000000E+00 0.  1.
         11    1    5    5    0    0 -0.20216552923E+02  0.32772863434E+02 -0.88362257059E+02  0.96388059750E+02  0.00000000000E+00 0. -1.
        -11    1    5    5    0    0  0.93293956246E+02  0.10775552643E+03 -0.34441626069E+03  0.37274331164E+03  0.00000000000E+00 0.  1.
          4    1    6    6  503    0  0.27309506683E+02 -0.28379959391E+02  0.14615716463E+03  0.15137089557E+03  0.00000000000E+00 0.  1.
         -4    1    6    6    0  503  0.12632054913E+03  0.38049015841E+02  0.29306583247E+03  0.32139102492E+03  0.00000000000E+00 0. -1.
<mgrwt>
<rscale>  0 0.14288326E+04</rscale>
<asrwt>0</asrwt>
<pdfrwt beam="1">  1        2 0.15329786E+00 0.14288326E+04</pdfrwt>
<pdfrwt beam="2">  1       -1 0.78802479E-01 0.14288326E+04</pdfrwt>
<totfact> 0.45210104E+01</totfact>
</mgrwt>
</event>
<event>
12    6  0.1530859E-007  0.2404517E+04  0.7818608E-02  0.8437814E-01
          2   -1    0    0  501    0  0.00000000000E+00  0.00000000000E+00  0.26173834539E+04  0.26173834539E+04  0.00000000000E+00 0. -1.
         -1   -1    0    0    0  501 -0.00000000000E+00 -0.00000000000E+00 -0.55224054275E+03  0.55224054275E+03  0.00000000000E+00 0.  1.
         24    2    1    2    0    0 -0.59056930159E+03  0.64012666871E+03  0.16152011757E+04  0.18368159019E+04  0.80520604218E+02 0.  0.
        254    2    1    2    0    0  0.59056930159E+03 -0.64012666871E+03  0.44994173547E+03  0.13328080947E+04  0.90299258029E+03 0.  0.
         23    2    4    4    0    0  0.18781302134E+03  0.14057494071E+03  0.36757988220E+03  0.44559345866E+03  0.91670691381E+02 0.  0.
         23    2    4    4    0    0  0.40275628024E+03 -0.78070160942E+03  0.82361853273E+02  0.88721463606E+03  0.93052196844E+02 0.  0.
          4    1    3    3  502    0 -0.18195669325E+03  0.21837957473E+03  0.45550288870E+03  0.53691783216E+03  0.00000000000E+00 0. -1.
         -3    1    3    3    0  502 -0.40861260833E+03  0.42174709397E+03  0.11596982870E+04  0.12998980697E+04  0.00000000000E+00 0.  1.
         11    1    5    5    0    0  0.67504466101E+02  0.46751511940E+02  0.58221667922E+02  0.10065942295E+03  0.00000000000E+00 0.  1.
        -11    1    5    5    0    0  0.12030855524E+03  0.93823428772E+02  0.30935821428E+03  0.34493403571E+03  0.00000000000E+00 0. -1.
          3    1    6    6  503    0  0.21048605076E+03 -0.39018193692E+03 -0.44453549639E+01  0.44335773665E+03  0.00000000000E+00 0. -1.
         -3    1    6    6    0  503  0.19227022948E+03 -0.39051967249E+03  0.86807208237E+02  0.44385689941E+03  0.00000000000E+00 0.  1.
<mgrwt>
<rscale>  0 0.24045168E+04</rscale>
<asrwt>0</asrwt>
<pdfrwt beam="1">  1        2 0.40267437E+00 0.24045168E+04</pdfrwt>
<pdfrwt beam="2">  1       -1 0.84960085E-01 0.24045168E+04</pdfrwt>
<totfact> 0.41651377E+00</totfact>
</mgrwt>
</event>
<event>
12    6  0.1530859E-007  0.1197418E+04  0.7818608E-02  0.9115119E-01
         -1   -1    0    0    0  501 -0.00000000000E+00  0.00000000000E+00  0.14256247997E+03  0.14256247997E+03  0.00000000000E+00 0.  1.
          2   -1    0    0  501    0  0.00000000000E+00 -0.00000000000E+00 -0.25143550372E+04  0.25143550372E+04  0.00000000000E+00 0. -1.
         24    2    1    2    0    0 -0.21289350801E+03  0.10584346243E+03 -0.35812439516E+03  0.43748302405E+03  0.81313157809E+02 0.  0.
        254    2    1    2    0    0  0.21289350801E+03 -0.10584346243E+03 -0.20136681621E+04  0.22194344931E+04  0.90249848645E+03 0.  0.
         23    2    4    4    0    0 -0.48667438451E+02  0.32723349574E+03 -0.40070252135E+03  0.52644714725E+03  0.84461872680E+02 0.  0.
         23    2    4    4    0    0  0.26156094646E+03 -0.43307695816E+03 -0.16129656407E+04  0.16929873459E+04  0.92618652150E+02 0.  0.
          4    1    3    3  502    0 -0.18597797819E+03  0.94698170247E+02 -0.25080555505E+03  0.32628052081E+03  0.00000000000E+00 0. -1.
         -3    1    3    3    0  502 -0.26915529820E+02  0.11145292180E+02 -0.10731884011E+03  0.11120250324E+03  0.00000000000E+00 0.  1.
         11    1    5    5    0    0 -0.13551997648E+02  0.54831567738E+02 -0.12556920749E+03  0.13768726640E+03  0.00000000000E+00 0. -1.
        -11    1    5    5    0    0 -0.35115440803E+02  0.27240192800E+03 -0.27513331386E+03  0.38875988085E+03  0.00000000000E+00 0.  1.
          3    1    6    6  503    0  0.17192430533E+03 -0.21902665761E+03 -0.77586815007E+03  0.82431913105E+03  0.00000000000E+00 0. -1.
         -3    1    6    6    0  503  0.89636641126E+02 -0.21405030055E+03 -0.83709749067E+03  0.86866821485E+03  0.00000000000E+00 0.  1.
<mgrwt>
<rscale>  0 0.11974184E+04</rscale>
<asrwt>0</asrwt>
<pdfrwt beam="1">  1        2 0.38682379E+00 0.11974184E+04</pdfrwt>
<pdfrwt beam="2">  1       -1 0.21932693E-01 0.11974184E+04</pdfrwt>
<totfact> 0.67667430E+01</totfact>
</mgrwt>
</event>
<event>
12    6  0.1530859E-007  0.1822047E+04  0.7818608E-02  0.8694662E-01
          2   -1    0    0  501    0  0.00000000000E+00  0.00000000000E+00  0.99134163576E+03  0.99134163576E+03  0.00000000000E+00 0. -1.
         -1   -1    0    0    0  501 -0.00000000000E+00 -0.00000000000E+00 -0.83721252473E+03  0.83721252473E+03  0.00000000000E+00 0.  1.
         24    2    1    2    0    0  0.38430100270E+03 -0.13901984424E+03  0.60622003758E+03  0.73564923990E+03  0.81628992657E+02 0.  0.
        254    2    1    2    0    0 -0.38430100270E+03  0.13901984424E+03 -0.45209092654E+03  0.10929049206E+04  0.90721617150E+03 0.  0.
         23    2    4    4    0    0 -0.50647670474E+03  0.37704177681E+02 -0.64509266300E+03  0.82599777726E+03  0.90484952986E+02 0.  0.
         23    2    4    4    0    0  0.12217570204E+03  0.10131566655E+03  0.19300173646E+03  0.26690714333E+03  0.93797582200E+02 0.  0.
          2    1    3    3  502    0  0.38483890245E+03 -0.14375413923E+03  0.59141056482E+03  0.72009213963E+03  0.00000000000E+00 0. -1.
         -1    1    3    3    0  502 -0.53789975333E+00  0.47342949989E+01  0.14809472760E+02  0.15557100266E+02  0.00000000000E+00 0.  1.
         11    1    5    5    0    0 -0.33443277427E+03  0.28935519703E+02 -0.49155540803E+03  0.59523882935E+03  0.00000000000E+00 0. -1.
        -11    1    5    5    0    0 -0.17204393046E+03  0.87686579781E+01 -0.15353725498E+03  0.23075894790E+03  0.00000000000E+00 0.  1.
          4    1    6    6  503    0  0.12702514379E+03  0.98147641322E+02  0.20087262290E+03  0.25713451204E+03  0.00000000000E+00 0. -1.
         -4    1    6    6    0  503 -0.48494417451E+01  0.31680252315E+01 -0.78708864373E+01  0.97726312943E+01  0.00000000000E+00 0.  1.
<mgrwt>
<rscale>  0 0.18220468E+04</rscale>
<asrwt>0</asrwt>
<pdfrwt beam="1">  1        2 0.15251410E+00 0.18220468E+04</pdfrwt>
<pdfrwt beam="2">  1       -1 0.12880193E+00 0.18220468E+04</pdfrwt>
<totfact> 0.14242920E+01</totfact>
</mgrwt>
</event>
<event>
12    6  0.1530859E-007  0.1295746E+04  0.7818608E-02  0.9032945E-01
         -1   -1    0    0    0  501 -0.00000000000E+00  0.00000000000E+00  0.62177666829E+03  0.62177666829E+03  0.00000000000E+00 0.  1.
          2   -1    0    0  501    0  0.00000000000E+00 -0.00000000000E+00 -0.67506478341E+03  0.67506478341E+03  0.00000000000E+00 0. -1.
         24    2    1    2    0    0 -0.28605474811E+03 -0.11979623979E+03 -0.74711305761E+02  0.32875670496E+03  0.79503043120E+02 0.  0.
        254    2    1    2    0    0  0.28605474811E+03  0.11979623979E+03  0.21423190632E+02  0.96808474674E+03  0.91681550259E+03 0.  0.
         23    2    4    4    0    0  0.64024091059E+02 -0.86669401679E+02 -0.40964209336E+03  0.43330326933E+03  0.91292985139E+02 0.  0.
         23    2    4    4    0    0  0.22203065705E+03  0.20646564147E+03  0.43106528400E+03  0.53478147741E+03  0.90820018363E+02 0.  0.
          4    1    3    3  502    0 -0.16914406342E+02  0.13355410018E+01  0.12413005052E+02  0.21022928105E+02  0.00000000000E+00 0. -1.
         -3    1    3    3    0  502 -0.26914034177E+03 -0.12113178079E+03 -0.87124310813E+02  0.30773377686E+03  0.00000000000E+00 0.  1.
         11    1    5    5    0    0  0.51151639516E+02 -0.43328125978E+02 -0.10007896155E+03  0.12045586441E+03  0.00000000000E+00 0. -1.
        -11    1    5    5    0    0  0.12872451543E+02 -0.43341275701E+02 -0.30956313181E+03  0.31284740492E+03  0.00000000000E+00 0.  1.
          1    1    6    6  503    0  0.64294360259E+02  0.70615026677E+02  0.71493161352E+02  0.11929592983E+03  0.00000000000E+00 0. -1.
         -1    1    6    6    0  503  0.15773629679E+03  0.13585061479E+03  0.35957212264E+03  0.41548554758E+03  0.00000000000E+00 0.  1.
<mgrwt>
<rscale>  0 0.12957462E+04</rscale>
<asrwt>0</asrwt>
<pdfrwt beam="1">  1        2 0.10385612E+00 0.12957462E+04</pdfrwt>
<pdfrwt beam="2">  1       -1 0.95657948E-01 0.12957462E+04</pdfrwt>
<totfact> 0.50671508E+01</totfact>
</mgrwt>
</event>
<event>
12    6  0.1530859E-007  0.2036393E+04  0.7818608E-02  0.8589792E-01
         -1   -1    0    0    0  501 -0.00000000000E+00  0.00000000000E+00  0.47935836961E+03  0.47935836961E+03  0.00000000000E+00 0.  1.
          2   -1    0    0  501    0  0.00000000000E+00 -0.00000000000E+00 -0.21627324997E+04  0.21627324997E+04  0.00000000000E+00 0. -1.
         24    2    1    2    0    0 -0.25345844178E+03  0.73352749805E+03 -0.10110095874E+04  0.12770245850E+04  0.79672031999E+02 0.  0.
        254    2    1    2    0    0  0.25345844178E+03 -0.73352749805E+03 -0.67236454269E+03  0.13650662843E+04  0.89945989921E+03 0.  0.
         23    2    4    4    0    0 -0.26405844754E+03 -0.59117034185E+02 -0.13705478578E+02  0.28589235952E+03  0.91240964699E+02 0.  0.
         23    2    4    4    0    0  0.51751688932E+03 -0.67441046386E+03 -0.65865906411E+03  0.10791739248E+04  0.90174235728E+02 0.  0.
          2    1    3    3  502    0 -0.25720581634E+03  0.71595793297E+03 -0.97405141198E+03  0.12359315300E+04  0.00000000000E+00 0. -1.
         -1    1    3    3    0  502  0.37473745626E+01  0.17569565076E+02 -0.36958175437E+02  0.41093054945E+02  0.00000000000E+00 0.  1.
         11    1    5    5    0    0 -0.59225661751E+02  0.23319950849E+02  0.74311072718E+01  0.64083698963E+02  0.00000000000E+00 0.  1.
        -11    1    5    5    0    0 -0.20483278579E+03 -0.82436985035E+02 -0.21136585850E+02  0.22180866056E+03  0.00000000000E+00 0. -1.
          1    1    6    6  503    0  0.41289202940E+03 -0.50239052712E+03 -0.54152042167E+03  0.84623899506E+03  0.00000000000E+00 0. -1.
         -1    1    6    6    0  503  0.10462485992E+03 -0.17201993674E+03 -0.11713864245E+03  0.23293492977E+03  0.00000000000E+00 0.  1.
<mgrwt>
<rscale>  0 0.20363928E+04</rscale>
<asrwt>0</asrwt>
<pdfrwt beam="1">  1        2 0.33272808E+00 0.20363928E+04</pdfrwt>
<pdfrwt beam="2">  1       -1 0.73747440E-01 0.20363928E+04</pdfrwt>
<totfact> 0.10583054E+01</totfact>
</mgrwt>
</event>
<event>
12    6  0.1530859E-007  0.1699533E+04  0.7818608E-02  0.8761631E-01
         -1   -1    0    0    0  501 -0.00000000000E+00  0.00000000000E+00  0.31571836503E+03  0.31571836503E+03  0.00000000000E+00 0.  1.
          2   -1    0    0  501    0  0.00000000000E+00 -0.00000000000E+00 -0.22871755031E+04  0.22871755031E+04  0.00000000000E+00 0. -1.
         24    2    1    2    0    0 -0.32905097799E+03 -0.17569051582E+03  0.13258831123E+02  0.38281839729E+03  0.85043666660E+02 0.  0.
        254    2    1    2    0    0  0.32905097799E+03  0.17569051582E+03 -0.19847159692E+04  0.22200754709E+04  0.92222335385E+03 0.  0.
         23    2    4    4    0    0  0.15656622829E+03 -0.25105947239E+03 -0.15504434283E+04  0.15810770755E+04  0.91575387936E+02 0.  0.
         23    2    4    4    0    0  0.17248474970E+03  0.42674998821E+03 -0.43427254093E+03  0.63899839541E+03  0.88655333841E+02 0.  0.
          2    1    3    3  502    0 -0.87784293376E+02 -0.62339110043E+02 -0.32251591701E+02  0.11239400327E+03  0.00000000000E+00 0. -1.
         -1    1    3    3    0  502 -0.24126668461E+03 -0.11335140578E+03  0.45510422824E+02  0.27042439402E+03  0.00000000000E+00 0.  1.
         11    1    5    5    0    0  0.12727749995E+03 -0.23712969938E+03 -0.12357393976E+04  0.12647062565E+04  0.00000000000E+00 0. -1.
        -11    1    5    5    0    0  0.29288728341E+02 -0.13929773006E+02 -0.31470403068E+03  0.31637081899E+03  0.00000000000E+00 0.  1.
          4    1    6    6  503    0  0.73353880232E+02  0.27457707242E+03 -0.22956325877E+03  0.36533908937E+03  0.00000000000E+00 0. -1.
         -4    1    6    6    0  503  0.99130869469E+02  0.15217291578E+03 -0.20470928216E+03  0.27365930604E+03  0.00000000000E+00 0.  1.
<mgrwt>
<rscale>  0 0.16995332E+04</rscale>
<asrwt>0</asrwt>
<pdfrwt beam="1">  1        2 0.35187316E+00 0.16995332E+04</pdfrwt>
<pdfrwt beam="2">  1       -1 0.48572056E-01 0.16995332E+04</pdfrwt>
<totfact> 0.21205339E+01</totfact>
</mgrwt>
</event>
<event>
12    6  0.1530859E-007  0.2005509E+04  0.7818608E-02  0.8604049E-01
          2   -1    0    0  501    0  0.00000000000E+00  0.00000000000E+00  0.37970849194E+04  0.37970849194E+04  0.00000000000E+00 0. -1.
         -1   -1    0    0    0  501 -0.00000000000E+00 -0.00000000000E+00 -0.26481285256E+03  0.26481285256E+03  0.00000000000E+00 0.  1.
         24    2    1    2    0    0 -0.16319254258E+03  0.72529041795E+03  0.19466696904E+04  0.20853894036E+04  0.81535790109E+02 0.  0.
        254    2    1    2    0    0  0.16319254258E+03 -0.72529041795E+03  0.15856023765E+04  0.19765083684E+04  0.91639098505E+03 0.  0.
         23    2    4    4    0    0  0.38543970969E+03 -0.19277180690E+03  0.22285558172E+03  0.49371880846E+03  0.91481758772E+02 0.  0.
         23    2    4    4    0    0 -0.22224716711E+03 -0.53251861106E+03  0.13627467948E+04  0.14827895599E+04  0.92823368917E+02 0.  0.
          4    1    3    3  502    0 -0.16570068016E+03  0.68891492356E+03  0.18047657299E+04  0.19388759185E+04  0.00000000000E+00 0. -1.
         -3    1    3    3    0  502  0.25081375748E+01  0.36375494398E+02  0.14190396043E+03  0.14651348516E+03  0.00000000000E+00 0.  1.
         11    1    5    5    0    0  0.98642238136E+02 -0.43444465705E+02  0.10238316763E+03  0.14866077411E+03  0.00000000000E+00 0.  1.
        -11    1    5    5    0    0  0.28679747155E+03 -0.14932734119E+03  0.12047241409E+03  0.34505803436E+03  0.00000000000E+00 0. -1.
          2    1    6    6  503    0 -0.18891129292E+03 -0.38782734107E+03  0.10896831970E+04  0.11719671467E+04  0.00000000000E+00 0. -1.
         -2    1    6    6    0  503 -0.33335874185E+02 -0.14469126999E+03  0.27306359777E+03  0.31082241320E+03  0.00000000000E+00 0.  1.
<mgrwt>
<rscale>  0 0.20055093E+04</rscale>
<asrwt>0</asrwt>
<pdfrwt beam="1">  1        2 0.58416687E+00 0.20055093E+04</pdfrwt>
<pdfrwt beam="2">  1       -1 0.40740442E-01 0.20055093E+04</pdfrwt>
<totfact> 0.30982299E+00</totfact>
</mgrwt>
</event>
<event>
12    6  0.1530859E-007  0.2205244E+04  0.7818608E-02  0.8516249E-01
          2   -1    0    0  501    0  0.00000000000E+00  0.00000000000E+00  0.83418349573E+03  0.83418349573E+03  0.00000000000E+00 0. -1.
         -1   -1    0    0    0  501 -0.00000000000E+00 -0.00000000000E+00 -0.14574432831E+04  0.14574432831E+04  0.00000000000E+00 0.  1.
         24    2    1    2    0    0 -0.48550456060E+03 -0.63874687344E+03  0.19748362007E+03  0.83021937664E+03  0.80945577195E+02 0.  0.
        254    2    1    2    0    0  0.48550456060E+03  0.63874687344E+03 -0.82074340744E+03  0.14614074022E+04  0.90464335936E+03 0.  0.
         23    2    4    4    0    0  0.57239066035E+03  0.78477652938E+03 -0.81126704134E+03  0.12688083064E+04  0.90636840340E+02 0.  0.
         23    2    4    4    0    0 -0.86886099747E+02 -0.14602965594E+03 -0.94763660996E+01  0.19259909582E+03  0.90170701737E+02 0.  0.
          2    1    3    3  502    0 -0.35009052513E+03 -0.40149044313E+03  0.14460908418E+03  0.55196896556E+03  0.00000000000E+00 0. -1.
         -1    1    3    3    0  502 -0.13541403547E+03 -0.23725643031E+03  0.52874535896E+02  0.27825041109E+03  0.00000000000E+00 0.  1.
         11    1    5    5    0    0  0.16876838227E+03  0.17290151607E+03 -0.22553672911E+03  0.33052158370E+03  0.00000000000E+00 0. -1.
        -11    1    5    5    0    0  0.40362227808E+03  0.61187501331E+03 -0.58573031224E+03  0.93828672267E+03  0.00000000000E+00 0.  1.
          1    1    6    6  503    0 -0.64860623504E+02 -0.10082851549E+03  0.35608062063E+02  0.12506487957E+03  0.00000000000E+00 0. -1.
         -1    1    6    6    0  503 -0.22025476243E+02 -0.45201140452E+02 -0.45084428163E+02  0.67534216252E+02  0.00000000000E+00 0.  1.
<mgrwt>
<rscale>  0 0.22052439E+04</rscale>
<asrwt>0</asrwt>
<pdfrwt beam="1">  1        2 0.12833592E+00 0.22052439E+04</pdfrwt>
<pdfrwt beam="2">  1       -1 0.22422204E+00 0.22052439E+04</pdfrwt>
<totfact> 0.34997578E+00</totfact>
</mgrwt>
</event>
<event>
12    6  0.1530859E-007  0.2206338E+04  0.7818608E-02  0.8515795E-01
          2   -1    0    0  501    0  0.00000000000E+00  0.00000000000E+00  0.23822031472E+04  0.23822031472E+04  0.00000000000E+00 0. -1.
         -1   -1    0    0    0  501 -0.00000000000E+00 -0.00000000000E+00 -0.51086408526E+03  0.51086408526E+03  0.00000000000E+00 0.  1.
         24    2    1    2    0    0 -0.61401812878E+03  0.62582269864E+03  0.11221776359E+04  0.14262751631E+04  0.79409580987E+02 0.  0.
        254    2    1    2    0    0  0.61401812878E+03 -0.62582269864E+03  0.74916142603E+03  0.14667920694E+04  0.90640157770E+03 0.  0.
         23    2    4    4    0    0  0.83873378605E+03 -0.43298132409E+03  0.60937829247E+03  0.11269390130E+04  0.87763572889E+02 0.  0.
         23    2    4    4    0    0 -0.22471565727E+03 -0.19284137456E+03  0.13978313355E+03  0.33985305646E+03  0.90971716464E+02 0.  0.
          4    1    3    3  502    0 -0.42652195101E+03  0.46859100281E+03  0.76540730630E+03  0.99365328316E+03  0.00000000000E+00 0. -1.
         -3    1    3    3    0  502 -0.18749617777E+03  0.15723169583E+03  0.35677032964E+03  0.43262187990E+03  0.00000000000E+00 0.  1.
         11    1    5    5    0    0  0.70540245673E+03 -0.37032921325E+03  0.47510444333E+03  0.92761014667E+03  0.00000000000E+00 0. -1.
        -11    1    5    5    0    0  0.13333132932E+03 -0.62652110839E+02  0.13427384914E+03  0.19932886629E+03  0.00000000000E+00 0.  1.
          1    1    6    6  503    0 -0.18673364353E+03 -0.13178819775E+03  0.13985465347E+03  0.26794944820E+03  0.00000000000E+00 0. -1.
         -1    1    6    6    0  503 -0.37982013740E+02 -0.61053176809E+02 -0.71519917918E-01  0.71903608263E+02  0.00000000000E+00 0.  1.
<mgrwt>
<rscale>  0 0.22063382E+04</rscale>
<asrwt>0</asrwt>
<pdfrwt beam="1">  1        2 0.36649279E+00 0.22063382E+04</pdfrwt>
<pdfrwt beam="2">  1       -1 0.78594476E-01 0.22063382E+04</pdfrwt>
<totfact> 0.68537996E+00</totfact>
</mgrwt>
</event>
<event>
12    6  0.1530859E-007  0.1351558E+04  0.7818608E-02  0.8989649E-01
          2   -1    0    0  501    0  0.00000000000E+00  0.00000000000E+00  0.16378323876E+04  0.16378323876E+04  0.00000000000E+00 0. -1.
         -1   -1    0    0    0  501 -0.00000000000E+00 -0.00000000000E+00 -0.27883042748E+03  0.27883042748E+03  0.00000000000E+00 0.  1.
         24    2    1    2    0    0 -0.70937883509E+02 -0.53598238697E+02  0.88310247797E+03  0.89116594751E+03  0.80011279830E+02 0.  0.
        254    2    1    2    0    0  0.70937883509E+02  0.53598238697E+02  0.47589948216E+03  0.10254968676E+04  0.90402353609E+03 0.  0.
         23    2    4    4    0    0 -0.31414851571E+03 -0.20102722981E+03  0.39232851593E+03  0.54893955781E+03  0.91168726375E+02 0.  0.
         23    2    4    4    0    0  0.38508639922E+03  0.25462546851E+03  0.83570966232E+02  0.47655730977E+03  0.83648664186E+02 0.  0.
          2    1    3    3  502    0 -0.28467353673E+02 -0.30210471637E+02  0.71519285530E+03  0.71639645665E+03  0.00000000000E+00 0. -1.
         -1    1    3    3    0  502 -0.42470529836E+02 -0.23387767060E+02  0.16790962267E+03  0.17476949087E+03  0.00000000000E+00 0.  1.
         11    1    5    5    0    0 -0.27808313291E+03 -0.19868179087E+03  0.37920007497E+03  0.51048739425E+03  0.00000000000E+00 0.  1.
        -11    1    5    5    0    0 -0.36065382801E+02 -0.23454389440E+01  0.13128440959E+02  0.38452163560E+02  0.00000000000E+00 0. -1.
          3    1    6    6  503    0 -0.22303020284E+01  0.98332052145E+00  0.68434469140E+01  0.72645668866E+01  0.00000000000E+00 0. -1.
         -3    1    6    6    0  503  0.38731670125E+03  0.25364214799E+03  0.76727519318E+02  0.46929274289E+03  0.00000000000E+00 0.  1.
<mgrwt>
<rscale>  0 0.13515584E+04</rscale>
<asrwt>0</asrwt>
<pdfrwt beam="1">  1        2 0.25197421E+00 0.13515584E+04</pdfrwt>
<pdfrwt beam="2">  1       -1 0.42896990E-01 0.13515584E+04</pdfrwt>
<totfact> 0.63271950E+01</totfact>
</mgrwt>
</event>
<event>
12    6  0.1530859E-007  0.3311721E+04  0.7818608E-02  0.8159919E-01
         -1   -1    0    0    0  501 -0.00000000000E+00  0.00000000000E+00  0.13077420943E+04  0.13077420943E+04  0.00000000000E+00 0.  1.
          2   -1    0    0  501    0  0.00000000000E+00 -0.00000000000E+00 -0.20966476548E+04  0.20966476548E+04  0.00000000000E+00 0. -1.
         24    2    1    2    0    0  0.10322664722E+04  0.53419677245E+03 -0.13908777086E+04  0.18140983233E+04  0.73970702058E+02 0.  0.
        254    2    1    2    0    0 -0.10322664722E+04 -0.53419677245E+03  0.60197214812E+03  0.15902914259E+04  0.90317002317E+03 0.  0.
         23    2    4    4    0    0 -0.11798376164E+04 -0.48330448002E+03  0.59388509160E+03  0.14096507215E+04  0.93891602699E+02 0.  0.
         23    2    4    4    0    0  0.14757114420E+03 -0.50892292429E+02  0.80870565113E+01  0.18064070439E+03  0.90544991974E+02 0.  0.
          4    1    3    3  502    0  0.79604498820E+03  0.41410455268E+03 -0.10239622903E+04  0.13614951251E+04  0.00000000000E+00 0. -1.
         -3    1    3    3    0  502  0.23622148400E+03  0.12009221977E+03 -0.36691541831E+03  0.45260319812E+03  0.00000000000E+00 0.  1.
         11    1    5    5    0    0 -0.64634475154E+02 -0.49042561885E+02  0.47898928353E+02  0.94218339999E+02  0.00000000000E+00 0. -1.
        -11    1    5    5    0    0 -0.11152031412E+04 -0.43426191814E+03  0.54598616325E+03  0.13154323815E+04  0.00000000000E+00 0.  1.
          1    1    6    6  503    0  0.73166523340E+02 -0.17948456751E+02 -0.40838684002E+02  0.85692971406E+02  0.00000000000E+00 0. -1.
         -1    1    6    6    0  503  0.74404620855E+02 -0.32943835678E+02  0.48925740514E+02  0.94947732983E+02  0.00000000000E+00 0.  1.
<mgrwt>
<rscale>  0 0.33117212E+04</rscale>
<asrwt>0</asrwt>
<pdfrwt beam="1">  1        2 0.32256118E+00 0.33117212E+04</pdfrwt>
<pdfrwt beam="2">  1       -1 0.20119109E+00 0.33117212E+04</pdfrwt>
<totfact> 0.82701383E-01</totfact>
</mgrwt>
</event>
<event>
12    6  0.1530859E-007  0.1452660E+04  0.7818608E-02  0.8916558E-01
         -1   -1    0    0    0  501 -0.00000000000E+00  0.00000000000E+00  0.18581035410E+03  0.18581035410E+03  0.00000000000E+00 0.  1.
          2   -1    0    0  501    0  0.00000000000E+00 -0.00000000000E+00 -0.28392148562E+04  0.28392148562E+04  0.00000000000E+00 0. -1.
         24    2    1    2    0    0 -0.87785946533E+01  0.27316804229E+03 -0.92556806983E+02  0.29905539880E+03  0.78546330159E+02 0.  0.
        254    2    1    2    0    0  0.87785946533E+01 -0.27316804229E+03 -0.25608476951E+04  0.27259698115E+04  0.89346105265E+03 0.  0.
         23    2    4    4    0    0 -0.16861617983E+03 -0.13176577714E+02 -0.59394291938E+02  0.20321242706E+03  0.95721315781E+02 0.  0.
         23    2    4    4    0    0  0.17739477449E+03 -0.25999146457E+03 -0.25014534032E+04  0.25227573844E+04  0.89281716204E+02 0.  0.
          4    1    3    3  502    0  0.30947783725E+02  0.11835070385E+03 -0.21784652249E+02  0.12425467997E+03  0.00000000000E+00 0. -1.
         -3    1    3    3    0  502 -0.39726378378E+02  0.15481733843E+03 -0.70772154735E+02  0.17480071883E+03  0.00000000000E+00 0.  1.
         11    1    5    5    0    0 -0.12415461935E+03 -0.22986154259E+02 -0.83810095705E+02  0.15154822643E+03  0.00000000000E+00 0. -1.
        -11    1    5    5    0    0 -0.44461560484E+02  0.98095765448E+01  0.24415803767E+02  0.51664200625E+02  0.00000000000E+00 0.  1.
          3    1    6    6  503    0  0.13419903831E+03 -0.17469039068E+03 -0.14075819239E+04  0.14247150547E+04  0.00000000000E+00 0. -1.
         -3    1    6    6    0  503  0.43195736171E+02 -0.85301073888E+02 -0.10938714793E+04  0.10980423298E+04  0.00000000000E+00 0.  1.
<mgrwt>
<rscale>  0 0.14526603E+04</rscale>
<asrwt>0</asrwt>
<pdfrwt beam="1">  1        2 0.43680225E+00 0.14526603E+04</pdfrwt>
<pdfrwt beam="2">  1       -1 0.28586211E-01 0.14526603E+04</pdfrwt>
<totfact> 0.27009960E+01</totfact>
</mgrwt>
</event>
<event>
12    6  0.1530859E-007  0.1686833E+04  0.7818608E-02  0.8768910E-01
         -1   -1    0    0    0  501 -0.00000000000E+00  0.00000000000E+00  0.34161167420E+03  0.34161167420E+03  0.00000000000E+00 0.  1.
          2   -1    0    0  501    0  0.00000000000E+00 -0.00000000000E+00 -0.20823399898E+04  0.20823399898E+04  0.00000000000E+00 0. -1.
         24    2    1    2    0    0 -0.54181647320E+03 -0.25948631871E+03 -0.61691312754E+03  0.86469205599E+03  0.78818173887E+02 0.  0.
        254    2    1    2    0    0  0.54181647320E+03  0.25948631871E+03 -0.11238151881E+04  0.15592596080E+04  0.89857203831E+03 0.  0.
         23    2    4    4    0    0  0.50196114331E+03  0.23679321540E+03 -0.12656526480E+04  0.13845256636E+04  0.83658063257E+02 0.  0.
         23    2    4    4    0    0  0.39855329889E+02  0.22693103314E+02  0.14183745995E+03  0.17473394439E+03  0.91162832430E+02 0.  0.
          2    1    3    3  502    0 -0.26938228111E+02 -0.11752930890E+02 -0.59966902935E+02  0.66781950899E+02  0.00000000000E+00 0. -1.
         -1    1    3    3    0  502 -0.51487824509E+03 -0.24773338782E+03 -0.55694622461E+03  0.79791010509E+03  0.00000000000E+00 0.  1.
         11    1    5    5    0    0  0.17074334578E+03  0.37907909550E+02 -0.40171958868E+03  0.43814258828E+03  0.00000000000E+00 0. -1.
        -11    1    5    5    0    0  0.33121779753E+03  0.19888530585E+03 -0.86393305935E+03  0.94638307535E+03  0.00000000000E+00 0.  1.
          4    1    6    6  503    0 -0.28343007949E+02 -0.39023224105E+01  0.34634568046E+02  0.44923351651E+02  0.00000000000E+00 0. -1.
         -4    1    6    6    0  503  0.68198337838E+02  0.26595425724E+02  0.10720289191E+03  0.12981059274E+03  0.00000000000E+00 0.  1.
<mgrwt>
<rscale>  0 0.16868333E+04</rscale>
<asrwt>0</asrwt>
<pdfrwt beam="1">  1        2 0.32036000E+00 0.16868333E+04</pdfrwt>
<pdfrwt beam="2">  1       -1 0.52555641E-01 0.16868333E+04</pdfrwt>
<totfact> 0.23796226E+01</totfact>
</mgrwt>
</event>
<event>
12    6  0.1530859E-007  0.1821625E+04  0.7818608E-02  0.8694884E-01
          2   -1    0    0  501    0  0.00000000000E+00  0.00000000000E+00  0.10667295876E+04  0.10667295876E+04  0.00000000000E+00 0. -1.
         -1   -1    0    0    0  501 -0.00000000000E+00 -0.00000000000E+00 -0.77768452680E+03  0.77768452680E+03  0.00000000000E+00 0.  1.
         24    2    1    2    0    0 -0.38563640775E+03  0.39495615368E+02  0.68759724176E+03  0.79333799587E+03  0.79497586132E+02 0.  0.
        254    2    1    2    0    0  0.38563640775E+03 -0.39495615368E+02 -0.39855218099E+03  0.10510761185E+04  0.89198756902E+03 0.  0.
         23    2    4    4    0    0  0.12584454234E+02 -0.25199769710E+03  0.18104164092E+03  0.32392847359E+03  0.92154068946E+02 0.  0.
         23    2    4    4    0    0  0.37305195352E+03  0.21250208173E+03 -0.57959382191E+03  0.72714764490E+03  0.92140134214E+02 0.  0.
          2    1    3    3  502    0 -0.35667354667E+03  0.13701379554E+02  0.62062478667E+03  0.71594613800E+03  0.00000000000E+00 0. -1.
         -1    1    3    3    0  502 -0.28962861084E+02  0.25794235813E+02  0.66972455085E+02  0.77391857863E+02  0.00000000000E+00 0.  1.
         11    1    5    5    0    0 -0.18745065290E+02 -0.20581445117E+03  0.16868731647E+03  0.26677026918E+03  0.00000000000E+00 0.  1.
        -11    1    5    5    0    0  0.31329519524E+02 -0.46183245930E+02  0.12354324451E+02  0.57158204406E+02  0.00000000000E+00 0. -1.
          3    1    6    6  503    0  0.17024338653E+03  0.13752755990E+03 -0.24237006169E+03  0.32655763227E+03  0.00000000000E+00 0. -1.
         -3    1    6    6    0  503  0.20280856699E+03  0.74974521828E+02 -0.33722376022E+03  0.40059001263E+03  0.00000000000E+00 0.  1.
<mgrwt>
<rscale>  0 0.18216247E+04</rscale>
<asrwt>0</asrwt>
<pdfrwt beam="1">  1        2 0.16411224E+00 0.18216247E+04</pdfrwt>
<pdfrwt beam="2">  1       -1 0.11964377E+00 0.18216247E+04</pdfrwt>
<totfact> 0.15319428E+01</totfact>
</mgrwt>
</event>
<event>
12    6  0.1530859E-007  0.1626225E+04  0.7818608E-02  0.8804597E-01
          2   -1    0    0  501    0  0.00000000000E+00  0.00000000000E+00  0.12470027329E+04  0.12470027329E+04  0.00000000000E+00 0. -1.
         -1   -1    0    0    0  501 -0.00000000000E+00 -0.00000000000E+00 -0.53019259193E+03  0.53019259193E+03  0.00000000000E+00 0.  1.
         24    2    1    2    0    0  0.45916628578E+03 -0.21125701996E+03  0.52239308353E+03  0.73123502977E+03  0.79667613049E+02 0.  0.
        254    2    1    2    0    0 -0.45916628578E+03  0.21125701996E+03  0.19441705740E+03  0.10459602950E+04  0.89485850280E+03 0.  0.
         23    2    4    4    0    0 -0.38012356694E+03  0.47061720787E+03  0.36617515927E+03  0.71262291347E+03  0.88162843907E+02 0.  0.
         23    2    4    4    0    0 -0.79042718840E+02 -0.25936018791E+03 -0.17175810187E+03  0.33333738153E+03  0.89986142787E+02 0.  0.
          4    1    3    3  502    0  0.39557522051E+03 -0.20707902668E+03  0.43780760983E+03  0.62532949842E+03  0.00000000000E+00 0. -1.
         -3    1    3    3    0  502  0.63591065272E+02 -0.41779932826E+01  0.84585473695E+02  0.10590553135E+03  0.00000000000E+00 0.  1.
         11    1    5    5    0    0 -0.90085028031E+02  0.14442913523E+03  0.14339643889E+03  0.22257049684E+03  0.00000000000E+00 0.  1.
        -11    1    5    5    0    0 -0.29003853891E+03  0.32618807264E+03  0.22277872038E+03  0.49005241663E+03  0.00000000000E+00 0. -1.
          1    1    6    6  503    0 -0.81220248862E+02 -0.26582406422E+03 -0.17130063764E+03  0.32650125635E+03  0.00000000000E+00 0. -1.
         -1    1    6    6    0  503  0.21775300220E+01  0.64638763093E+01 -0.45746422871E+00  0.68361251787E+01  0.00000000000E+00 0.  1.
<mgrwt>
<rscale>  0 0.16262246E+04</rscale>
<asrwt>0</asrwt>
<pdfrwt beam="1">  1        2 0.19184657E+00 0.16262246E+04</pdfrwt>
<pdfrwt beam="2">  1       -1 0.81568091E-01 0.16262246E+04</pdfrwt>
<totfact> 0.29001438E+01</totfact>
</mgrwt>
</event>
<event>
12    6  0.1530859E-007  0.1958638E+04  0.7818608E-02  0.8626207E-01
         -1   -1    0    0    0  501 -0.00000000000E+00  0.00000000000E+00  0.90698331271E+03  0.90698331271E+03  0.00000000000E+00 0.  1.
          2   -1    0    0  501    0  0.00000000000E+00 -0.00000000000E+00 -0.10574233710E+04  0.10574233710E+04  0.00000000000E+00 0. -1.
         24    2    1    2    0    0 -0.12548541401E+03  0.35732951964E+03  0.64487056987E+03  0.75218592208E+03  0.80589296749E+02 0.  0.
        254    2    1    2    0    0  0.12548541401E+03 -0.35732951964E+03 -0.79531062814E+03  0.12122207616E+04  0.83278400856E+03 0.  0.
         23    2    4    4    0    0 -0.10077781291E+03 -0.18577005217E+03  0.11226347243E+03  0.25691039899E+03  0.93451516891E+02 0.  0.
         23    2    4    4    0    0  0.22626322691E+03 -0.17155946747E+03 -0.90757410057E+03  0.95531036262E+03  0.91101274228E+02 0.  0.
          4    1    3    3  502    0 -0.58706573050E+02  0.11844521804E+03  0.29545627508E+03  0.32368216182E+03  0.00000000000E+00 0. -1.
         -1    1    3    3    0  502 -0.66778840958E+02  0.23888430160E+03  0.34941429479E+03  0.42850376026E+03  0.00000000000E+00 0.  1.
         11    1    5    5    0    0 -0.11526739238E+03 -0.17117348990E+03  0.86041155349E+02  0.22358447130E+03  0.00000000000E+00 0. -1.
        -11    1    5    5    0    0  0.14489579473E+02 -0.14596562266E+02  0.26222317083E+02  0.33325927692E+02  0.00000000000E+00 0.  1.
          1    1    6    6  503    0  0.11459953989E+03 -0.45044373939E+02 -0.28913103761E+03  0.31425914000E+03  0.00000000000E+00 0. -1.
         -1    1    6    6    0  503  0.11166368703E+03 -0.12651509353E+03 -0.61844306297E+03  0.64105122262E+03  0.00000000000E+00 0.  1.
<mgrwt>
<rscale>  0 0.19586376E+04</rscale>
<asrwt>0</asrwt>
<pdfrwt beam="1">  1        2 0.16268052E+00 0.19586376E+04</pdfrwt>
<pdfrwt beam="2">  1       -1 0.13953589E+00 0.19586376E+04</pdfrwt>
<totfact> 0.10411474E+01</totfact>
</mgrwt>
</event>
<event>
12    6  0.1530859E-007  0.2462333E+04  0.7818608E-02  0.8416529E-01
          2   -1    0    0  501    0  0.00000000000E+00  0.00000000000E+00  0.11900109721E+04  0.11900109721E+04  0.00000000000E+00 0. -1.
         -1   -1    0    0    0  501 -0.00000000000E+00 -0.00000000000E+00 -0.12737452282E+04  0.12737452282E+04  0.00000000000E+00 0.  1.
         24    2    1    2    0    0 -0.10600613853E+03  0.93181182329E+03 -0.53324685697E+03  0.10818732366E+04  0.81159806783E+02 0.  0.
        254    2    1    2    0    0  0.10600613853E+03 -0.93181182329E+03  0.44951260088E+03  0.13818829636E+04  0.90996064278E+03 0.  0.
         23    2    4    4    0    0  0.42820906229E+01  0.45635234462E+02  0.37897641698E+03  0.39233855585E+03  0.90584252811E+02 0.  0.
         23    2    4    4    0    0  0.10172404791E+03 -0.97744705775E+03  0.70536183902E+02  0.98954440779E+03  0.92044821202E+02 0.  0.
          4    1    3    3  502    0 -0.34644657771E+02  0.89847265950E+02 -0.57917427266E+02  0.11237086763E+03  0.00000000000E+00 0. -1.
         -3    1    3    3    0  502 -0.71361480762E+02  0.84196455734E+03 -0.47532942971E+03  0.96950236900E+03  0.00000000000E+00 0.  1.
         11    1    5    5    0    0  0.10262506603E+02 -0.66116503188E+01  0.28271279273E+01  0.12530986156E+02  0.00000000000E+00 0. -1.
        -11    1    5    5    0    0 -0.59804159802E+01  0.52246884781E+02  0.37614928905E+03  0.37980756970E+03  0.00000000000E+00 0.  1.
          3    1    6    6  503    0  0.21377297062E+02 -0.37654501713E+02 -0.33828088573E+01  0.43431483105E+02  0.00000000000E+00 0. -1.
         -3    1    6    6    0  503  0.80346750848E+02 -0.93979255604E+03  0.73918992759E+02  0.94611292468E+03  0.00000000000E+00 0.  1.
<mgrwt>
<rscale>  0 0.24623329E+04</rscale>
<asrwt>0</asrwt>
<pdfrwt beam="1">  1        2 0.18307861E+00 0.24623329E+04</pdfrwt>
<pdfrwt beam="2">  1       -1 0.19596080E+00 0.24623329E+04</pdfrwt>
<totfact> 0.31433574E+00</totfact>
</mgrwt>
</event>
<event>
12    6  0.1530859E-007  0.1258062E+04  0.7818608E-02  0.9063500E-01
          2   -1    0    0  501    0  0.00000000000E+00  0.00000000000E+00  0.20840608903E+04  0.20840608903E+04  0.00000000000E+00 0. -1.
         -1   -1    0    0    0  501 -0.00000000000E+00 -0.00000000000E+00 -0.18986005658E+03  0.18986005658E+03  0.00000000000E+00 0.  1.
         24    2    1    2    0    0  0.84838697422E+01  0.10311992979E+03 -0.39676890373E+02  0.13716203370E+03  0.80829894789E+02 0.  0.
        254    2    1    2    0    0 -0.84838697422E+01 -0.10311992979E+03  0.19338777241E+04  0.21367589132E+04  0.90285652536E+03 0.  0.
         23    2    4    4    0    0 -0.74426866253E+02 -0.30887033448E+03  0.19351423110E+03  0.38061003838E+03  0.80473608938E+02 0.  0.
         23    2    4    4    0    0  0.65942996511E+02  0.20575040469E+03  0.17403634930E+04  0.17561488748E+04  0.92260906870E+02 0.  0.
          2    1    3    3  502    0 -0.71478649167E+01  0.28879600515E+02  0.23912026641E+02  0.38169468385E+02  0.00000000000E+00 0. -1.
         -1    1    3    3    0  502  0.15631734659E+02  0.74240329280E+02 -0.63588917014E+02  0.98992565312E+02  0.00000000000E+00 0.  1.
         11    1    5    5    0    0 -0.63382774242E+02 -0.29342533129E+03  0.19980510904E+03  0.36060765759E+03  0.00000000000E+00 0.  1.
        -11    1    5    5    0    0 -0.11044092011E+02 -0.15445003189E+02 -0.62908779455E+01  0.20002380787E+02  0.00000000000E+00 0. -1.
          1    1    6    6  503    0  0.23525645704E+02  0.18624814209E+02  0.51314105677E+03  0.51401759100E+03  0.00000000000E+00 0. -1.
         -1    1    6    6    0  503  0.42417350807E+02  0.18712559048E+03  0.12272224362E+04  0.12421312838E+04  0.00000000000E+00 0.  1.
<mgrwt>
<rscale>  0 0.12580619E+04</rscale>
<asrwt>0</asrwt>
<pdfrwt beam="1">  1        2 0.32062474E+00 0.12580619E+04</pdfrwt>
<pdfrwt beam="2">  1       -1 0.29209241E-01 0.12580619E+04</pdfrwt>
<totfact> 0.71925882E+01</totfact>
</mgrwt>
</event>
<event>
12    6  0.1530859E-007  0.3653733E+04  0.7818608E-02  0.8078293E-01
         -1   -1    0    0    0  501 -0.00000000000E+00  0.00000000000E+00  0.96113682702E+03  0.96113682702E+03  0.00000000000E+00 0.  1.
          2   -1    0    0  501    0  0.00000000000E+00 -0.00000000000E+00 -0.34723893791E+04  0.34723893791E+04  0.00000000000E+00 0. -1.
         24    2    1    2    0    0 -0.37393476549E+03 -0.73390502026E+02  0.84987962817E+03  0.93476998868E+03  0.79285400520E+02 0.  0.
        254    2    1    2    0    0  0.37393476549E+03  0.73390502026E+02 -0.33611321803E+04  0.34987562175E+04  0.89379648769E+03 0.  0.
         23    2    4    4    0    0  0.45840913699E+03 -0.27092761194E+03 -0.13449915042E+04  0.14496415065E+04  0.94433273167E+02 0.  0.
         23    2    4    4    0    0 -0.84474371492E+02  0.34431811397E+03 -0.20161406760E+04  0.20491147110E+04  0.91416574902E+02 0.  0.
          2    1    3    3  502    0 -0.48515869745E+02  0.24602210496E+01  0.17623074414E+03  0.18280349418E+03  0.00000000000E+00 0. -1.
         -1    1    3    3    0  502 -0.32541889575E+03 -0.75850723076E+02  0.67364888402E+03  0.75196649450E+03  0.00000000000E+00 0.  1.
         11    1    5    5    0    0  0.19599991091E+03 -0.14806710313E+03 -0.51631213128E+03  0.57176747810E+03  0.00000000000E+00 0.  1.
        -11    1    5    5    0    0  0.26240922608E+03 -0.12286050881E+03 -0.82867937297E+03  0.87787402840E+03  0.00000000000E+00 0. -1.
          4    1    6    6  503    0 -0.83186687060E+01  0.22806497588E+02 -0.52129317147E+02  0.57504802299E+02  0.00000000000E+00 0. -1.
         -4    1    6    6    0  503 -0.76155702786E+02  0.32151161638E+03 -0.19640113589E+04  0.19916099087E+04  0.00000000000E+00 0.  1.
<mgrwt>
<rscale>  0 0.36537331E+04</rscale>
<asrwt>0</asrwt>
<pdfrwt beam="1">  1        2 0.53421374E+00 0.36537331E+04</pdfrwt>
<pdfrwt beam="2">  1       -1 0.14786721E+00 0.36537331E+04</pdfrwt>
<totfact> 0.28337480E-01</totfact>
</mgrwt>
</event>
<event>
12    6  0.1530859E-007  0.1402446E+04  0.7818608E-02  0.8952050E-01
         -3   -1    0    0    0  501 -0.00000000000E+00  0.00000000000E+00  0.38393241353E+03  0.38393241353E+03  0.00000000000E+00 0.  1.
          2   -1    0    0  501    0  0.00000000000E+00 -0.00000000000E+00 -0.12807289648E+04  0.12807289648E+04  0.00000000000E+00 0. -1.
         24    2    1    2    0    0 -0.28726938157E+03  0.28811053536E+03 -0.12073598304E+03  0.43140576015E+03  0.77474990302E+02 0.  0.
        254    2    1    2    0    0  0.28726938157E+03 -0.28811053536E+03 -0.77606056818E+03  0.12332556181E+04  0.86782373556E+03 0.  0.
         23    2    4    4    0    0  0.24999783059E+03 -0.49493140713E+03 -0.82649542561E+03  0.99847923118E+03  0.80062934596E+02 0.  0.
         23    2    4    4    0    0  0.37271550975E+02  0.20682087177E+03  0.50434857429E+02  0.23477638695E+03  0.91718239822E+02 0.  0.
          4    1    3    3  502    0 -0.36166797299E+02  0.66178876943E+01 -0.14436012181E+02  0.39499773570E+02  0.00000000000E+00 0. -1.
         -3    1    3    3    0  502 -0.25110258427E+03  0.28149264767E+03 -0.10629997086E+03  0.39190598658E+03  0.00000000000E+00 0.  1.
         11    1    5    5    0    0  0.51462729079E+02 -0.16473835721E+03 -0.21463419823E+03  0.27541782418E+03  0.00000000000E+00 0.  1.
        -11    1    5    5    0    0  0.19853510151E+03 -0.33019304991E+03 -0.61186122737E+03  0.72306140701E+03  0.00000000000E+00 0. -1.
          1    1    6    6  503    0  0.53715150877E+01  0.97417178124E+02  0.68749777792E+02  0.11935447924E+03  0.00000000000E+00 0. -1.
         -1    1    6    6    0  503  0.31900035887E+02  0.10940369364E+03 -0.18314920363E+02  0.11542190771E+03  0.00000000000E+00 0.  1.
<mgrwt>
<rscale>  0 0.14024455E+04</rscale>
<asrwt>0</asrwt>
<pdfrwt beam="1">  1        2 0.19703523E+00 0.14024455E+04</pdfrwt>
<pdfrwt beam="2">  1       -3 0.59066525E-01 0.14024455E+04</pdfrwt>
<totfact> 0.29576453E+01</totfact>
</mgrwt>
</event>
<event>
12    6  0.1530859E-007  0.1985801E+04  0.7818608E-02  0.8613288E-01
          2   -1    0    0  501    0  0.00000000000E+00  0.00000000000E+00  0.49139907735E+03  0.49139907735E+03  0.00000000000E+00 0. -1.
         -1   -1    0    0    0  501 -0.00000000000E+00 -0.00000000000E+00 -0.20062126247E+04  0.20062126247E+04  0.00000000000E+00 0.  1.
         24    2    1    2    0    0  0.23712897170E+03  0.70637786009E+03 -0.92291691889E+03  0.11888391731E+04  0.79769102887E+02 0.  0.
        254    2    1    2    0    0 -0.23712897170E+03 -0.70637786009E+03 -0.59189662846E+03  0.13087725290E+04  0.89852327929E+03 0.  0.
         23    2    4    4    0    0 -0.39480897651E+03 -0.25578256804E+03 -0.66270084907E+03  0.81786077169E+03  0.91787670573E+02 0.  0.
         23    2    4    4    0    0  0.15768000480E+03 -0.45059529205E+03  0.70804220613E+02  0.49091175730E+03  0.89900025961E+02 0.  0.
          4    1    3    3  502    0  0.65299895950E+02  0.30462401538E+03 -0.35602898760E+03  0.47309249325E+03  0.00000000000E+00 0. -1.
         -3    1    3    3    0  502  0.17182907576E+03  0.40175384471E+03 -0.56688793129E+03  0.71574667981E+03  0.00000000000E+00 0.  1.
         11    1    5    5    0    0 -0.46398665439E+02 -0.71142790879E+02 -0.11309250745E+03  0.14143566767E+03  0.00000000000E+00 0. -1.
        -11    1    5    5    0    0 -0.34841031107E+03 -0.18463977716E+03 -0.54960834162E+03  0.67642510402E+03  0.00000000000E+00 0.  1.
          3    1    6    6  503    0  0.88836503650E+02 -0.20894423653E+03  0.76483106251E+02  0.23958147654E+03  0.00000000000E+00 0. -1.
         -3    1    6    6    0  503  0.68843501154E+02 -0.24165105552E+03 -0.56788856381E+01  0.25133028076E+03  0.00000000000E+00 0.  1.
<mgrwt>
<rscale>  0 0.19858006E+04</rscale>
<asrwt>0</asrwt>
<pdfrwt beam="1">  1        2 0.75599860E-01 0.19858006E+04</pdfrwt>
<pdfrwt beam="2">  1       -1 0.30864809E+00 0.19858006E+04</pdfrwt>
<totfact> 0.19392602E+00</totfact>
</mgrwt>
</event>
<event>
12    6  0.1530859E-007  0.2496992E+04  0.7818608E-02  0.8404058E-01
         -1   -1    0    0    0  501 -0.00000000000E+00  0.00000000000E+00  0.95044433821E+03  0.95044433821E+03  0.00000000000E+00 0.  1.
          2   -1    0    0  501    0  0.00000000000E+00 -0.00000000000E+00 -0.16400145469E+04  0.16400145469E+04  0.00000000000E+00 0. -1.
         24    2    1    2    0    0 -0.70481153925E+03 -0.51851791292E+03 -0.94797621480E+03  0.12925179076E+04  0.79520474642E+02 0.  0.
        254    2    1    2    0    0  0.70481153925E+03  0.51851791292E+03  0.25840600606E+03  0.12979409775E+04  0.92317765639E+03 0.  0.
         23    2    4    4    0    0  0.48526606607E+03  0.70786553910E+03 -0.50029275988E+02  0.86468315011E+03  0.92829118822E+02 0.  0.
         23    2    4    4    0    0  0.21954547318E+03 -0.18934762618E+03  0.30843528205E+03  0.43325782741E+03  0.92343291345E+02 0.  0.
          2    1    3    3  502    0 -0.26607734539E+03 -0.21401590366E+03 -0.31765617553E+03  0.46637474910E+03  0.00000000000E+00 0. -1.
         -1    1    3    3    0  502 -0.43873419386E+03 -0.30450200926E+03 -0.63032003927E+03  0.82614315854E+03  0.00000000000E+00 0.  1.
         11    1    5    5    0    0  0.46460171984E+03  0.69754113243E+03 -0.58343861206E+02  0.84013236793E+03  0.00000000000E+00 0.  1.
        -11    1    5    5    0    0  0.20664346224E+02  0.10324406675E+02  0.83145852182E+01  0.24550782175E+02  0.00000000000E+00 0. -1.
          1    1    6    6  503    0 -0.53525859003E+01  0.46930643322E+01  0.91293933529E+01  0.11576737521E+02  0.00000000000E+00 0. -1.
         -1    1    6    6    0  503  0.22489805908E+03 -0.19404069052E+03  0.29930588870E+03  0.42168108988E+03  0.00000000000E+00 0.  1.
<mgrwt>
<rscale>  0 0.24969922E+04</rscale>
<asrwt>0</asrwt>
<pdfrwt beam="1">  1        2 0.25230993E+00 0.24969922E+04</pdfrwt>
<pdfrwt beam="2">  1       -1 0.14622221E+00 0.24969922E+04</pdfrwt>
<totfact> 0.40200942E+00</totfact>
</mgrwt>
</event>
<event>
12    6  0.1530859E-007  0.1487973E+04  0.7818608E-02  0.8892490E-01
          2   -1    0    0  501    0  0.00000000000E+00  0.00000000000E+00  0.10445478273E+04  0.10445478273E+04  0.00000000000E+00 0. -1.
         -1   -1    0    0    0  501 -0.00000000000E+00 -0.00000000000E+00 -0.52990982542E+03  0.52990982542E+03  0.00000000000E+00 0.  1.
         24    2    1    2    0    0  0.75873423830E+02 -0.38647193446E+03 -0.11746027260E+03  0.41860611161E+03  0.79478478035E+02 0.  0.
        254    2    1    2    0    0 -0.75873423830E+02  0.38647193446E+03  0.63209827451E+03  0.11558515411E+04  0.88392715986E+03 0.  0.
         23    2    4    4    0    0  0.26508999755E+03  0.50463206117E+03  0.48502419419E+03  0.75446063223E+03  0.95058680175E+02 0.  0.
         23    2    4    4    0    0 -0.34096342138E+03 -0.11816012671E+03  0.14707408033E+03  0.40139090891E+03  0.96260097616E+02 0.  0.
          2    1    3    3  502    0  0.31542934002E+02 -0.52018286429E+02  0.15437069630E+01  0.60854267226E+02  0.00000000000E+00 0. -1.
         -1    1    3    3    0  502  0.44330489828E+02 -0.33445364803E+03 -0.11900397956E+03  0.35775184439E+03  0.00000000000E+00 0.  1.
         11    1    5    5    0    0  0.22821724635E+03  0.42761216942E+03  0.45247765586E+03  0.66307715088E+03  0.00000000000E+00 0. -1.
        -11    1    5    5    0    0  0.36872751196E+02  0.77019891750E+02  0.32546538323E+02  0.91383481345E+02  0.00000000000E+00 0.  1.
          3    1    6    6  503    0 -0.22626871979E+03 -0.29606511125E+02  0.81146458026E+02  0.24219584370E+03  0.00000000000E+00 0. -1.
         -3    1    6    6    0  503 -0.11469470158E+03 -0.88553615584E+02  0.65927622299E+02  0.15919506521E+03  0.00000000000E+00 0.  1.
<mgrwt>
<rscale>  0 0.14879733E+04</rscale>
<asrwt>0</asrwt>
<pdfrwt beam="1">  1        2 0.16069967E+00 0.14879733E+04</pdfrwt>
<pdfrwt beam="2">  1       -1 0.81524589E-01 0.14879733E+04</pdfrwt>
<totfact> 0.39003867E+01</totfact>
</mgrwt>
</event>
<event>
12    6  0.1530859E-007  0.1985846E+04  0.7818608E-02  0.8613267E-01
         -1   -1    0    0    0  501 -0.00000000000E+00  0.00000000000E+00  0.33393258349E+03  0.33393258349E+03  0.00000000000E+00 0.  1.
          2   -1    0    0  501    0  0.00000000000E+00 -0.00000000000E+00 -0.29523804939E+04  0.29523804939E+04  0.00000000000E+00 0. -1.
         24    2    1    2    0    0 -0.12105916097E+03 -0.10932451277E+02  0.24265453595E+03  0.28326829684E+03  0.81147182523E+02 0.  0.
        254    2    1    2    0    0  0.12105916097E+03  0.10932451277E+02 -0.28611024464E+04  0.30030447806E+04  0.90421010084E+03 0.  0.
         23    2    4    4    0    0  0.11229357676E+03 -0.43091938593E+03 -0.16030115529E+04  0.16663391072E+04  0.93480569904E+02 0.  0.
         23    2    4    4    0    0  0.87655842151E+01  0.44185183720E+03 -0.12580908935E+04  0.13367056734E+04  0.93163723681E+02 0.  0.
          2    1    3    3  502    0 -0.15617269719E+01  0.12933883593E+02  0.74338648020E+02  0.75471576937E+02  0.00000000000E+00 0. -1.
         -3    1    3    3    0  502 -0.11949743400E+03 -0.23866334870E+02  0.16831588793E+03  0.20779671990E+03  0.00000000000E+00 0.  1.
         11    1    5    5    0    0  0.80844175290E+02 -0.19056260112E+03 -0.60989252034E+03  0.64406426076E+03  0.00000000000E+00 0. -1.
        -11    1    5    5    0    0  0.31449401465E+02 -0.24035678481E+03 -0.99311903253E+03  0.10222748464E+04  0.00000000000E+00 0.  1.
          3    1    6    6  503    0  0.35207881323E+02  0.40090530257E+03 -0.11023955233E+04  0.11735589232E+04  0.00000000000E+00 0. -1.
         -3    1    6    6    0  503 -0.26442297108E+02  0.40946534629E+02 -0.15569537025E+03  0.16314675017E+03  0.00000000000E+00 0.  1.
<mgrwt>
<rscale>  0 0.19858460E+04</rscale>
<asrwt>0</asrwt>
<pdfrwt beam="1">  1        2 0.45421239E+00 0.19858460E+04</pdfrwt>
<pdfrwt beam="2">  1       -1 0.51374242E-01 0.19858460E+04</pdfrwt>
<totfact> 0.75401843E+00</totfact>
</mgrwt>
</event>
<event>
12    6  0.1530859E-007  0.1580500E+04  0.7818608E-02  0.8832618E-01
         -1   -1    0    0    0  501 -0.00000000000E+00  0.00000000000E+00  0.56930833849E+03  0.56930833849E+03  0.00000000000E+00 0.  1.
          2   -1    0    0  501    0  0.00000000000E+00 -0.00000000000E+00 -0.10969370311E+04  0.10969370311E+04  0.00000000000E+00 0. -1.
         24    2    1    2    0    0  0.15639756577E+03 -0.96569218863E+02  0.34882515140E+03  0.40238727933E+03  0.80316397509E+02 0.  0.
        254    2    1    2    0    0 -0.15639756577E+03  0.96569218863E+02 -0.87645384401E+03  0.12638580903E+04  0.89184085970E+03 0.  0.
         23    2    4    4    0    0 -0.47062936372E+03  0.12274951046E+03 -0.77730504723E+03  0.92133453530E+03  0.89970823970E+02 0.  0.
         23    2    4    4    0    0  0.31423179795E+03 -0.26180291592E+02 -0.99148796776E+02  0.34252355496E+03  0.89804628432E+02 0.  0.
          2    1    3    3  502    0  0.13380515522E+03 -0.10531494241E+03  0.26384249419E+03  0.31401897777E+03  0.00000000000E+00 0. -1.
         -1    1    3    3    0  502  0.22592410554E+02  0.87457235502E+01  0.84982657205E+02  0.88368301560E+02  0.00000000000E+00 0.  1.
         11    1    5    5    0    0 -0.43397088267E+02 -0.78529295630E+01 -0.10767833570E+03  0.11635978580E+03  0.00000000000E+00 0.  1.
        -11    1    5    5    0    0 -0.42723227546E+03  0.13060244002E+03 -0.66962671154E+03  0.80497474950E+03  0.00000000000E+00 0. -1.
          3    1    6    6  503    0  0.31443596429E+03 -0.22507613040E+02 -0.10776791217E+03  0.33315235430E+03  0.00000000000E+00 0. -1.
         -3    1    6    6    0  503 -0.20416633845E+00 -0.36726785524E+01  0.86191153909E+01  0.93712006576E+01  0.00000000000E+00 0.  1.
<mgrwt>
<rscale>  0 0.15805004E+04</rscale>
<asrwt>0</asrwt>
<pdfrwt beam="1">  1        2 0.16875954E+00 0.15805004E+04</pdfrwt>
<pdfrwt beam="2">  1       -1 0.87585898E-01 0.15805004E+04</pdfrwt>
<totfact> 0.30743491E+01</totfact>
</mgrwt>
</event>
<event>
12    6  0.1530859E-007  0.2577983E+04  0.7818608E-02  0.8375718E-01
         -1   -1    0    0    0  501 -0.00000000000E+00  0.00000000000E+00  0.76022546589E+03  0.76022546589E+03  0.00000000000E+00 0.  1.
          2   -1    0    0  501    0  0.00000000000E+00 -0.00000000000E+00 -0.21855349248E+04  0.21855349248E+04  0.00000000000E+00 0. -1.
         24    2    1    2    0    0 -0.74605433068E+03  0.80151834705E+03 -0.97948314205E+03  0.14713503889E+04  0.80349339525E+02 0.  0.
        254    2    1    2    0    0  0.74605433068E+03 -0.80151834705E+03 -0.44582631690E+03  0.14744100018E+04  0.88096255520E+03 0.  0.
         23    2    4    4    0    0  0.32129284965E+03 -0.57127372069E+03  0.17371636726E+03  0.68332706983E+03  0.84709792328E+02 0.  0.
         23    2    4    4    0    0  0.42476148104E+03 -0.23024462636E+03 -0.61954268415E+03  0.79108293200E+03  0.92434647587E+02 0.  0.
          2    1    3    3  502    0 -0.29673099604E+03  0.28682433970E+03 -0.32604394260E+03  0.52594879824E+03  0.00000000000E+00 0. -1.
         -1    1    3    3    0  502 -0.44932333464E+03  0.51469400735E+03 -0.65343919945E+03  0.94540159066E+03  0.00000000000E+00 0.  1.
         11    1    5    5    0    0  0.52344013022E+02 -0.10270774382E+03 -0.17224074185E+01  0.11528982187E+03  0.00000000000E+00 0. -1.
        -11    1    5    5    0    0  0.26894883663E+03 -0.46856597687E+03  0.17543877468E+03  0.56803724796E+03  0.00000000000E+00 0.  1.
          2    1    6    6  503    0  0.60941287529E+02 -0.49656114682E+02 -0.56427081521E+02  0.96765622925E+02  0.00000000000E+00 0. -1.
         -2    1    6    6    0  503  0.36382019351E+03 -0.18058851168E+03 -0.56311560263E+03  0.69431730908E+03  0.00000000000E+00 0.  1.
<mgrwt>
<rscale>  0 0.25779832E+04</rscale>
<asrwt>0</asrwt>
<pdfrwt beam="1">  1        2 0.33623615E+00 0.25779832E+04</pdfrwt>
<pdfrwt beam="2">  1       -1 0.11695776E+00 0.25779832E+04</pdfrwt>
<totfact> 0.34949679E+00</totfact>
</mgrwt>
</event>
<event>
12    6  0.1530859E-007  0.1165171E+04  0.7818608E-02  0.9143901E-01
         -1   -1    0    0    0  501 -0.00000000000E+00  0.00000000000E+00  0.13750061737E+03  0.13750061737E+03  0.00000000000E+00 0.  1.
          2   -1    0    0  501    0  0.00000000000E+00 -0.00000000000E+00 -0.24683940774E+04  0.24683940774E+04  0.00000000000E+00 0. -1.
         24    2    1    2    0    0  0.19294333499E+03  0.91091719207E+02 -0.64394421903E+03  0.68275746683E+03  0.77257811652E+02 0.  0.
        254    2    1    2    0    0 -0.19294333499E+03 -0.91091719207E+02 -0.16869492410E+04  0.19231372279E+04  0.89840649149E+03 0.  0.
         23    2    4    4    0    0 -0.71507180205E+02 -0.32231382911E+03 -0.17248186700E+03  0.38363276950E+03  0.91785762120E+02 0.  0.
         23    2    4    4    0    0 -0.12143615478E+03  0.23122210991E+03 -0.15144673740E+04  0.15395044585E+04  0.90841327922E+02 0.  0.
          2    1    3    3  502    0  0.44535897234E+02  0.35823899484E+02 -0.28121933630E+03  0.28696883634E+03  0.00000000000E+00 0. -1.
         -1    1    3    3    0  502  0.14840743775E+03  0.55267819723E+02 -0.36272488273E+03  0.39578863049E+03  0.00000000000E+00 0.  1.
         11    1    5    5    0    0 -0.60984952474E+02 -0.29104268346E+03 -0.11796127386E+03  0.31990603332E+03  0.00000000000E+00 0. -1.
        -11    1    5    5    0    0 -0.10522227731E+02 -0.31271145656E+02 -0.54520593148E+02  0.63726736181E+02  0.00000000000E+00 0.  1.
          2    1    6    6  503    0 -0.99480445758E+02  0.20548927213E+03 -0.14363063352E+04  0.14543376804E+04  0.00000000000E+00 0. -1.
         -2    1    6    6    0  503 -0.21955709024E+02  0.25732837774E+02 -0.78161038797E+02  0.85166778056E+02  0.00000000000E+00 0.  1.
<mgrwt>
<rscale>  0 0.11651707E+04</rscale>
<asrwt>0</asrwt>
<pdfrwt beam="1">  1        2 0.37975295E+00 0.11651707E+04</pdfrwt>
<pdfrwt beam="2">  1       -1 0.21153940E-01 0.11651707E+04</pdfrwt>
<totfact> 0.76641471E+01</totfact>
</mgrwt>
</event>
<event>
12    6  0.1530859E-007  0.4459257E+04  0.7818608E-02  0.7917809E-01
          2   -1    0    0  501    0  0.00000000000E+00  0.00000000000E+00  0.33445602966E+04  0.33445602966E+04  0.00000000000E+00 0. -1.
         -1   -1    0    0    0  501 -0.00000000000E+00 -0.00000000000E+00 -0.14863669965E+04  0.14863669965E+04  0.00000000000E+00 0.  1.
         24    2    1    2    0    0 -0.34040334956E+02  0.20848129317E+04  0.38195315504E+03  0.21213725881E+04  0.82034994324E+02 0.  0.
        254    2    1    2    0    0  0.34040334956E+02 -0.20848129317E+04  0.14762401450E+04  0.27095547050E+04  0.90266163624E+03 0.  0.
         23    2    4    4    0    0  0.15661311372E+02 -0.21316678515E+04  0.12814041666E+04  0.24888315372E+04  0.89625198675E+02 0.  0.
         23    2    4    4    0    0  0.18379023584E+02  0.46854919881E+02  0.19483597837E+03  0.22072316787E+03  0.90688953812E+02 0.  0.
          4    1    3    3  502    0 -0.44073980628E+02  0.14017445899E+04  0.22408645160E+03  0.14202271469E+04  0.00000000000E+00 0. -1.
         -3    1    3    3    0  502  0.10033645672E+02  0.68306834178E+03  0.15786670344E+03  0.70114544115E+03  0.00000000000E+00 0.  1.
         11    1    5    5    0    0  0.17449752935E+02 -0.97352709162E+02  0.69617127893E+02  0.12094870134E+03  0.00000000000E+00 0. -1.
        -11    1    5    5    0    0 -0.17884415631E+01 -0.20343151424E+04  0.12117870387E+04  0.23678828358E+04  0.00000000000E+00 0.  1.
          1    1    6    6  503    0  0.21553351479E+02 -0.18232226110E+02  0.21326920289E+02  0.35380765366E+02  0.00000000000E+00 0. -1.
         -1    1    6    6    0  503 -0.31743278948E+01  0.65087145991E+02  0.17350905808E+03  0.18534240250E+03  0.00000000000E+00 0.  1.
<mgrwt>
<rscale>  0 0.44592574E+04</rscale>
<asrwt>0</asrwt>
<pdfrwt beam="1">  1        2 0.51454774E+00 0.44592574E+04</pdfrwt>
<pdfrwt beam="2">  1       -1 0.22867185E+00 0.44592574E+04</pdfrwt>
<totfact> 0.86327831E-02</totfact>
</mgrwt>
</event>
<event>
12    6  0.1530859E-007  0.4056338E+04  0.7818608E-02  0.7993277E-01
         -1   -1    0    0    0  501 -0.00000000000E+00  0.00000000000E+00  0.96089018719E+03  0.96089018719E+03  0.00000000000E+00 0.  1.
          2   -1    0    0  501    0  0.00000000000E+00 -0.00000000000E+00 -0.42808934567E+04  0.42808934567E+04  0.00000000000E+00 0. -1.
         24    2    1    2    0    0 -0.16760184777E+03 -0.10822285694E+03 -0.40494923619E+04  0.40552207864E+04  0.81392082184E+02 0.  0.
        254    2    1    2    0    0  0.16760184777E+03  0.10822285694E+03  0.72948909246E+03  0.11865628574E+04  0.91431641816E+03 0.  0.
         23    2    4    4    0    0 -0.26676336477E+03 -0.79545866192E+02  0.62907243026E+03  0.69405620400E+03  0.92150171929E+02 0.  0.
         23    2    4    4    0    0  0.43436521254E+03  0.18776872314E+03  0.10041666219E+03  0.49250665344E+03  0.92461161500E+02 0.  0.
          4    1    3    3  502    0 -0.14130706654E+03 -0.67582717354E+02 -0.35313937663E+04  0.35348659159E+04  0.00000000000E+00 0. -1.
         -3    1    3    3    0  502 -0.26294781227E+02 -0.40640139590E+02 -0.51809859563E+03  0.52035487051E+03  0.00000000000E+00 0.  1.
         11    1    5    5    0    0 -0.81492050947E+02 -0.54751100453E+02  0.29930948548E+03  0.31499969122E+03  0.00000000000E+00 0. -1.
        -11    1    5    5    0    0 -0.18527131382E+03 -0.24794765739E+02  0.32976294478E+03  0.37905651278E+03  0.00000000000E+00 0.  1.
          3    1    6    6  503    0  0.53768433629E+02  0.58288618830E+02  0.27467585427E+02  0.83923034914E+02  0.00000000000E+00 0. -1.
         -3    1    6    6    0  503  0.38059677891E+03  0.12948010431E+03  0.72949076768E+02  0.40858361853E+03  0.00000000000E+00 0.  1.
<mgrwt>
<rscale>  0 0.40563375E+04</rscale>
<asrwt>0</asrwt>
<pdfrwt beam="1">  1        2 0.65859897E+00 0.40563375E+04</pdfrwt>
<pdfrwt beam="2">  1       -1 0.14782926E+00 0.40563375E+04</pdfrwt>
<totfact> 0.63418697E-02</totfact>
</mgrwt>
</event>
<event>
12    6  0.1530859E-007  0.1773991E+04  0.7818608E-02  0.8720254E-01
         -1   -1    0    0    0  501 -0.00000000000E+00  0.00000000000E+00  0.12713258182E+04  0.12713258182E+04  0.00000000000E+00 0.  1.
          2   -1    0    0  501    0  0.00000000000E+00 -0.00000000000E+00 -0.61885091836E+03  0.61885091836E+03  0.00000000000E+00 0. -1.
         24    2    1    2    0    0 -0.19107910019E+02  0.55365373306E+02  0.92991074910E+03  0.93515457539E+03  0.79684639637E+02 0.  0.
        254    2    1    2    0    0  0.19107910019E+02 -0.55365373306E+02 -0.27743584931E+03  0.95502216113E+03  0.91195736796E+03 0.  0.
         23    2    4    4    0    0 -0.62675556671E+02 -0.46719778384E+03 -0.18941569272E+03  0.51630232057E+03  0.92129186164E+02 0.  0.
         23    2    4    4    0    0  0.81783466690E+02  0.41183241054E+03 -0.88020156595E+02  0.43871984056E+03  0.91831806810E+02 0.  0.
          2    1    3    3  502    0  0.20845303695E+02 -0.93446232668E+01  0.21465994840E+03  0.21587205034E+03  0.00000000000E+00 0. -1.
         -1    1    3    3    0  502 -0.39953213714E+02  0.64709996572E+02  0.71525080071E+03  0.71928252506E+03  0.00000000000E+00 0.  1.
         11    1    5    5    0    0 -0.68662989502E+02 -0.37766103487E+03 -0.11788959226E+03  0.40154753062E+03  0.00000000000E+00 0.  1.
        -11    1    5    5    0    0  0.59874328312E+01 -0.89536748976E+02 -0.71526100456E+02  0.11475478995E+03  0.00000000000E+00 0. -1.
          1    1    6    6  503    0 -0.49693277999E+01 -0.31005786131E+01 -0.18769717190E+01  0.61506771459E+01  0.00000000000E+00 0. -1.
         -1    1    6    6    0  503  0.86752794490E+02  0.41493298915E+03 -0.86143184876E+02  0.43256916341E+03  0.00000000000E+00 0.  1.
<mgrwt>
<rscale>  0 0.17739912E+04</rscale>
<asrwt>0</asrwt>
<pdfrwt beam="1">  1        2 0.95207834E-01 0.17739912E+04</pdfrwt>
<pdfrwt beam="2">  1       -1 0.19558859E+00 0.17739912E+04</pdfrwt>
<totfact> 0.83331825E+00</totfact>
</mgrwt>
</event>
<event>
12    6  0.1530859E-007  0.1257978E+04  0.7818608E-02  0.9063569E-01
          2   -1    0    0  501    0  0.00000000000E+00  0.00000000000E+00  0.10817360850E+04  0.10817360850E+04  0.00000000000E+00 0. -1.
         -1   -1    0    0    0  501 -0.00000000000E+00 -0.00000000000E+00 -0.36573342068E+03  0.36573342068E+03  0.00000000000E+00 0.  1.
         24    2    1    2    0    0  0.15172820652E+03  0.11110955125E+03  0.44565439550E+03  0.49017728500E+03  0.79367181320E+02 0.  0.
        254    2    1    2    0    0 -0.15172820652E+03 -0.11110955125E+03  0.27034826878E+03  0.95729222064E+03  0.89886229659E+03 0.  0.
         23    2    4    4    0    0 -0.33851820268E+03  0.21744242616E+03 -0.96718603180E+02  0.42243169338E+03  0.84960373888E+02 0.  0.
         23    2    4    4    0    0  0.18678999617E+03 -0.32855197741E+03  0.36706687196E+03  0.53486052726E+03  0.92199732105E+02 0.  0.
          4    1    3    3  502    0  0.11477003576E+03  0.54216823523E+02  0.21419688710E+03  0.24898178950E+03  0.00000000000E+00 0. -1.
         -3    1    3    3    0  502  0.36958170760E+02  0.56892727729E+02  0.23145750840E+03  0.24119549550E+03  0.00000000000E+00 0.  1.
         11    1    5    5    0    0 -0.30591180881E+03  0.16163679140E+03 -0.89635717603E+02  0.35741159603E+03  0.00000000000E+00 0.  1.
        -11    1    5    5    0    0 -0.32606393874E+02  0.55805634758E+02 -0.70828855765E+01  0.65020097357E+02  0.00000000000E+00 0. -1.
          3    1    6    6  503    0  0.29721164890E+02 -0.39151880219E+02  0.97978577068E+02  0.10961760320E+03  0.00000000000E+00 0. -1.
         -3    1    6    6    0  503  0.15706883128E+03 -0.28940009719E+03  0.26908829489E+03  0.42524292406E+03  0.00000000000E+00 0.  1.
<mgrwt>
<rscale>  0 0.12579778E+04</rscale>
<asrwt>0</asrwt>
<pdfrwt beam="1">  1        2 0.16642094E+00 0.12579778E+04</pdfrwt>
<pdfrwt beam="2">  1       -1 0.56266680E-01 0.12579778E+04</pdfrwt>
<totfact> 0.80113334E+01</totfact>
</mgrwt>
</event>
<event>
12    6  0.1530859E-007  0.2128434E+04  0.7818608E-02  0.8548820E-01
          2   -1    0    0  501    0  0.00000000000E+00  0.00000000000E+00  0.14722068699E+04  0.14722068699E+04  0.00000000000E+00 0. -1.
         -1   -1    0    0    0  501 -0.00000000000E+00 -0.00000000000E+00 -0.76929293021E+03  0.76929293021E+03  0.00000000000E+00 0.  1.
         24    2    1    2    0    0 -0.30228552410E+03 -0.66037588821E+03  0.79638646199E+03  0.10806447216E+04  0.78030543166E+02 0.  0.
        254    2    1    2    0    0  0.30228552410E+03  0.66037588821E+03 -0.93472522305E+02  0.11608550785E+04  0.90076331467E+03 0.  0.
         23    2    4    4    0    0  0.23929577696E+03  0.34310737867E+03  0.38541975719E+03  0.57598636986E+03  0.90701526254E+02 0.  0.
         23    2    4    4    0    0  0.62989747142E+02  0.31726850954E+03 -0.47889227949E+03  0.58486870865E+03  0.90036523737E+02 0.  0.
          4    1    3    3  502    0 -0.28857359835E+03 -0.63283875604E+03  0.78238601990E+03  0.10468464534E+04  0.00000000000E+00 0. -1.
         -3    1    3    3    0  502 -0.13711925752E+02 -0.27537132165E+02  0.14000442080E+02  0.33798268212E+02  0.00000000000E+00 0.  1.
         11    1    5    5    0    0  0.16657039191E+03  0.27503398832E+03  0.33498555125E+03  0.46433254219E+03  0.00000000000E+00 0. -1.
        -11    1    5    5    0    0  0.72725385052E+02  0.68073390348E+02  0.50434205942E+02  0.11165382767E+03  0.00000000000E+00 0.  1.
          3    1    6    6  503    0  0.24107002885E+02  0.28252151004E+03 -0.40030445910E+03  0.49055398398E+03  0.00000000000E+00 0. -1.
         -3    1    6    6    0  503  0.38882744257E+02  0.34746999504E+02 -0.78587820395E+02  0.94314724671E+02  0.00000000000E+00 0.  1.
<mgrwt>
<rscale>  0 0.21284345E+04</rscale>
<asrwt>0</asrwt>
<pdfrwt beam="1">  1        2 0.22649336E+00 0.21284345E+04</pdfrwt>
<pdfrwt beam="2">  1       -1 0.11835276E+00 0.21284345E+04</pdfrwt>
<totfact> 0.88298783E+00</totfact>
</mgrwt>
</event>
<event>
12    6  0.1530859E-007  0.3352499E+04  0.7818608E-02  0.8149664E-01
         -1   -1    0    0    0  501 -0.00000000000E+00  0.00000000000E+00  0.12708198879E+04  0.12708198879E+04  0.00000000000E+00 0.  1.
          2   -1    0    0  501    0  0.00000000000E+00 -0.00000000000E+00 -0.22110228203E+04  0.22110228203E+04  0.00000000000E+00 0. -1.
         24    2    1    2    0    0  0.12599693056E+03 -0.12763319377E+04 -0.13486051185E+04  0.18628183188E+04  0.80360945852E+02 0.  0.
        254    2    1    2    0    0 -0.12599693056E+03  0.12763319377E+04  0.40840218615E+03  0.16190243894E+04  0.89974951297E+03 0.  0.
         23    2    4    4    0    0  0.36239385256E+03  0.49464745475E+03  0.36575966341E+02  0.62082870927E+03  0.89917051060E+02 0.  0.
         23    2    4    4    0    0 -0.48839078312E+03  0.78168448292E+03  0.37182621981E+03  0.99819568010E+03  0.92648206448E+02 0.  0.
          4    1    3    3  502    0  0.19768892289E+02 -0.40149360990E+03 -0.46897537006E+03  0.61767776843E+03  0.00000000000E+00 0. -1.
         -3    1    3    3    0  502  0.10622803827E+03 -0.87483832777E+03 -0.87962974843E+03  0.12451405504E+04  0.00000000000E+00 0.  1.
         11    1    5    5    0    0  0.80937796320E+02  0.56504829303E+02  0.12725038730E+02  0.99527128052E+02  0.00000000000E+00 0. -1.
        -11    1    5    5    0    0  0.28145605624E+03  0.43814262545E+03  0.23850927611E+02  0.52130158122E+03  0.00000000000E+00 0.  1.
          4    1    6    6  503    0 -0.14436927674E+03  0.31567183301E+03  0.13972864876E+03  0.37418616958E+03  0.00000000000E+00 0. -1.
         -4    1    6    6    0  503 -0.34402150639E+03  0.46601264991E+03  0.23209757105E+03  0.62400951052E+03  0.00000000000E+00 0.  1.
<mgrwt>
<rscale>  0 0.33524986E+04</rscale>
<asrwt>0</asrwt>
<pdfrwt beam="1">  1        2 0.34015735E+00 0.33524986E+04</pdfrwt>
<pdfrwt beam="2">  1       -1 0.19551075E+00 0.33524986E+04</pdfrwt>
<totfact> 0.77826089E-01</totfact>
</mgrwt>
</event>
<event>
12    6  0.1530859E-007  0.1556287E+04  0.7818608E-02  0.8847862E-01
         -3   -1    0    0    0  501 -0.00000000000E+00  0.00000000000E+00  0.13380596947E+04  0.13380596947E+04  0.00000000000E+00 0.  1.
          4   -1    0    0  501    0  0.00000000000E+00 -0.00000000000E+00 -0.45252639968E+03  0.45252639968E+03  0.00000000000E+00 0. -1.
         24    2    1    2    0    0 -0.44692188327E+03  0.15740783126E+03  0.55172000053E+03  0.73157287358E+03  0.79293853995E+02 0.  0.
        254    2    1    2    0    0  0.44692188327E+03 -0.15740783126E+03  0.33381329447E+03  0.10590132208E+04  0.88631895565E+03 0.  0.
         23    2    4    4    0    0  0.70136713845E+03 -0.40102498346E+02  0.21438490868E+03  0.74018254448E+03  0.91570938704E+02 0.  0.
         23    2    4    4    0    0 -0.25444525518E+03 -0.11730533291E+03  0.11942838579E+03  0.31883067630E+03  0.94270524600E+02 0.  0.
          2    1    3    3  502    0 -0.13755630317E+03  0.14857988782E+02  0.18569571440E+03  0.23157157580E+03  0.00000000000E+00 0. -1.
         -1    1    3    3    0  502 -0.30936558010E+03  0.14254984248E+03  0.36602428614E+03  0.50000129778E+03  0.00000000000E+00 0.  1.
         11    1    5    5    0    0  0.56308030211E+03  0.46720901956E+01  0.17092889689E+03  0.58847085132E+03  0.00000000000E+00 0.  1.
        -11    1    5    5    0    0  0.13828683633E+03 -0.44774588541E+02  0.43456011786E+02  0.15171169316E+03  0.00000000000E+00 0. -1.
          1    1    6    6  503    0 -0.20237718707E+02 -0.46321380182E+02  0.14770359554E+02  0.52663070949E+02  0.00000000000E+00 0. -1.
         -1    1    6    6    0  503 -0.23420753647E+03 -0.70983952729E+02  0.10465802623E+03  0.26616760535E+03  0.00000000000E+00 0.  1.
<mgrwt>
<rscale>  0 0.15562870E+04</rscale>
<asrwt>0</asrwt>
<pdfrwt beam="1">  1        4 0.69619447E-01 0.15562870E+04</pdfrwt>
<pdfrwt beam="2">  1       -3 0.20585534E+00 0.15562870E+04</pdfrwt>
<totfact> 0.56187714E-01</totfact>
</mgrwt>
</event>
<event>
12    6  0.1530859E-007  0.2649083E+04  0.7818608E-02  0.8351717E-01
          2   -1    0    0  501    0  0.00000000000E+00  0.00000000000E+00  0.12628233130E+04  0.12628233130E+04  0.00000000000E+00 0. -1.
         -1   -1    0    0    0  501 -0.00000000000E+00 -0.00000000000E+00 -0.13892759673E+04  0.13892759673E+04  0.00000000000E+00 0.  1.
         24    2    1    2    0    0  0.12654589893E+03  0.50471584148E+03  0.99386450536E+03  0.11243892603E+04  0.75713991323E+02 0.  0.
        254    2    1    2    0    0 -0.12654589893E+03 -0.50471584148E+03 -0.11203171597E+04  0.15277100199E+04  0.89890790494E+03 0.  0.
         23    2    4    4    0    0 -0.87925750576E+02 -0.39158733847E+02  0.13268835587E+03  0.18740601433E+03  0.90832099899E+02 0.  0.
         23    2    4    4    0    0 -0.38620148355E+02 -0.46555710764E+03 -0.12530055156E+04  0.13403040056E+04  0.90316494093E+02 0.  0.
          2    1    3    3  502    0  0.11545127114E+03  0.42516317722E+03  0.77820253752E+03  0.89425494837E+03  0.00000000000E+00 0. -1.
         -1    1    3    3    0  502  0.11094627793E+02  0.79552664261E+02  0.21566196784E+03  0.23013431193E+03  0.00000000000E+00 0.  1.
         11    1    5    5    0    0 -0.10104379525E+03 -0.14049479085E+02  0.89250988103E+02  0.13554694869E+03  0.00000000000E+00 0. -1.
        -11    1    5    5    0    0  0.13118044672E+02 -0.25109254762E+02  0.43437367769E+02  0.51859065644E+02  0.00000000000E+00 0.  1.
          2    1    6    6  503    0 -0.26299330321E+02 -0.43288302498E+02 -0.95190104251E+02  0.10782712022E+03  0.00000000000E+00 0.  1.
         -2    1    6    6    0  503 -0.12320818034E+02 -0.42226880514E+03 -0.11578154113E+04  0.12324768854E+04  0.00000000000E+00 0. -1.
<mgrwt>
<rscale>  0 0.26490829E+04</rscale>
<asrwt>0</asrwt>
<pdfrwt beam="1">  1        2 0.19428051E+00 0.26490829E+04</pdfrwt>
<pdfrwt beam="2">  1       -1 0.21373476E+00 0.26490829E+04</pdfrwt>
<totfact> 0.21161065E+00</totfact>
</mgrwt>
</event>
<event>
12    6  0.1530859E-007  0.2810024E+04  0.7818608E-02  0.8300163E-01
         -1   -1    0    0    0  501 -0.00000000000E+00  0.00000000000E+00  0.17570836530E+04  0.17570836530E+04  0.00000000000E+00 0.  1.
          2   -1    0    0  501    0  0.00000000000E+00 -0.00000000000E+00 -0.11234859752E+04  0.11234859752E+04  0.00000000000E+00 0. -1.
         24    2    1    2    0    0  0.51004628205E+02  0.12589861130E+04  0.21294140706E+03  0.12803431236E+04  0.79290393133E+02 0.  0.
        254    2    1    2    0    0 -0.51004628205E+02 -0.12589861130E+04  0.42065627076E+03  0.16002265046E+04  0.89225874227E+03 0.  0.
         23    2    4    4    0    0 -0.43014144180E+03 -0.48713536445E+03  0.31965784509E+03  0.72960230186E+03  0.88407339685E+02 0.  0.
         23    2    4    4    0    0  0.37913681359E+03 -0.77185074856E+03  0.10099842566E+03  0.87062420276E+03  0.91035811546E+02 0.  0.
          2    1    3    3  502    0  0.15406070783E+02  0.10563071139E+04  0.16770371426E+03  0.10696478868E+04  0.00000000000E+00 0. -1.
         -1    1    3    3    0  502  0.35598557422E+02  0.20267899910E+03  0.45237692798E+02  0.21069523681E+03  0.00000000000E+00 0.  1.
         11    1    5    5    0    0 -0.23032596778E+03 -0.29642412566E+03  0.14289893330E+03  0.40166829455E+03  0.00000000000E+00 0. -1.
        -11    1    5    5    0    0 -0.19981547402E+03 -0.19071123879E+03  0.17675891179E+03  0.32793400732E+03  0.00000000000E+00 0.  1.
          2    1    6    6  503    0  0.29022788426E+03 -0.51710084646E+03  0.42249651024E+02  0.59448342552E+03  0.00000000000E+00 0. -1.
         -2    1    6    6    0  503  0.88908929336E+02 -0.25474990210E+03  0.58748774640E+02  0.27614077724E+03  0.00000000000E+00 0.  1.
<mgrwt>
<rscale>  0 0.28100241E+04</rscale>
<asrwt>0</asrwt>
<pdfrwt beam="1">  1        2 0.17284400E+00 0.28100241E+04</pdfrwt>
<pdfrwt beam="2">  1       -1 0.27032056E+00 0.28100241E+04</pdfrwt>
<totfact> 0.10735659E+00</totfact>
</mgrwt>
</event>
<event>
12    6  0.1530859E-007  0.1284405E+04  0.7818608E-02  0.9042024E-01
          2   -1    0    0  501    0  0.00000000000E+00  0.00000000000E+00  0.12516046710E+04  0.12516046710E+04  0.00000000000E+00 0. -1.
         -1   -1    0    0    0  501 -0.00000000000E+00 -0.00000000000E+00 -0.32951619329E+03  0.32951619329E+03  0.00000000000E+00 0.  1.
         24    2    1    2    0    0  0.35110716378E+02  0.13774633979E+03  0.58727756233E+03  0.60901753792E+03  0.76161734119E+02 0.  0.
        254    2    1    2    0    0 -0.35110716378E+02 -0.13774633979E+03  0.33481091541E+03  0.97210332640E+03  0.90148749941E+03 0.  0.
         23    2    4    4    0    0 -0.42993838444E+03 -0.48740228042E+02  0.21788389511E+01  0.44220643685E+03  0.91209435920E+02 0.  0.
         23    2    4    4    0    0  0.39482766807E+03 -0.89006111750E+02  0.33263207646E+03  0.52989688956E+03  0.79596732823E+02 0.  0.
          2    1    3    3  502    0  0.21906323382E+02  0.13940730392E+03  0.56999846607E+03  0.58720740349E+03  0.00000000000E+00 0. -1.
         -1    1    3    3    0  502  0.13204392996E+02 -0.16609641279E+01  0.17279096263E+02  0.21810134431E+02  0.00000000000E+00 0.  1.
         11    1    5    5    0    0 -0.15786283338E+03  0.10943331101E+02 -0.32396559592E+02  0.16152389214E+03  0.00000000000E+00 0. -1.
        -11    1    5    5    0    0 -0.27207555106E+03 -0.59683559143E+02  0.34575398543E+02  0.28068254471E+03  0.00000000000E+00 0.  1.
          1    1    6    6  503    0  0.13579367636E+03 -0.68925717458E+02  0.11184908028E+03  0.18894680158E+03  0.00000000000E+00 0. -1.
         -1    1    6    6    0  503  0.25903399170E+03 -0.20080394292E+02  0.22078299618E+03  0.34095008798E+03  0.00000000000E+00 0.  1.
<mgrwt>
<rscale>  0 0.12844049E+04</rscale>
<asrwt>0</asrwt>
<pdfrwt beam="1">  1        2 0.19255456E+00 0.12844049E+04</pdfrwt>
<pdfrwt beam="2">  1       -1 0.50694800E-01 0.12844049E+04</pdfrwt>
<totfact> 0.77160746E+01</totfact>
</mgrwt>
</event>
<event>
12    6  0.1530859E-007  0.2024007E+04  0.7818608E-02  0.8595478E-01
          2   -1    0    0  501    0  0.00000000000E+00  0.00000000000E+00  0.30658421052E+04  0.30658421052E+04  0.00000000000E+00 0. -1.
         -3   -1    0    0    0  501 -0.00000000000E+00 -0.00000000000E+00 -0.33405211143E+03  0.33405211143E+03  0.00000000000E+00 0.  1.
         24    2    1    2    0    0 -0.48517195507E+03  0.18639434792E+03  0.49072261683E+02  0.52827423305E+03  0.80813980921E+02 0.  0.
        254    2    1    2    0    0  0.48517195507E+03 -0.18639434792E+03  0.26827177321E+04  0.28716199836E+04  0.88266200843E+03 0.  0.
         23    2    4    4    0    0  0.73012037137E+03 -0.12086607365E+03  0.17960493695E+04  0.19446530618E+04  0.90541860209E+02 0.  0.
         23    2    4    4    0    0 -0.24494841630E+03 -0.65528274266E+02  0.88666836259E+03  0.92696692183E+03  0.93772104464E+02 0.  0.
          2    1    3    3  502    0  0.12699842142E+01  0.42431465946E+01  0.54435410280E+01  0.70177839701E+01  0.00000000000E+00 0. -1.
         -3    1    3    3    0  502 -0.48644193929E+03  0.18215120132E+03  0.43628720655E+02  0.52125644908E+03  0.00000000000E+00 0.  1.
         11    1    5    5    0    0  0.68102396750E+03 -0.13348485972E+03  0.16960638437E+04  0.18325513401E+04  0.00000000000E+00 0.  1.
        -11    1    5    5    0    0  0.49096403870E+02  0.12618786064E+02  0.99985525796E+02  0.11210172168E+03  0.00000000000E+00 0. -1.
          4    1    6    6  503    0 -0.13301832290E+03  0.70844727411E+01  0.36637796876E+03  0.38984212185E+03  0.00000000000E+00 0. -1.
         -4    1    6    6    0  503 -0.11193009340E+03 -0.72612747008E+02  0.52029039383E+03  0.53712479998E+03  0.00000000000E+00 0.  1.
<mgrwt>
<rscale>  0 0.20240069E+04</rscale>
<asrwt>0</asrwt>
<pdfrwt beam="1">  1        2 0.47166800E+00 0.20240069E+04</pdfrwt>
<pdfrwt beam="2">  1       -3 0.51392635E-01 0.20240069E+04</pdfrwt>
<totfact> 0.35592075E+00</totfact>
</mgrwt>
</event>
<event>
12    6  0.1530859E-007  0.1888920E+04  0.7818608E-02  0.8660391E-01
          2   -1    0    0  501    0  0.00000000000E+00  0.00000000000E+00  0.93868390754E+03  0.93868390754E+03  0.00000000000E+00 0. -1.
         -1   -1    0    0    0  501 -0.00000000000E+00 -0.00000000000E+00 -0.95027137095E+03  0.95027137095E+03  0.00000000000E+00 0.  1.
         24    2    1    2    0    0 -0.34219241441E+03  0.53533737631E+03 -0.36821831895E+03  0.73858737214E+03  0.79024179303E+02 0.  0.
        254    2    1    2    0    0  0.34219241441E+03 -0.53533737631E+03  0.35663085555E+03  0.11503679063E+04  0.89021289469E+03 0.  0.
         23    2    4    4    0    0 -0.10886431566E+03  0.12726215451E+03  0.28108650515E+03  0.33999486027E+03  0.92410964927E+02 0.  0.
         23    2    4    4    0    0  0.45105673007E+03 -0.66259953083E+03  0.75544350406E+02  0.81037304608E+03  0.92234553939E+02 0.  0.
          4    1    3    3  502    0 -0.67442329508E+02  0.15159529310E+03 -0.68517154635E+02  0.17951100573E+03  0.00000000000E+00 0. -1.
         -3    1    3    3    0  502 -0.27475008490E+03  0.38374208321E+03 -0.29970116432E+03  0.55907636641E+03  0.00000000000E+00 0.  1.
         11    1    5    5    0    0  0.12067348235E+02  0.18198056091E+02  0.70401734659E+02  0.73710205413E+02  0.00000000000E+00 0.  1.
        -11    1    5    5    0    0 -0.12093166390E+03  0.10906409842E+03  0.21068477049E+03  0.26628465486E+03  0.00000000000E+00 0. -1.
          2    1    6    6  503    0  0.21953238665E+03 -0.32389058172E+03 -0.94107534008E+01  0.39139256508E+03  0.00000000000E+00 0. -1.
         -2    1    6    6    0  503  0.23152434342E+03 -0.33870894910E+03  0.84955103807E+02  0.41898048100E+03  0.00000000000E+00 0.  1.
<mgrwt>
<rscale>  0 0.18889197E+04</rscale>
<asrwt>0</asrwt>
<pdfrwt beam="1">  1        2 0.14441291E+00 0.18889197E+04</pdfrwt>
<pdfrwt beam="2">  1       -1 0.14619560E+00 0.18889197E+04</pdfrwt>
<totfact> 0.11044232E+01</totfact>
</mgrwt>
</event>
<event>
12    6  0.1530859E-007  0.2350292E+04  0.7818608E-02  0.8458352E-01
         -1   -1    0    0    0  501 -0.00000000000E+00  0.00000000000E+00  0.57585214186E+03  0.57585214186E+03  0.00000000000E+00 0.  1.
          2   -1    0    0  501    0  0.00000000000E+00 -0.00000000000E+00 -0.23981292517E+04  0.23981292517E+04  0.00000000000E+00 0. -1.
         24    2    1    2    0    0 -0.81942640716E+03  0.37131474309E+02 -0.55325271906E+02  0.82620200512E+03  0.81917546473E+02 0.  0.
        254    2    1    2    0    0  0.81942640716E+03 -0.37131474309E+02 -0.17669518379E+04  0.21477793884E+04  0.90443303826E+03 0.  0.
         23    2    4    4    0    0  0.46845791822E+03  0.10446789052E+03 -0.19058280639E+03  0.52467870752E+03  0.92733913648E+02 0.  0.
         23    2    4    4    0    0  0.35096848894E+03 -0.14159936483E+03 -0.15763690315E+04  0.16231006809E+04  0.79292095752E+02 0.  0.
          4    1    3    3  502    0 -0.14546631504E+03 -0.14016025652E+02 -0.33610233853E+02  0.14995514531E+03  0.00000000000E+00 0. -1.
         -3    1    3    3    0  502 -0.67396009212E+03  0.51147499960E+02 -0.21715038053E+02  0.67624685981E+03  0.00000000000E+00 0.  1.
         11    1    5    5    0    0  0.38713225663E+03  0.11798595370E+03 -0.14151914982E+03  0.42874204268E+03  0.00000000000E+00 0. -1.
        -11    1    5    5    0    0  0.81325661591E+02 -0.13518063178E+02 -0.49063656569E+02  0.95936664843E+02  0.00000000000E+00 0.  1.
          3    1    6    6  503    0  0.31836452850E+03 -0.10011659340E+03 -0.13438239190E+04  0.13846450919E+04  0.00000000000E+00 0. -1.
         -3    1    6    6    0  503  0.32603960440E+02 -0.41482771426E+02 -0.23254511252E+03  0.23845558898E+03  0.00000000000E+00 0.  1.
<mgrwt>
<rscale>  0 0.23502918E+04</rscale>
<asrwt>0</asrwt>
<pdfrwt beam="1">  1        2 0.36894296E+00 0.23502918E+04</pdfrwt>
<pdfrwt beam="2">  1       -1 0.88592637E-01 0.23502918E+04</pdfrwt>
<totfact> 0.51194438E+00</totfact>
</mgrwt>
</event>
<event>
12    6  0.1530859E-007  0.1641032E+04  0.7818608E-02  0.8795730E-01
         -1   -1    0    0    0  501 -0.00000000000E+00  0.00000000000E+00  0.32475040344E+03  0.32475040344E+03  0.00000000000E+00 0.  1.
          2   -1    0    0  501    0  0.00000000000E+00 -0.00000000000E+00 -0.20731198146E+04  0.20731198146E+04  0.00000000000E+00 0. -1.
         24    2    1    2    0    0  0.10188318318E+03  0.34154402518E+03  0.36471762922E+02  0.36542780562E+03  0.71935995691E+02 0.  0.
        254    2    1    2    0    0 -0.10188318318E+03 -0.34154402518E+03 -0.17848411741E+04  0.20324424124E+04  0.90450629569E+03 0.  0.
         23    2    4    4    0    0 -0.49241264624E+03 -0.25362269808E+03 -0.10057979122E+04  0.11518991301E+04  0.91910165770E+02 0.  0.
         23    2    4    4    0    0  0.39052946306E+03 -0.87921327100E+02 -0.77904326190E+03  0.88054328234E+03  0.90579505890E+02 0.  0.
          4    1    3    3  502    0  0.31835654840E+02  0.46284731284E+02 -0.13776782538E+02  0.57841032203E+02  0.00000000000E+00 0. -1.
         -3    1    3    3    0  502  0.70047528342E+02  0.29525929390E+03  0.50248545461E+02  0.30758677342E+03  0.00000000000E+00 0.  1.
         11    1    5    5    0    0 -0.46054820992E+03 -0.24004602067E+03 -0.97854954460E+03  0.11078293898E+04  0.00000000000E+00 0.  1.
        -11    1    5    5    0    0 -0.31864436316E+02 -0.13576677415E+02 -0.27248367591E+02  0.44069740273E+02  0.00000000000E+00 0. -1.
          2    1    6    6  503    0  0.40350783494E+02 -0.80993372780E+01 -0.15653413531E+03  0.16185400987E+03  0.00000000000E+00 0. -1.
         -2    1    6    6    0  503  0.35017867956E+03 -0.79821989822E+02 -0.62250912660E+03  0.71868927248E+03  0.00000000000E+00 0.  1.
<mgrwt>
<rscale>  0 0.16410320E+04</rscale>
<asrwt>0</asrwt>
<pdfrwt beam="1">  1        2 0.31894152E+00 0.16410320E+04</pdfrwt>
<pdfrwt beam="2">  1       -1 0.49961598E-01 0.16410320E+04</pdfrwt>
<totfact> 0.26629409E+01</totfact>
</mgrwt>
</event>
<event>
12    6  0.1530859E-007  0.2189184E+04  0.7818608E-02  0.8522943E-01
         -1   -1    0    0    0  501 -0.00000000000E+00  0.00000000000E+00  0.74179317147E+03  0.74179317147E+03  0.00000000000E+00 0.  1.
          2   -1    0    0  501    0  0.00000000000E+00 -0.00000000000E+00 -0.16151829921E+04  0.16151829921E+04  0.00000000000E+00 0. -1.
         24    2    1    2    0    0 -0.20724497808E+03 -0.22683849127E+03  0.55799081621E+03  0.64143378795E+03  0.75348332941E+02 0.  0.
        254    2    1    2    0    0  0.20724497808E+03  0.22683849127E+03 -0.14313806369E+04  0.17155423756E+04  0.89433155653E+03 0.  0.
         23    2    4    4    0    0 -0.75579724082E+02  0.33481716391E+03 -0.13440373751E+04  0.13901069456E+04  0.90255341133E+02 0.  0.
         23    2    4    4    0    0  0.28282470216E+03 -0.10797867264E+03 -0.87343261798E+02  0.32543543008E+03  0.81425842774E+02 0.  0.
          2    1    3    3  502    0 -0.10536500979E+03 -0.63076254859E+02  0.23799754483E+03  0.26781193132E+03  0.00000000000E+00 0. -1.
         -1    1    3    3    0  502 -0.10187996829E+03 -0.16376223641E+03  0.31999327139E+03  0.37362185662E+03  0.00000000000E+00 0.  1.
         11    1    5    5    0    0 -0.10685729187E+02 -0.57767616668E+00 -0.19699633647E+02  0.22418610212E+02  0.00000000000E+00 0.  1.
        -11    1    5    5    0    0 -0.64893994894E+02  0.33539484008E+03 -0.13243377414E+04  0.13676883354E+04  0.00000000000E+00 0. -1.
          4    1    6    6  503    0  0.24728113349E+03 -0.86945377922E+02 -0.44400404019E+02  0.26585494842E+03  0.00000000000E+00 0. -1.
         -4    1    6    6    0  503  0.35543568673E+02 -0.21033294721E+02 -0.42942857779E+02  0.59580481662E+02  0.00000000000E+00 0.  1.
<mgrwt>
<rscale>  0 0.21891841E+04</rscale>
<asrwt>0</asrwt>
<pdfrwt beam="1">  1        2 0.24848969E+00 0.21891841E+04</pdfrwt>
<pdfrwt beam="2">  1       -1 0.11412203E+00 0.21891841E+04</pdfrwt>
<totfact> 0.79667043E+00</totfact>
</mgrwt>
</event>
<event>
12    6  0.1530859E-007  0.2123892E+04  0.7818608E-02  0.8550791E-01
          2   -1    0    0  501    0  0.00000000000E+00  0.00000000000E+00  0.34448819493E+04  0.34448819493E+04  0.00000000000E+00 0. -1.
         -1   -1    0    0    0  501 -0.00000000000E+00 -0.00000000000E+00 -0.32736380109E+03  0.32736380109E+03  0.00000000000E+00 0.  1.
         24    2    1    2    0    0  0.27280438089E+03 -0.15021577392E+03  0.27227234516E+04  0.27416412277E+04  0.79916321185E+02 0.  0.
        254    2    1    2    0    0 -0.27280438089E+03  0.15021577392E+03  0.39479469659E+03  0.10306045227E+04  0.89960870428E+03 0.  0.
         23    2    4    4    0    0 -0.48216756818E+03  0.72753801147E+02 -0.73702671254E+02  0.50166660092E+03  0.91970730915E+02 0.  0.
         23    2    4    4    0    0  0.20936318729E+03  0.77461972773E+02  0.46849736785E+03  0.52893792179E+03  0.10223619715E+03 0.  0.
          2    1    3    3  502    0  0.12629561495E+03 -0.50579521575E+02  0.14984717240E+04  0.15046349651E+04  0.00000000000E+00 0. -1.
         -1    1    3    3    0  502  0.14650876594E+03 -0.99636252344E+02  0.12242517276E+04  0.12370062626E+04  0.00000000000E+00 0.  1.
         11    1    5    5    0    0 -0.16208738715E+03 -0.13948935167E+02 -0.45088867729E+02  0.16881913357E+03  0.00000000000E+00 0.  1.
        -11    1    5    5    0    0 -0.32008018103E+03  0.86702736313E+02 -0.28613803526E+02  0.33284746736E+03  0.00000000000E+00 0. -1.
          3    1    6    6  503    0  0.72466391886E+02  0.80385502539E+02  0.22143086039E+03  0.24646466868E+03  0.00000000000E+00 0.  1.
         -3    1    6    6    0  503  0.13689679541E+03 -0.29235297657E+01  0.24706650745E+03  0.28247325311E+03  0.00000000000E+00 0. -1.
<mgrwt>
<rscale>  0 0.21238923E+04</rscale>
<asrwt>0</asrwt>
<pdfrwt beam="1">  1        2 0.52998181E+00 0.21238923E+04</pdfrwt>
<pdfrwt beam="2">  1       -1 0.50363664E-01 0.21238923E+04</pdfrwt>
<totfact> 0.36940660E+00</totfact>
</mgrwt>
</event>
<event>
12    6  0.1530859E-007  0.1575077E+04  0.7818608E-02  0.8836007E-01
          2   -1    0    0  501    0  0.00000000000E+00  0.00000000000E+00  0.37815493284E+04  0.37815493284E+04  0.00000000000E+00 0. -1.
         -1   -1    0    0    0  501 -0.00000000000E+00 -0.00000000000E+00 -0.16401139056E+03  0.16401139056E+03  0.00000000000E+00 0.  1.
         24    2    1    2    0    0 -0.26669943130E+03  0.16778264341E+03  0.23008937903E+04  0.23237226544E+04  0.79341906529E+02 0.  0.
        254    2    1    2    0    0  0.26669943130E+03 -0.16778264341E+03  0.13166441476E+04  0.16218380646E+04  0.89304383678E+03 0.  0.
         23    2    4    4    0    0 -0.53411307566E+02 -0.42473695299E+03  0.32420778000E+03  0.54447466492E+03  0.89931802556E+02 0.  0.
         23    2    4    4    0    0  0.32011073887E+03  0.25695430958E+03  0.99243636759E+03  0.10773633997E+04  0.85355427339E+02 0.  0.
          2    1    3    3  502    0 -0.14794650756E+03  0.46541123387E+02  0.11299297436E+04  0.11405242087E+04  0.00000000000E+00 0. -1.
         -1    1    3    3    0  502 -0.11875292374E+03  0.12124152002E+03  0.11709640467E+04  0.11831984456E+04  0.00000000000E+00 0.  1.
         11    1    5    5    0    0 -0.34468036102E+02 -0.41442551663E+03  0.30784246215E+03  0.51740074976E+03  0.00000000000E+00 0. -1.
        -11    1    5    5    0    0 -0.18943271464E+02 -0.10311436356E+02  0.16365317852E+02  0.27073915156E+02  0.00000000000E+00 0.  1.
          3    1    6    6  503    0  0.32562409148E+03  0.25379699783E+03  0.97499254491E+03  0.10587985775E+04  0.00000000000E+00 0. -1.
         -3    1    6    6    0  503 -0.55133526147E+01  0.31573117480E+01  0.17443822684E+02  0.18564822228E+02  0.00000000000E+00 0.  1.
<mgrwt>
<rscale>  0 0.15750773E+04</rscale>
<asrwt>0</asrwt>
<pdfrwt beam="1">  1        2 0.58177676E+00 0.15750773E+04</pdfrwt>
<pdfrwt beam="2">  1       -1 0.25232524E-01 0.15750773E+04</pdfrwt>
<totfact> 0.77802393E+00</totfact>
</mgrwt>
</event>
<event>
12    6  0.1530859E-007  0.1667422E+04  0.7818608E-02  0.8780166E-01
          2   -1    0    0  501    0  0.00000000000E+00  0.00000000000E+00  0.13327368559E+04  0.13327368559E+04  0.00000000000E+00 0. -1.
         -1   -1    0    0    0  501 -0.00000000000E+00 -0.00000000000E+00 -0.52153880994E+03  0.52153880994E+03  0.00000000000E+00 0.  1.
         24    2    1    2    0    0  0.34868517474E+03  0.26174303438E+03  0.80813242407E+03  0.92169616109E+03  0.79718450833E+02 0.  0.
        254    2    1    2    0    0 -0.34868517474E+03 -0.26174303438E+03  0.30656218777E+01  0.93257950473E+03  0.82438120277E+03 0.  0.
         23    2    4    4    0    0 -0.45727783572E+03 -0.48040095493E+03 -0.25916430651E+02  0.67034864031E+03  0.93848503768E+02 0.  0.
         23    2    4    4    0    0  0.10859266098E+03  0.21865792055E+03  0.28982052529E+02  0.26223086442E+03  0.91221788241E+02 0.  0.
          2    1    3    3  502    0  0.29072004823E+03  0.17785013000E+03  0.63898466627E+03  0.72418935294E+03  0.00000000000E+00 0. -1.
         -1    1    3    3    0  502  0.57965126505E+02  0.83892904374E+02  0.16914775780E+03  0.19750680815E+03  0.00000000000E+00 0.  1.
         11    1    5    5    0    0 -0.31991073031E+03 -0.33020803223E+03 -0.61063843959E+02  0.46379846157E+03  0.00000000000E+00 0.  1.
        -11    1    5    5    0    0 -0.13736710540E+03 -0.15019292270E+03  0.35147413308E+02  0.20655017874E+03  0.00000000000E+00 0. -1.
          1    1    6    6  503    0  0.32453921698E+02  0.30715105222E+02  0.38849622410E+02  0.59211214173E+02  0.00000000000E+00 0. -1.
         -1    1    6    6    0  503  0.76138739279E+02  0.18794281533E+03 -0.98675698815E+01  0.20301965025E+03  0.00000000000E+00 0.  1.
<mgrwt>
<rscale>  0 0.16674220E+04</rscale>
<asrwt>0</asrwt>
<pdfrwt beam="1">  1        2 0.20503644E+00 0.16674220E+04</pdfrwt>
<pdfrwt beam="2">  1       -1 0.80236740E-01 0.16674220E+04</pdfrwt>
<totfact> 0.26671152E+01</totfact>
</mgrwt>
</event>
<event>
12    6  0.1530859E-007  0.1824497E+04  0.7818608E-02  0.8693380E-01
          2   -1    0    0  501    0  0.00000000000E+00  0.00000000000E+00  0.15968784125E+04  0.15968784125E+04  0.00000000000E+00 0. -1.
         -1   -1    0    0    0  501 -0.00000000000E+00 -0.00000000000E+00 -0.52114020703E+03  0.52114020703E+03  0.00000000000E+00 0.  1.
         24    2    1    2    0    0 -0.43694315088E+03  0.51527064992E+03  0.27521091430E+03  0.73387674473E+03  0.80067904514E+02 0.  0.
        254    2    1    2    0    0  0.43694315088E+03 -0.51527064992E+03  0.80052729116E+03  0.13841418748E+04  0.90475500877E+03 0.  0.
         23    2    4    4    0    0  0.68744238097E+03 -0.35674256793E+03  0.72580956277E+03  0.10651031417E+04  0.88333991636E+02 0.  0.
         23    2    4    4    0    0 -0.25049923009E+03 -0.15852808198E+03  0.74717728391E+02  0.31903873311E+03  0.91224762206E+02 0.  0.
          2    1    3    3  502    0 -0.31805607628E+01  0.14820558409E+02  0.17703776063E+02  0.23306406956E+02  0.00000000000E+00 0. -1.
         -1    1    3    3    0  502 -0.43376259012E+03  0.50045009151E+03  0.25750713824E+03  0.71057033777E+03  0.00000000000E+00 0.  1.
         11    1    5    5    0    0  0.60760851582E+03 -0.28341065219E+03  0.63951859245E+03  0.92654937071E+03  0.00000000000E+00 0. -1.
        -11    1    5    5    0    0  0.79833865143E+02 -0.73331915742E+02  0.86290970317E+02  0.13855377096E+03  0.00000000000E+00 0.  1.
          3    1    6    6  503    0 -0.19406172641E+03 -0.12154921858E+03  0.15914184454E+02  0.22953742061E+03  0.00000000000E+00 0. -1.
         -3    1    6    6    0  503 -0.56437503675E+02 -0.36978863406E+02  0.58803543937E+02  0.89501312501E+02  0.00000000000E+00 0.  1.
<mgrwt>
<rscale>  0 0.18244972E+04</rscale>
<asrwt>0</asrwt>
<pdfrwt beam="1">  1        2 0.24567360E+00 0.18244972E+04</pdfrwt>
<pdfrwt beam="2">  1       -1 0.80175417E-01 0.18244972E+04</pdfrwt>
<totfact> 0.18660682E+01</totfact>
</mgrwt>
</event>
<event>
12    6  0.1530859E-007  0.1708725E+04  0.7818608E-02  0.8756404E-01
         -1   -1    0    0    0  501 -0.00000000000E+00  0.00000000000E+00  0.12367808792E+04  0.12367808792E+04  0.00000000000E+00 0.  1.
          2   -1    0    0  501    0  0.00000000000E+00 -0.00000000000E+00 -0.59018994867E+03  0.59018994867E+03  0.00000000000E+00 0. -1.
         24    2    1    2    0    0  0.18149922482E+03 -0.43583661438E+03  0.65606866745E+03  0.81219111458E+03  0.79578810976E+02 0.  0.
        254    2    1    2    0    0 -0.18149922482E+03  0.43583661438E+03 -0.94777369610E+01  0.10147797132E+04  0.89821629683E+03 0.  0.
         23    2    4    4    0    0  0.30607364259E+03  0.40124781016E+03  0.36751158821E+02  0.51416904558E+03  0.91314182412E+02 0.  0.
         23    2    4    4    0    0 -0.48757286741E+03  0.34588804211E+02 -0.46228895782E+02  0.50061066767E+03  0.97725346609E+02 0.  0.
          2    1    3    3  502    0  0.22388598070E+01 -0.45174410372E+02  0.36479613528E+02  0.58107676334E+02  0.00000000000E+00 0. -1.
         -1    1    3    3    0  502  0.17926036502E+03 -0.39066220400E+03  0.61958905392E+03  0.75408343825E+03  0.00000000000E+00 0.  1.
         11    1    5    5    0    0  0.43622259246E+02  0.62121783404E+02  0.39004011729E+02  0.85342430279E+02  0.00000000000E+00 0.  1.
        -11    1    5    5    0    0  0.26245138334E+03  0.33912602676E+03 -0.22528529081E+01  0.42882661530E+03  0.00000000000E+00 0. -1.
          1    1    6    6  503    0 -0.27590970911E+03  0.47495259497E+02 -0.65977067402E+02  0.28763682080E+03  0.00000000000E+00 0. -1.
         -1    1    6    6    0  503 -0.21166315830E+03 -0.12906455287E+02  0.19748171620E+02  0.21297384687E+03  0.00000000000E+00 0.  1.
<mgrwt>
<rscale>  0 0.17087254E+04</rscale>
<asrwt>0</asrwt>
<pdfrwt beam="1">  1        2 0.90798454E-01 0.17087254E+04</pdfrwt>
<pdfrwt beam="2">  1       -1 0.19027398E+00 0.17087254E+04</pdfrwt>
<totfact> 0.96676804E+00</totfact>
</mgrwt>
</event>
<event>
12    6  0.1530859E-007  0.1761508E+04  0.7818608E-02  0.8727041E-01
         -1   -1    0    0    0  501 -0.00000000000E+00  0.00000000000E+00  0.46982398926E+03  0.46982398926E+03  0.00000000000E+00 0.  1.
          2   -1    0    0  501    0  0.00000000000E+00 -0.00000000000E+00 -0.16511029320E+04  0.16511029320E+04  0.00000000000E+00 0. -1.
         24    2    1    2    0    0  0.53249973799E+03  0.35137156379E+03 -0.58875570637E+03  0.87181602602E+03  0.80074681763E+02 0.  0.
        254    2    1    2    0    0 -0.53249973799E+03 -0.35137156379E+03 -0.59252323638E+03  0.12491108953E+04  0.89564295129E+03 0.  0.
         23    2    4    4    0    0 -0.46423363684E+03  0.10173280892E+03  0.13275237941E+02  0.48422151078E+03  0.91824863595E+02 0.  0.
         23    2    4    4    0    0 -0.68266101144E+02 -0.45310437271E+03 -0.60579847432E+03  0.76488938447E+03  0.90000810274E+02 0.  0.
          4    1    3    3  502    0  0.91764273601E+02  0.88294810057E+02 -0.88490160460E+02  0.15507147994E+03  0.00000000000E+00 0. -1.
         -3    1    3    3    0  502  0.44073546439E+03  0.26307675373E+03 -0.50026554591E+03  0.71674454609E+03  0.00000000000E+00 0.  1.
         11    1    5    5    0    0 -0.27903053570E+03  0.58578999141E+02 -0.37051214200E+02  0.28751057627E+03  0.00000000000E+00 0.  1.
        -11    1    5    5    0    0 -0.18520310114E+03  0.43153809782E+02  0.50326452141E+02  0.19671093451E+03  0.00000000000E+00 0. -1.
          1    1    6    6  503    0 -0.82936978060E+02 -0.32824637060E+03 -0.47667735268E+03  0.58467556876E+03  0.00000000000E+00 0. -1.
         -1    1    6    6    0  503  0.14670876916E+02 -0.12485800211E+03 -0.12912112164E+03  0.18021381571E+03  0.00000000000E+00 0.  1.
<mgrwt>
<rscale>  0 0.17615082E+04</rscale>
<asrwt>0</asrwt>
<pdfrwt beam="1">  1        2 0.25401584E+00 0.17615082E+04</pdfrwt>
<pdfrwt beam="2">  1       -1 0.72280613E-01 0.17615082E+04</pdfrwt>
<totfact> 0.21751096E+01</totfact>
</mgrwt>
</event>
<event>
12    6  0.1530859E-007  0.2412628E+04  0.7818608E-02  0.8434791E-01
          2   -1    0    0  501    0  0.00000000000E+00  0.00000000000E+00  0.16300372373E+04  0.16300372373E+04  0.00000000000E+00 0. -1.
         -1   -1    0    0    0  501 -0.00000000000E+00 -0.00000000000E+00 -0.89273667813E+03  0.89273667813E+03  0.00000000000E+00 0.  1.
         24    2    1    2    0    0 -0.31360514051E+02  0.38629747178E+03  0.13249949769E+04  0.13822166887E+04  0.68571620532E+02 0.  0.
        254    2    1    2    0    0  0.31360514051E+02 -0.38629747178E+03 -0.58769441773E+03  0.11405572267E+04  0.89737218604E+03 0.  0.
         23    2    4    4    0    0 -0.32387325117E+03 -0.43815214100E+03 -0.16139932942E+03  0.57530870715E+03  0.89772955248E+02 0.  0.
         23    2    4    4    0    0  0.35523376523E+03  0.51854669220E+02 -0.42629508831E+03  0.56524851959E+03  0.94331606040E+02 0.  0.
          4    1    3    3  502    0 -0.12038126660E+02  0.28604822088E+03  0.10673431038E+04  0.11050745687E+04  0.00000000000E+00 0. -1.
         -3    1    3    3    0  502 -0.19322387392E+02  0.10024925090E+03  0.25765187311E+03  0.27714212000E+03  0.00000000000E+00 0.  1.
         11    1    5    5    0    0 -0.32917980086E+03 -0.42498969090E+03 -0.16082063206E+03  0.56110502970E+03  0.00000000000E+00 0. -1.
        -11    1    5    5    0    0  0.53065496854E+01 -0.13162450105E+02 -0.57869735798E+00  0.14203677445E+02  0.00000000000E+00 0.  1.
          2    1    6    6  503    0  0.29233912516E+03  0.11135074333E+02 -0.36915073385E+03  0.47101849039E+03  0.00000000000E+00 0. -1.
         -2    1    6    6    0  503  0.62894640062E+02  0.40719594887E+02 -0.57144354460E+02  0.94230029199E+02  0.00000000000E+00 0.  1.
<mgrwt>
<rscale>  0 0.24126285E+04</rscale>
<asrwt>0</asrwt>
<pdfrwt beam="1">  1        2 0.25077496E+00 0.24126285E+04</pdfrwt>
<pdfrwt beam="2">  1       -1 0.13734410E+00 0.24126285E+04</pdfrwt>
<totfact> 0.48359912E+00</totfact>
</mgrwt>
</event>
<event>
12    6  0.1530859E-007  0.1415243E+04  0.7818608E-02  0.8942858E-01
          2   -1    0    0  501    0  0.00000000000E+00  0.00000000000E+00  0.83472788456E+03  0.83472788456E+03  0.00000000000E+00 0. -1.
         -1   -1    0    0    0  501 -0.00000000000E+00 -0.00000000000E+00 -0.59986965788E+03  0.59986965788E+03  0.00000000000E+00 0.  1.
         24    2    1    2    0    0 -0.59258411129E+02  0.32441899791E+03 -0.19159835969E+03  0.38974449449E+03  0.80197219744E+02 0.  0.
        254    2    1    2    0    0  0.59258411129E+02 -0.32441899791E+03  0.42645658637E+03  0.10448530480E+04  0.89503822616E+03 0.  0.
         23    2    4    4    0    0 -0.16262071421E+03  0.24485226807E+03  0.26842039315E+03  0.40728977214E+03  0.86239904679E+02 0.  0.
         23    2    4    4    0    0  0.22187912534E+03 -0.56927126597E+03  0.15803619322E+03  0.63756327582E+03  0.90616619825E+02 0.  0.
          4    1    3    3  502    0 -0.25841470387E+02  0.10403257711E+03 -0.21445298740E+02  0.10931815737E+03  0.00000000000E+00 0. -1.
         -3    1    3    3    0  502 -0.33416940742E+02  0.22038642079E+03 -0.17015306095E+03  0.28042633712E+03  0.00000000000E+00 0.  1.
         11    1    5    5    0    0 -0.41461471730E+02  0.37016098334E+02  0.14370513466E+02  0.57408682541E+02  0.00000000000E+00 0. -1.
        -11    1    5    5    0    0 -0.12115924248E+03  0.20783616973E+03  0.25404987968E+03  0.34988108959E+03  0.00000000000E+00 0.  1.
          3    1    6    6  503    0 -0.13463934365E+01 -0.84162334980E+01  0.14921974759E+02  0.17184617897E+02  0.00000000000E+00 0. -1.
         -3    1    6    6    0  503  0.22322551878E+03 -0.56085503247E+03  0.14311421846E+03  0.62037865793E+03  0.00000000000E+00 0.  1.
<mgrwt>
<rscale>  0 0.14152426E+04</rscale>
<asrwt>0</asrwt>
<pdfrwt beam="1">  1        2 0.12841967E+00 0.14152426E+04</pdfrwt>
<pdfrwt beam="2">  1       -1 0.92287639E-01 0.14152426E+04</pdfrwt>
<totfact> 0.41268105E+01</totfact>
</mgrwt>
</event>
<event>
12    6  0.1530859E-007  0.2270856E+04  0.7818608E-02  0.8489502E-01
          2   -1    0    0  501    0  0.00000000000E+00  0.00000000000E+00  0.12949395339E+04  0.12949395339E+04  0.00000000000E+00 0. -1.
         -1   -1    0    0    0  501 -0.00000000000E+00 -0.00000000000E+00 -0.99556480223E+03  0.99556480223E+03  0.00000000000E+00 0.  1.
         24    2    1    2    0    0 -0.26228143754E+03 -0.51942152814E+02  0.10542911078E+04  0.10904906928E+04  0.78426215791E+02 0.  0.
        254    2    1    2    0    0  0.26228143754E+03  0.51942152814E+02 -0.75491637616E+03  0.12000136433E+04  0.89366910511E+03 0.  0.
         23    2    4    4    0    0  0.54732662992E+03  0.14964799058E+03 -0.30452383740E+03  0.65034566291E+03  0.90850166881E+02 0.  0.
         23    2    4    4    0    0 -0.28504519238E+03 -0.97705837763E+02 -0.45039253877E+03  0.54966798041E+03  0.92110028091E+02 0.  0.
          4    1    3    3  502    0 -0.10877189500E+03 -0.50978217623E+02  0.56722355658E+03  0.57980399011E+03  0.00000000000E+00 0. -1.
         -3    1    3    3    0  502 -0.15350954254E+03 -0.96393519156E+00  0.48706755126E+03  0.51068670270E+03  0.00000000000E+00 0.  1.
         11    1    5    5    0    0  0.99333848952E+02  0.24504750180E+02 -0.97084062093E+02  0.14104258733E+03  0.00000000000E+00 0. -1.
        -11    1    5    5    0    0  0.44799278097E+03  0.12514324040E+03 -0.20743977530E+03  0.50930307558E+03  0.00000000000E+00 0.  1.
          1    1    6    6  503    0 -0.45113343501E+01 -0.15306948560E+02 -0.47121986413E+01  0.16639099371E+02  0.00000000000E+00 0. -1.
         -1    1    6    6    0  503 -0.28053385803E+03 -0.82398889203E+02 -0.44568034013E+03  0.53302888104E+03  0.00000000000E+00 0.  1.
<mgrwt>
<rscale>  0 0.22708555E+04</rscale>
<asrwt>0</asrwt>
<pdfrwt beam="1">  1        2 0.19922147E+00 0.22708555E+04</pdfrwt>
<pdfrwt beam="2">  1       -1 0.15316382E+00 0.22708555E+04</pdfrwt>
<totfact> 0.56838182E+00</totfact>
</mgrwt>
</event>
<event>
12    6  0.1530859E-007  0.1088743E+04  0.7818608E-02  0.9216234E-01
          2   -1    0    0  501    0  0.00000000000E+00  0.00000000000E+00  0.32283236554E+03  0.32283236554E+03  0.00000000000E+00 0. -1.
         -1   -1    0    0    0  501 -0.00000000000E+00 -0.00000000000E+00 -0.91793819455E+03  0.91793819455E+03  0.00000000000E+00 0.  1.
         24    2    1    2    0    0  0.15520941953E+03  0.96741031029E+01  0.47001970263E+02  0.18110014721E+03  0.80028282065E+02 0.  0.
        254    2    1    2    0    0 -0.15520941953E+03 -0.96741031029E+01 -0.64210779928E+03  0.10596704129E+04  0.82850190457E+03 0.  0.
         23    2    4    4    0    0 -0.28797402364E+03 -0.30613555968E+03 -0.13486958770E+03  0.45077087955E+03  0.91414227384E+02 0.  0.
         23    2    4    4    0    0  0.13276460411E+03  0.29646145658E+03 -0.50723821158E+03  0.60889953334E+03  0.89175125860E+02 0.  0.
          2    1    3    3  502    0  0.11347790248E+03  0.43087449093E+02  0.34655323878E+02  0.12623293585E+03  0.00000000000E+00 0. -1.
         -3    1    3    3    0  502  0.41731517042E+02 -0.33413345990E+02  0.12346646385E+02  0.54867211355E+02  0.00000000000E+00 0.  1.
         11    1    5    5    0    0 -0.19118101191E+02 -0.64743678158E+02 -0.87586292890E+01  0.68073190329E+02  0.00000000000E+00 0.  1.
        -11    1    5    5    0    0 -0.26885592245E+03 -0.24139188152E+03 -0.12611095841E+03  0.38269768922E+03  0.00000000000E+00 0. -1.
          3    1    6    6  503    0  0.13357549620E+03  0.27197897961E+03 -0.49755367768E+03  0.58255870151E+03  0.00000000000E+00 0. -1.
         -3    1    6    6    0  503 -0.81089209126E+00  0.24482476966E+02 -0.96845338996E+01  0.26340831825E+02  0.00000000000E+00 0.  1.
<mgrwt>
<rscale>  0 0.10887427E+04</rscale>
<asrwt>0</asrwt>
<pdfrwt beam="1">  1        2 0.49666518E-01 0.10887427E+04</pdfrwt>
<pdfrwt beam="2">  1       -1 0.14122126E+00 0.10887427E+04</pdfrwt>
<totfact> 0.47181963E+01</totfact>
</mgrwt>
</event>
<event>
12    6  0.1530859E-007  0.1538058E+04  0.7818608E-02  0.8859532E-01
         -1   -1    0    0    0  501 -0.00000000000E+00  0.00000000000E+00  0.25302095222E+03  0.25302095222E+03  0.00000000000E+00 0.  1.
          2   -1    0    0  501    0  0.00000000000E+00 -0.00000000000E+00 -0.23373768076E+04  0.23373768076E+04  0.00000000000E+00 0. -1.
         24    2    1    2    0    0 -0.17089454113E+03  0.97660212689E+02  0.98476665456E+02  0.23458636089E+03  0.81182792192E+02 0.  0.
        254    2    1    2    0    0  0.17089454113E+03 -0.97660212689E+02 -0.21828325208E+04  0.23558113989E+04  0.86391381048E+03 0.  0.
         23    2    4    4    0    0 -0.19718713350E+03  0.25047327547E+03 -0.53289042486E+03  0.62757291786E+03  0.90862175731E+02 0.  0.
         23    2    4    4    0    0  0.36808167463E+03 -0.34813348816E+03 -0.16499420959E+04  0.17282384810E+04  0.88421052798E+02 0.  0.
          2    1    3    3  502    0 -0.11695055089E+03  0.67447309321E+02  0.22888739858E+02  0.13693233840E+03  0.00000000000E+00 0. -1.
         -1    1    3    3    0  502 -0.53943990243E+02  0.30212903368E+02  0.75587925597E+02  0.97654022495E+02  0.00000000000E+00 0.  1.
         11    1    5    5    0    0 -0.18388848106E+03  0.20669638424E+03 -0.49926790253E+03  0.57079489068E+03  0.00000000000E+00 0.  1.
        -11    1    5    5    0    0 -0.13298652441E+02  0.43776891238E+02 -0.33622522327E+02  0.56778027183E+02  0.00000000000E+00 0. -1.
          4    1    6    6  503    0  0.44044290827E+02 -0.43163663198E+02 -0.31823055295E+03  0.32415071526E+03  0.00000000000E+00 0. -1.
         -4    1    6    6    0  503  0.32403738380E+03 -0.30496982497E+03 -0.13317115430E+04  0.14040877658E+04  0.00000000000E+00 0.  1.
<mgrwt>
<rscale>  0 0.15380576E+04</rscale>
<asrwt>0</asrwt>
<pdfrwt beam="1">  1        2 0.35959642E+00 0.15380576E+04</pdfrwt>
<pdfrwt beam="2">  1       -1 0.38926301E-01 0.15380576E+04</pdfrwt>
<totfact> 0.30371836E+01</totfact>
</mgrwt>
</event>
<event>
12    6  0.1530859E-007  0.1551272E+04  0.7818608E-02  0.8851055E-01
         -1   -1    0    0    0  501 -0.00000000000E+00  0.00000000000E+00  0.12383693407E+04  0.12383693407E+04  0.00000000000E+00 0.  1.
          2   -1    0    0  501    0  0.00000000000E+00 -0.00000000000E+00 -0.48580941819E+03  0.48580941819E+03  0.00000000000E+00 0. -1.
         24    2    1    2    0    0 -0.33428743804E+03  0.37762474765E+03  0.25103955919E+02  0.50990403958E+03  0.70875804826E+02 0.  0.
        254    2    1    2    0    0  0.33428743804E+03 -0.37762474765E+03  0.72745596662E+03  0.12142747193E+04  0.83121740201E+03 0.  0.
         23    2    4    4    0    0  0.19317190249E+03 -0.45279849051E+03  0.85498404737E+03  0.99135614339E+03  0.97197864470E+02 0.  0.
         23    2    4    4    0    0  0.14111553555E+03  0.75173742861E+02 -0.12752808074E+03  0.22291857596E+03  0.88682546982E+02 0.  0.
          4    1    3    3  502    0 -0.16546713830E+03  0.22787423783E+03 -0.85418773315E+01  0.28174280078E+03  0.00000000000E+00 0. -1.
         -3    1    3    3    0  502 -0.16882029974E+03  0.14975050982E+03  0.33645833251E+02  0.22816123880E+03  0.00000000000E+00 0.  1.
         11    1    5    5    0    0  0.59357875031E+02 -0.24881727111E+03  0.48207641238E+03  0.54573900273E+03  0.00000000000E+00 0.  1.
        -11    1    5    5    0    0  0.13381402746E+03 -0.20398121941E+03  0.37290763499E+03  0.44561714066E+03  0.00000000000E+00 0. -1.
          4    1    6    6  503    0  0.14659267385E+03  0.62389187484E+02 -0.90189414805E+02  0.18307362804E+03  0.00000000000E+00 0.  1.
         -4    1    6    6    0  503 -0.54771383010E+01  0.12784555377E+02 -0.37338665940E+02  0.39844947915E+02  0.00000000000E+00 0. -1.
<mgrwt>
<rscale>  0 0.15512724E+04</rscale>
<asrwt>0</asrwt>
<pdfrwt beam="1">  1        2 0.74739911E-01 0.15512724E+04</pdfrwt>
<pdfrwt beam="2">  1       -1 0.19051836E+00 0.15512724E+04</pdfrwt>
<totfact> 0.12275461E+01</totfact>
</mgrwt>
</event>
<event>
12    6  0.1530859E-007  0.1859250E+04  0.7818608E-02  0.8675410E-01
         -1   -1    0    0    0  501 -0.00000000000E+00  0.00000000000E+00  0.79048691830E+03  0.79048691830E+03  0.00000000000E+00 0.  1.
          2   -1    0    0  501    0  0.00000000000E+00 -0.00000000000E+00 -0.10932534110E+04  0.10932534110E+04  0.00000000000E+00 0. -1.
         24    2    1    2    0    0  0.16605605978E+03  0.29236570878E+03 -0.74726967490E+03  0.82347355904E+03  0.81513267339E+02 0.  0.
        254    2    1    2    0    0 -0.16605605978E+03 -0.29236570878E+03  0.44450318221E+03  0.10602667702E+04  0.90195910242E+03 0.  0.
         23    2    4    4    0    0  0.35588321944E+03 -0.15962049717E+03  0.27679033631E+03  0.48901803076E+03  0.10195182752E+03 0.  0.
         23    2    4    4    0    0 -0.52193927922E+03 -0.13274521161E+03  0.16771284590E+03  0.57124873949E+03  0.90308478493E+02 0.  0.
          4    1    3    3  502    0  0.10212914811E+03  0.98716827390E+02 -0.30882715138E+03  0.33992585123E+03  0.00000000000E+00 0. -1.
         -3    1    3    3    0  502  0.63926911669E+02  0.19364888139E+03 -0.43844252352E+03  0.48354770781E+03  0.00000000000E+00 0.  1.
         11    1    5    5    0    0  0.67356176446E+01  0.11111932338E+02  0.17546277117E+02  0.21833813822E+02  0.00000000000E+00 0.  1.
        -11    1    5    5    0    0  0.34914760180E+03 -0.17073242951E+03  0.25924405919E+03  0.46718421694E+03  0.00000000000E+00 0. -1.
          1    1    6    6  503    0 -0.39860721326E+03 -0.72417991035E+02  0.95993959901E+02  0.41634951210E+03  0.00000000000E+00 0. -1.
         -1    1    6    6    0  503 -0.12333206596E+03 -0.60327220575E+02  0.71718886001E+02  0.15489922739E+03  0.00000000000E+00 0.  1.
<mgrwt>
<rscale>  0 0.18592499E+04</rscale>
<asrwt>0</asrwt>
<pdfrwt beam="1">  1        2 0.16819283E+00 0.18592499E+04</pdfrwt>
<pdfrwt beam="2">  1       -1 0.12161337E+00 0.18592499E+04</pdfrwt>
<totfact> 0.14123571E+01</totfact>
</mgrwt>
</event>
<event>
12    6  0.1530859E-007  0.1454504E+04  0.7818608E-02  0.8915284E-01
          2   -1    0    0  501    0  0.00000000000E+00  0.00000000000E+00  0.18023197634E+04  0.18023197634E+04  0.00000000000E+00 0. -1.
         -1   -1    0    0    0  501 -0.00000000000E+00 -0.00000000000E+00 -0.29345247808E+03  0.29345247808E+03  0.00000000000E+00 0.  1.
         24    2    1    2    0    0  0.23260122674E+03 -0.32143282727E+03  0.17106352932E+03  0.43920123292E+03  0.78820040642E+02 0.  0.
        254    2    1    2    0    0 -0.23260122674E+03  0.32143282727E+03  0.13378037560E+04  0.16565710086E+04  0.89279685470E+03 0.  0.
         23    2    4    4    0    0 -0.56062213850E+03  0.27391476698E+03  0.80924308887E+03  0.10260779760E+04  0.92925529873E+02 0.  0.
         23    2    4    4    0    0  0.32802091176E+03  0.47518060288E+02  0.52856066717E+03  0.63049303265E+03  0.91046146227E+02 0.  0.
          4    1    3    3  502    0  0.10315036047E+03 -0.92288675483E+02  0.84424896972E+02  0.16212575279E+03  0.00000000000E+00 0. -1.
         -3    1    3    3    0  502  0.12945086626E+03 -0.22914415178E+03  0.86638632349E+02  0.27707548013E+03  0.00000000000E+00 0.  1.
         11    1    5    5    0    0 -0.21746501881E+03  0.10506961965E+03  0.24157264874E+03  0.34159625876E+03  0.00000000000E+00 0. -1.
        -11    1    5    5    0    0 -0.34315711969E+03  0.16884514733E+03  0.56767044013E+03  0.68448171719E+03  0.00000000000E+00 0.  1.
          4    1    6    6  503    0  0.24348383869E+03  0.48366129105E+02  0.31676076891E+03  0.40244384312E+03  0.00000000000E+00 0.  1.
         -4    1    6    6    0  503  0.84537073075E+02 -0.84806881732E+00  0.21179989825E+03  0.22804918953E+03  0.00000000000E+00 0. -1.
<mgrwt>
<rscale>  0 0.14545036E+04</rscale>
<asrwt>0</asrwt>
<pdfrwt beam="1">  1        2 0.27727996E+00 0.14545036E+04</pdfrwt>
<pdfrwt beam="2">  1       -1 0.45146536E-01 0.14545036E+04</pdfrwt>
<totfact> 0.46253066E+01</totfact>
</mgrwt>
</event>
<event>
12    6  0.1530859E-007  0.2946699E+04  0.7818608E-02  0.8259117E-01
         -1   -1    0    0    0  501 -0.00000000000E+00  0.00000000000E+00  0.13993373236E+04  0.13993373236E+04  0.00000000000E+00 0.  1.
          2   -1    0    0  501    0  0.00000000000E+00 -0.00000000000E+00 -0.15512765085E+04  0.15512765085E+04  0.00000000000E+00 0. -1.
         24    2    1    2    0    0  0.42911356179E+03  0.20014105395E+03  0.11737808488E+04  0.12681686594E+04  0.79343414651E+02 0.  0.
        254    2    1    2    0    0 -0.42911356179E+03 -0.20014105395E+03 -0.13257200337E+04  0.16824451726E+04  0.92135403659E+03 0.  0.
         23    2    4    4    0    0  0.12000394656E+03  0.26858424722E+03 -0.40997162661E+03  0.51287808545E+03  0.91808228764E+02 0.  0.
         23    2    4    4    0    0 -0.54911750836E+03 -0.46872530116E+03 -0.91574840712E+03  0.11695670872E+04  0.89769596047E+02 0.  0.
          4    1    3    3  502    0  0.47377040021E+02  0.38194207642E+02  0.21749021509E+03  0.22584369612E+03  0.00000000000E+00 0. -1.
         -3    1    3    3    0  502  0.38173652177E+03  0.16194684630E+03  0.95629063368E+03  0.10423249633E+04  0.00000000000E+00 0.  1.
         11    1    5    5    0    0  0.10916995273E+03  0.13800850139E+03 -0.21262465461E+03  0.27599577675E+03  0.00000000000E+00 0.  1.
        -11    1    5    5    0    0  0.10833993838E+02  0.13057574582E+03 -0.19734697200E+03  0.23688230870E+03  0.00000000000E+00 0. -1.
          4    1    6    6  503    0 -0.10780697162E+03 -0.13837581548E+03 -0.24583320537E+03  0.30200028858E+03  0.00000000000E+00 0. -1.
         -4    1    6    6    0  503 -0.44131053673E+03 -0.33034948568E+03 -0.66991520175E+03  0.86756679861E+03  0.00000000000E+00 0.  1.
<mgrwt>
<rscale>  0 0.29466993E+04</rscale>
<asrwt>0</asrwt>
<pdfrwt beam="1">  1        2 0.23865793E+00 0.29466993E+04</pdfrwt>
<pdfrwt beam="2">  1       -1 0.21528266E+00 0.29466993E+04</pdfrwt>
<totfact> 0.13764482E+00</totfact>
</mgrwt>
</event>
<event>
12    6  0.1530859E-007  0.1568428E+04  0.7818608E-02  0.8840182E-01
          2   -1    0    0  501    0  0.00000000000E+00  0.00000000000E+00  0.22974920597E+03  0.22974920597E+03  0.00000000000E+00 0. -1.
         -1   -1    0    0    0  501 -0.00000000000E+00 -0.00000000000E+00 -0.26767943949E+04  0.26767943949E+04  0.00000000000E+00 0.  1.
         24    2    1    2    0    0  0.26142395913E+03  0.44933461863E+03 -0.82680061883E+03  0.98005469193E+03  0.81632407572E+02 0.  0.
        254    2    1    2    0    0 -0.26142395913E+03 -0.44933461863E+03 -0.16202445701E+04  0.19264889090E+04  0.90328454181E+03 0.  0.
         23    2    4    4    0    0 -0.12011164737E+03  0.26643519421E+03 -0.44735190641E+03  0.54202519191E+03  0.90846353507E+02 0.  0.
         23    2    4    4    0    0 -0.14131231175E+03 -0.71576981284E+03 -0.11728926637E+04  0.13844637171E+04  0.93632199795E+02 0.  0.
          4    1    3    3  502    0  0.44340558862E+01  0.65051259243E+01 -0.43899110009E+02  0.44599432446E+02  0.00000000000E+00 0. -1.
         -3    1    3    3    0  502  0.25698990324E+03  0.44282949270E+03 -0.78290150882E+03  0.93545525948E+03  0.00000000000E+00 0.  1.
         11    1    5    5    0    0 -0.95803572906E+02  0.23271530263E+03 -0.42722991816E+03  0.49584285780E+03  0.00000000000E+00 0.  1.
        -11    1    5    5    0    0 -0.24308074466E+02  0.33719891587E+02 -0.20121988252E+02  0.46182334113E+02  0.00000000000E+00 0. -1.
          3    1    6    6  503    0 -0.35967568879E+02 -0.12020524046E+03 -0.26988506495E+03  0.29762545947E+03  0.00000000000E+00 0. -1.
         -3    1    6    6    0  503 -0.10534474288E+03 -0.59556457238E+03 -0.90300759877E+03  0.10868382576E+04  0.00000000000E+00 0.  1.
<mgrwt>
<rscale>  0 0.15684277E+04</rscale>
<asrwt>0</asrwt>
<pdfrwt beam="1">  1        2 0.35346031E-01 0.15684277E+04</pdfrwt>
<pdfrwt beam="2">  1       -1 0.41181453E+00 0.15684277E+04</pdfrwt>
<totfact> 0.97309445E-01</totfact>
</mgrwt>
</event>
<event>
12    6  0.1530859E-007  0.1857925E+04  0.7818608E-02  0.8676088E-01
          2   -1    0    0  501    0  0.00000000000E+00  0.00000000000E+00  0.18983405147E+04  0.18983405147E+04  0.00000000000E+00 0. -1.
         -1   -1    0    0    0  501 -0.00000000000E+00 -0.00000000000E+00 -0.45459265468E+03  0.45459265468E+03  0.00000000000E+00 0.  1.
         24    2    1    2    0    0 -0.39291759429E+03  0.28430379497E+03  0.12077997819E+04  0.13039706145E+04  0.79662830212E+02 0.  0.
        254    2    1    2    0    0  0.39291759429E+03 -0.28430379497E+03  0.23594807815E+03  0.10489625549E+04  0.89968775823E+03 0.  0.
         23    2    4    4    0    0  0.17289655360E+03  0.28884919342E+03  0.24821222744E+03  0.42806542561E+03  0.91124222710E+02 0.  0.
         23    2    4    4    0    0  0.22002104069E+03 -0.57315298839E+03 -0.12264149297E+02  0.62089712932E+03  0.91919689892E+02 0.  0.
          2    1    3    3  502    0 -0.10617623731E+03  0.10145524690E+03  0.45007501423E+03  0.47342800818E+03  0.00000000000E+00 0. -1.
         -1    1    3    3    0  502 -0.28674135698E+03  0.18284854807E+03  0.75772476766E+03  0.83054260629E+03  0.00000000000E+00 0.  1.
         11    1    5    5    0    0  0.14525760054E+03  0.26991883570E+03  0.18921300138E+03  0.36021869506E+03  0.00000000000E+00 0. -1.
        -11    1    5    5    0    0  0.27638953064E+02  0.18930357715E+02  0.58999226068E+02  0.67846730550E+02  0.00000000000E+00 0.  1.
          3    1    6    6  503    0  0.17064374637E+03 -0.51811012662E+03  0.24942616282E+01  0.54549391639E+03  0.00000000000E+00 0. -1.
         -3    1    6    6    0  503  0.49377294322E+02 -0.55042861772E+02 -0.14758410925E+02  0.75403212927E+02  0.00000000000E+00 0.  1.
<mgrwt>
<rscale>  0 0.18579254E+04</rscale>
<asrwt>0</asrwt>
<pdfrwt beam="1">  1        2 0.29205238E+00 0.18579254E+04</pdfrwt>
<pdfrwt beam="2">  1       -1 0.69937333E-01 0.18579254E+04</pdfrwt>
<totfact> 0.16832146E+01</totfact>
</mgrwt>
</event>
<event>
12    6  0.1530859E-007  0.2351236E+04  0.7818608E-02  0.8457989E-01
          4   -1    0    0  501    0  0.00000000000E+00  0.00000000000E+00  0.20375220421E+04  0.20375220421E+04  0.00000000000E+00 0. -1.
         -3   -1    0    0    0  501 -0.00000000000E+00 -0.00000000000E+00 -0.67831278184E+03  0.67831278184E+03  0.00000000000E+00 0.  1.
         24    2    1    2    0    0  0.59768590854E+03 -0.80502708356E+03  0.59548009234E+03  0.11685731733E+04  0.75297214094E+02 0.  0.
        254    2    1    2    0    0 -0.59768590854E+03  0.80502708356E+03  0.76372916793E+03  0.15472616506E+04  0.89746271403E+03 0.  0.
         23    2    4    4    0    0 -0.45464298347E+02 -0.15547047755E+03  0.27591631021E+03  0.33317226992E+03  0.92929432321E+02 0.  0.
         23    2    4    4    0    0 -0.55222161019E+03  0.96049756111E+03  0.48781285771E+03  0.12140893807E+04  0.92451979790E+02 0.  0.
          2    1    3    3  502    0  0.49617971448E+03 -0.68267406253E+03  0.53049648152E+03  0.99682731785E+03  0.00000000000E+00 0. -1.
         -1    1    3    3    0  502  0.10150619406E+03 -0.12235302103E+03  0.64983610816E+02  0.17174585545E+03  0.00000000000E+00 0.  1.
         11    1    5    5    0    0 -0.20932434153E+02 -0.36211246324E+02  0.15885887939E+03  0.16427283623E+03  0.00000000000E+00 0.  1.
        -11    1    5    5    0    0 -0.24531864194E+02 -0.11925923122E+03  0.11705743082E+03  0.16889943370E+03  0.00000000000E+00 0. -1.
          1    1    6    6  503    0 -0.13983655340E+03  0.21097667277E+03  0.15075251675E+03  0.29460437781E+03  0.00000000000E+00 0. -1.
         -1    1    6    6    0  503 -0.41238505679E+03  0.74952088834E+03  0.33706034096E+03  0.91948500291E+03  0.00000000000E+00 0.  1.
<mgrwt>
<rscale>  0 0.23512356E+04</rscale>
<asrwt>0</asrwt>
<pdfrwt beam="1">  1        4 0.31346493E+00 0.23512356E+04</pdfrwt>
<pdfrwt beam="2">  1       -3 0.10435581E+00 0.23512356E+04</pdfrwt>
<totfact> 0.41306512E-02</totfact>
</mgrwt>
</event>
<event>
12    6  0.1530859E-007  0.1670068E+04  0.7818608E-02  0.8778622E-01
          2   -1    0    0  501    0  0.00000000000E+00  0.00000000000E+00  0.23101598088E+04  0.23101598088E+04  0.00000000000E+00 0. -1.
         -1   -1    0    0    0  501 -0.00000000000E+00 -0.00000000000E+00 -0.30183259025E+03  0.30183259025E+03  0.00000000000E+00 0.  1.
         24    2    1    2    0    0  0.51033475800E+03 -0.23553450478E+03  0.10325684737E+04  0.11783647242E+04  0.80172952311E+02 0.  0.
        254    2    1    2    0    0 -0.51033475800E+03  0.23553450478E+03  0.97575874486E+03  0.14336276748E+04  0.88727961415E+03 0.  0.
         23    2    4    4    0    0 -0.57181930744E+03  0.11561634482E+03  0.17598725636E+03  0.61703645890E+03  0.97046471712E+02 0.  0.
         23    2    4    4    0    0  0.61484549439E+02  0.11991815997E+03  0.79977148851E+03  0.81659121592E+03  0.95005606074E+02 0.  0.
          4    1    3    3  502    0  0.26923761144E+03 -0.14137636384E+03  0.63350271113E+03  0.70271036187E+03  0.00000000000E+00 0. -1.
         -3    1    3    3    0  502  0.24109714656E+03 -0.94158140942E+02  0.39906576254E+03  0.47565436235E+03  0.00000000000E+00 0.  1.
         11    1    5    5    0    0 -0.88617746134E+02  0.13567216712E+02 -0.80248332557E+01  0.90008734287E+02  0.00000000000E+00 0.  1.
        -11    1    5    5    0    0 -0.48320156130E+03  0.10204912810E+03  0.18401208961E+03  0.52702772462E+03  0.00000000000E+00 0. -1.
          1    1    6    6  503    0  0.63770383951E+02  0.55238295729E+02  0.26982594660E+03  0.28270828188E+03  0.00000000000E+00 0. -1.
         -1    1    6    6    0  503 -0.22858345120E+01  0.64679864238E+02  0.52994554191E+03  0.53388293404E+03  0.00000000000E+00 0.  1.
<mgrwt>
<rscale>  0 0.16700677E+04</rscale>
<asrwt>0</asrwt>
<pdfrwt beam="1">  1        2 0.35540919E+00 0.16700677E+04</pdfrwt>
<pdfrwt beam="2">  1       -1 0.46435785E-01 0.16700677E+04</pdfrwt>
<totfact> 0.22457800E+01</totfact>
</mgrwt>
</event>
<event>
12    6  0.1530859E-007  0.1781750E+04  0.7818608E-02  0.8716065E-01
          2   -1    0    0  501    0  0.00000000000E+00  0.00000000000E+00  0.19223151827E+04  0.19223151827E+04  0.00000000000E+00 0. -1.
         -3   -1    0    0    0  501 -0.00000000000E+00 -0.00000000000E+00 -0.41286580870E+03  0.41286580870E+03  0.00000000000E+00 0.  1.
         24    2    1    2    0    0  0.11511890213E+03  0.27806696991E+03 -0.20830985194E+03  0.37452295035E+03  0.79377859257E+02 0.  0.
        254    2    1    2    0    0 -0.11511890213E+03 -0.27806696991E+03  0.17177592260E+04  0.19606580411E+04  0.89605222743E+03 0.  0.
         23    2    4    4    0    0 -0.15957244412E+03  0.60554040767E+02 -0.13519504441E+02  0.19355666041E+03  0.90284256720E+02 0.  0.
         23    2    4    4    0    0  0.44453541996E+02 -0.33862101068E+03  0.17312787304E+04  0.17671013807E+04  0.93171567245E+02 0.  0.
          4    1    3    3  502    0  0.46420663654E+02  0.77925175788E+02 -0.23801595571E+02  0.93774873966E+02  0.00000000000E+00 0. -1.
         -3    1    3    3    0  502  0.68698238473E+02  0.20014179412E+03 -0.18450825637E+03  0.28074807638E+03  0.00000000000E+00 0.  1.
         11    1    5    5    0    0 -0.10304737633E+02  0.38799183983E+02  0.87225608482E+01  0.41080985421E+02  0.00000000000E+00 0.  1.
        -11    1    5    5    0    0 -0.14926770649E+03  0.21754856784E+02 -0.22242065289E+02  0.15247567499E+03  0.00000000000E+00 0. -1.
          3    1    6    6  503    0  0.67624017587E+02 -0.28685114408E+03  0.13646286353E+04  0.13960902187E+04  0.00000000000E+00 0. -1.
         -3    1    6    6    0  503 -0.23170475591E+02 -0.51769866599E+02  0.36665009512E+03  0.37101116194E+03  0.00000000000E+00 0.  1.
<mgrwt>
<rscale>  0 0.17817499E+04</rscale>
<asrwt>0</asrwt>
<pdfrwt beam="1">  1        2 0.29574079E+00 0.17817499E+04</pdfrwt>
<pdfrwt beam="2">  1       -3 0.63517818E-01 0.17817499E+04</pdfrwt>
<totfact> 0.10752571E+01</totfact>
</mgrwt>
</event>
<event>
12    6  0.1530859E-007  0.1589713E+04  0.7818608E-02  0.8826893E-01
         -1   -1    0    0    0  501 -0.00000000000E+00  0.00000000000E+00  0.28915671456E+03  0.28915671456E+03  0.00000000000E+00 0.  1.
          2   -1    0    0  501    0  0.00000000000E+00 -0.00000000000E+00 -0.21849631678E+04  0.21849631678E+04  0.00000000000E+00 0. -1.
         24    2    1    2    0    0 -0.24194460216E+03  0.16815194908E+03  0.49201687255E+02  0.30914956515E+03  0.79626497537E+02 0.  0.
        254    2    1    2    0    0  0.24194460216E+03 -0.16815194908E+03 -0.19450081405E+04  0.21649703172E+04  0.90400638234E+03 0.  0.
         23    2    4    4    0    0  0.11709986239E+03 -0.49151396547E+03 -0.15434744752E+04  0.16266326419E+04  0.91224667355E+02 0.  0.
         23    2    4    4    0    0  0.12484473977E+03  0.32336201639E+03 -0.40153366523E+03  0.53833767530E+03  0.91809398415E+02 0.  0.
          2    1    3    3  502    0  0.29840567590E+00 -0.64968656073E+01  0.10919849586E+00  0.65046316559E+01  0.00000000000E+00 0. -1.
         -1    1    3    3    0  502 -0.24224300784E+03  0.17464881469E+03  0.49092488759E+02  0.30264493350E+03  0.00000000000E+00 0.  1.
         11    1    5    5    0    0  0.88623984755E+02 -0.46361504443E+03 -0.14535662203E+04  0.15282826561E+04  0.00000000000E+00 0. -1.
        -11    1    5    5    0    0  0.28475877636E+02 -0.27898921040E+02 -0.89908254966E+02  0.98349985833E+02  0.00000000000E+00 0.  1.
          3    1    6    6  503    0  0.95739143744E+02  0.31037529785E+03 -0.34794798682E+03  0.47599013718E+03  0.00000000000E+00 0. -1.
         -3    1    6    6    0  503  0.29105596026E+02  0.12986718541E+02 -0.53585678411E+02  0.62347538117E+02  0.00000000000E+00 0.  1.
<mgrwt>
<rscale>  0 0.15897129E+04</rscale>
<asrwt>0</asrwt>
<pdfrwt beam="1">  1        2 0.33614818E+00 0.15897129E+04</pdfrwt>
<pdfrwt beam="2">  1       -1 0.44485648E-01 0.15897129E+04</pdfrwt>
<totfact> 0.28818908E+01</totfact>
</mgrwt>
</event>
<event>
12    6  0.1530859E-007  0.2475149E+04  0.7818608E-02  0.8411893E-01
         -1   -1    0    0    0  501 -0.00000000000E+00  0.00000000000E+00  0.62599551033E+03  0.62599551033E+03  0.00000000000E+00 0.  1.
          2   -1    0    0  501    0  0.00000000000E+00 -0.00000000000E+00 -0.24466481732E+04  0.24466481732E+04  0.00000000000E+00 0. -1.
         24    2    1    2    0    0  0.81953954813E+03  0.63968668774E+03 -0.44155930500E+03  0.11323072481E+04  0.79378554349E+02 0.  0.
        254    2    1    2    0    0 -0.81953954813E+03 -0.63968668774E+03 -0.13790933579E+04  0.19403364354E+04  0.88439971929E+03 0.  0.
         23    2    4    4    0    0 -0.26711446572E+03 -0.27012421693E+03 -0.11762764449E+04  0.12396072368E+04  0.93180449864E+02 0.  0.
         23    2    4    4    0    0 -0.55242508241E+03 -0.36956247081E+03 -0.20281691296E+03  0.70072919865E+03  0.90204313394E+02 0.  0.
          2    1    3    3  502    0  0.20392582494E+03  0.20304889863E+03 -0.11341543469E+03  0.30931805337E+03  0.00000000000E+00 0. -1.
         -1    1    3    3    0  502  0.61561372319E+03  0.43663778911E+03 -0.32814387031E+03  0.82298919475E+03  0.00000000000E+00 0.  1.
         11    1    5    5    0    0 -0.32874455530E+02 -0.15862901697E+02 -0.53147231516E+02  0.64474721361E+02  0.00000000000E+00 0. -1.
        -11    1    5    5    0    0 -0.23424001019E+03 -0.25426131523E+03 -0.11231292134E+04  0.11751325154E+04  0.00000000000E+00 0.  1.
          2    1    6    6  503    0 -0.35974351912E+03 -0.28556449260E+03 -0.15873106632E+03  0.48596093506E+03  0.00000000000E+00 0.  1.
         -2    1    6    6    0  503 -0.19268156329E+03 -0.83997978207E+02 -0.44085846634E+02  0.21476826359E+03  0.00000000000E+00 0. -1.
<mgrwt>
<rscale>  0 0.24751491E+04</rscale>
<asrwt>0</asrwt>
<pdfrwt beam="1">  1        2 0.37640742E+00 0.24751491E+04</pdfrwt>
<pdfrwt beam="2">  1       -1 0.96307000E-01 0.24751491E+04</pdfrwt>
<totfact> 0.39439891E+00</totfact>
</mgrwt>
</event>
<event>
12    6  0.1530859E-007  0.1185885E+04  0.7818608E-02  0.9125302E-01
         -1   -1    0    0    0  501 -0.00000000000E+00  0.00000000000E+00  0.13787688301E+03  0.13787688301E+03  0.00000000000E+00 0.  1.
          2   -1    0    0  501    0  0.00000000000E+00 -0.00000000000E+00 -0.25499599555E+04  0.25499599555E+04  0.00000000000E+00 0. -1.
         24    2    1    2    0    0  0.23535560920E+03 -0.59411521291E+02 -0.41365678800E+03  0.48598187396E+03  0.78386554425E+02 0.  0.
        254    2    1    2    0    0 -0.23535560920E+03  0.59411521291E+02 -0.19984262845E+04  0.22018549646E+04  0.89192806815E+03 0.  0.
         23    2    4    4    0    0 -0.22298263709E+03 -0.36077147248E+03 -0.61135692255E+03  0.74964466107E+03  0.91282634265E+02 0.  0.
         23    2    4    4    0    0 -0.12372972117E+02  0.42018299377E+03 -0.13870693619E+04  0.14522103035E+04  0.90810307969E+02 0.  0.
          2    1    3    3  502    0  0.15060796587E+03  0.12798692650E+01 -0.25453322299E+03  0.29575591127E+03  0.00000000000E+00 0. -1.
         -1    1    3    3    0  502  0.84747643334E+02 -0.60691390556E+02 -0.15912356501E+03  0.19022596269E+03  0.00000000000E+00 0.  1.
         11    1    5    5    0    0 -0.17111455690E+03 -0.29136481489E+03 -0.54181342320E+03  0.63854164508E+03  0.00000000000E+00 0.  1.
        -11    1    5    5    0    0 -0.51868080182E+02 -0.69406657586E+02 -0.69543499345E+02  0.11110301598E+03  0.00000000000E+00 0. -1.
          4    1    6    6  503    0  0.18488106759E+02  0.33294938389E+03 -0.11609256941E+04  0.12078681921E+04  0.00000000000E+00 0.  1.
         -4    1    6    6    0  503 -0.30861078876E+02  0.87233609879E+02 -0.22614366785E+03  0.24434211137E+03  0.00000000000E+00 0. -1.
<mgrwt>
<rscale>  0 0.11858845E+04</rscale>
<asrwt>0</asrwt>
<pdfrwt beam="1">  1        2 0.39230151E+00 0.11858845E+04</pdfrwt>
<pdfrwt beam="2">  1       -1 0.21211829E-01 0.11858845E+04</pdfrwt>
<totfact> 0.68361811E+01</totfact>
</mgrwt>
</event>
<event>
12    6  0.1530859E-007  0.1313452E+04  0.7818608E-02  0.9018965E-01
         -1   -1    0    0    0  501 -0.00000000000E+00  0.00000000000E+00  0.28797794335E+03  0.28797794335E+03  0.00000000000E+00 0.  1.
          2   -1    0    0  501    0  0.00000000000E+00 -0.00000000000E+00 -0.14976468139E+04  0.14976468139E+04  0.00000000000E+00 0. -1.
         24    2    1    2    0    0 -0.23348501389E+03 -0.23088025737E+03 -0.15861237162E+03  0.37456689504E+03  0.85565936422E+02 0.  0.
        254    2    1    2    0    0  0.23348501389E+03  0.23088025737E+03 -0.10510564989E+04  0.14110578622E+04  0.88235116683E+03 0.  0.
         23    2    4    4    0    0 -0.28427367339E+03 -0.78683419592E-01 -0.63280980940E+03  0.69958267076E+03  0.90311299256E+02 0.  0.
         23    2    4    4    0    0  0.51775868728E+03  0.23095894079E+03 -0.41824668950E+03  0.71147519143E+03  0.99250008386E+02 0.  0.
          4    1    3    3  502    0 -0.14790959942E+03 -0.12541430929E+03 -0.13605343078E+03  0.23688928765E+03  0.00000000000E+00 0. -1.
         -3    1    3    3    0  502 -0.85575414467E+02 -0.10546594808E+03 -0.22558940843E+02  0.13767760739E+03  0.00000000000E+00 0.  1.
         11    1    5    5    0    0  0.33906068614E+01 -0.57093423251E+01 -0.32520736100E+01  0.73938344205E+01  0.00000000000E+00 0.  1.
        -11    1    5    5    0    0 -0.28766428025E+03  0.56306589055E+01 -0.62955773579E+03  0.69218883634E+03  0.00000000000E+00 0. -1.
          3    1    6    6  503    0  0.20738873185E+03  0.56119939867E+02 -0.11520186761E+03  0.24378474942E+03  0.00000000000E+00 0. -1.
         -3    1    6    6    0  503  0.31036995543E+03  0.17483900092E+03 -0.30304482189E+03  0.46769044202E+03  0.00000000000E+00 0.  1.
<mgrwt>
<rscale>  0 0.13134523E+04</rscale>
<asrwt>0</asrwt>
<pdfrwt beam="1">  1        2 0.23040720E+00 0.13134523E+04</pdfrwt>
<pdfrwt beam="2">  1       -1 0.44304298E-01 0.13134523E+04</pdfrwt>
<totfact> 0.71617801E+01</totfact>
</mgrwt>
</event>
<event>
12    6  0.1530859E-007  0.2268100E+04  0.7818608E-02  0.8490606E-01
          2   -1    0    0  501    0  0.00000000000E+00  0.00000000000E+00  0.23685792190E+04  0.23685792190E+04  0.00000000000E+00 0. -1.
         -1   -1    0    0    0  501 -0.00000000000E+00 -0.00000000000E+00 -0.54297098972E+03  0.54297098972E+03  0.00000000000E+00 0.  1.
         24    2    1    2    0    0  0.14414688489E+03 -0.79104772981E+02 -0.43285800254E+03  0.46981371004E+03  0.79517182091E+02 0.  0.
        254    2    1    2    0    0 -0.14414688489E+03  0.79104772981E+02  0.22584662318E+04  0.24417364987E+04  0.91343938999E+03 0.  0.
         23    2    4    4    0    0 -0.42003607175E+03 -0.12335770676E+03  0.18392067565E+04  0.18928204567E+04  0.91871446034E+02 0.  0.
         23    2    4    4    0    0  0.27588918687E+03  0.20246247974E+03  0.41925947532E+03  0.54891604202E+03  0.91784608786E+02 0.  0.
          2    1    3    3  502    0 -0.15885554170E+01  0.40603606121E+01 -0.68908768303E+02  0.69046566791E+02  0.00000000000E+00 0. -1.
         -1    1    3    3    0  502  0.14573544030E+03 -0.83165133593E+02 -0.36394923424E+03  0.40076714325E+03  0.00000000000E+00 0.  1.
         11    1    5    5    0    0 -0.10003417016E+03 -0.56880765320E+02  0.36034155072E+03  0.37827012813E+03  0.00000000000E+00 0. -1.
        -11    1    5    5    0    0 -0.32000190160E+03 -0.66476941439E+02  0.14788652058E+04  0.15145503285E+04  0.00000000000E+00 0.  1.
          1    1    6    6  503    0  0.33732955089E+02  0.49408260596E+02  0.12315622918E+03  0.13691802387E+03  0.00000000000E+00 0. -1.
         -1    1    6    6    0  503  0.24215623178E+03  0.15305421914E+03  0.29610324613E+03  0.41199801815E+03  0.00000000000E+00 0.  1.
<mgrwt>
<rscale>  0 0.22681004E+04</rscale>
<asrwt>0</asrwt>
<pdfrwt beam="1">  1        2 0.36439680E+00 0.22681004E+04</pdfrwt>
<pdfrwt beam="2">  1       -1 0.83534000E-01 0.22681004E+04</pdfrwt>
<totfact> 0.60924478E+00</totfact>
</mgrwt>
</event>
<event>
12    6  0.1530859E-007  0.1465847E+04  0.7818608E-02  0.8907487E-01
          2   -1    0    0  501    0  0.00000000000E+00  0.00000000000E+00  0.58939152818E+03  0.58939152818E+03  0.00000000000E+00 0. -1.
         -1   -1    0    0    0  501 -0.00000000000E+00 -0.00000000000E+00 -0.91140937713E+03  0.91140937713E+03  0.00000000000E+00 0.  1.
         24    2    1    2    0    0  0.22337868720E+03 -0.40231368490E+03 -0.18212985296E+03  0.50138700572E+03  0.80394696410E+02 0.  0.
        254    2    1    2    0    0 -0.22337868720E+03  0.40231368490E+03 -0.13988799598E+03  0.99941389959E+03  0.87607371397E+03 0.  0.
         23    2    4    4    0    0 -0.46532660806E+03  0.27862812517E+03  0.17191216369E+03  0.57603258350E+03  0.89984781595E+02 0.  0.
         23    2    4    4    0    0  0.24194792086E+03  0.12368555973E+03 -0.31180015967E+03  0.42338131609E+03  0.90528918860E+02 0.  0.
          4    1    3    3  502    0  0.20396712605E+03 -0.34869921635E+03 -0.13067282667E+03  0.42458111077E+03  0.00000000000E+00 0. -1.
         -3    1    3    3    0  502  0.19411561149E+02 -0.53614468549E+02 -0.51457026290E+02  0.76805894947E+02  0.00000000000E+00 0.  1.
         11    1    5    5    0    0 -0.37480530025E+03  0.24701477144E+03  0.11088229560E+03  0.46237451690E+03  0.00000000000E+00 0.  1.
        -11    1    5    5    0    0 -0.90521307814E+02  0.31613353730E+02  0.61029868094E+02  0.11365806659E+03  0.00000000000E+00 0. -1.
          3    1    6    6  503    0  0.11996460278E+03  0.11021898083E+03 -0.16227235941E+03  0.22993922737E+03  0.00000000000E+00 0. -1.
         -3    1    6    6    0  503  0.12198331808E+03  0.13466578897E+02 -0.14952780026E+03  0.19344208872E+03  0.00000000000E+00 0.  1.
<mgrwt>
<rscale>  0 0.14658471E+04</rscale>
<asrwt>0</asrwt>
<pdfrwt beam="1">  1        2 0.90675620E-01 0.14658471E+04</pdfrwt>
<pdfrwt beam="2">  1       -1 0.14021683E+00 0.14658471E+04</pdfrwt>
<totfact> 0.23422534E+01</totfact>
</mgrwt>
</event>
<event>
12    6  0.1530859E-007  0.2010447E+04  0.7818608E-02  0.8601752E-01
         -1   -1    0    0    0  501 -0.00000000000E+00  0.00000000000E+00  0.76238531944E+03  0.76238531944E+03  0.00000000000E+00 0.  1.
          2   -1    0    0  501    0  0.00000000000E+00 -0.00000000000E+00 -0.13254114042E+04  0.13254114042E+04  0.00000000000E+00 0. -1.
         24    2    1    2    0    0 -0.27390868274E+03 -0.60600630896E+02  0.55529764175E+03  0.62720142114E+03  0.79547148304E+02 0.  0.
        254    2    1    2    0    0  0.27390868274E+03  0.60600630896E+02 -0.11183237265E+04  0.14605953025E+04  0.89665616455E+03 0.  0.
         23    2    4    4    0    0  0.50504738960E+03  0.29978089659E+03 -0.69819391545E+03  0.91699094218E+03  0.91957559601E+02 0.  0.
         23    2    4    4    0    0 -0.23113870686E+03 -0.23918026569E+03 -0.42012981104E+03  0.54360436029E+03  0.91456771756E+02 0.  0.
          2    1    3    3  502    0 -0.54622433266E+02  0.19122010669E+02  0.12377764701E+03  0.13663882101E+03  0.00000000000E+00 0. -1.
         -1    1    3    3    0  502 -0.21928624947E+03 -0.79722641565E+02  0.43151999474E+03  0.49056260013E+03  0.00000000000E+00 0.  1.
         11    1    5    5    0    0  0.17144762199E+03  0.10232687995E+03 -0.17274908608E+03  0.26402144646E+03  0.00000000000E+00 0. -1.
        -11    1    5    5    0    0  0.33359976761E+03  0.19745401663E+03 -0.52544482937E+03  0.65296949572E+03  0.00000000000E+00 0.  1.
          4    1    6    6  503    0 -0.42512193720E+02 -0.65283880257E+01 -0.33404501525E+02  0.54458857748E+02  0.00000000000E+00 0. -1.
         -4    1    6    6    0  503 -0.18862651314E+03 -0.23265187767E+03 -0.38672530951E+03  0.48914550255E+03  0.00000000000E+00 0.  1.
<mgrwt>
<rscale>  0 0.20104469E+04</rscale>
<asrwt>0</asrwt>
<pdfrwt beam="1">  1        2 0.20390945E+00 0.20104469E+04</pdfrwt>
<pdfrwt beam="2">  1       -1 0.11729005E+00 0.20104469E+04</pdfrwt>
<totfact> 0.11065836E+01</totfact>
</mgrwt>
</event>
<event>
12    6  0.1530859E-007  0.1553955E+04  0.7818608E-02  0.8849345E-01
         -1   -1    0    0    0  501 -0.00000000000E+00  0.00000000000E+00  0.10219131921E+04  0.10219131921E+04  0.00000000000E+00 0.  1.
          2   -1    0    0  501    0  0.00000000000E+00 -0.00000000000E+00 -0.59074905404E+03  0.59074905404E+03  0.00000000000E+00 0. -1.
         24    2    1    2    0    0  0.21691778582E+03 -0.33590403174E+03  0.48201317491E+03  0.63131418823E+03  0.79599366352E+02 0.  0.
        254    2    1    2    0    0 -0.21691778582E+03  0.33590403174E+03 -0.50849036889E+02  0.98134805788E+03  0.89474775317E+03 0.  0.
         23    2    4    4    0    0 -0.89891938128E+02  0.32784298149E+03  0.38341610265E+03  0.52007550516E+03  0.88932796211E+02 0.  0.
         23    2    4    4    0    0 -0.12702584770E+03  0.80610502501E+01 -0.43426513954E+03  0.46127255272E+03  0.89362240139E+02 0.  0.
          4    1    3    3  502    0  0.40970128969E+02 -0.85491880549E+02  0.68934215520E+02  0.11721492728E+03  0.00000000000E+00 0. -1.
         -3    1    3    3    0  502  0.17594765685E+03 -0.25041215119E+03  0.41307895939E+03  0.51409926095E+03  0.00000000000E+00 0.  1.
         11    1    5    5    0    0 -0.17688064303E+02  0.64752748509E+02  0.29780662041E+02  0.73434827499E+02  0.00000000000E+00 0.  1.
        -11    1    5    5    0    0 -0.72203873825E+02  0.26309023298E+03  0.35363544061E+03  0.44664067766E+03  0.00000000000E+00 0. -1.
          2    1    6    6  503    0 -0.37507440655E+02 -0.30478939378E+02 -0.22899961877E+03  0.23404401135E+03  0.00000000000E+00 0. -1.
         -2    1    6    6    0  503 -0.89518407041E+02  0.38539989628E+02 -0.20526552077E+03  0.22722854137E+03  0.00000000000E+00 0.  1.
<mgrwt>
<rscale>  0 0.15539553E+04</rscale>
<asrwt>0</asrwt>
<pdfrwt beam="1">  1        2 0.90884470E-01 0.15539553E+04</pdfrwt>
<pdfrwt beam="2">  1       -1 0.15721741E+00 0.15539553E+04</pdfrwt>
<totfact> 0.17052043E+01</totfact>
</mgrwt>
</event>
<event>
12    6  0.1530859E-007  0.1811083E+04  0.7818608E-02  0.8700428E-01
          2   -1    0    0  501    0  0.00000000000E+00  0.00000000000E+00  0.33689654293E+04  0.33689654293E+04  0.00000000000E+00 0. -1.
         -1   -1    0    0    0  501 -0.00000000000E+00 -0.00000000000E+00 -0.24339985850E+03  0.24339985850E+03  0.00000000000E+00 0.  1.
         24    2    1    2    0    0 -0.56747054748E+03  0.25340977936E+03  0.65847847814E+03  0.90876580124E+03  0.77601783465E+02 0.  0.
        254    2    1    2    0    0  0.56747054748E+03 -0.25340977936E+03  0.24670870927E+04  0.27035994866E+04  0.91470876375E+03 0.  0.
         23    2    4    4    0    0  0.79373761730E+03 -0.17444517131E+03  0.21189843921E+04  0.22711660600E+04  0.87463678884E+02 0.  0.
         23    2    4    4    0    0 -0.22626706982E+03 -0.78964608053E+02  0.34810270061E+03  0.43243342664E+03  0.91602303978E+02 0.  0.
          2    1    3    3  502    0 -0.77700846137E+02  0.49856022357E+02  0.13505955607E+03  0.16359745763E+03  0.00000000000E+00 0. -1.
         -1    1    3    3    0  502 -0.48976970134E+03  0.20355375700E+03  0.52341892207E+03  0.74516834361E+03  0.00000000000E+00 0.  1.
         11    1    5    5    0    0  0.55720071310E+02 -0.15003285251E+02  0.22363857483E+03  0.23096328078E+03  0.00000000000E+00 0. -1.
        -11    1    5    5    0    0  0.73801754599E+03 -0.15944188606E+03  0.18953458173E+04  0.20402027792E+04  0.00000000000E+00 0.  1.
          2    1    6    6  503    0 -0.41427459525E+02 -0.49524915261E+02  0.12909764080E+03  0.14434386892E+03  0.00000000000E+00 0. -1.
         -2    1    6    6    0  503 -0.18483961029E+03 -0.29439692792E+02  0.21900505981E+03  0.28808955772E+03  0.00000000000E+00 0.  1.
<mgrwt>
<rscale>  0 0.18110833E+04</rscale>
<asrwt>0</asrwt>
<pdfrwt beam="1">  1        2 0.51830234E+00 0.18110833E+04</pdfrwt>
<pdfrwt beam="2">  1       -1 0.37446135E-01 0.18110833E+04</pdfrwt>
<totfact> 0.74334931E+00</totfact>
</mgrwt>
</event>
<event>
12    6  0.1530859E-007  0.1210364E+04  0.7818608E-02  0.9103833E-01
          2   -1    0    0  501    0  0.00000000000E+00  0.00000000000E+00  0.10712184905E+04  0.10712184905E+04  0.00000000000E+00 0. -1.
         -1   -1    0    0    0  501 -0.00000000000E+00 -0.00000000000E+00 -0.34189607622E+03  0.34189607622E+03  0.00000000000E+00 0.  1.
         24    2    1    2    0    0 -0.21621964642E+03  0.15521696742E+03  0.23223027324E+03  0.36164281690E+03  0.77533120228E+02 0.  0.
        254    2    1    2    0    0  0.21621964642E+03 -0.15521696742E+03  0.49709214100E+03  0.10514717498E+04  0.88749591631E+03 0.  0.
         23    2    4    4    0    0 -0.20235167153E+03 -0.22627725548E+03  0.52716840323E+03  0.61514240516E+03  0.91356761908E+02 0.  0.
         23    2    4    4    0    0  0.41857131795E+03  0.71060288059E+02 -0.30076262234E+02  0.43632934462E+03  0.96058329545E+02 0.  0.
          2    1    3    3  502    0 -0.12785540557E+03  0.13065237077E+03  0.13008080598E+03  0.22436145571E+03  0.00000000000E+00 0. -1.
         -1    1    3    3    0  502 -0.88364240853E+02  0.24564596649E+02  0.10214946726E+03  0.13728136120E+03  0.00000000000E+00 0.  1.
         11    1    5    5    0    0 -0.18883534822E+03 -0.21109126680E+03  0.52243329932E+03  0.59426834334E+03  0.00000000000E+00 0. -1.
        -11    1    5    5    0    0 -0.13516323303E+02 -0.15185988679E+02  0.47351039077E+01  0.20874061819E+02  0.00000000000E+00 0.  1.
          1    1    6    6  503    0  0.40993489519E+03  0.52199286577E+02 -0.21266228561E+02  0.41379177890E+03  0.00000000000E+00 0. -1.
         -1    1    6    6    0  503  0.86364227651E+01  0.18861001481E+02 -0.88100336736E+01  0.22537565716E+02  0.00000000000E+00 0.  1.
<mgrwt>
<rscale>  0 0.12103642E+04</rscale>
<asrwt>0</asrwt>
<pdfrwt beam="1">  1        2 0.16480284E+00 0.12103642E+04</pdfrwt>
<pdfrwt beam="2">  1       -1 0.52599397E-01 0.12103642E+04</pdfrwt>
<totfact> 0.92968387E+01</totfact>
</mgrwt>
</event>
<event>
12    6  0.1530859E-007  0.1163888E+04  0.7818608E-02  0.9145066E-01
          2   -1    0    0  501    0  0.00000000000E+00  0.00000000000E+00  0.15976834156E+04  0.15976834156E+04  0.00000000000E+00 0. -1.
         -1   -1    0    0    0  501 -0.00000000000E+00 -0.00000000000E+00 -0.21196848287E+03  0.21196848287E+03  0.00000000000E+00 0.  1.
         24    2    1    2    0    0  0.30050902710E+03  0.32316990986E+02  0.29904537558E+03  0.43283915287E+03  0.81064988273E+02 0.  0.
        254    2    1    2    0    0 -0.30050902710E+03 -0.32316990986E+02  0.10866695571E+04  0.13768127456E+04  0.78956478309E+03 0.  0.
         23    2    4    4    0    0 -0.46613945150E+03  0.41783463073E+02  0.10732689400E+04  0.11745509917E+04  0.92908387578E+02 0.  0.
         23    2    4    4    0    0  0.16563042440E+03 -0.74100454060E+02  0.13400617122E+02  0.20226175387E+03  0.88351150318E+02 0.  0.
          2    1    3    3  502    0  0.23536618005E+03  0.53893630442E+02  0.20709032914E+03  0.31810087479E+03  0.00000000000E+00 0. -1.
         -1    1    3    3    0  502  0.65142847045E+02 -0.21576639456E+02  0.91955046439E+02  0.11473827808E+03  0.00000000000E+00 0.  1.
         11    1    5    5    0    0 -0.18646789539E+03 -0.24903438151E+02  0.47079864621E+03  0.50699292156E+03  0.00000000000E+00 0. -1.
        -11    1    5    5    0    0 -0.27967155611E+03  0.66686901225E+02  0.60247029380E+03  0.66755807013E+03  0.00000000000E+00 0.  1.
          3    1    6    6  503    0  0.15458631055E+03 -0.44620642657E+02 -0.12658972281E+02  0.16139448175E+03  0.00000000000E+00 0. -1.
         -3    1    6    6    0  503  0.11044113852E+02 -0.29479811403E+02  0.26059589403E+02  0.40867272125E+02  0.00000000000E+00 0.  1.
<mgrwt>
<rscale>  0 0.11638875E+04</rscale>
<asrwt>0</asrwt>
<pdfrwt beam="1">  1        2 0.24579744E+00 0.11638875E+04</pdfrwt>
<pdfrwt beam="2">  1       -1 0.32610537E-01 0.11638875E+04</pdfrwt>
<totfact> 0.11092682E+02</totfact>
</mgrwt>
</event>
<event>
12    6  0.1530859E-007  0.1463648E+04  0.7818608E-02  0.8908993E-01
          2   -1    0    0  501    0  0.00000000000E+00  0.00000000000E+00  0.10335600796E+04  0.10335600796E+04  0.00000000000E+00 0. -1.
         -1   -1    0    0    0  501 -0.00000000000E+00 -0.00000000000E+00 -0.51817659592E+03  0.51817659592E+03  0.00000000000E+00 0.  1.
         24    2    1    2    0    0 -0.42337886618E+03 -0.15252796385E+03  0.10170442484E+03  0.46798157494E+03  0.78412501347E+02 0.  0.
        254    2    1    2    0    0  0.42337886618E+03  0.15252796385E+03  0.41367905880E+03  0.10837551005E+04  0.89491916403E+03 0.  0.
         23    2    4    4    0    0 -0.15741856895E+03  0.14711084613E+03  0.43544346736E+03  0.49565122245E+03  0.98167785704E+02 0.  0.
         23    2    4    4    0    0  0.58079743514E+03  0.54171177142E+01 -0.21764408560E+02  0.58810387808E+03  0.89651972126E+02 0.  0.
          2    1    3    3  502    0 -0.20520277707E+03 -0.10266987170E+03  0.80555738675E+02  0.24318410578E+03  0.00000000000E+00 0. -1.
         -1    1    3    3    0  502 -0.21817608911E+03 -0.49858092143E+02  0.21148686163E+02  0.22479746916E+03  0.00000000000E+00 0.  1.
         11    1    5    5    0    0 -0.11256520969E+03  0.14846402079E+03  0.38761650871E+03  0.43006865699E+03  0.00000000000E+00 0. -1.
        -11    1    5    5    0    0 -0.44853359261E+02 -0.13531746559E+01  0.47826958651E+02  0.65582565461E+02  0.00000000000E+00 0.  1.
          3    1    6    6  503    0  0.40331694342E+03 -0.29202462064E+02 -0.40075023899E+02  0.40635372298E+03  0.00000000000E+00 0. -1.
         -3    1    6    6    0  503  0.17748049172E+03  0.34619579778E+02  0.18310615339E+02  0.18175015510E+03  0.00000000000E+00 0.  1.
<mgrwt>
<rscale>  0 0.14636484E+04</rscale>
<asrwt>0</asrwt>
<pdfrwt beam="1">  1        2 0.15900924E+00 0.14636484E+04</pdfrwt>
<pdfrwt beam="2">  1       -1 0.79719476E-01 0.14636484E+04</pdfrwt>
<totfact> 0.41652883E+01</totfact>
</mgrwt>
</event>
<event>
12    6  0.1530859E-007  0.2401960E+04  0.7818608E-02  0.8438770E-01
          2   -1    0    0  501    0  0.00000000000E+00  0.00000000000E+00  0.11690957885E+04  0.11690957885E+04  0.00000000000E+00 0. -1.
         -1   -1    0    0    0  501 -0.00000000000E+00 -0.00000000000E+00 -0.12337335898E+04  0.12337335898E+04  0.00000000000E+00 0.  1.
         24    2    1    2    0    0  0.50242366726E+03 -0.88388889938E+03  0.56884352630E+02  0.10214310901E+04  0.79978212181E+02 0.  0.
        254    2    1    2    0    0 -0.50242366726E+03  0.88388889938E+03 -0.12152215390E+03  0.13813982882E+04  0.92725642031E+03 0.  0.
         23    2    4    4    0    0 -0.70629859241E+03  0.34282336913E+03 -0.54264153860E+02  0.79218986067E+03  0.90744767839E+02 0.  0.
         23    2    4    4    0    0  0.20387492515E+03  0.54106553024E+03 -0.67258000042E+02  0.58920842757E+03  0.91247133809E+02 0.  0.
          4    1    3    3  502    0  0.22563080966E+03 -0.42872864652E+03 -0.96826209675E+01  0.48457328420E+03  0.00000000000E+00 0. -1.
         -3    1    3    3    0  502  0.27679285760E+03 -0.45516025286E+03  0.66566973598E+02  0.53685780592E+03  0.00000000000E+00 0.  1.
         11    1    5    5    0    0 -0.24419587724E+03  0.11504940190E+03  0.24351959611E+02  0.27103691497E+03  0.00000000000E+00 0. -1.
        -11    1    5    5    0    0 -0.46210271517E+03  0.22777396723E+03 -0.78616113470E+02  0.52115294570E+03  0.00000000000E+00 0.  1.
          2    1    6    6  503    0  0.12459193597E+03  0.21729718064E+03 -0.77348273595E+01  0.25060136228E+03  0.00000000000E+00 0.  1.
         -2    1    6    6    0  503  0.79282989185E+02  0.32376834960E+03 -0.59523172682E+02  0.33860706529E+03  0.00000000000E+00 0. -1.
<mgrwt>
<rscale>  0 0.24019598E+04</rscale>
<asrwt>0</asrwt>
<pdfrwt beam="1">  1        2 0.17986089E+00 0.24019598E+04</pdfrwt>
<pdfrwt beam="2">  1       -1 0.18980517E+00 0.24019598E+04</pdfrwt>
<totfact> 0.35912045E+00</totfact>
</mgrwt>
</event>
<event>
12    6  0.1530859E-007  0.1327436E+04  0.7818608E-02  0.9008087E-01
          2   -1    0    0  501    0  0.00000000000E+00  0.00000000000E+00  0.98970196404E+03  0.98970196404E+03  0.00000000000E+00 0. -1.
         -1   -1    0    0    0  501 -0.00000000000E+00 -0.00000000000E+00 -0.44510535473E+03  0.44510535473E+03  0.00000000000E+00 0.  1.
         24    2    1    2    0    0  0.39454477756E+02 -0.35202287061E+03  0.19464236209E+03  0.41161931661E+03  0.77897724230E+02 0.  0.
        254    2    1    2    0    0 -0.39454477756E+02  0.35202287061E+03  0.34995424722E+03  0.10231880022E+04  0.89385063370E+03 0.  0.
         23    2    4    4    0    0  0.19267017636E+03  0.70978118096E+02  0.55229648514E+03  0.59645437823E+03  0.92556618901E+02 0.  0.
         23    2    4    4    0    0 -0.23212465412E+03  0.28104475251E+03 -0.20234223792E+03  0.42673362393E+03  0.91056007919E+02 0.  0.
          2    1    3    3  502    0  0.49098476100E+02 -0.25970381260E+03  0.17427723933E+03  0.31659009268E+03  0.00000000000E+00 0. -1.
         -1    1    3    3    0  502 -0.96439983439E+01 -0.92319058015E+02  0.20365122759E+02  0.95029223936E+02  0.00000000000E+00 0.  1.
         11    1    5    5    0    0  0.16910230385E+03  0.87137424887E+02  0.51792280551E+03  0.55175406881E+03  0.00000000000E+00 0. -1.
        -11    1    5    5    0    0  0.23567872508E+02 -0.16159306792E+02  0.34373679631E+02  0.44700309416E+02  0.00000000000E+00 0.  1.
          1    1    6    6  503    0 -0.23078690166E+03  0.23929540823E+03 -0.19115492585E+03  0.38349066750E+03  0.00000000000E+00 0. -1.
         -1    1    6    6    0  503 -0.13377524577E+01  0.41749344281E+02 -0.11187312069E+02  0.43242956431E+02  0.00000000000E+00 0.  1.
<mgrwt>
<rscale>  0 0.13274361E+04</rscale>
<asrwt>0</asrwt>
<pdfrwt beam="1">  1        2 0.15226184E+00 0.13274361E+04</pdfrwt>
<pdfrwt beam="2">  1       -1 0.68477747E-01 0.13274361E+04</pdfrwt>
<totfact> 0.61627709E+01</totfact>
</mgrwt>
</event>
<event>
12    6  0.1530859E-007  0.1277632E+04  0.7818608E-02  0.9047494E-01
         -3   -1    0    0    0  501 -0.00000000000E+00  0.00000000000E+00  0.20599163023E+03  0.20599163023E+03  0.00000000000E+00 0.  1.
          2   -1    0    0  501    0  0.00000000000E+00 -0.00000000000E+00 -0.19810785151E+04  0.19810785151E+04  0.00000000000E+00 0. -1.
         24    2    1    2    0    0 -0.61403570173E+01  0.23294664593E+03 -0.10796233216E+03  0.26902031871E+03  0.80088843660E+02 0.  0.
        254    2    1    2    0    0  0.61403570173E+01 -0.23294664593E+03 -0.16671245527E+04  0.19180498267E+04  0.91940688454E+03 0.  0.
         23    2    4    4    0    0  0.33748073603E+03 -0.32451474212E+02 -0.13892089438E+04  0.14327784189E+04  0.89477162909E+02 0.  0.
         23    2    4    4    0    0 -0.33134037901E+03 -0.20049517171E+03 -0.27791560895E+03  0.48527140779E+03  0.90920255578E+02 0.  0.
          2    1    3    3  502    0 -0.17047261846E+02  0.15785160524E+03 -0.10992929833E+03  0.19311185631E+03  0.00000000000E+00 0. -1.
         -1    1    3    3    0  502  0.10906904829E+02  0.75095040682E+02  0.19669661698E+01  0.75908462400E+02  0.00000000000E+00 0.  1.
         11    1    5    5    0    0  0.31979486218E+03 -0.34137742757E+02 -0.13670763814E+04  0.14043973697E+04  0.00000000000E+00 0.  1.
        -11    1    5    5    0    0  0.17685873854E+02  0.16862685450E+01 -0.22132562414E+02  0.28381049215E+02  0.00000000000E+00 0. -1.
          2    1    6    6  503    0 -0.89352470760E+02 -0.34194146018E+02 -0.11460069278E+03  0.14928637727E+03  0.00000000000E+00 0. -1.
         -2    1    6    6    0  503 -0.24198790825E+03 -0.16630102570E+03 -0.16331491616E+03  0.33598503052E+03  0.00000000000E+00 0.  1.
<mgrwt>
<rscale>  0 0.12776315E+04</rscale>
<asrwt>0</asrwt>
<pdfrwt beam="1">  1        2 0.30478131E+00 0.12776315E+04</pdfrwt>
<pdfrwt beam="2">  1       -3 0.31691020E-01 0.12776315E+04</pdfrwt>
<totfact> 0.42463228E+01</totfact>
</mgrwt>
</event>
<event>
12    6  0.1530859E-007  0.2171865E+04  0.7818608E-02  0.8530230E-01
          2   -1    0    0  501    0  0.00000000000E+00  0.00000000000E+00  0.22769062770E+04  0.22769062770E+04  0.00000000000E+00 0. -1.
         -1   -1    0    0    0  501 -0.00000000000E+00 -0.00000000000E+00 -0.51791761684E+03  0.51791761684E+03  0.00000000000E+00 0.  1.
         24    2    1    2    0    0  0.10229781738E+03  0.49581937687E+03  0.16622690757E+04  0.17394939684E+04  0.79994301526E+02 0.  0.
        254    2    1    2    0    0 -0.10229781738E+03 -0.49581937687E+03  0.96719584420E+02  0.10553299254E+04  0.92090437911E+03 0.  0.
         23    2    4    4    0    0 -0.21157620248E+01 -0.69080379769E+03  0.28462670268E+03  0.75281292110E+03  0.92198540882E+02 0.  0.
         23    2    4    4    0    0 -0.10018205536E+03  0.19498442082E+03 -0.18790711826E+03  0.30251700428E+03  0.90288893038E+02 0.  0.
          4    1    3    3  502    0  0.68494536428E+02  0.43401457164E+03  0.13642096880E+04  0.14332230192E+04  0.00000000000E+00 0. -1.
         -3    1    3    3    0  502  0.33803280953E+02  0.61804805225E+02  0.29805938772E+03  0.30627094926E+03  0.00000000000E+00 0.  1.
         11    1    5    5    0    0 -0.53328116145E+01 -0.69193790417E+03  0.28649562051E+03  0.74892338906E+03  0.00000000000E+00 0.  1.
        -11    1    5    5    0    0  0.32170495897E+01  0.11341064850E+01 -0.18689178316E+01  0.38895320340E+01  0.00000000000E+00 0. -1.
          3    1    6    6  503    0 -0.86097842634E+02  0.69458192090E+02 -0.82461400379E+02  0.13797522063E+03  0.00000000000E+00 0. -1.
         -3    1    6    6    0  503 -0.14084212722E+02  0.12552622873E+03 -0.10544571788E+03  0.16454178365E+03  0.00000000000E+00 0.  1.
<mgrwt>
<rscale>  0 0.21718654E+04</rscale>
<asrwt>0</asrwt>
<pdfrwt beam="1">  1        2 0.35029327E+00 0.21718654E+04</pdfrwt>
<pdfrwt beam="2">  1       -1 0.79679635E-01 0.21718654E+04</pdfrwt>
<totfact> 0.76644024E+00</totfact>
</mgrwt>
</event>
<event>
12    6  0.1530859E-007  0.1409828E+04  0.7818608E-02  0.8946735E-01
         -1   -1    0    0    0  501 -0.00000000000E+00  0.00000000000E+00  0.75309496663E+03  0.75309496663E+03  0.00000000000E+00 0.  1.
          2   -1    0    0  501    0  0.00000000000E+00 -0.00000000000E+00 -0.65981576611E+03  0.65981576611E+03  0.00000000000E+00 0. -1.
         24    2    1    2    0    0 -0.20909913791E+03  0.25665304895E+03 -0.22123696083E+03  0.40599931114E+03  0.79349926271E+02 0.  0.
        254    2    1    2    0    0  0.20909913791E+03 -0.25665304895E+03  0.31451616136E+03  0.10069114216E+04  0.89741682521E+03 0.  0.
         23    2    4    4    0    0 -0.56336391632E+02 -0.24410843520E+03 -0.25681955595E+03  0.37004917524E+03  0.90649824134E+02 0.  0.
         23    2    4    4    0    0  0.26543552955E+03 -0.12544613755E+02  0.57133571731E+03  0.63686224636E+03  0.92496655534E+02 0.  0.
          4    1    3    3  502    0 -0.14088224356E+03  0.14062546815E+03 -0.17071388938E+03  0.26223379048E+03  0.00000000000E+00 0. -1.
         -3    1    3    3    0  502 -0.68216894350E+02  0.11602758081E+03 -0.50523071446E+02  0.14376552066E+03  0.00000000000E+00 0.  1.
         11    1    5    5    0    0  0.63577353006E+01 -0.63324362805E+01 -0.43802080863E+02  0.44711775131E+02  0.00000000000E+00 0. -1.
        -11    1    5    5    0    0 -0.62694126933E+02 -0.23777599892E+03 -0.21301747509E+03  0.32533740011E+03  0.00000000000E+00 0.  1.
          2    1    6    6  503    0  0.13682358289E+03 -0.52533178648E+02  0.30711214117E+03  0.34029148526E+03  0.00000000000E+00 0. -1.
         -2    1    6    6    0  503  0.12861194666E+03  0.39988564893E+02  0.26422357614E+03  0.29657076110E+03  0.00000000000E+00 0.  1.
<mgrwt>
<rscale>  0 0.14098283E+04</rscale>
<asrwt>0</asrwt>
<pdfrwt beam="1">  1        2 0.10151012E+00 0.14098283E+04</pdfrwt>
<pdfrwt beam="2">  1       -1 0.11586076E+00 0.14098283E+04</pdfrwt>
<totfact> 0.33073896E+01</totfact>
</mgrwt>
</event>
<event>
12    6  0.1530859E-007  0.1369067E+04  0.7818608E-02  0.8976519E-01
         -1   -1    0    0    0  501 -0.00000000000E+00  0.00000000000E+00  0.74719463033E+03  0.74719463033E+03  0.00000000000E+00 0.  1.
          2   -1    0    0  501    0  0.00000000000E+00 -0.00000000000E+00 -0.62712728976E+03  0.62712728976E+03  0.00000000000E+00 0. -1.
         24    2    1    2    0    0  0.19140205723E+03 -0.30182575852E+03  0.17571520346E+03  0.40601482470E+03  0.78985246280E+02 0.  0.
        254    2    1    2    0    0 -0.19140205723E+03  0.30182575852E+03 -0.55647862888E+02  0.96830709539E+03  0.89821401142E+03 0.  0.
         23    2    4    4    0    0 -0.42429803301E+03  0.46501518838E+03 -0.15395967474E+03  0.65450295479E+03  0.91665643167E+02 0.  0.
         23    2    4    4    0    0  0.23289597578E+03 -0.16318942986E+03  0.98311811855E+02  0.31380414060E+03  0.89087040334E+02 0.  0.
          2    1    3    3  502    0  0.15199388465E+03 -0.19632540279E+03  0.88552181115E+02  0.26360442624E+03  0.00000000000E+00 0. -1.
         -3    1    3    3    0  502  0.39408172577E+02 -0.10550035573E+03  0.87163022347E+02  0.14241039846E+03  0.00000000000E+00 0.  1.
         11    1    5    5    0    0 -0.35153821457E+02  0.81731422839E+02 -0.92279678756E+01  0.89448152767E+02  0.00000000000E+00 0.  1.
        -11    1    5    5    0    0 -0.38914421155E+03  0.38328376554E+03 -0.14473170687E+03  0.56505480202E+03  0.00000000000E+00 0. -1.
          2    1    6    6  503    0  0.17973389803E+03 -0.16320385944E+03  0.94454665427E+02  0.26050231795E+03  0.00000000000E+00 0. -1.
         -2    1    6    6    0  503  0.53162077756E+02  0.14429582326E-01  0.38571464287E+01  0.53301822653E+02  0.00000000000E+00 0.  1.
<mgrwt>
<rscale>  0 0.13690670E+04</rscale>
<asrwt>0</asrwt>
<pdfrwt beam="1">  1        2 0.96481122E-01 0.13690670E+04</pdfrwt>
<pdfrwt beam="2">  1       -1 0.11495302E+00 0.13690670E+04</pdfrwt>
<totfact> 0.36002307E+01</totfact>
</mgrwt>
</event>
<event>
12    6  0.1530859E-007  0.1318597E+04  0.7818608E-02  0.9014946E-01
          2   -1    0    0  501    0  0.00000000000E+00  0.00000000000E+00  0.14873873208E+04  0.14873873208E+04  0.00000000000E+00 0. -1.
         -1   -1    0    0    0  501 -0.00000000000E+00 -0.00000000000E+00 -0.29224036488E+03  0.29224036488E+03  0.00000000000E+00 0.  1.
         24    2    1    2    0    0  0.33612132495E+03  0.56572314002E+02  0.33525467407E+03  0.48473766002E+03  0.79980814916E+02 0.  0.
        254    2    1    2    0    0 -0.33612132495E+03 -0.56572314002E+02  0.85989228183E+03  0.12948900257E+04  0.90617187684E+03 0.  0.
         23    2    4    4    0    0 -0.13016611873E+03  0.15221773255E+02 -0.17259854130E+03  0.23550949096E+03  0.92192966242E+02 0.  0.
         23    2    4    4    0    0 -0.20595520622E+03 -0.71794087257E+02  0.10324908231E+04  0.10593805347E+04  0.93155136767E+02 0.  0.
          4    1    3    3  502    0  0.33183355023E+03  0.67231195356E+02  0.32555675963E+03  0.46970282353E+03  0.00000000000E+00 0. -1.
         -3    1    3    3    0  502  0.42877747177E+01 -0.10658881354E+02  0.96979144367E+01  0.15034836487E+02  0.00000000000E+00 0.  1.
         11    1    5    5    0    0  0.30781236002E+01 -0.13945642042E+01  0.90264950155E+01  0.96383228045E+01  0.00000000000E+00 0. -1.
        -11    1    5    5    0    0 -0.13324424233E+03  0.16616337459E+02 -0.18162503632E+03  0.22587116815E+03  0.00000000000E+00 0.  1.
          1    1    6    6  503    0 -0.56219824507E+02 -0.61080436514E+02  0.27932735736E+03  0.29140223225E+03  0.00000000000E+00 0. -1.
         -1    1    6    6    0  503 -0.14973538171E+03 -0.10713650743E+02  0.75316346577E+03  0.76797830244E+03  0.00000000000E+00 0.  1.
<mgrwt>
<rscale>  0 0.13185972E+04</rscale>
<asrwt>0</asrwt>
<pdfrwt beam="1">  1        2 0.22882881E+00 0.13185972E+04</pdfrwt>
<pdfrwt beam="2">  1       -1 0.44960057E-01 0.13185972E+04</pdfrwt>
<totfact> 0.70593249E+01</totfact>
</mgrwt>
</event>
<event>
12    6  0.1530859E-007  0.1418203E+04  0.7818608E-02  0.8940747E-01
          2   -1    0    0  501    0  0.00000000000E+00  0.00000000000E+00  0.18776793377E+04  0.18776793377E+04  0.00000000000E+00 0. -1.
         -1   -1    0    0    0  501 -0.00000000000E+00 -0.00000000000E+00 -0.26779047916E+03  0.26779047916E+03  0.00000000000E+00 0.  1.
         24    2    1    2    0    0  0.62354374589E+02  0.49053346559E+02  0.11007522324E+04  0.11060505968E+04  0.73472080367E+02 0.  0.
        254    2    1    2    0    0 -0.62354374589E+02 -0.49053346559E+02  0.50913662611E+03  0.10394192201E+04  0.90270588354E+03 0.  0.
         23    2    4    4    0    0 -0.42139958330E+03 -0.13433795975E+03  0.66450949526E+02  0.45577181365E+03  0.87680791461E+02 0.  0.
         23    2    4    4    0    0  0.35904520871E+03  0.85284613187E+02  0.44268567658E+03  0.58364740642E+03  0.92123610613E+02 0.  0.
          2    1    3    3  502    0  0.90087392358E+01 -0.64175655278E+01  0.53202189618E+03  0.53213686261E+03  0.00000000000E+00 0. -1.
         -1    1    3    3    0  502  0.53345635353E+02  0.55470912087E+02  0.56873033625E+03  0.57391373417E+03  0.00000000000E+00 0.  1.
         11    1    5    5    0    0 -0.58629621820E+02 -0.82567662521E+01  0.38660347641E+02  0.70712298954E+02  0.00000000000E+00 0. -1.
        -11    1    5    5    0    0 -0.36276996148E+03 -0.12608119349E+03  0.27790601886E+02  0.38505951470E+03  0.00000000000E+00 0.  1.
          3    1    6    6  503    0  0.11656282926E+03  0.70867802454E+02  0.13889488182E+03  0.19468160362E+03  0.00000000000E+00 0. -1.
         -3    1    6    6    0  503  0.24248237945E+03  0.14416810733E+02  0.30379079476E+03  0.38896580281E+03  0.00000000000E+00 0.  1.
<mgrwt>
<rscale>  0 0.14182026E+04</rscale>
<asrwt>0</asrwt>
<pdfrwt beam="1">  1        2 0.28887374E+00 0.14182026E+04</pdfrwt>
<pdfrwt beam="2">  1       -1 0.41198536E-01 0.14182026E+04</pdfrwt>
<totfact> 0.49924290E+01</totfact>
</mgrwt>
</event>
<event>
12    6  0.1530859E-007  0.1152021E+04  0.7818608E-02  0.9155921E-01
          2   -1    0    0  501    0  0.00000000000E+00  0.00000000000E+00  0.11386897697E+04  0.11386897697E+04  0.00000000000E+00 0. -1.
         -1   -1    0    0    0  501 -0.00000000000E+00 -0.00000000000E+00 -0.29137686534E+03  0.29137686534E+03  0.00000000000E+00 0.  1.
         24    2    1    2    0    0  0.12993383680E+03 -0.10641962306E+03  0.32392520267E+03  0.37686063585E+03  0.94278649792E+02 0.  0.
        254    2    1    2    0    0 -0.12993383680E+03  0.10641962306E+03  0.52338770170E+03  0.10532059992E+04  0.89838758471E+03 0.  0.
         23    2    4    4    0    0  0.32356992235E+03  0.25540993557E+03  0.18392215806E+03  0.46051396398E+03  0.91181253330E+02 0.  0.
         23    2    4    4    0    0 -0.45350375915E+03 -0.14899031251E+03  0.33946554364E+03  0.59269203523E+03  0.90461154719E+02 0.  0.
          4    1    3    3  502    0  0.10106028889E+03 -0.23339645405E+02  0.15672833973E+03  0.18794066487E+03  0.00000000000E+00 0. -1.
         -3    1    3    3    0  502  0.28873547917E+02 -0.83079977651E+02  0.16719686294E+03  0.18891997097E+03  0.00000000000E+00 0.  1.
         11    1    5    5    0    0  0.24245516981E+03  0.23297696361E+03  0.16360012480E+03  0.37393552355E+03  0.00000000000E+00 0. -1.
        -11    1    5    5    0    0  0.81114752544E+02  0.22432971954E+02  0.20322033262E+02  0.86578440428E+02  0.00000000000E+00 0.  1.
          1    1    6    6  503    0 -0.40466103518E+03 -0.15157399859E+03  0.32787307914E+03  0.54242601935E+03  0.00000000000E+00 0. -1.
         -1    1    6    6    0  503 -0.48842723974E+02  0.25836860786E+01  0.11592464497E+02  0.50266015876E+02  0.00000000000E+00 0.  1.
<mgrwt>
<rscale>  0 0.11520206E+04</rscale>
<asrwt>0</asrwt>
<pdfrwt beam="1">  1        2 0.17518304E+00 0.11520206E+04</pdfrwt>
<pdfrwt beam="2">  1       -1 0.44827211E-01 0.11520206E+04</pdfrwt>
<totfact> 0.11475299E+02</totfact>
</mgrwt>
</event>
<event>
12    6  0.1530859E-007  0.3179332E+04  0.7818608E-02  0.8194297E-01
          2   -1    0    0  501    0  0.00000000000E+00  0.00000000000E+00  0.13172174123E+04  0.13172174123E+04  0.00000000000E+00 0. -1.
         -1   -1    0    0    0  501 -0.00000000000E+00 -0.00000000000E+00 -0.19184666266E+04  0.19184666266E+04  0.00000000000E+00 0.  1.
         24    2    1    2    0    0  0.11968556116E+04  0.65337541189E+03 -0.82085914410E+03  0.15924651463E+04  0.52656659067E+02 0.  0.
        254    2    1    2    0    0 -0.11968556116E+04 -0.65337541189E+03  0.21960992974E+03  0.16432188926E+04  0.89026795059E+03 0.  0.
         23    2    4    4    0    0 -0.66249422881E+03  0.12407182679E+03  0.91041017580E+02  0.68643680159E+03  0.92814838695E+02 0.  0.
         23    2    4    4    0    0 -0.53436138281E+03 -0.77744723867E+03  0.12856891216E+03  0.95678209102E+03  0.94528874717E+02 0.  0.
          4    1    3    3  502    0  0.15392753268E+02  0.88298559301E+01 -0.18320461699E+02  0.25505735155E+02  0.00000000000E+00 0. -1.
         -1    1    3    3    0  502  0.11814628584E+04  0.64454555596E+03 -0.80253868240E+03  0.15669594111E+04  0.00000000000E+00 0.  1.
         11    1    5    5    0    0 -0.10102977284E+03 -0.14182035516E+02  0.91239627039E+01  0.10242749546E+03  0.00000000000E+00 0.  1.
        -11    1    5    5    0    0 -0.56146445597E+03  0.13825386230E+03  0.81917054876E+02  0.58400930613E+03  0.00000000000E+00 0. -1.
          3    1    6    6  503    0 -0.44435635987E+03 -0.59213338603E+03  0.76314658057E+02  0.74424354108E+03  0.00000000000E+00 0. -1.
         -3    1    6    6    0  503 -0.90005022939E+02 -0.18531385265E+03  0.52254254102E+02  0.21253854994E+03  0.00000000000E+00 0.  1.
<mgrwt>
<rscale>  0 0.31793318E+04</rscale>
<asrwt>0</asrwt>
<pdfrwt beam="1">  1        2 0.20264883E+00 0.31793318E+04</pdfrwt>
<pdfrwt beam="2">  1       -1 0.29514871E+00 0.31793318E+04</pdfrwt>
<totfact> 0.55093160E-01</totfact>
</mgrwt>
</event>
<event>
12    6  0.1530859E-007  0.9766547E+03  0.7818608E-02  0.9334527E-01
         -1   -1    0    0    0  501 -0.00000000000E+00  0.00000000000E+00  0.46952772011E+03  0.46952772011E+03  0.00000000000E+00 0.  1.
          2   -1    0    0  501    0  0.00000000000E+00 -0.00000000000E+00 -0.50787975808E+03  0.50787975808E+03  0.00000000000E+00 0. -1.
         24    2    1    2    0    0 -0.41260615889E+02 -0.10063329715E+02  0.28456195002E+02  0.95557632002E+02  0.80732874168E+02 0.  0.
        254    2    1    2    0    0  0.41260615889E+02  0.10063329715E+02 -0.66808232976E+02  0.88184984619E+03  0.87828930439E+03 0.  0.
         23    2    4    4    0    0  0.42484517545E+03  0.14683701713E+03 -0.74299832343E+02  0.46442094582E+03  0.90065626754E+02 0.  0.
         23    2    4    4    0    0 -0.38358455956E+03 -0.13677368742E+03  0.74915993668E+01  0.41742890037E+03  0.91359766293E+02 0.  0.
          2    1    3    3  502    0 -0.20789851499E+02  0.22237893468E+02 -0.18015912363E+02  0.35373930083E+02  0.00000000000E+00 0. -1.
         -1    1    3    3    0  502 -0.20470764389E+02 -0.32301223183E+02  0.46472107365E+02  0.60183701919E+02  0.00000000000E+00 0.  1.
         11    1    5    5    0    0  0.34883335179E+03  0.15329922118E+03 -0.73909290279E+02  0.38813392241E+03  0.00000000000E+00 0.  1.
        -11    1    5    5    0    0  0.76011823663E+02 -0.64622040441E+01 -0.39054206369E+00  0.76287023410E+02  0.00000000000E+00 0. -1.
          1    1    6    6  503    0 -0.18726129010E+02 -0.32489900151E+02 -0.45080019419E+01  0.37770141660E+02  0.00000000000E+00 0. -1.
         -1    1    6    6    0  503 -0.36485843056E+03 -0.10428378727E+03  0.11999601309E+02  0.37965875871E+03  0.00000000000E+00 0.  1.
<mgrwt>
<rscale>  0 0.97665475E+03</rscale>
<asrwt>0</asrwt>
<pdfrwt beam="1">  1        2 0.78135348E-01 0.97665475E+03</pdfrwt>
<pdfrwt beam="2">  1       -1 0.72235034E-01 0.97665475E+03</pdfrwt>
<totfact> 0.13369139E+02</totfact>
</mgrwt>
</event>
<event>
12    6  0.1530859E-007  0.1304573E+04  0.7818608E-02  0.9025947E-01
          2   -1    0    0  501    0  0.00000000000E+00  0.00000000000E+00  0.82070870608E+03  0.82070870608E+03  0.00000000000E+00 0. -1.
         -3   -1    0    0    0  501 -0.00000000000E+00 -0.00000000000E+00 -0.51842700478E+03  0.51842700478E+03  0.00000000000E+00 0.  1.
         24    2    1    2    0    0 -0.15699988713E+03 -0.49316192064E+02 -0.22962118847E+03  0.29219810265E+03  0.74651119502E+02 0.  0.
        254    2    1    2    0    0  0.15699988713E+03  0.49316192064E+02  0.53190288976E+03  0.10469376082E+04  0.88660962096E+03 0.  0.
         23    2    4    4    0    0  0.29930811839E+03  0.32051901278E+03  0.56843171846E+03  0.72379451857E+03  0.91902661946E+02 0.  0.
         23    2    4    4    0    0 -0.14230823126E+03 -0.27120282071E+03 -0.36528828702E+02  0.32314308964E+03  0.96356102077E+02 0.  0.
          4    1    3    3  502    0 -0.14872751022E+02  0.56720895842E+01  0.80416243157E+00  0.15937942165E+02  0.00000000000E+00 0. -1.
         -3    1    3    3    0  502 -0.14212713611E+03 -0.54988281648E+02 -0.23042535090E+03  0.27626016049E+03  0.00000000000E+00 0.  1.
         11    1    5    5    0    0  0.52054695926E+02  0.33870071814E+02  0.13321254424E+03  0.14697773667E+03  0.00000000000E+00 0.  1.
        -11    1    5    5    0    0  0.24725342246E+03  0.28664894096E+03  0.43521917422E+03  0.57681678190E+03  0.00000000000E+00 0. -1.
          2    1    6    6  503    0 -0.68333641072E+02 -0.12362447809E+03 -0.65227634214E+02  0.15558644655E+03  0.00000000000E+00 0. -1.
         -2    1    6    6    0  503 -0.73974590187E+02 -0.14757834263E+03  0.28698805512E+02  0.16755664309E+03  0.00000000000E+00 0.  1.
<mgrwt>
<rscale>  0 0.13045728E+04</rscale>
<asrwt>0</asrwt>
<pdfrwt beam="1">  1        2 0.12626288E+00 0.13045728E+04</pdfrwt>
<pdfrwt beam="2">  1       -3 0.79758000E-01 0.13045728E+04</pdfrwt>
<totfact> 0.30270231E+01</totfact>
</mgrwt>
</event>
<event>
12    6  0.1530859E-007  0.1338626E+04  0.7818608E-02  0.8999483E-01
          2   -1    0    0  501    0  0.00000000000E+00  0.00000000000E+00  0.16808659434E+04  0.16808659434E+04  0.00000000000E+00 0. -1.
         -1   -1    0    0    0  501 -0.00000000000E+00 -0.00000000000E+00 -0.26651742821E+03  0.26651742821E+03  0.00000000000E+00 0.  1.
         24    2    1    2    0    0 -0.12240315157E+03  0.56618920928E+02  0.90315476029E+03  0.91658977966E+03  0.79120600405E+02 0.  0.
        254    2    1    2    0    0  0.12240315157E+03 -0.56618920928E+02  0.51119375494E+03  0.10307935920E+04  0.88488877296E+03 0.  0.
         23    2    4    4    0    0  0.13926039511E+03  0.36132043372E+03  0.46094801747E+02  0.39905153660E+03  0.84684618707E+02 0.  0.
         23    2    4    4    0    0 -0.16857243545E+02 -0.41793935465E+03  0.46509895320E+03  0.63174205540E+03  0.88450649960E+02 0.  0.
          2    1    3    3  502    0 -0.11089834659E+03  0.19469799599E+02  0.75794706108E+03  0.76626448683E+03  0.00000000000E+00 0. -1.
         -1    1    3    3    0  502 -0.11504804971E+02  0.37149121329E+02  0.14520769921E+03  0.15032529282E+03  0.00000000000E+00 0.  1.
         11    1    5    5    0    0  0.10906432930E+03  0.30473410967E+03  0.66052955138E+01  0.32373065263E+03  0.00000000000E+00 0. -1.
        -11    1    5    5    0    0  0.30196065811E+02  0.56586324051E+02  0.39489506234E+02  0.75320883974E+02  0.00000000000E+00 0.  1.
          2    1    6    6  503    0  0.33578467797E+02 -0.24682093278E+03  0.27515492178E+03  0.37115807594E+03  0.00000000000E+00 0. -1.
         -2    1    6    6    0  503 -0.50435711342E+02 -0.17111842187E+03  0.18994403141E+03  0.26058397946E+03  0.00000000000E+00 0.  1.
<mgrwt>
<rscale>  0 0.13386263E+04</rscale>
<asrwt>0</asrwt>
<pdfrwt beam="1">  1        2 0.25859475E+00 0.13386263E+04</pdfrwt>
<pdfrwt beam="2">  1       -1 0.41002682E-01 0.13386263E+04</pdfrwt>
<totfact> 0.65140168E+01</totfact>
</mgrwt>
</event>
<event>
12    6  0.1530859E-007  0.1266853E+04  0.7818608E-02  0.9056272E-01
         -1   -1    0    0    0  501 -0.00000000000E+00  0.00000000000E+00  0.32631725074E+03  0.32631725074E+03  0.00000000000E+00 0.  1.
          2   -1    0    0  501    0  0.00000000000E+00 -0.00000000000E+00 -0.12295682848E+04  0.12295682848E+04  0.00000000000E+00 0. -1.
         24    2    1    2    0    0  0.72835505270E+02 -0.22561091924E+03 -0.50281489135E+03  0.56147866873E+03  0.78931506856E+02 0.  0.
        254    2    1    2    0    0 -0.72835505270E+02  0.22561091924E+03 -0.40043614268E+03  0.99440686677E+03  0.87880066831E+03 0.  0.
         23    2    4    4    0    0 -0.24814595420E+02  0.29506106414E+03  0.20824508232E+03  0.37284436229E+03  0.89275463941E+02 0.  0.
         23    2    4    4    0    0 -0.48020909850E+02 -0.69450144908E+02 -0.60868122500E+03  0.62156250449E+03  0.93369068265E+02 0.  0.
          4    1    3    3  502    0  0.77175993586E+02 -0.23055060186E+03 -0.49258757415E+03  0.54931979048E+03  0.00000000000E+00 0. -1.
         -3    1    3    3    0  502 -0.43404883164E+01  0.49396826288E+01 -0.10227317196E+02  0.12158878251E+02  0.00000000000E+00 0.  1.
         11    1    5    5    0    0 -0.30283334971E+02  0.22509625207E+03  0.19916790072E+03  0.30208153825E+03  0.00000000000E+00 0. -1.
        -11    1    5    5    0    0  0.54687395503E+01  0.69964812070E+02  0.90771815985E+01  0.70762824040E+02  0.00000000000E+00 0.  1.
          4    1    6    6  503    0 -0.71850294200E+02 -0.58334140037E+02 -0.54269997567E+03  0.55053483110E+03  0.00000000000E+00 0. -1.
         -4    1    6    6    0  503  0.23829384351E+02 -0.11116004871E+02 -0.65981249330E+02  0.71027673381E+02  0.00000000000E+00 0.  1.
<mgrwt>
<rscale>  0 0.12668533E+04</rscale>
<asrwt>0</asrwt>
<pdfrwt beam="1">  1        2 0.18916435E+00 0.12668533E+04</pdfrwt>
<pdfrwt beam="2">  1       -1 0.50202655E-01 0.12668533E+04</pdfrwt>
<totfact> 0.81107025E+01</totfact>
</mgrwt>
</event>
<event>
12    6  0.1530859E-007  0.1489743E+04  0.7818608E-02  0.8891303E-01
          2   -1    0    0  501    0  0.00000000000E+00  0.00000000000E+00  0.40288818420E+03  0.40288818420E+03  0.00000000000E+00 0. -1.
         -1   -1    0    0    0  501 -0.00000000000E+00 -0.00000000000E+00 -0.13771396607E+04  0.13771396607E+04  0.00000000000E+00 0.  1.
         24    2    1    2    0    0 -0.63718843251E+02  0.16796102527E+03 -0.86811296555E+03  0.88995208647E+03  0.78253423226E+02 0.  0.
        254    2    1    2    0    0  0.63718843251E+02 -0.16796102527E+03 -0.10613851095E+03  0.89007575844E+03  0.86527364184E+03 0.  0.
         23    2    4    4    0    0 -0.22832846010E+03 -0.42077885788E+03 -0.62927542774E+02  0.49095404150E+03  0.88810260080E+02 0.  0.
         23    2    4    4    0    0  0.29204730335E+03  0.25281783261E+03 -0.43210968178E+02  0.39912171695E+03  0.90677854467E+02 0.  0.
          2    1    3    3  502    0 -0.45212314889E+02  0.26366227478E+02 -0.19869324519E+03  0.20547101268E+03  0.00000000000E+00 0. -1.
         -1    1    3    3    0  502 -0.18506528362E+02  0.14159479779E+03 -0.66941972037E+03  0.68448107378E+03  0.00000000000E+00 0.  1.
         11    1    5    5    0    0 -0.18151915417E+02 -0.24153996696E+02  0.17526277617E+02  0.34929614897E+02  0.00000000000E+00 0. -1.
        -11    1    5    5    0    0 -0.21017654468E+03 -0.39662486118E+03 -0.80453820391E+02  0.45602442660E+03  0.00000000000E+00 0.  1.
          2    1    6    6  503    0  0.16156277755E+02  0.42555296098E+02 -0.24602565730E+02  0.51742291961E+02  0.00000000000E+00 0. -1.
         -2    1    6    6    0  503  0.27589102559E+03  0.21026253651E+03 -0.18608402449E+02  0.34737942499E+03  0.00000000000E+00 0.  1.
<mgrwt>
<rscale>  0 0.14897427E+04</rscale>
<asrwt>0</asrwt>
<pdfrwt beam="1">  1        2 0.61982797E-01 0.14897427E+04</pdfrwt>
<pdfrwt beam="2">  1       -1 0.21186764E+00 0.14897427E+04</pdfrwt>
<totfact> 0.10893657E+01</totfact>
</mgrwt>
</event>
<event>
12    6  0.1530859E-007  0.2224339E+04  0.7818608E-02  0.8508365E-01
         -1   -1    0    0    0  501 -0.00000000000E+00  0.00000000000E+00  0.48242091400E+03  0.48242091400E+03  0.00000000000E+00 0.  1.
          2   -1    0    0  501    0  0.00000000000E+00 -0.00000000000E+00 -0.25639877196E+04  0.25639877196E+04  0.00000000000E+00 0. -1.
         24    2    1    2    0    0  0.89008930222E+03 -0.18976388586E+03 -0.11043382736E+04  0.14332675216E+04  0.80146537659E+02 0.  0.
        254    2    1    2    0    0 -0.89008930222E+03  0.18976388586E+03 -0.97722853204E+03  0.16131411121E+04  0.90497477608E+03 0.  0.
         23    2    4    4    0    0  0.54269464582E+02 -0.18095578218E+03 -0.37693742245E+03  0.43062450727E+03  0.87552703704E+02 0.  0.
         23    2    4    4    0    0 -0.94435876681E+03  0.37071966804E+03 -0.60029110959E+03  0.11825166048E+04  0.93539038344E+02 0.  0.
          2    1    3    3  502    0  0.34726354424E+03 -0.10224314049E+03 -0.48258670243E+03  0.60327071394E+03  0.00000000000E+00 0. -1.
         -1    1    3    3    0  502  0.54282575798E+03 -0.87520745373E+02 -0.62175157117E+03  0.82999680761E+03  0.00000000000E+00 0.  1.
         11    1    5    5    0    0  0.41145695239E+02 -0.23928332826E+02 -0.59214345990E+02  0.75972838038E+02  0.00000000000E+00 0. -1.
        -11    1    5    5    0    0  0.13123769343E+02 -0.15702744935E+03 -0.31772307646E+03  0.35465166923E+03  0.00000000000E+00 0.  1.
          3    1    6    6  503    0 -0.24117540468E+03  0.55716467727E+02 -0.16601713136E+03  0.29804628584E+03  0.00000000000E+00 0. -1.
         -3    1    6    6    0  503 -0.70318336212E+03  0.31500320031E+03 -0.43427397823E+03  0.88447031897E+03  0.00000000000E+00 0.  1.
<mgrwt>
<rscale>  0 0.22243393E+04</rscale>
<asrwt>0</asrwt>
<pdfrwt beam="1">  1        2 0.39445965E+00 0.22243393E+04</pdfrwt>
<pdfrwt beam="2">  1       -1 0.74218602E-01 0.22243393E+04</pdfrwt>
<totfact> 0.60613517E+00</totfact>
</mgrwt>
</event>
<event>
12    6  0.1530859E-007  0.1891154E+04  0.7818608E-02  0.8659272E-01
          2   -1    0    0  501    0  0.00000000000E+00  0.00000000000E+00  0.32886714829E+04  0.32886714829E+04  0.00000000000E+00 0. -1.
         -1   -1    0    0    0  501 -0.00000000000E+00 -0.00000000000E+00 -0.27187757743E+03  0.27187757743E+03  0.00000000000E+00 0.  1.
         24    2    1    2    0    0 -0.10515637371E+03  0.50439650949E+03  0.21349475258E+04  0.21976662858E+04  0.79135732840E+02 0.  0.
        254    2    1    2    0    0  0.10515637371E+03 -0.50439650949E+03  0.88184637971E+03  0.13628827745E+04  0.90239831449E+03 0.  0.
         23    2    4    4    0    0 -0.19326690351E+03 -0.64797347704E+03  0.68937886825E+03  0.97029467174E+03  0.94904178355E+02 0.  0.
         23    2    4    4    0    0  0.29842327723E+03  0.14357696754E+03  0.19246751146E+03  0.39258810280E+03  0.86086453589E+02 0.  0.
          2    1    3    3  502    0 -0.40716635251E+02  0.36424469093E+03  0.14571649632E+04  0.15025517526E+04  0.00000000000E+00 0. -1.
         -1    1    3    3    0  502 -0.64439738463E+02  0.14015181856E+03  0.67778256255E+03  0.69511453318E+03  0.00000000000E+00 0.  1.
         11    1    5    5    0    0 -0.53702996877E+02 -0.11741405579E+03  0.87857729070E+02  0.15616994886E+03  0.00000000000E+00 0.  1.
        -11    1    5    5    0    0 -0.13956390664E+03 -0.53055942125E+03  0.60152113918E+03  0.81412472287E+03  0.00000000000E+00 0. -1.
          1    1    6    6  503    0  0.18234719110E+03  0.91151300537E+02  0.16506396276E+03  0.26230739505E+03  0.00000000000E+00 0. -1.
         -1    1    6    6    0  503  0.11607608613E+03  0.52425667007E+02  0.27403548692E+02  0.13028070775E+03  0.00000000000E+00 0.  1.
<mgrwt>
<rscale>  0 0.18911542E+04</rscale>
<asrwt>0</asrwt>
<pdfrwt beam="1">  1        2 0.50594943E+00 0.18911542E+04</pdfrwt>
<pdfrwt beam="2">  1       -1 0.41827322E-01 0.18911542E+04</pdfrwt>
<totfact> 0.68188507E+00</totfact>
</mgrwt>
</event>
<event>
12    6  0.1530859E-007  0.3940846E+04  0.7818608E-02  0.8016587E-01
          2   -1    0    0  501    0  0.00000000000E+00  0.00000000000E+00  0.20434759398E+04  0.20434759398E+04  0.00000000000E+00 0. -1.
         -1   -1    0    0    0  501 -0.00000000000E+00 -0.00000000000E+00 -0.18999814051E+04  0.18999814051E+04  0.00000000000E+00 0.  1.
         24    2    1    2    0    0  0.12300087746E+04 -0.12505652770E+04  0.72283449789E+03  0.18988346351E+04  0.79045317464E+02 0.  0.
        254    2    1    2    0    0 -0.12300087746E+04  0.12505652770E+04 -0.57933996314E+03  0.20446227098E+04  0.87636301545E+03 0.  0.
         23    2    4    4    0    0 -0.52233893631E+01  0.20415941748E+03 -0.34931155165E+03  0.41489200105E+03  0.91697660135E+02 0.  0.
         23    2    4    4    0    0 -0.12247853853E+04  0.10464058595E+04 -0.23002841149E+03  0.16297307088E+04  0.89691973872E+02 0.  0.
          4    1    3    3  502    0  0.49380743505E+03 -0.48970368152E+03  0.32746777070E+03  0.76869410005E+03  0.00000000000E+00 0. -1.
         -3    1    3    3    0  502  0.73620133957E+03 -0.76086159551E+03  0.39536672719E+03  0.11301405350E+04  0.00000000000E+00 0.  1.
         11    1    5    5    0    0  0.12326304704E+02  0.18499781519E+03 -0.34004176203E+03  0.38730418192E+03  0.00000000000E+00 0. -1.
        -11    1    5    5    0    0 -0.17549694067E+02  0.19161602297E+02 -0.92697896199E+01  0.27587819124E+02  0.00000000000E+00 0.  1.
          4    1    6    6  503    0 -0.47540091836E+03  0.35788240280E+03 -0.61747097390E+02  0.59824622978E+03  0.00000000000E+00 0.  1.
         -4    1    6    6    0  503 -0.74938446690E+03  0.68852345674E+03 -0.16828131410E+03  0.10314844790E+04  0.00000000000E+00 0. -1.
<mgrwt>
<rscale>  0 0.39408457E+04</rscale>
<asrwt>0</asrwt>
<pdfrwt beam="1">  1        2 0.31438091E+00 0.39408457E+04</pdfrwt>
<pdfrwt beam="2">  1       -1 0.29230483E+00 0.39408457E+04</pdfrwt>
<totfact> 0.21106896E-01</totfact>
</mgrwt>
</event>
<event>
12    6  0.1530859E-007  0.2726659E+04  0.7818608E-02  0.8326406E-01
          2   -1    0    0  501    0  0.00000000000E+00  0.00000000000E+00  0.97972029904E+03  0.97972029904E+03  0.00000000000E+00 0. -1.
         -1   -1    0    0    0  501 -0.00000000000E+00 -0.00000000000E+00 -0.18971414305E+04  0.18971414305E+04  0.00000000000E+00 0.  1.
         24    2    1    2    0    0  0.38716286454E+02 -0.26376426834E+03 -0.16298669540E+04  0.16535409881E+04  0.81614775590E+02 0.  0.
        254    2    1    2    0    0 -0.38716286454E+02  0.26376426834E+03  0.71244582254E+03  0.12233207414E+04  0.95805221476E+03 0.  0.
         23    2    4    4    0    0 -0.68161909366E+02 -0.40418498340E+02 -0.21280114691E+03  0.24447388922E+03  0.90572918091E+02 0.  0.
         23    2    4    4    0    0  0.29445622912E+02  0.30418276668E+03  0.92524696945E+03  0.97884685218E+03  0.93086010275E+02 0.  0.
          2    1    3    3  502    0  0.22322396927E+02 -0.38177541855E+02 -0.14651365663E+03  0.15304269236E+03  0.00000000000E+00 0. -1.
         -1    1    3    3    0  502  0.16393889528E+02 -0.22558672648E+03 -0.14833532974E+04  0.15004982958E+04  0.00000000000E+00 0.  1.
         11    1    5    5    0    0 -0.17999577196E+02 -0.62640547581E+02 -0.10680774216E+03  0.12512280674E+03  0.00000000000E+00 0. -1.
        -11    1    5    5    0    0 -0.50162332170E+02  0.22222049241E+02 -0.10599340474E+03  0.11935108248E+03  0.00000000000E+00 0.  1.
          2    1    6    6  503    0 -0.28057422849E+02  0.99476154488E+02  0.23841053737E+03  0.25985055055E+03  0.00000000000E+00 0. -1.
         -2    1    6    6    0  503  0.57503045760E+02  0.20470661219E+03  0.68683643207E+03  0.71899630164E+03  0.00000000000E+00 0.  1.
<mgrwt>
<rscale>  0 0.27266595E+04</rscale>
<asrwt>0</asrwt>
<pdfrwt beam="1">  1        2 0.15072620E+00 0.27266595E+04</pdfrwt>
<pdfrwt beam="2">  1       -1 0.29186791E+00 0.27266595E+04</pdfrwt>
<totfact> 0.96587734E-01</totfact>
</mgrwt>
</event>
<event>
12    6  0.1530859E-007  0.2336321E+04  0.7818608E-02  0.8463736E-01
         -1   -1    0    0    0  501 -0.00000000000E+00  0.00000000000E+00  0.80879266829E+03  0.80879266829E+03  0.00000000000E+00 0.  1.
          2   -1    0    0  501    0  0.00000000000E+00 -0.00000000000E+00 -0.16872049691E+04  0.16872049691E+04  0.00000000000E+00 0. -1.
         24    2    1    2    0    0 -0.39777157523E+03  0.34313988209E+03 -0.12726663533E+04  0.13791973958E+04  0.80861641713E+02 0.  0.
        254    2    1    2    0    0  0.39777157523E+03 -0.34313988209E+03  0.39425405245E+03  0.11168002416E+04  0.90323823934E+03 0.  0.
         23    2    4    4    0    0  0.11883015000E+03  0.30198573170E+03  0.11891018218E+03  0.35693411651E+03  0.89142276204E+02 0.  0.
         23    2    4    4    0    0  0.27894142523E+03 -0.64512561379E+03  0.27534387027E+03  0.75986612508E+03  0.87102840781E+02 0.  0.
          2    1    3    3  502    0 -0.30588941561E+03  0.25571044253E+03 -0.86944386197E+03  0.95649819347E+03  0.00000000000E+00 0. -1.
         -1    1    3    3    0  502 -0.91882159618E+02  0.87429439558E+02 -0.40322249132E+03  0.42269920235E+03  0.00000000000E+00 0.  1.
         11    1    5    5    0    0  0.80151925294E+01  0.44448053056E+02  0.51650492642E+02  0.68612288418E+02  0.00000000000E+00 0. -1.
        -11    1    5    5    0    0  0.11081495747E+03  0.25753767864E+03  0.67259689537E+02  0.28832182809E+03  0.00000000000E+00 0.  1.
          3    1    6    6  503    0  0.13406562101E+03 -0.29334810604E+03  0.80474643527E+02  0.33241972009E+03  0.00000000000E+00 0. -1.
         -3    1    6    6    0  503  0.14487580422E+03 -0.35177750775E+03  0.19486922675E+03  0.42744640499E+03  0.00000000000E+00 0.  1.
<mgrwt>
<rscale>  0 0.23363210E+04</rscale>
<asrwt>0</asrwt>
<pdfrwt beam="1">  1        2 0.25956999E+00 0.23363210E+04</pdfrwt>
<pdfrwt beam="2">  1       -1 0.12442964E+00 0.23363210E+04</pdfrwt>
<totfact> 0.58081600E+00</totfact>
</mgrwt>
</event>
<event>
12    6  0.1530859E-007  0.2350248E+04  0.7818608E-02  0.8458368E-01
          2   -1    0    0  501    0  0.00000000000E+00  0.00000000000E+00  0.82905750423E+03  0.82905750423E+03  0.00000000000E+00 0. -1.
         -1   -1    0    0    0  501 -0.00000000000E+00 -0.00000000000E+00 -0.16656461687E+04  0.16656461687E+04  0.00000000000E+00 0.  1.
         24    2    1    2    0    0 -0.34964236452E+03 -0.74177714438E+03  0.25056858896E+03  0.86134155055E+03  0.81495606866E+02 0.  0.
        254    2    1    2    0    0  0.34964236452E+03  0.74177714438E+03 -0.10871572534E+04  0.16333621224E+04  0.90193004946E+03 0.  0.
         23    2    4    4    0    0  0.31615836937E+03  0.64836408775E+03 -0.12350303366E+04  0.14336261529E+04  0.98244130251E+02 0.  0.
         23    2    4    4    0    0  0.33483995149E+02  0.93413056632E+02  0.14787308317E+03  0.19973596948E+03  0.90447950212E+02 0.  0.
          4    1    3    3  502    0 -0.33886090067E+03 -0.73578225030E+03  0.23939271346E+03  0.84469586309E+03  0.00000000000E+00 0. -1.
         -3    1    3    3    0  502 -0.10781463850E+02 -0.59948940731E+01  0.11175875501E+02  0.16645687456E+02  0.00000000000E+00 0.  1.
         11    1    5    5    0    0  0.26894208786E+03  0.51624673415E+03 -0.10599053498E+04  0.12092311143E+04  0.00000000000E+00 0.  1.
        -11    1    5    5    0    0  0.47216281518E+02  0.13211735360E+03 -0.17512498674E+03  0.22439503859E+03  0.00000000000E+00 0. -1.
          3    1    6    6  503    0  0.31839578555E+02  0.25297183715E+02  0.43965655866E+01  0.40902763420E+02  0.00000000000E+00 0. -1.
         -3    1    6    6    0  503  0.16444165938E+01  0.68115872917E+02  0.14347651759E+03  0.15883320606E+03  0.00000000000E+00 0.  1.
<mgrwt>
<rscale>  0 0.23502480E+04</rscale>
<asrwt>0</asrwt>
<pdfrwt beam="1">  1        2 0.12754731E+00 0.23502480E+04</pdfrwt>
<pdfrwt beam="2">  1       -1 0.25625326E+00 0.23502480E+04</pdfrwt>
<totfact> 0.21461943E+00</totfact>
</mgrwt>
</event>
<event>
12    6  0.1530859E-007  0.1519739E+04  0.7818608E-02  0.8871432E-01
          2   -1    0    0  501    0  0.00000000000E+00  0.00000000000E+00  0.16808709787E+04  0.16808709787E+04  0.00000000000E+00 0. -1.
         -1   -1    0    0    0  501 -0.00000000000E+00 -0.00000000000E+00 -0.34351353952E+03  0.34351353952E+03  0.00000000000E+00 0.  1.
         24    2    1    2    0    0  0.22617378542E+03  0.33446685421E+03  0.80879007584E+03  0.90759354987E+03  0.81006217158E+02 0.  0.
        254    2    1    2    0    0 -0.22617378542E+03 -0.33446685421E+03  0.52856736335E+03  0.11167909684E+04  0.89711535023E+03 0.  0.
         23    2    4    4    0    0 -0.47825370996E+03 -0.23612258097E+03  0.61455225374E+03  0.81865486957E+03  0.89670722969E+02 0.  0.
         23    2    4    4    0    0  0.25207992454E+03 -0.98344273235E+02 -0.85984890394E+02  0.29813609878E+03  0.90971685654E+02 0.  0.
          2    1    3    3  502    0  0.16162710945E+03  0.28085331414E+03  0.68833904697E+03  0.76079731214E+03  0.00000000000E+00 0. -1.
         -1    1    3    3    0  502  0.64546675970E+02  0.53613540067E+02  0.12045102887E+03  0.14679623774E+03  0.00000000000E+00 0.  1.
         11    1    5    5    0    0 -0.38768839245E+03 -0.22737974889E+03  0.49872903028E+03  0.67136762320E+03  0.00000000000E+00 0.  1.
        -11    1    5    5    0    0 -0.90565317511E+02 -0.87428320823E+01  0.11582322347E+03  0.14728724637E+03  0.00000000000E+00 0. -1.
          2    1    6    6  503    0  0.10407344603E+03 -0.81178766986E+02 -0.14214048847E+02  0.13275282883E+03  0.00000000000E+00 0. -1.
         -2    1    6    6    0  503  0.14800647850E+03 -0.17165506249E+02 -0.71770841547E+02  0.16538326995E+03  0.00000000000E+00 0.  1.
<mgrwt>
<rscale>  0 0.15197394E+04</rscale>
<asrwt>0</asrwt>
<pdfrwt beam="1">  1        2 0.25859553E+00 0.15197394E+04</pdfrwt>
<pdfrwt beam="2">  1       -1 0.52848238E-01 0.15197394E+04</pdfrwt>
<totfact> 0.39869579E+01</totfact>
</mgrwt>
</event>
<event>
12    6  0.1530859E-007  0.1387198E+04  0.7818608E-02  0.8963138E-01
         -1   -1    0    0    0  501 -0.00000000000E+00  0.00000000000E+00  0.18405527710E+03  0.18405527710E+03  0.00000000000E+00 0.  1.
          2   -1    0    0  501    0  0.00000000000E+00 -0.00000000000E+00 -0.26137779974E+04  0.26137779974E+04  0.00000000000E+00 0. -1.
         24    2    1    2    0    0  0.15544996487E+03 -0.71179352997E+02 -0.14322487005E+04  0.14446417539E+04  0.80139036603E+02 0.  0.
        254    2    1    2    0    0 -0.15544996487E+03  0.71179352997E+02 -0.99747401976E+03  0.13531915206E+04  0.89829932614E+03 0.  0.
         23    2    4    4    0    0 -0.46149078813E+02 -0.40481926328E+03 -0.47180235146E+03  0.62996228605E+03  0.90811065415E+02 0.  0.
         23    2    4    4    0    0 -0.10930088606E+03  0.47599861628E+03 -0.52567166829E+03  0.72322923450E+03  0.90600532028E+02 0.  0.
          4    1    3    3  502    0  0.53086416339E+02 -0.36805102269E+02 -0.85099476792E+03  0.85344295543E+03  0.00000000000E+00 0. -1.
         -3    1    3    3    0  502  0.10236354853E+03 -0.34374250728E+02 -0.58125393261E+03  0.59119879850E+03  0.00000000000E+00 0.  1.
         11    1    5    5    0    0 -0.66571264030E+02 -0.20205658840E+03 -0.26172459456E+03  0.33728083478E+03  0.00000000000E+00 0.  1.
        -11    1    5    5    0    0  0.20422185217E+02 -0.20276267488E+03 -0.21007775690E+03  0.29268145127E+03  0.00000000000E+00 0. -1.
          3    1    6    6  503    0 -0.57219603188E+02  0.94910492566E+02 -0.13983238258E+03  0.17842415701E+03  0.00000000000E+00 0. -1.
         -3    1    6    6    0  503 -0.52081282871E+02  0.38108812371E+03 -0.38583928571E+03  0.54480507749E+03  0.00000000000E+00 0.  1.
<mgrwt>
<rscale>  0 0.13871981E+04</rscale>
<asrwt>0</asrwt>
<pdfrwt beam="1">  1        2 0.40211965E+00 0.13871981E+04</pdfrwt>
<pdfrwt beam="2">  1       -1 0.28316199E-01 0.13871981E+04</pdfrwt>
<totfact> 0.37599008E+01</totfact>
</mgrwt>
</event>
<event>
12    6  0.1530859E-007  0.1721524E+04  0.7818608E-02  0.8749183E-01
         -1   -1    0    0    0  501 -0.00000000000E+00  0.00000000000E+00  0.10286387461E+04  0.10286387461E+04  0.00000000000E+00 0.  1.
          2   -1    0    0  501    0  0.00000000000E+00 -0.00000000000E+00 -0.72028282562E+03  0.72028282562E+03  0.00000000000E+00 0. -1.
         24    2    1    2    0    0  0.52465814781E+03  0.28066676992E+03 -0.85623125191E+02  0.60618714589E+03  0.78048244545E+02 0.  0.
        254    2    1    2    0    0 -0.52465814781E+03 -0.28066676992E+03  0.39397904564E+03  0.11427344258E+04  0.89251468992E+03 0.  0.
         23    2    4    4    0    0 -0.51803732483E+03 -0.47301565652E+03  0.14550521658E+02  0.70754509313E+03  0.91114542718E+02 0.  0.
         23    2    4    4    0    0 -0.66208229728E+01  0.19234888661E+03  0.37942852398E+03  0.43518933268E+03  0.91552285537E+02 0.  0.
          2    1    3    3  502    0  0.21591800962E+03  0.14098740789E+03 -0.68850979397E+02  0.26690540164E+03  0.00000000000E+00 0. -1.
         -1    1    3    3    0  502  0.30874013819E+03  0.13967936202E+03 -0.16772145794E+02  0.33928174424E+03  0.00000000000E+00 0.  1.
         11    1    5    5    0    0 -0.19189281830E+03 -0.23627151145E+03  0.50210133491E+01  0.30442124008E+03  0.00000000000E+00 0.  1.
        -11    1    5    5    0    0 -0.32614450653E+03 -0.23674414507E+03  0.95295083088E+01  0.40312385305E+03  0.00000000000E+00 0. -1.
          4    1    6    6  503    0  0.36537930547E+02  0.13064279498E+03  0.27260111824E+03  0.30448962201E+03  0.00000000000E+00 0. -1.
         -4    1    6    6    0  503 -0.43158753520E+02  0.61706091622E+02  0.10682740575E+03  0.13069971066E+03  0.00000000000E+00 0.  1.
<mgrwt>
<rscale>  0 0.17215235E+04</rscale>
<asrwt>0</asrwt>
<pdfrwt beam="1">  1        2 0.11081274E+00 0.17215235E+04</pdfrwt>
<pdfrwt beam="2">  1       -1 0.15825211E+00 0.17215235E+04</pdfrwt>
<totfact> 0.12913403E+01</totfact>
</mgrwt>
</event>
<event>
12    6  0.1530859E-007  0.2275977E+04  0.7818608E-02  0.8487454E-01
          2   -1    0    0  501    0  0.00000000000E+00  0.00000000000E+00  0.13517176007E+04  0.13517176007E+04  0.00000000000E+00 0. -1.
         -1   -1    0    0    0  501 -0.00000000000E+00 -0.00000000000E+00 -0.95805345976E+03  0.95805345976E+03  0.00000000000E+00 0.  1.
         24    2    1    2    0    0 -0.69557340879E+03 -0.29811158260E+03 -0.43128147156E+03  0.87477031607E+03  0.80786852096E+02 0.  0.
        254    2    1    2    0    0  0.69557340879E+03  0.29811158260E+03  0.82494561254E+03  0.14350007444E+04  0.89777446508E+03 0.  0.
         23    2    4    4    0    0  0.39156175263E+03  0.41669191546E+02 -0.10659581028E+03  0.41784714497E+03  0.90424787204E+02 0.  0.
         23    2    4    4    0    0  0.30401165616E+03  0.25644239105E+03  0.93154142282E+03  0.10171535995E+04  0.92985135605E+02 0.  0.
          2    1    3    3  502    0 -0.31073857077E+03 -0.16200624680E+03 -0.16446320472E+03  0.38710803282E+03  0.00000000000E+00 0. -1.
         -1    1    3    3    0  502 -0.38483483802E+03 -0.13610533581E+03 -0.26681826684E+03  0.48766228325E+03  0.00000000000E+00 0.  1.
         11    1    5    5    0    0  0.15332385781E+03  0.61240975857E+01 -0.86470089546E+02  0.17613286556E+03  0.00000000000E+00 0.  1.
        -11    1    5    5    0    0  0.23823789482E+03  0.35545093961E+02 -0.20125720733E+02  0.24171427941E+03  0.00000000000E+00 0. -1.
          1    1    6    6  503    0  0.41521711996E+02  0.52454400592E+02  0.25092878074E+03  0.25969360738E+03  0.00000000000E+00 0. -1.
         -1    1    6    6    0  503  0.26248994416E+03  0.20398799046E+03  0.68061264208E+03  0.75745999207E+03  0.00000000000E+00 0.  1.
<mgrwt>
<rscale>  0 0.22759769E+04</rscale>
<asrwt>0</asrwt>
<pdfrwt beam="1">  1        2 0.20795655E+00 0.22759769E+04</pdfrwt>
<pdfrwt beam="2">  1       -1 0.14739284E+00 0.22759769E+04</pdfrwt>
<totfact> 0.58408610E+00</totfact>
</mgrwt>
</event>
<event>
12    6  0.1530859E-007  0.2700861E+04  0.7818608E-02  0.8334726E-01
         -1   -1    0    0    0  501 -0.00000000000E+00  0.00000000000E+00  0.52702887516E+03  0.52702887516E+03  0.00000000000E+00 0.  1.
          2   -1    0    0  501    0  0.00000000000E+00 -0.00000000000E+00 -0.34602704060E+04  0.34602704060E+04  0.00000000000E+00 0. -1.
         24    2    1    2    0    0 -0.80850202349E+03  0.15327580815E+03 -0.19307676598E+02  0.82702832953E+03  0.80212692931E+02 0.  0.
        254    2    1    2    0    0  0.80850202349E+03 -0.15327580815E+03 -0.29139338543E+04  0.31602709517E+04  0.90505965855E+03 0.  0.
         23    2    4    4    0    0  0.72060934798E+03 -0.46989108292E+03 -0.18308216868E+04  0.20248663449E+04  0.90001131762E+02 0.  0.
         23    2    4    4    0    0  0.87892675514E+02  0.31661527476E+03 -0.10831121675E+04  0.11354046068E+04  0.89673290795E+02 0.  0.
          2    1    3    3  502    0 -0.66851951138E+02  0.16182944811E+02  0.20474794587E+02  0.71765509035E+02  0.00000000000E+00 0. -1.
         -1    1    3    3    0  502 -0.74165007236E+03  0.13709286334E+03 -0.39782471184E+02  0.75526282049E+03  0.00000000000E+00 0.  1.
         11    1    5    5    0    0  0.27345950878E+03 -0.17223847021E+03 -0.79153933940E+03  0.85497410451E+03  0.00000000000E+00 0. -1.
        -11    1    5    5    0    0  0.44714983920E+03 -0.29765261271E+03 -0.10392823473E+04  0.11698922404E+04  0.00000000000E+00 0.  1.
          3    1    6    6  503    0  0.67073023204E+02  0.11245511327E+03 -0.33575609787E+03  0.36038465589E+03  0.00000000000E+00 0. -1.
         -3    1    6    6    0  503  0.20819652310E+02  0.20416016149E+03 -0.74735606966E+03  0.77501995092E+03  0.00000000000E+00 0.  1.
<mgrwt>
<rscale>  0 0.27008609E+04</rscale>
<asrwt>0</asrwt>
<pdfrwt beam="1">  1        2 0.53234931E+00 0.27008609E+04</pdfrwt>
<pdfrwt beam="2">  1       -1 0.81081364E-01 0.27008609E+04</pdfrwt>
<totfact> 0.13099376E+00</totfact>
</mgrwt>
</event>
<event>
12    6  0.1530859E-007  0.3510551E+04  0.7818608E-02  0.8111294E-01
         -1   -1    0    0    0  501 -0.00000000000E+00  0.00000000000E+00  0.15513426353E+04  0.15513426353E+04  0.00000000000E+00 0.  1.
          2   -1    0    0  501    0  0.00000000000E+00 -0.00000000000E+00 -0.19860170418E+04  0.19860170418E+04  0.00000000000E+00 0. -1.
         24    2    1    2    0    0 -0.37182359687E+03 -0.16995870724E+03  0.13982264320E+04  0.14589104597E+04  0.79017876317E+02 0.  0.
        254    2    1    2    0    0  0.37182359687E+03  0.16995870724E+03 -0.18329008385E+04  0.20784492175E+04  0.89066655733E+03 0.  0.
         23    2    4    4    0    0  0.88751370779E+02  0.35635736135E+03 -0.16294033563E+04  0.16727064645E+04  0.90134587157E+02 0.  0.
         23    2    4    4    0    0  0.28307222609E+03 -0.18639865411E+03 -0.20349748218E+03  0.40574275300E+03  0.91332430803E+02 0.  0.
          2    1    3    3  502    0 -0.17353042765E+03 -0.51619428152E+02  0.72157928481E+03  0.74394491661E+03  0.00000000000E+00 0. -1.
         -1    1    3    3    0  502 -0.19829316922E+03 -0.11833927909E+03  0.67664714721E+03  0.71496554306E+03  0.00000000000E+00 0.  1.
         11    1    5    5    0    0  0.18641480537E+02  0.23707878088E+03 -0.11102019981E+04  0.11353864231E+04  0.00000000000E+00 0.  1.
        -11    1    5    5    0    0  0.70109890242E+02  0.11927858047E+03 -0.51920135824E+03  0.53732004138E+03  0.00000000000E+00 0. -1.
          2    1    6    6  503    0  0.16929690575E+03 -0.10560818459E+03 -0.66849082841E+02  0.21043604926E+03  0.00000000000E+00 0. -1.
         -2    1    6    6    0  503  0.11377532034E+03 -0.80790469512E+02 -0.13664839934E+03  0.19530670374E+03  0.00000000000E+00 0.  1.
<mgrwt>
<rscale>  0 0.35105515E+04</rscale>
<asrwt>0</asrwt>
<pdfrwt beam="1">  1        2 0.30554108E+00 0.35105515E+04</pdfrwt>
<pdfrwt beam="2">  1       -1 0.23866810E+00 0.35105515E+04</pdfrwt>
<totfact> 0.52552291E-01</totfact>
</mgrwt>
</event>
<event>
12    6  0.1530859E-007  0.3624650E+04  0.7818608E-02  0.8084869E-01
         -3   -1    0    0    0  501 -0.00000000000E+00  0.00000000000E+00  0.40349296697E+04  0.40349296697E+04  0.00000000000E+00 0.  1.
          4   -1    0    0  501    0  0.00000000000E+00 -0.00000000000E+00 -0.81402193827E+03  0.81402193827E+03  0.00000000000E+00 0. -1.
         24    2    1    2    0    0 -0.12471634803E+03 -0.14828015213E+04  0.41486256819E+03  0.15470310844E+04  0.83304902676E+02 0.  0.
        254    2    1    2    0    0  0.12471634803E+03  0.14828015213E+04  0.28060451632E+04  0.33019205236E+04  0.90251602022E+03 0.  0.
         23    2    4    4    0    0 -0.10707968031E+03  0.50279836478E+03  0.30627140175E+03  0.60540846963E+03  0.91896626750E+02 0.  0.
         23    2    4    4    0    0  0.23179602834E+03  0.98000315647E+03  0.24997737615E+04  0.26965120539E+04  0.90403610571E+02 0.  0.
          4    1    3    3  502    0 -0.94567959517E+02 -0.11556000743E+04  0.28710345094E+03  0.11944802310E+04  0.00000000000E+00 0. -1.
         -3    1    3    3    0  502 -0.30148388509E+02 -0.32720144692E+03  0.12775911725E+03  0.35255085340E+03  0.00000000000E+00 0.  1.
         11    1    5    5    0    0  0.86882780487E+01  0.79165296328E+02  0.23327526524E+02  0.82986768896E+02  0.00000000000E+00 0. -1.
        -11    1    5    5    0    0 -0.11576795836E+03  0.42363306846E+03  0.28294387522E+03  0.52242170074E+03  0.00000000000E+00 0.  1.
          3    1    6    6  503    0  0.94431705537E+02  0.54395871539E+03  0.14477168266E+04  0.15494168068E+04  0.00000000000E+00 0. -1.
         -3    1    6    6    0  503  0.13736432280E+03  0.43604444108E+03  0.10520569349E+04  0.11470952471E+04  0.00000000000E+00 0.  1.
<mgrwt>
<rscale>  0 0.36246496E+04</rscale>
<asrwt>0</asrwt>
<pdfrwt beam="1">  1        4 0.12523415E+00 0.36246496E+04</pdfrwt>
<pdfrwt beam="2">  1       -3 0.62075840E+00 0.36246496E+04</pdfrwt>
<totfact> 0.61367474E-04</totfact>
</mgrwt>
</event>
<event>
12    6  0.1530859E-007  0.3700319E+04  0.7818608E-02  0.8067891E-01
         -1   -1    0    0    0  501 -0.00000000000E+00  0.00000000000E+00  0.18836652530E+04  0.18836652530E+04  0.00000000000E+00 0.  1.
          2   -1    0    0  501    0  0.00000000000E+00 -0.00000000000E+00 -0.18172501411E+04  0.18172501411E+04  0.00000000000E+00 0. -1.
         24    2    1    2    0    0  0.50453306605E+02 -0.72074726517E+03 -0.15517249853E+04  0.17135376700E+04  0.79616330396E+02 0.  0.
        254    2    1    2    0    0 -0.50453306605E+02  0.72074726517E+03  0.16181400973E+04  0.19873777241E+04  0.89959473494E+03 0.  0.
         23    2    4    4    0    0 -0.35374890852E+03  0.51655152022E+03  0.14350949999E+04  0.15684543364E+04  0.92669215225E+02 0.  0.
         23    2    4    4    0    0  0.30329560192E+03  0.20419574495E+03  0.18304509745E+03  0.41892338764E+03  0.91143692127E+02 0.  0.
          4    1    3    3  502    0  0.41311021796E+02 -0.64240867714E+03 -0.13168200587E+04  0.14657457406E+04  0.00000000000E+00 0. -1.
         -3    1    3    3    0  502  0.91422848093E+01 -0.78338588024E+02 -0.23490492662E+03  0.24779192944E+03  0.00000000000E+00 0.  1.
         11    1    5    5    0    0 -0.24895381607E+03  0.41393337894E+03  0.11635805285E+04  0.12598565359E+04  0.00000000000E+00 0.  1.
        -11    1    5    5    0    0 -0.10479509245E+03  0.10261814128E+03  0.27151447133E+03  0.30859780048E+03  0.00000000000E+00 0. -1.
          1    1    6    6  503    0  0.63110417291E+01  0.19602585944E+02  0.31918891699E+02  0.37985606099E+02  0.00000000000E+00 0. -1.
         -1    1    6    6    0  503  0.29698456019E+03  0.18459315900E+03  0.15112620575E+03  0.38093778154E+03  0.00000000000E+00 0.  1.
<mgrwt>
<rscale>  0 0.37003194E+04</rscale>
<asrwt>0</asrwt>
<pdfrwt beam="1">  1        2 0.27957695E+00 0.37003194E+04</pdfrwt>
<pdfrwt beam="2">  1       -1 0.28979465E+00 0.37003194E+04</pdfrwt>
<totfact> 0.29859051E-01</totfact>
</mgrwt>
</event>
<event>
12    6  0.1530859E-007  0.1436929E+04  0.7818608E-02  0.8927513E-01
         -1   -1    0    0    0  501 -0.00000000000E+00  0.00000000000E+00  0.51305995882E+03  0.51305995882E+03  0.00000000000E+00 0.  1.
          2   -1    0    0  501    0  0.00000000000E+00 -0.00000000000E+00 -0.10061030945E+04  0.10061030945E+04  0.00000000000E+00 0. -1.
         24    2    1    2    0    0 -0.30243519465E+02 -0.25463850501E+03  0.17753799532E+03  0.32216353050E+03  0.80710358057E+02 0.  0.
        254    2    1    2    0    0  0.30243519465E+02  0.25463850501E+03 -0.67058113097E+03  0.11969995228E+04  0.95779609816E+03 0.  0.
         23    2    4    4    0    0  0.12299387755E+03 -0.30484123005E+03 -0.48578182975E+03  0.59366378745E+03  0.91635347745E+02 0.  0.
         23    2    4    4    0    0 -0.92750358088E+02  0.55947973506E+03 -0.18479930122E+03  0.60333573535E+03  0.90791106084E+02 0.  0.
          4    1    3    3  502    0 -0.13930538621E+02 -0.57316072465E+02  0.44069880659E+01  0.59149079561E+02  0.00000000000E+00 0. -1.
         -3    1    3    3    0  502 -0.16312980845E+02 -0.19732243255E+03  0.17313100725E+03  0.26301445094E+03  0.00000000000E+00 0.  1.
         11    1    5    5    0    0  0.51296531452E+02 -0.96847062526E+02 -0.94215076221E+02  0.14452393659E+03  0.00000000000E+00 0.  1.
        -11    1    5    5    0    0  0.71697346102E+02 -0.20799416752E+03 -0.39156675353E+03  0.44913985086E+03  0.00000000000E+00 0. -1.
          3    1    6    6  503    0 -0.20329939179E+02  0.51747131314E+02  0.64411715219E+01  0.55969283691E+02  0.00000000000E+00 0. -1.
         -3    1    6    6    0  503 -0.72420418909E+02  0.50773260375E+03 -0.19124047274E+03  0.54736645166E+03  0.00000000000E+00 0.  1.
<mgrwt>
<rscale>  0 0.14369290E+04</rscale>
<asrwt>0</asrwt>
<pdfrwt beam="1">  1        2 0.15478509E+00 0.14369290E+04</pdfrwt>
<pdfrwt beam="2">  1       -1 0.78932303E-01 0.14369290E+04</pdfrwt>
<totfact> 0.44384009E+01</totfact>
</mgrwt>
</event>
<event>
12    6  0.1530859E-007  0.1446501E+04  0.7818608E-02  0.8920830E-01
          4   -1    0    0  501    0  0.00000000000E+00  0.00000000000E+00  0.33311539985E+03  0.33311539985E+03  0.00000000000E+00 0. -1.
         -1   -1    0    0    0  501 -0.00000000000E+00 -0.00000000000E+00 -0.15703009383E+04  0.15703009383E+04  0.00000000000E+00 0.  1.
         24    2    1    2    0    0 -0.19826698202E+03  0.35904380685E+03 -0.51533759442E+03  0.66360598795E+03  0.81103758363E+02 0.  0.
        254    2    1    2    0    0  0.19826698202E+03 -0.35904380685E+03 -0.72184794403E+03  0.12398103502E+04  0.92078390450E+03 0.  0.
         23    2    4    4    0    0  0.33191754604E+03 -0.61610509725E+03 -0.48648151499E+03  0.85715332577E+03  0.91064873693E+02 0.  0.
         23    2    4    4    0    0 -0.13365056403E+03  0.25706129040E+03 -0.23536642904E+03  0.38265702443E+03  0.84178751136E+02 0.  0.
          2    1    3    3  502    0 -0.31875311873E+02  0.19126793181E+02 -0.27811488643E+02  0.46425732358E+02  0.00000000000E+00 0. -1.
         -1    1    3    3    0  502 -0.16639167015E+03  0.33991701367E+03 -0.48752610578E+03  0.61718025559E+03  0.00000000000E+00 0.  1.
         11    1    5    5    0    0  0.26049983938E+03 -0.40102894430E+03 -0.34996766689E+03  0.59258902146E+03  0.00000000000E+00 0.  1.
        -11    1    5    5    0    0  0.71417706665E+02 -0.21507615295E+03 -0.13651384810E+03  0.26456430431E+03  0.00000000000E+00 0. -1.
          1    1    6    6  503    0  0.12084204920E+02  0.16736633772E+02 -0.15439351683E+02  0.25778217529E+02  0.00000000000E+00 0. -1.
         -1    1    6    6    0  503 -0.14573476895E+03  0.24032465663E+03 -0.21992707735E+03  0.35687880690E+03  0.00000000000E+00 0.  1.
<mgrwt>
<rscale>  0 0.14465012E+04</rscale>
<asrwt>0</asrwt>
<pdfrwt beam="1">  1        4 0.51248523E-01 0.14465012E+04</pdfrwt>
<pdfrwt beam="2">  1       -1 0.24158476E+00 0.14465012E+04</pdfrwt>
<totfact> 0.11867437E+00</totfact>
</mgrwt>
</event>
<event>
12    6  0.1530859E-007  0.1180468E+04  0.7818608E-02  0.9130127E-01
          2   -1    0    0  501    0  0.00000000000E+00  0.00000000000E+00  0.25215478227E+04  0.25215478227E+04  0.00000000000E+00 0. -1.
         -1   -1    0    0    0  501 -0.00000000000E+00 -0.00000000000E+00 -0.13815956125E+03  0.13815956125E+03  0.00000000000E+00 0.  1.
         24    2    1    2    0    0 -0.14306577993E+03  0.18472425695E+03  0.50851011839E+03  0.56491861865E+03  0.77198683272E+02 0.  0.
        254    2    1    2    0    0  0.14306577993E+03 -0.18472425695E+03  0.18748781430E+04  0.20947887653E+04  0.90464415734E+03 0.  0.
         23    2    4    4    0    0  0.39686752802E+03 -0.14375580053E+03  0.17363932024E+04  0.17890189352E+04  0.85777808610E+02 0.  0.
         23    2    4    4    0    0 -0.25380174809E+03 -0.40968456413E+02  0.13848494066E+03  0.30576983003E+03  0.90682790048E+02 0.  0.
          4    1    3    3  502    0 -0.94764821562E+01  0.38498662530E+02  0.15200148061E+03  0.15708723958E+03  0.00000000000E+00 0. -1.
         -3    1    3    3    0  502 -0.13358929778E+03  0.14622559442E+03  0.35650863778E+03  0.40783137907E+03  0.00000000000E+00 0.  1.
         11    1    5    5    0    0  0.15001561842E+03 -0.15462851031E+02  0.53618487678E+03  0.55699013243E+03  0.00000000000E+00 0. -1.
        -11    1    5    5    0    0  0.24685190961E+03 -0.12829294950E+03  0.12002083256E+04  0.12320288028E+04  0.00000000000E+00 0.  1.
          2    1    6    6  503    0 -0.15361950688E+03 -0.40559736452E+02  0.12988677074E+03  0.20521846488E+03  0.00000000000E+00 0. -1.
         -2    1    6    6    0  503 -0.10018224121E+03 -0.40871996067E+00  0.85981699129E+01  0.10055136514E+03  0.00000000000E+00 0.  1.
<mgrwt>
<rscale>  0 0.11804676E+04</rscale>
<asrwt>0</asrwt>
<pdfrwt beam="1">  1        2 0.38793040E+00 0.11804676E+04</pdfrwt>
<pdfrwt beam="2">  1       -1 0.21255319E-01 0.11804676E+04</pdfrwt>
<totfact> 0.70778135E+01</totfact>
</mgrwt>
</event>
<event>
12    6  0.1530859E-007  0.1387180E+04  0.7818608E-02  0.8963151E-01
         -1   -1    0    0    0  501 -0.00000000000E+00  0.00000000000E+00  0.26519586837E+03  0.26519586837E+03  0.00000000000E+00 0.  1.
          2   -1    0    0  501    0  0.00000000000E+00 -0.00000000000E+00 -0.18140071716E+04  0.18140071716E+04  0.00000000000E+00 0. -1.
         24    2    1    2    0    0  0.29634932479E+03 -0.10973375515E+03 -0.10947506884E+03  0.34390884390E+03  0.80150376735E+02 0.  0.
        254    2    1    2    0    0 -0.29634932479E+03  0.10973375515E+03 -0.14393362344E+04  0.17352941961E+04  0.91634749521E+03 0.  0.
         23    2    4    4    0    0  0.30307245898E+03 -0.93679620366E+02 -0.48663358622E+03  0.58776284774E+03  0.89577515448E+02 0.  0.
         23    2    4    4    0    0 -0.59942178377E+03  0.20341337552E+03 -0.95270264815E+03  0.11475313483E+04  0.92208369437E+02 0.  0.
          4    1    3    3  502    0  0.15415225437E+03 -0.14438810371E+02 -0.53717788415E+02  0.16388104700E+03  0.00000000000E+00 0. -1.
         -3    1    3    3    0  502  0.14219707041E+03 -0.95294944781E+02 -0.55757280426E+02  0.18002779690E+03  0.00000000000E+00 0.  1.
         11    1    5    5    0    0  0.35153246470E+02 -0.42953784958E+02 -0.10436281049E+03  0.11820479937E+03  0.00000000000E+00 0. -1.
        -11    1    5    5    0    0  0.26791921251E+03 -0.50725835409E+02 -0.38227077573E+03  0.46955804837E+03  0.00000000000E+00 0.  1.
          2    1    6    6  503    0 -0.22683760346E+03  0.12412064402E+03 -0.39835064670E+03  0.47491522438E+03  0.00000000000E+00 0. -1.
         -2    1    6    6    0  503 -0.37258418031E+03  0.79292731502E+02 -0.55435200144E+03  0.67261612395E+03  0.00000000000E+00 0.  1.
<mgrwt>
<rscale>  0 0.13871802E+04</rscale>
<asrwt>0</asrwt>
<pdfrwt beam="1">  1        2 0.27907803E+00 0.13871802E+04</pdfrwt>
<pdfrwt beam="2">  1       -1 0.40799363E-01 0.13871802E+04</pdfrwt>
<totfact> 0.55255637E+01</totfact>
</mgrwt>
</event>
<event>
12    6  0.1530859E-007  0.1897743E+04  0.7818608E-02  0.8655981E-01
         -1   -1    0    0    0  501 -0.00000000000E+00  0.00000000000E+00  0.34630237192E+03  0.34630237192E+03  0.00000000000E+00 0.  1.
          2   -1    0    0  501    0  0.00000000000E+00 -0.00000000000E+00 -0.25999157356E+04  0.25999157356E+04  0.00000000000E+00 0. -1.
         24    2    1    2    0    0 -0.65835145781E+02  0.71167382600E+03 -0.61038705797E+03  0.94328020850E+03  0.79945545068E+02 0.  0.
        254    2    1    2    0    0  0.65835145781E+02 -0.71167382600E+03 -0.16432263057E+04  0.20029378990E+04  0.89484838635E+03 0.  0.
         23    2    4    4    0    0 -0.34658273798E+03 -0.44107134392E+03 -0.12235502574E+04  0.13490158454E+04  0.90027741028E+02 0.  0.
         23    2    4    4    0    0  0.41241788376E+03 -0.27060248208E+03 -0.41967604838E+03  0.65392205365E+03  0.90398299280E+02 0.  0.
          2    1    3    3  502    0 -0.41127273303E+02  0.28968735266E+03 -0.29831941677E+03  0.41785725950E+03  0.00000000000E+00 0. -1.
         -1    1    3    3    0  502 -0.24707872478E+02  0.42198647334E+03 -0.31206764120E+03  0.52542294899E+03  0.00000000000E+00 0.  1.
         11    1    5    5    0    0 -0.33354833468E+03 -0.44296270033E+03 -0.11860240690E+04  0.13092454078E+04  0.00000000000E+00 0. -1.
        -11    1    5    5    0    0 -0.13034403304E+02  0.18913564081E+01 -0.37526188325E+02  0.39770437623E+02  0.00000000000E+00 0.  1.
          3    1    6    6  503    0  0.33593801072E+03 -0.22752383450E+03 -0.29586852212E+03  0.50215498075E+03  0.00000000000E+00 0. -1.
         -3    1    6    6    0  503  0.76479873042E+02 -0.43078647577E+02 -0.12380752626E+03  0.15176707290E+03  0.00000000000E+00 0.  1.
<mgrwt>
<rscale>  0 0.18977429E+04</rscale>
<asrwt>0</asrwt>
<pdfrwt beam="1">  1        2 0.39998704E+00 0.18977429E+04</pdfrwt>
<pdfrwt beam="2">  1       -1 0.53277287E-01 0.18977429E+04</pdfrwt>
<totfact> 0.11547349E+01</totfact>
</mgrwt>
</event>
<event>
12    6  0.1530859E-007  0.2782138E+04  0.7818608E-02  0.8308835E-01
          2   -1    0    0  501    0  0.00000000000E+00  0.00000000000E+00  0.37837092025E+04  0.37837092025E+04  0.00000000000E+00 0. -1.
         -1   -1    0    0    0  501 -0.00000000000E+00 -0.00000000000E+00 -0.51142227294E+03  0.51142227294E+03  0.00000000000E+00 0.  1.
         24    2    1    2    0    0  0.97944735259E+02  0.11802874478E+04  0.87081758282E+03  0.14719631498E+04  0.75369895728E+02 0.  0.
        254    2    1    2    0    0 -0.97944735259E+02 -0.11802874478E+04  0.24014693467E+04  0.28231683256E+04  0.89473612921E+03 0.  0.
         23    2    4    4    0    0  0.23404959101E+03 -0.78783133178E+03  0.20003537683E+04  0.21646045582E+04  0.92953088556E+02 0.  0.
         23    2    4    4    0    0 -0.33199432627E+03 -0.39245611603E+03  0.40111557842E+03  0.65856376741E+03  0.92576956154E+02 0.  0.
          4    1    3    3  502    0  0.18058327102E+02  0.56593133935E+03  0.38580226939E+03  0.68516259026E+03  0.00000000000E+00 0. -1.
         -3    1    3    3    0  502  0.79886408157E+02  0.61435610847E+03  0.48501531343E+03  0.78680055954E+03  0.00000000000E+00 0.  1.
         11    1    5    5    0    0  0.23726908281E+03 -0.71305855039E+03  0.17909615270E+04  0.19422389928E+04  0.00000000000E+00 0. -1.
        -11    1    5    5    0    0 -0.32194917947E+01 -0.74772781391E+02  0.20939224131E+03  0.22236556542E+03  0.00000000000E+00 0.  1.
          3    1    6    6  503    0 -0.16985457280E+03 -0.13689971813E+03  0.19286626300E+03  0.29118637353E+03  0.00000000000E+00 0. -1.
         -3    1    6    6    0  503 -0.16213975347E+03 -0.25555639790E+03  0.20824931542E+03  0.36737739389E+03  0.00000000000E+00 0.  1.
<mgrwt>
<rscale>  0 0.27821381E+04</rscale>
<asrwt>0</asrwt>
<pdfrwt beam="1">  1        2 0.58210909E+00 0.27821381E+04</pdfrwt>
<pdfrwt beam="2">  1       -1 0.78680352E-01 0.27821381E+04</pdfrwt>
<totfact> 0.80911294E-01</totfact>
</mgrwt>
</event>
<event>
12    6  0.1530859E-007  0.1518265E+04  0.7818608E-02  0.8872397E-01
         -1   -1    0    0    0  501 -0.00000000000E+00  0.00000000000E+00  0.37419762527E+03  0.37419762527E+03  0.00000000000E+00 0.  1.
          2   -1    0    0  501    0  0.00000000000E+00 -0.00000000000E+00 -0.15400478155E+04  0.15400478155E+04  0.00000000000E+00 0. -1.
         24    2    1    2    0    0 -0.16961558410E+03 -0.43494230683E+03 -0.21914537461E+03  0.52164564738E+03  0.78391514688E+02 0.  0.
        254    2    1    2    0    0  0.16961558410E+03  0.43494230683E+03 -0.94670481566E+03  0.13925997934E+04  0.90837212641E+03 0.  0.
         23    2    4    4    0    0 -0.17136014941E+03  0.58468864882E+03 -0.44079214760E+03  0.75720379248E+03  0.88514118081E+02 0.  0.
         23    2    4    4    0    0  0.34097573351E+03 -0.14974634199E+03 -0.50591266807E+03  0.63539600096E+03  0.95352150196E+02 0.  0.
          4    1    3    3  502    0  0.21625713162E+01 -0.27436221243E+02 -0.29856749511E+02  0.40606014852E+02  0.00000000000E+00 0. -1.
         -3    1    3    3    0  502 -0.17177815542E+03 -0.40750608559E+03 -0.18928862510E+03  0.48103963252E+03  0.00000000000E+00 0.  1.
         11    1    5    5    0    0 -0.82186896883E+02  0.15118542086E+03 -0.10417512784E+03  0.20115708976E+03  0.00000000000E+00 0. -1.
        -11    1    5    5    0    0 -0.89173252524E+02  0.43350322795E+03 -0.33661701975E+03  0.55604670271E+03  0.00000000000E+00 0.  1.
          1    1    6    6  503    0  0.15021934899E+03 -0.26724312283E+02 -0.15521466400E+03  0.21765025522E+03  0.00000000000E+00 0. -1.
         -1    1    6    6    0  503  0.19075638452E+03 -0.12302202970E+03 -0.35069800406E+03  0.41774574574E+03  0.00000000000E+00 0.  1.
<mgrwt>
<rscale>  0 0.15182651E+04</rscale>
<asrwt>0</asrwt>
<pdfrwt beam="1">  1        2 0.23693043E+00 0.15182651E+04</pdfrwt>
<pdfrwt beam="2">  1       -1 0.57568865E-01 0.15182651E+04</pdfrwt>
<totfact> 0.40485536E+01</totfact>
</mgrwt>
</event>
<event>
12    6  0.1530859E-007  0.1453538E+04  0.7818608E-02  0.8915951E-01
          2   -1    0    0  501    0  0.00000000000E+00  0.00000000000E+00  0.68891102184E+03  0.68891102184E+03  0.00000000000E+00 0. -1.
         -1   -1    0    0    0  501 -0.00000000000E+00 -0.00000000000E+00 -0.76670746503E+03  0.76670746503E+03  0.00000000000E+00 0.  1.
         24    2    1    2    0    0 -0.38950800525E+03 -0.37158083514E+02 -0.23176670899E+03  0.45749014662E+03  0.49841925491E+02 0.  0.
        254    2    1    2    0    0  0.38950800525E+03  0.37158083514E+02  0.15397026580E+03  0.99812834025E+03  0.90523816288E+03 0.  0.
         23    2    4    4    0    0  0.39265963766E+03  0.82618900868E+02 -0.31513131477E+03  0.51823504570E+03  0.90842408692E+02 0.  0.
         23    2    4    4    0    0 -0.31516324175E+01 -0.45460817354E+02  0.46910158057E+03  0.47989329454E+03  0.90358522274E+02 0.  0.
          4    1    3    3  502    0 -0.73991752712E+02  0.30147085826E+01 -0.25146382715E+02  0.78206192216E+02  0.00000000000E+00 0. -1.
         -3    1    3    3    0  502 -0.31551625253E+03 -0.40172792097E+02 -0.20662032628E+03  0.37928395441E+03  0.00000000000E+00 0.  1.
         11    1    5    5    0    0  0.92734283952E+02  0.50049530652E+02 -0.50167403965E+02  0.11671063087E+03  0.00000000000E+00 0. -1.
        -11    1    5    5    0    0  0.29992535371E+03  0.32569370216E+02 -0.26496391081E+03  0.40152441483E+03  0.00000000000E+00 0.  1.
          3    1    6    6  503    0 -0.39037773945E+02 -0.83116852534E+01  0.10844193374E+03  0.11555381820E+03  0.00000000000E+00 0. -1.
         -3    1    6    6    0  503  0.35886141528E+02 -0.37149132101E+02  0.36065964683E+03  0.36433947634E+03  0.00000000000E+00 0.  1.
<mgrwt>
<rscale>  0 0.14535381E+04</rscale>
<asrwt>0</asrwt>
<pdfrwt beam="1">  1        2 0.10598631E+00 0.14535381E+04</pdfrwt>
<pdfrwt beam="2">  1       -1 0.11795499E+00 0.14535381E+04</pdfrwt>
<totfact> 0.29903841E+01</totfact>
</mgrwt>
</event>
<event>
12    6  0.1530859E-007  0.1987764E+04  0.7818608E-02  0.8612363E-01
          2   -1    0    0  501    0  0.00000000000E+00  0.00000000000E+00  0.28800648450E+04  0.28800648450E+04  0.00000000000E+00 0. -1.
         -1   -1    0    0    0  501 -0.00000000000E+00 -0.00000000000E+00 -0.34297877980E+03  0.34297877980E+03  0.00000000000E+00 0.  1.
         24    2    1    2    0    0  0.20670177805E+03 -0.50610415623E+03  0.19463206879E+04  0.20231270153E+04  0.77534883254E+02 0.  0.
        254    2    1    2    0    0 -0.20670177805E+03  0.50610415623E+03  0.59076537735E+03  0.11999166095E+04  0.88990398171E+03 0.  0.
         23    2    4    4    0    0 -0.26316824797E+03  0.40318255649E+02  0.65828018799E+03  0.71606181433E+03  0.92350568813E+02 0.  0.
         23    2    4    4    0    0  0.56466469913E+02  0.46578590058E+03 -0.67514810642E+02  0.48385479517E+03  0.97016729203E+02 0.  0.
          2    1    3    3  502    0  0.21317091286E+03 -0.49736803205E+03  0.19006066555E+04  0.19761382685E+04  0.00000000000E+00 0. -1.
         -1    1    3    3    0  502 -0.64691348070E+01 -0.87361241835E+01  0.45714032350E+02  0.46988746787E+02  0.00000000000E+00 0.  1.
         11    1    5    5    0    0 -0.23668885630E+03  0.64971212369E+02  0.56489550433E+03  0.61591379587E+03  0.00000000000E+00 0.  1.
        -11    1    5    5    0    0 -0.26479391665E+02 -0.24652956719E+02  0.93384683667E+02  0.10014801846E+03  0.00000000000E+00 0. -1.
          3    1    6    6  503    0 -0.26577864513E+02  0.92922735088E+02 -0.22308180348E+02  0.99190082613E+02  0.00000000000E+00 0. -1.
         -3    1    6    6    0  503  0.83044334425E+02  0.37286316549E+03 -0.45206630294E+02  0.38466471256E+03  0.00000000000E+00 0.  1.
<mgrwt>
<rscale>  0 0.19877637E+04</rscale>
<asrwt>0</asrwt>
<pdfrwt beam="1">  1        2 0.44308688E+00 0.19877637E+04</pdfrwt>
<pdfrwt beam="2">  1       -1 0.52765968E-01 0.19877637E+04</pdfrwt>
<totfact> 0.79346923E+00</totfact>
</mgrwt>
</event>
<event>
12    6  0.1530859E-007  0.1719565E+04  0.7818608E-02  0.8750283E-01
         -1   -1    0    0    0  501 -0.00000000000E+00  0.00000000000E+00  0.65902636227E+03  0.65902636227E+03  0.00000000000E+00 0.  1.
          2   -1    0    0  501    0  0.00000000000E+00 -0.00000000000E+00 -0.11216946847E+04  0.11216946847E+04  0.00000000000E+00 0. -1.
         24    2    1    2    0    0 -0.55745423000E+02 -0.41189704094E+03 -0.64650188828E+03  0.77310170888E+03  0.83395660533E+02 0.  0.
        254    2    1    2    0    0  0.55745423000E+02  0.41189704094E+03  0.18383356588E+03  0.10076193381E+04  0.89929707326E+03 0.  0.
         23    2    4    4    0    0  0.23318917580E+03  0.97720572299E+02  0.46768958277E+03  0.53943757951E+03  0.91284469641E+02 0.  0.
         23    2    4    4    0    0 -0.17744375280E+03  0.31417646864E+03 -0.28385601689E+03  0.46818175855E+03  0.91797504631E+02 0.  0.
          4    1    3    3  502    0 -0.63623376797E+02 -0.39006670602E+03 -0.57344845742E+03  0.69645035899E+03  0.00000000000E+00 0. -1.
         -3    1    3    3    0  502  0.78779537968E+01 -0.21830334919E+02 -0.73053430861E+02  0.76651349885E+02  0.00000000000E+00 0.  1.
         11    1    5    5    0    0  0.44012784740E+02 -0.17293460946E+02  0.88778355032E+02  0.10058720264E+03  0.00000000000E+00 0. -1.
        -11    1    5    5    0    0  0.18917639106E+03  0.11501403325E+03  0.37891122774E+03  0.43885037688E+03  0.00000000000E+00 0.  1.
          2    1    6    6  503    0 -0.35416160109E+02  0.10691786263E+02 -0.23258350157E+02  0.43698621745E+02  0.00000000000E+00 0. -1.
         -2    1    6    6    0  503 -0.14202759270E+03  0.30348468238E+03 -0.26059766673E+03  0.42448313680E+03  0.00000000000E+00 0.  1.
<mgrwt>
<rscale>  0 0.17195655E+04</rscale>
<asrwt>0</asrwt>
<pdfrwt beam="1">  1        2 0.17256841E+00 0.17195655E+04</pdfrwt>
<pdfrwt beam="2">  1       -1 0.10138867E+00 0.17195655E+04</pdfrwt>
<totfact> 0.21141004E+01</totfact>
</mgrwt>
</event>
<event>
12    6  0.1530859E-007  0.1517512E+04  0.7818608E-02  0.8872891E-01
          2   -1    0    0  501    0  0.00000000000E+00  0.00000000000E+00  0.17584280665E+04  0.17584280665E+04  0.00000000000E+00 0. -1.
         -1   -1    0    0    0  501 -0.00000000000E+00 -0.00000000000E+00 -0.32740056195E+03  0.32740056195E+03  0.00000000000E+00 0.  1.
         24    2    1    2    0    0 -0.20346502926E+03 -0.27264818858E+03 -0.35024756585E+02  0.35038588617E+03  0.76213402898E+02 0.  0.
        254    2    1    2    0    0  0.20346502926E+03  0.27264818858E+03  0.14660522611E+04  0.17354427423E+04  0.86412801511E+03 0.  0.
         23    2    4    4    0    0 -0.13624331281E+03  0.17998672609E+03  0.15363642701E+02  0.23988758215E+03  0.79702877588E+02 0.  0.
         23    2    4    4    0    0  0.33970834207E+03  0.92661462495E+02  0.14506886184E+04  0.14955551601E+04  0.90553106276E+02 0.  0.
          4    1    3    3  502    0 -0.10894578831E+03 -0.10242146466E+03 -0.42761963824E+02  0.15552468217E+03  0.00000000000E+00 0. -1.
         -3    1    3    3    0  502 -0.94519240948E+02 -0.17022672393E+03  0.77372072390E+01  0.19486120400E+03  0.00000000000E+00 0.  1.
         11    1    5    5    0    0 -0.14210531104E+03  0.14974644937E+03  0.24167711088E+02  0.20785090037E+03  0.00000000000E+00 0. -1.
        -11    1    5    5    0    0  0.58619982230E+01  0.30240276721E+02 -0.88040683879E+01  0.32036681780E+02  0.00000000000E+00 0.  1.
          4    1    6    6  503    0  0.25281635406E+03  0.83320631823E+02  0.92066105311E+03  0.95837112398E+03  0.00000000000E+00 0. -1.
         -4    1    6    6    0  503  0.86891988011E+02  0.93408306722E+01  0.53002756532E+03  0.53718403615E+03  0.00000000000E+00 0.  1.
<mgrwt>
<rscale>  0 0.15175116E+04</rscale>
<asrwt>0</asrwt>
<pdfrwt beam="1">  1        2 0.27052739E+00 0.15175116E+04</pdfrwt>
<pdfrwt beam="2">  1       -1 0.50369318E-01 0.15175116E+04</pdfrwt>
<totfact> 0.39590499E+01</totfact>
</mgrwt>
</event>
<event>
12    6  0.1530859E-007  0.2241890E+04  0.7818608E-02  0.8501192E-01
         -1   -1    0    0    0  501 -0.00000000000E+00  0.00000000000E+00  0.68850648197E+03  0.68850648197E+03  0.00000000000E+00 0.  1.
          2   -1    0    0  501    0  0.00000000000E+00 -0.00000000000E+00 -0.18249905347E+04  0.18249905347E+04  0.00000000000E+00 0. -1.
         24    2    1    2    0    0  0.23467953796E+03  0.18105424932E+03 -0.14664082016E+04  0.14980195557E+04  0.76514370907E+02 0.  0.
        254    2    1    2    0    0 -0.23467953796E+03 -0.18105424932E+03  0.32992414888E+03  0.10154774609E+04  0.91350391507E+03 0.  0.
         23    2    4    4    0    0 -0.37865332704E+03  0.26031050970E+03  0.64721394919E+02  0.47300426704E+03  0.91674828264E+02 0.  0.
         23    2    4    4    0    0  0.14397378908E+03 -0.44136475901E+03  0.26520275396E+03  0.54247319387E+03  0.91724385607E+02 0.  0.
          2    1    3    3  502    0  0.16706889629E+03  0.14883168085E+03 -0.12247821531E+04  0.12450518896E+04  0.00000000000E+00 0. -1.
         -1    1    3    3    0  502  0.67610641669E+02  0.32222568472E+02 -0.24162604850E+03  0.25296766612E+03  0.00000000000E+00 0.  1.
         11    1    5    5    0    0 -0.98144670478E+02  0.23939433555E+02  0.32833987400E+01  0.10107548431E+03  0.00000000000E+00 0. -1.
        -11    1    5    5    0    0 -0.28050865656E+03  0.23637107614E+03  0.61437996179E+02  0.37192878272E+03  0.00000000000E+00 0.  1.
          4    1    6    6  503    0  0.35507163876E+02 -0.24979624247E+03  0.12610357477E+03  0.28206565372E+03  0.00000000000E+00 0.  1.
         -4    1    6    6    0  503  0.10846662521E+03 -0.19156851654E+03  0.13909917919E+03  0.26040754014E+03  0.00000000000E+00 0. -1.
<mgrwt>
<rscale>  0 0.22418901E+04</rscale>
<asrwt>0</asrwt>
<pdfrwt beam="1">  1        2 0.28076777E+00 0.22418901E+04</pdfrwt>
<pdfrwt beam="2">  1       -1 0.10592408E+00 0.22418901E+04</pdfrwt>
<totfact> 0.72290328E+00</totfact>
</mgrwt>
</event>
<event>
12    6  0.1530859E-007  0.1619926E+04  0.7818608E-02  0.8808400E-01
         -1   -1    0    0    0  501 -0.00000000000E+00  0.00000000000E+00  0.64406623659E+03  0.64406623659E+03  0.00000000000E+00 0.  1.
          2   -1    0    0  501    0  0.00000000000E+00 -0.00000000000E+00 -0.10185904933E+04  0.10185904933E+04  0.00000000000E+00 0. -1.
         24    2    1    2    0    0  0.29180487552E+03  0.30007087515E+03 -0.52608146746E+03  0.67813724233E+03  0.88970745474E+02 0.  0.
        254    2    1    2    0    0 -0.29180487552E+03 -0.30007087515E+03  0.15155721072E+03  0.98451948758E+03  0.87813234641E+03 0.  0.
         23    2    4    4    0    0  0.21951249720E+03 -0.30060034357E+03  0.24765193438E+03  0.45624428783E+03  0.91000365902E+02 0.  0.
         23    2    4    4    0    0 -0.51131737272E+03  0.52946841953E+00 -0.96094723662E+02  0.52827519974E+03  0.91622894359E+02 0.  0.
          4    1    3    3  502    0  0.23551688081E+03  0.27873801848E+03 -0.47632367379E+03  0.60003943729E+03  0.00000000000E+00 0. -1.
         -1    1    3    3    0  502  0.56287994708E+02  0.21332856670E+02 -0.49757793668E+02  0.78097805044E+02  0.00000000000E+00 0.  1.
         11    1    5    5    0    0  0.40250554509E+02 -0.39402848392E+02  0.79949712094E+02  0.97799018725E+02  0.00000000000E+00 0.  1.
        -11    1    5    5    0    0  0.17926194269E+03 -0.26119749518E+03  0.16770222229E+03  0.35844526911E+03  0.00000000000E+00 0. -1.
          3    1    6    6  503    0 -0.43176406879E+03  0.31152147445E+02 -0.94164438647E+02  0.44300971648E+03  0.00000000000E+00 0. -1.
         -3    1    6    6    0  503 -0.79553303928E+02 -0.30622679026E+02 -0.19302850151E+01  0.85265483267E+02  0.00000000000E+00 0.  1.
<mgrwt>
<rscale>  0 0.16199256E+04</rscale>
<asrwt>0</asrwt>
<pdfrwt beam="1">  1        2 0.15670623E+00 0.16199256E+04</pdfrwt>
<pdfrwt beam="2">  1       -1 0.99087113E-01 0.16199256E+04</pdfrwt>
<totfact> 0.26060838E+01</totfact>
</mgrwt>
</event>
<event>
12    6  0.1530859E-007  0.1120291E+04  0.7818608E-02  0.9185638E-01
          2   -1    0    0  501    0  0.00000000000E+00  0.00000000000E+00  0.39002832941E+03  0.39002832941E+03  0.00000000000E+00 0. -1.
         -1   -1    0    0    0  501 -0.00000000000E+00 -0.00000000000E+00 -0.80446186786E+03  0.80446186786E+03  0.00000000000E+00 0.  1.
         24    2    1    2    0    0  0.24223969992E+02  0.94892103076E+02  0.12753301415E+03  0.17811212793E+03  0.76602535652E+02 0.  0.
        254    2    1    2    0    0 -0.24223969992E+02 -0.94892103076E+02 -0.54196655261E+03  0.10163780693E+04  0.85422791088E+03 0.  0.
         23    2    4    4    0    0 -0.29805299000E+03  0.22357349175E+03 -0.93495529207E+02  0.39482603608E+03  0.91244143543E+02 0.  0.
         23    2    4    4    0    0  0.27382902000E+03 -0.31846559482E+03 -0.44847102340E+03  0.62155203326E+03  0.93797675501E+02 0.  0.
          4    1    3    3  502    0  0.48824977770E+02  0.44385073725E+02  0.85225875262E+02  0.10778387188E+03  0.00000000000E+00 0. -1.
         -3    1    3    3    0  502 -0.24601007777E+02  0.50507029351E+02  0.42307138892E+02  0.70328256048E+02  0.00000000000E+00 0.  1.
         11    1    5    5    0    0 -0.41387485002E+02  0.66512521177E+01  0.10191156964E+02  0.43139572897E+02  0.00000000000E+00 0.  1.
        -11    1    5    5    0    0 -0.25666550499E+03  0.21692223963E+03 -0.10368668617E+03  0.35168646319E+03  0.00000000000E+00 0. -1.
          1    1    6    6  503    0  0.16159273039E+03 -0.24264337496E+03 -0.26872324844E+03  0.39648480699E+03  0.00000000000E+00 0. -1.
         -1    1    6    6    0  503  0.11223628962E+03 -0.75822219861E+02 -0.17974777496E+03  0.22506722626E+03  0.00000000000E+00 0.  1.
<mgrwt>
<rscale>  0 0.11202909E+04</rscale>
<asrwt>0</asrwt>
<pdfrwt beam="1">  1        2 0.60004359E-01 0.11202909E+04</pdfrwt>
<pdfrwt beam="2">  1       -1 0.12376336E+00 0.11202909E+04</pdfrwt>
<totfact> 0.53298396E+01</totfact>
</mgrwt>
</event>
<event>
12    6  0.1530859E-007  0.2516188E+04  0.7818608E-02  0.8397241E-01
          2   -1    0    0  501    0  0.00000000000E+00  0.00000000000E+00  0.10213256034E+04  0.10213256034E+04  0.00000000000E+00 0. -1.
         -1   -1    0    0    0  501 -0.00000000000E+00 -0.00000000000E+00 -0.15497509640E+04  0.15497509640E+04  0.00000000000E+00 0.  1.
         24    2    1    2    0    0  0.10843939663E+04 -0.10382612675E+03 -0.15411188402E+03  0.11030650068E+04  0.79446823001E+02 0.  0.
        254    2    1    2    0    0 -0.10843939663E+04  0.10382612675E+03 -0.37431347655E+03  0.14680115606E+04  0.91008638298E+03 0.  0.
         23    2    4    4    0    0 -0.46140092876E+03 -0.98597018052E+02 -0.60040078013E+03  0.76890359706E+03  0.90108022712E+02 0.  0.
         23    2    4    4    0    0 -0.62299303756E+03  0.20242314480E+03  0.22608730358E+03  0.69910796353E+03  0.92417646691E+02 0.  0.
          4    1    3    3  502    0  0.85742036159E+03 -0.56100239915E+02 -0.10142438457E+03  0.86521894292E+03  0.00000000000E+00 0. -1.
         -3    1    3    3    0  502  0.22697360473E+03 -0.47725886833E+02 -0.52687499443E+02  0.23784606391E+03  0.00000000000E+00 0.  1.
         11    1    5    5    0    0 -0.31068897256E+03 -0.28886656481E+02 -0.42651443907E+03  0.52846631239E+03  0.00000000000E+00 0. -1.
        -11    1    5    5    0    0 -0.15071195620E+03 -0.69710361571E+02 -0.17388634106E+03  0.24043728467E+03  0.00000000000E+00 0.  1.
          2    1    6    6  503    0 -0.57954703221E+03  0.16178697256E+03  0.21213404069E+03  0.63800520237E+03  0.00000000000E+00 0. -1.
         -2    1    6    6    0  503 -0.43446005354E+02  0.40636172235E+02  0.13953262891E+02  0.61102761152E+02  0.00000000000E+00 0.  1.
<mgrwt>
<rscale>  0 0.25161879E+04</rscale>
<asrwt>0</asrwt>
<pdfrwt beam="1">  1        2 0.15712702E+00 0.25161879E+04</pdfrwt>
<pdfrwt beam="2">  1       -1 0.23842322E+00 0.25161879E+04</pdfrwt>
<totfact> 0.20579158E+00</totfact>
</mgrwt>
</event>
<event>
12    6  0.1530859E-007  0.1976783E+04  0.7818608E-02  0.8617553E-01
         -1   -1    0    0    0  501 -0.00000000000E+00  0.00000000000E+00  0.10698535571E+04  0.10698535571E+04  0.00000000000E+00 0.  1.
          2   -1    0    0  501    0  0.00000000000E+00 -0.00000000000E+00 -0.91313254539E+03  0.91313254539E+03  0.00000000000E+00 0. -1.
         24    2    1    2    0    0  0.70587096581E+03 -0.29937174015E+03 -0.49082468891E+02  0.77187975548E+03  0.74242905327E+02 0.  0.
        254    2    1    2    0    0 -0.70587096581E+03  0.29937174015E+03  0.20580348056E+03  0.12111063470E+04  0.91462902418E+03 0.  0.
         23    2    4    4    0    0 -0.66966996635E+03  0.50076931200E+03 -0.82850260114E+02  0.84508172131E+03  0.89839759622E+02 0.  0.
         23    2    4    4    0    0 -0.36200999458E+02 -0.20139757186E+03  0.28865374068E+03  0.36602462566E+03  0.93709926208E+02 0.  0.
          4    1    3    3  502    0  0.19823360402E+03 -0.12039609428E+03 -0.21117382148E+02  0.23288994206E+03  0.00000000000E+00 0. -1.
         -3    1    3    3    0  502  0.50763736179E+03 -0.17897564586E+03 -0.27965086743E+02  0.53898981342E+03  0.00000000000E+00 0.  1.
         11    1    5    5    0    0 -0.48022536366E+03  0.33947997353E+03 -0.19901371739E+02  0.58843786157E+03  0.00000000000E+00 0. -1.
        -11    1    5    5    0    0 -0.18944460270E+03  0.16128933847E+03 -0.62948888375E+02  0.25664385974E+03  0.00000000000E+00 0.  1.
          2    1    6    6  503    0  0.24874521527E+01 -0.17104539420E+03  0.25250239067E+03  0.30499208447E+03  0.00000000000E+00 0. -1.
         -2    1    6    6    0  503 -0.38688451611E+02 -0.30352177656E+02  0.36151350007E+02  0.61032541188E+02  0.00000000000E+00 0.  1.
<mgrwt>
<rscale>  0 0.19767833E+04</rscale>
<asrwt>0</asrwt>
<pdfrwt beam="1">  1        2 0.14048193E+00 0.19767833E+04</pdfrwt>
<pdfrwt beam="2">  1       -1 0.16459285E+00 0.19767833E+04</pdfrwt>
<totfact> 0.82339787E+00</totfact>
</mgrwt>
</event>
<event>
12    6  0.1530859E-007  0.3729091E+04  0.7818608E-02  0.8061545E-01
          2   -1    0    0  501    0  0.00000000000E+00  0.00000000000E+00  0.25420828134E+04  0.25420828134E+04  0.00000000000E+00 0. -1.
         -1   -1    0    0    0  501 -0.00000000000E+00 -0.00000000000E+00 -0.13675911243E+04  0.13675911243E+04  0.00000000000E+00 0.  1.
         24    2    1    2    0    0 -0.21534973121E+03 -0.15266130391E+04  0.14299021720E+04  0.21039578691E+04  0.71383578317E+02 0.  0.
        254    2    1    2    0    0  0.21534973121E+03  0.15266130391E+04 -0.25541048291E+03  0.18057160686E+04  0.90468399331E+03 0.  0.
         23    2    4    4    0    0  0.42835074310E+03  0.39890449714E+03 -0.27783379816E+03  0.65420980756E+03  0.90496938916E+02 0.  0.
         23    2    4    4    0    0 -0.21300101189E+03  0.11277085420E+04  0.22423315251E+02  0.11515062611E+04  0.91476103340E+02 0.  0.
          4    1    3    3  502    0 -0.21103985495E+03 -0.15050359310E+04  0.14196551905E+04  0.20796855132E+04  0.00000000000E+00 0. -1.
         -3    1    3    3    0  502 -0.43098762571E+01 -0.21577108108E+02  0.10246981574E+02  0.24272355861E+02  0.00000000000E+00 0.  1.
         11    1    5    5    0    0  0.24374932194E+03  0.21534883629E+03 -0.20275049564E+03  0.38327094426E+03  0.00000000000E+00 0. -1.
        -11    1    5    5    0    0  0.18460142116E+03  0.18355566085E+03 -0.75083302524E+02  0.27093886329E+03  0.00000000000E+00 0.  1.
          2    1    6    6  503    0 -0.15891943029E+02  0.17428478223E+03  0.31810889781E+02  0.17787543922E+03  0.00000000000E+00 0. -1.
         -2    1    6    6    0  503 -0.19710906886E+03  0.95342375976E+03 -0.93875745297E+01  0.97363082185E+03  0.00000000000E+00 0.  1.
<mgrwt>
<rscale>  0 0.37290910E+04</rscale>
<asrwt>0</asrwt>
<pdfrwt beam="1">  1        2 0.39108966E+00 0.37290910E+04</pdfrwt>
<pdfrwt beam="2">  1       -1 0.21039863E+00 0.37290910E+04</pdfrwt>
<totfact> 0.38522821E-01</totfact>
</mgrwt>
</event>
<event>
12    6  0.1530859E-007  0.1135063E+04  0.7818608E-02  0.9171675E-01
          2   -1    0    0  501    0  0.00000000000E+00  0.00000000000E+00  0.10404449618E+04  0.10404449618E+04  0.00000000000E+00 0. -1.
         -1   -1    0    0    0  501 -0.00000000000E+00 -0.00000000000E+00 -0.30957158068E+03  0.30957158068E+03  0.00000000000E+00 0.  1.
         24    2    1    2    0    0 -0.60698309587E+02 -0.11362794695E+03 -0.41373800951E+02  0.15702800407E+03  0.79689444361E+02 0.  0.
        254    2    1    2    0    0  0.60698309587E+02  0.11362794695E+03  0.77224718208E+03  0.11929885384E+04  0.90014462586E+03 0.  0.
         23    2    4    4    0    0 -0.40515199497E+03 -0.29977677455E+01  0.41579622424E+03  0.58791934557E+03  0.92766002226E+02 0.  0.
         23    2    4    4    0    0  0.46585030455E+03  0.11662571469E+03  0.35645095784E+03  0.60506919286E+03  0.91833431900E+02 0.  0.
          4    1    3    3  502    0 -0.31692043997E+02  0.24062278380E+01 -0.10922494803E+02  0.33607684803E+02  0.00000000000E+00 0. -1.
         -3    1    3    3    0  502 -0.29006265590E+02 -0.11603417478E+03 -0.30451306149E+02  0.12342031926E+03  0.00000000000E+00 0.  1.
         11    1    5    5    0    0 -0.26507045670E+03  0.12643174137E+02  0.32780803771E+03  0.42175858789E+03  0.00000000000E+00 0. -1.
        -11    1    5    5    0    0 -0.14008153826E+03 -0.15640941882E+02  0.87988186523E+02  0.16616075768E+03  0.00000000000E+00 0.  1.
          4    1    6    6  503    0  0.40943673870E+03  0.10908086601E+03  0.27297452409E+03  0.50403588079E+03  0.00000000000E+00 0. -1.
         -4    1    6    6    0  503  0.56413565858E+02  0.75448486803E+01  0.83476433750E+02  0.10103331206E+03  0.00000000000E+00 0.  1.
<mgrwt>
<rscale>  0 0.11350633E+04</rscale>
<asrwt>0</asrwt>
<pdfrwt beam="1">  1        2 0.16006845E+00 0.11350633E+04</pdfrwt>
<pdfrwt beam="2">  1       -1 0.47626398E-01 0.11350633E+04</pdfrwt>
<totfact> 0.11800802E+02</totfact>
</mgrwt>
</event>
<event>
12    6  0.1530859E-007  0.1714965E+04  0.7818608E-02  0.8752875E-01
          2   -1    0    0  501    0  0.00000000000E+00  0.00000000000E+00  0.14083863877E+04  0.14083863877E+04  0.00000000000E+00 0. -1.
         -1   -1    0    0    0  501 -0.00000000000E+00 -0.00000000000E+00 -0.52207011732E+03  0.52207011732E+03  0.00000000000E+00 0.  1.
         24    2    1    2    0    0  0.35837273775E+02  0.48617382685E+03  0.75574999587E+03  0.90313624364E+03  0.82750940925E+02 0.  0.
        254    2    1    2    0    0 -0.35837273775E+02 -0.48617382685E+03  0.13056627455E+03  0.10273202614E+04  0.89481286724E+03 0.  0.
         23    2    4    4    0    0  0.19164230063E+03  0.73520916132E+02 -0.22675300229E+03  0.31953687869E+03  0.92492141812E+02 0.  0.
         23    2    4    4    0    0 -0.22747957440E+03 -0.55969474298E+03  0.35731927684E+03  0.70778338273E+03  0.90967517148E+02 0.  0.
          4    1    3    3  502    0  0.18738875500E+02  0.37545966284E+03  0.63866884476E+03  0.74109310963E+03  0.00000000000E+00 0. -1.
         -3    1    3    3    0  502  0.17098398275E+02  0.11071416401E+03  0.11708115110E+03  0.16204313401E+03  0.00000000000E+00 0.  1.
         11    1    5    5    0    0  0.55600733075E+02 -0.10317333141E+02 -0.10268858383E+03  0.11722983464E+03  0.00000000000E+00 0. -1.
        -11    1    5    5    0    0  0.13604156755E+03  0.83838249273E+02 -0.12406441846E+03  0.20230704405E+03  0.00000000000E+00 0.  1.
          4    1    6    6  503    0 -0.79763849766E+02 -0.30061008992E+03  0.20890102606E+03  0.37465762581E+03  0.00000000000E+00 0. -1.
         -4    1    6    6    0  503 -0.14771572464E+03 -0.25908465306E+03  0.14841825078E+03  0.33312575692E+03  0.00000000000E+00 0.  1.
<mgrwt>
<rscale>  0 0.17149652E+04</rscale>
<asrwt>0</asrwt>
<pdfrwt beam="1">  1        2 0.21667483E+00 0.17149652E+04</pdfrwt>
<pdfrwt beam="2">  1       -1 0.80318480E-01 0.17149652E+04</pdfrwt>
<totfact> 0.23978679E+01</totfact>
</mgrwt>
</event>
<event>
12    6  0.1530859E-007  0.1125693E+04  0.7818608E-02  0.9180506E-01
         -1   -1    0    0    0  501 -0.00000000000E+00  0.00000000000E+00  0.81561234929E+02  0.81561234929E+02  0.00000000000E+00 0.  1.
          2   -1    0    0  501    0  0.00000000000E+00 -0.00000000000E+00 -0.38841500765E+04  0.38841500765E+04  0.00000000000E+00 0. -1.
         24    2    1    2    0    0 -0.77285982111E+02 -0.46865086516E+02 -0.12436065984E+04  0.12495024401E+04  0.80805427325E+02 0.  0.
        254    2    1    2    0    0  0.77285982111E+02  0.46865086516E+02 -0.25589822432E+04  0.27162088712E+04  0.90621799363E+03 0.  0.
         23    2    4    4    0    0  0.46730950181E+02 -0.19428261435E+03 -0.96242155588E+02  0.23978654628E+03  0.91134621963E+02 0.  0.
         23    2    4    4    0    0  0.30555031930E+02  0.24114770087E+03 -0.24627400876E+04  0.24764223250E+04  0.92157305547E+02 0.  0.
          4    1    3    3  502    0 -0.90515595182E+02 -0.47676320446E+02 -0.92885583331E+03  0.93447271955E+03  0.00000000000E+00 0. -1.
         -3    1    3    3    0  502  0.13229613071E+02  0.81123392971E+00 -0.31475076505E+03  0.31502972060E+03  0.00000000000E+00 0.  1.
         11    1    5    5    0    0  0.74320430531E+02 -0.15069414895E+03 -0.74780480016E+02  0.18391403730E+03  0.00000000000E+00 0.  1.
        -11    1    5    5    0    0 -0.27589480350E+02 -0.43588465398E+02 -0.21461675572E+02  0.55872508984E+02  0.00000000000E+00 0. -1.
          4    1    6    6  503    0  0.29666509457E+02  0.21786896609E+03 -0.23888259598E+04  0.23989240201E+04  0.00000000000E+00 0. -1.
         -4    1    6    6    0  503  0.88852247325E+00  0.23278734782E+02 -0.73914127828E+02  0.77498304871E+02  0.00000000000E+00 0.  1.
<mgrwt>
<rscale>  0 0.11256928E+04</rscale>
<asrwt>0</asrwt>
<pdfrwt beam="1">  1        2 0.59756133E+00 0.11256928E+04</pdfrwt>
<pdfrwt beam="2">  1       -1 0.12547887E-01 0.11256928E+04</pdfrwt>
<totfact> 0.21878202E+01</totfact>
</mgrwt>
</event>
<event>
12    6  0.1530859E-007  0.1776152E+04  0.7818608E-02  0.8719085E-01
         -3   -1    0    0    0  501 -0.00000000000E+00  0.00000000000E+00  0.39956472687E+03  0.39956472687E+03  0.00000000000E+00 0.  1.
          2   -1    0    0  501    0  0.00000000000E+00 -0.00000000000E+00 -0.19738462378E+04  0.19738462378E+04  0.00000000000E+00 0. -1.
         24    2    1    2    0    0  0.32130006140E+03  0.24802583271E+03  0.95858823366E+02  0.42447286534E+03  0.78979467235E+02 0.  0.
        254    2    1    2    0    0 -0.32130006140E+03 -0.24802583271E+03 -0.16701403343E+04  0.19489380994E+04  0.91882557412E+03 0.  0.
         23    2    4    4    0    0  0.35611107624E+02 -0.52768127562E+03 -0.99648797318E+03  0.11316919457E+04  0.89569524500E+02 0.  0.
         23    2    4    4    0    0 -0.35691116902E+03  0.27965544291E+03 -0.67365236116E+03  0.81724615365E+03  0.92146745057E+02 0.  0.
          4    1    3    3  502    0  0.58706055170E+02  0.35670010010E+02  0.47023558122E+02  0.83246414615E+02  0.00000000000E+00 0. -1.
         -3    1    3    3    0  502  0.26259400623E+03  0.21235582269E+03  0.48835265244E+02  0.34122645072E+03  0.00000000000E+00 0.  1.
         11    1    5    5    0    0  0.14525626945E+02 -0.48233362463E+03 -0.85710094623E+03  0.98360497727E+03  0.00000000000E+00 0. -1.
        -11    1    5    5    0    0  0.21085480679E+02 -0.45347650988E+02 -0.13938702695E+03  0.14808696846E+03  0.00000000000E+00 0.  1.
          1    1    6    6  503    0 -0.36181143807E+03  0.27999713756E+03 -0.66905184856E+03  0.81051606389E+03  0.00000000000E+00 0. -1.
         -1    1    6    6    0  503  0.49002690441E+01 -0.34169464898E+00 -0.46005126019E+01  0.67300897571E+01  0.00000000000E+00 0.  1.
<mgrwt>
<rscale>  0 0.17761524E+04</rscale>
<asrwt>0</asrwt>
<pdfrwt beam="1">  1        2 0.30366865E+00 0.17761524E+04</pdfrwt>
<pdfrwt beam="2">  1       -3 0.61471497E-01 0.17761524E+04</pdfrwt>
<totfact> 0.10805150E+01</totfact>
</mgrwt>
</event>
<event>
12    6  0.1530859E-007  0.2126528E+04  0.7818608E-02  0.8549647E-01
          2   -1    0    0  501    0  0.00000000000E+00  0.00000000000E+00  0.13347089462E+04  0.13347089462E+04  0.00000000000E+00 0. -1.
         -1   -1    0    0    0  501 -0.00000000000E+00 -0.00000000000E+00 -0.84702414479E+03  0.84702414479E+03  0.00000000000E+00 0.  1.
         24    2    1    2    0    0 -0.86033981784E+03 -0.82589357442E+02  0.18865536098E+03  0.88791422768E+03  0.76126384168E+02 0.  0.
        254    2    1    2    0    0  0.86033981784E+03  0.82589357442E+02  0.29902944038E+03  0.12938188633E+04  0.91517377616E+03 0.  0.
         23    2    4    4    0    0  0.50383130435E+03 -0.47425915199E+01 -0.29437309328E+03  0.59027543695E+03  0.88888120697E+02 0.  0.
         23    2    4    4    0    0  0.35650851349E+03  0.87331948962E+02  0.59340253367E+03  0.70354342630E+03  0.90119899198E+02 0.  0.
          4    1    3    3  502    0 -0.12275647111E+03  0.74202356054E+01  0.45920667610E+02  0.13127421228E+03  0.00000000000E+00 0. -1.
         -3    1    3    3    0  502 -0.73758334674E+03 -0.90009593048E+02  0.14273469337E+03  0.75664001541E+03  0.00000000000E+00 0.  1.
         11    1    5    5    0    0  0.20749358868E+03  0.36556765114E+02 -0.97834960614E+02  0.23229650436E+03  0.00000000000E+00 0. -1.
        -11    1    5    5    0    0  0.29633771568E+03 -0.41299356634E+02 -0.19653813267E+03  0.35797893260E+03  0.00000000000E+00 0.  1.
          3    1    6    6  503    0  0.12800079512E+02  0.25685906546E+02  0.48445364409E+02  0.56307736266E+02  0.00000000000E+00 0. -1.
         -3    1    6    6    0  503  0.34370843398E+03  0.61646042416E+02  0.54495716926E+03  0.64723569004E+03  0.00000000000E+00 0.  1.
<mgrwt>
<rscale>  0 0.21265283E+04</rscale>
<asrwt>0</asrwt>
<pdfrwt beam="1">  1        2 0.20533984E+00 0.21265283E+04</pdfrwt>
<pdfrwt beam="2">  1       -1 0.13031141E+00 0.21265283E+04</pdfrwt>
<totfact> 0.83371062E+00</totfact>
</mgrwt>
</event>
<event>
12    6  0.1530859E-007  0.2063172E+04  0.7818608E-02  0.8577642E-01
         -1   -1    0    0    0  501 -0.00000000000E+00  0.00000000000E+00  0.30209000395E+04  0.30209000395E+04  0.00000000000E+00 0.  1.
          2   -1    0    0  501    0  0.00000000000E+00 -0.00000000000E+00 -0.35226907064E+03  0.35226907064E+03  0.00000000000E+00 0. -1.
         24    2    1    2    0    0  0.33957095079E+03 -0.37677184996E+03  0.15660832937E+01  0.51284737951E+03  0.75792641525E+02 0.  0.
        254    2    1    2    0    0 -0.33957095079E+03  0.37677184996E+03  0.26670648855E+04  0.28603217306E+04  0.90052198272E+03 0.  0.
         23    2    4    4    0    0 -0.19098797370E+03  0.42199085429E+03  0.26344486757E+04  0.26763131384E+04  0.88201489753E+02 0.  0.
         23    2    4    4    0    0 -0.14858297709E+03 -0.45219004333E+02  0.32616209800E+02  0.18400859215E+03  0.93132622684E+02 0.  0.
          2    1    3    3  502    0  0.27043314699E+03 -0.32634149155E+03 -0.20983412285E+02  0.42435027947E+03  0.00000000000E+00 0. -1.
         -1    1    3    3    0  502  0.69137803807E+02 -0.50430358410E+02  0.22549495579E+02  0.88497100039E+02  0.00000000000E+00 0.  1.
         11    1    5    5    0    0 -0.19981497827E+03  0.41287787983E+03  0.25735959637E+04  0.26141519377E+04  0.00000000000E+00 0. -1.
        -11    1    5    5    0    0  0.88270045684E+01  0.91129744574E+01  0.60852712044E+02  0.62161200730E+02  0.00000000000E+00 0.  1.
          3    1    6    6  503    0 -0.57855007480E+02 -0.28672734439E+02 -0.31343709873E+02  0.71775732245E+02  0.00000000000E+00 0. -1.
         -3    1    6    6    0  503 -0.90727969610E+02 -0.16546269894E+02  0.63959919673E+02  0.11223285990E+03  0.00000000000E+00 0.  1.
<mgrwt>
<rscale>  0 0.20631720E+04</rscale>
<asrwt>0</asrwt>
<pdfrwt beam="1">  1        2 0.54195244E-01 0.20631720E+04</pdfrwt>
<pdfrwt beam="2">  1       -1 0.46475384E+00 0.20631720E+04</pdfrwt>
<totfact> 0.24824605E-01</totfact>
</mgrwt>
</event>
<event>
12    6  0.1530859E-007  0.2583807E+04  0.7818608E-02  0.8373722E-01
         -3   -1    0    0    0  501 -0.00000000000E+00  0.00000000000E+00  0.23566246462E+04  0.23566246462E+04  0.00000000000E+00 0.  1.
          4   -1    0    0  501    0  0.00000000000E+00 -0.00000000000E+00 -0.70822250202E+03  0.70822250202E+03  0.00000000000E+00 0. -1.
         24    2    1    2    0    0 -0.43958339883E+02  0.11049403480E+04  0.42284464991E+03  0.11859180683E+04  0.69127118581E+02 0.  0.
        254    2    1    2    0    0  0.43958339883E+02 -0.11049403480E+04  0.12255574943E+04  0.18789290799E+04  0.89752872222E+03 0.  0.
         23    2    4    4    0    0  0.12349066712E+03 -0.70052198275E+03  0.16361890449E+03  0.73622916709E+03  0.96339230745E+02 0.  0.
         23    2    4    4    0    0 -0.79532327242E+02 -0.40441836527E+03  0.10619385898E+04  0.11426999128E+04  0.90387593330E+02 0.  0.
          4    1    3    3  502    0 -0.20389980624E+01  0.23864741413E+03  0.62281855855E+02  0.24664909356E+03  0.00000000000E+00 0. -1.
         -3    1    3    3    0  502 -0.41919341821E+02  0.86629293388E+03  0.36056279406E+03  0.93926897477E+03  0.00000000000E+00 0.  1.
         11    1    5    5    0    0  0.74653035077E+02 -0.59506584684E+03  0.15640627426E+03  0.61978977109E+03  0.00000000000E+00 0.  1.
        -11    1    5    5    0    0  0.48837632048E+02 -0.10545613591E+03  0.72126302311E+01  0.11643939600E+03  0.00000000000E+00 0. -1.
          3    1    6    6  503    0 -0.72101115562E+02 -0.17191674779E+03  0.40660384561E+03  0.44730372936E+03  0.00000000000E+00 0. -1.
         -3    1    6    6    0  503 -0.74312116800E+01 -0.23250161748E+03  0.65533474420E+03  0.69539618348E+03  0.00000000000E+00 0.  1.
<mgrwt>
<rscale>  0 0.25838070E+04</rscale>
<asrwt>0</asrwt>
<pdfrwt beam="1">  1        4 0.10895731E+00 0.25838070E+04</pdfrwt>
<pdfrwt beam="2">  1       -3 0.36255763E+00 0.25838070E+04</pdfrwt>
<totfact> 0.23148241E-02</totfact>
</mgrwt>
</event>
<event>
12    6  0.1530859E-007  0.2129557E+04  0.7818608E-02  0.8548334E-01
         -1   -1    0    0    0  501 -0.00000000000E+00  0.00000000000E+00  0.72658182483E+03  0.72658182483E+03  0.00000000000E+00 0.  1.
          2   -1    0    0  501    0  0.00000000000E+00 -0.00000000000E+00 -0.15603924247E+04  0.15603924247E+04  0.00000000000E+00 0. -1.
         24    2    1    2    0    0 -0.81022249894E+03 -0.10977981126E+03 -0.36421392553E+02  0.82254657699E+03  0.82123375085E+02 0.  0.
        254    2    1    2    0    0  0.81022249894E+03  0.10977981126E+03 -0.79738920735E+03  0.14644276726E+04  0.91662792641E+03 0.  0.
         23    2    4    4    0    0  0.68029470472E+03 -0.27233842089E+03 -0.25506324390E+03  0.78120990512E+03  0.90898606770E+02 0.  0.
         23    2    4    4    0    0  0.12992779422E+03  0.38211823215E+03 -0.54232596345E+03  0.68321776746E+03  0.98860973537E+02 0.  0.
          2    1    3    3  502    0 -0.30761129950E+03 -0.68998512299E+01 -0.33488510495E+02  0.30950573478E+03  0.00000000000E+00 0. -1.
         -1    1    3    3    0  502 -0.50261119944E+03 -0.10287996003E+03 -0.29328820580E+01  0.51304084221E+03  0.00000000000E+00 0.  1.
         11    1    5    5    0    0  0.43752945809E+03 -0.15434943088E+03 -0.11919284743E+03  0.47902265957E+03  0.00000000000E+00 0.  1.
        -11    1    5    5    0    0  0.24276524663E+03 -0.11798899001E+03 -0.13587039647E+03  0.30218724555E+03  0.00000000000E+00 0. -1.
          2    1    6    6  503    0  0.74185607105E+02  0.15698425360E+03 -0.16037687650E+03  0.23636476619E+03  0.00000000000E+00 0. -1.
         -2    1    6    6    0  503  0.55742187113E+02  0.22513397855E+03 -0.38194908695E+03  0.44685300127E+03  0.00000000000E+00 0.  1.
<mgrwt>
<rscale>  0 0.21295566E+04</rscale>
<asrwt>0</asrwt>
<pdfrwt beam="1">  1        2 0.24006037E+00 0.21295566E+04</pdfrwt>
<pdfrwt beam="2">  1       -1 0.11178182E+00 0.21295566E+04</pdfrwt>
<totfact> 0.90297080E+00</totfact>
</mgrwt>
</event>
<event>
12    6  0.1530859E-007  0.1681760E+04  0.7818608E-02  0.8771836E-01
          2   -1    0    0  501    0  0.00000000000E+00  0.00000000000E+00  0.17645087063E+04  0.17645087063E+04  0.00000000000E+00 0. -1.
         -1   -1    0    0    0  501 -0.00000000000E+00 -0.00000000000E+00 -0.40072291667E+03  0.40072291667E+03  0.00000000000E+00 0.  1.
         24    2    1    2    0    0 -0.49472140985E+03  0.26646221063E+03  0.70096603474E+03  0.90195039316E+03  0.80060894337E+02 0.  0.
        254    2    1    2    0    0  0.49472140985E+03 -0.26646221063E+03  0.66281975487E+03  0.12632812298E+04  0.91695041037E+03 0.  0.
         23    2    4    4    0    0 -0.59813807577E+02  0.14269214349E+03 -0.12031941197E+03  0.21612815625E+03  0.91081719558E+02 0.  0.
         23    2    4    4    0    0  0.55453521742E+03 -0.40915435412E+03  0.78313916684E+03  0.10471530736E+04  0.91137324721E+02 0.  0.
          4    1    3    3  502    0 -0.41173472100E+03  0.24453096434E+03  0.62469443470E+03  0.78712388463E+03  0.00000000000E+00 0. -1.
         -3    1    3    3    0  502 -0.82986688841E+02  0.21931246285E+02  0.76271600037E+02  0.11482650853E+03  0.00000000000E+00 0.  1.
         11    1    5    5    0    0  0.16075994601E+02  0.72592748927E+02 -0.65940164931E+02  0.99379324562E+02  0.00000000000E+00 0.  1.
        -11    1    5    5    0    0 -0.75889802178E+02  0.70099394566E+02 -0.54379247036E+02  0.11674883169E+03  0.00000000000E+00 0. -1.
          1    1    6    6  503    0  0.15458470073E+03 -0.12745209813E+03  0.16988987356E+03  0.26268428990E+03  0.00000000000E+00 0. -1.
         -1    1    6    6    0  503  0.39995051669E+03 -0.28170225599E+03  0.61324929327E+03  0.78446878366E+03  0.00000000000E+00 0.  1.
<mgrwt>
<rscale>  0 0.16817599E+04</rscale>
<asrwt>0</asrwt>
<pdfrwt beam="1">  1        2 0.27146287E+00 0.16817599E+04</pdfrwt>
<pdfrwt beam="2">  1       -1 0.61649681E-01 0.16817599E+04</pdfrwt>
<totfact> 0.26154738E+01</totfact>
</mgrwt>
</event>
<event>
12    6  0.1530859E-007  0.2210664E+04  0.7818608E-02  0.8514003E-01
         -1   -1    0    0    0  501 -0.00000000000E+00  0.00000000000E+00  0.46198022826E+03  0.46198022826E+03  0.00000000000E+00 0.  1.
          2   -1    0    0  501    0  0.00000000000E+00 -0.00000000000E+00 -0.26446132022E+04  0.26446132022E+04  0.00000000000E+00 0. -1.
         24    2    1    2    0    0  0.38363478142E+03  0.47001216699E+03 -0.18823249750E+04  0.19793307418E+04  0.80720449654E+02 0.  0.
        254    2    1    2    0    0 -0.38363478142E+03 -0.47001216699E+03 -0.30030799895E+03  0.11272626887E+04  0.90135963554E+03 0.  0.
         23    2    4    4    0    0 -0.10339388837E+03 -0.91376948116E+01  0.28976930172E+03  0.32245612989E+03  0.96114066945E+02 0.  0.
         23    2    4    4    0    0 -0.28024089305E+03 -0.46087447218E+03 -0.59007730067E+03  0.80480655886E+03  0.92639835751E+02 0.  0.
          2    1    3    3  502    0  0.37587602603E+03  0.44627156454E+03 -0.17510932431E+04  0.18457433847E+04  0.00000000000E+00 0. -1.
         -1    1    3    3    0  502  0.77587553901E+01  0.23740602455E+02 -0.13123173193E+03  0.13358735702E+03  0.00000000000E+00 0.  1.
         11    1    5    5    0    0 -0.11147801159E+03 -0.32455328997E+02  0.22605215931E+03  0.25412649248E+03  0.00000000000E+00 0.  1.
        -11    1    5    5    0    0  0.80841232210E+01  0.23317634185E+02  0.63717142410E+02  0.68329637414E+02  0.00000000000E+00 0. -1.
          1    1    6    6  503    0 -0.11573496524E+03 -0.11776905646E+03 -0.15045725884E+03  0.22338648029E+03  0.00000000000E+00 0. -1.
         -1    1    6    6    0  503 -0.16450592781E+03 -0.34310541572E+03 -0.43962004184E+03  0.58142007857E+03  0.00000000000E+00 0.  1.
<mgrwt>
<rscale>  0 0.22106642E+04</rscale>
<asrwt>0</asrwt>
<pdfrwt beam="1">  1        2 0.40686358E+00 0.22106642E+04</pdfrwt>
<pdfrwt beam="2">  1       -1 0.71073880E-01 0.22106642E+04</pdfrwt>
<totfact> 0.59534964E+00</totfact>
</mgrwt>
</event>
<event>
12    6  0.1530859E-007  0.2065368E+04  0.7818608E-02  0.8576654E-01
         -1   -1    0    0    0  501 -0.00000000000E+00  0.00000000000E+00  0.80275565417E+03  0.80275565417E+03  0.00000000000E+00 0.  1.
          2   -1    0    0  501    0  0.00000000000E+00 -0.00000000000E+00 -0.13284691349E+04  0.13284691349E+04  0.00000000000E+00 0. -1.
         24    2    1    2    0    0 -0.32303863402E+03 -0.49131284951E+03  0.38971406998E+03  0.70999737617E+03  0.80479454916E+02 0.  0.
        254    2    1    2    0    0  0.32303863402E+03  0.49131284951E+03 -0.91542755069E+03  0.14212274129E+04  0.91440553552E+03 0.  0.
         23    2    4    4    0    0  0.57121581932E+03  0.59686258808E+02 -0.48671519452E+03  0.75810578962E+03  0.89346213914E+02 0.  0.
         23    2    4    4    0    0 -0.24817718530E+03  0.43162659070E+03 -0.42871235617E+03  0.66312162326E+03  0.89680398064E+02 0.  0.
          2    1    3    3  502    0 -0.16182709151E+03 -0.31302587394E+03  0.24891433654E+03  0.43142966082E+03  0.00000000000E+00 0. -1.
         -1    1    3    3    0  502 -0.16121154251E+03 -0.17828697557E+03  0.14079973344E+03  0.27856771534E+03  0.00000000000E+00 0.  1.
         11    1    5    5    0    0  0.11975832274E+03 -0.85104532363E+00 -0.14848200991E+03  0.19076081204E+03  0.00000000000E+00 0. -1.
        -11    1    5    5    0    0  0.45145749658E+03  0.60537304132E+02 -0.33823318462E+03  0.56734497758E+03  0.00000000000E+00 0.  1.
          2    1    6    6  503    0 -0.54177936549E+02  0.79835464761E+02 -0.41080840492E+02  0.10486460651E+03  0.00000000000E+00 0. -1.
         -2    1    6    6    0  503 -0.19399924875E+03  0.35179112594E+03 -0.38763151568E+03  0.55825701675E+03  0.00000000000E+00 0.  1.
<mgrwt>
<rscale>  0 0.20653679E+04</rscale>
<asrwt>0</asrwt>
<pdfrwt beam="1">  1        2 0.20437987E+00 0.20653679E+04</pdfrwt>
<pdfrwt beam="2">  1       -1 0.12350087E+00 0.20653679E+04</pdfrwt>
<totfact> 0.96661523E+00</totfact>
</mgrwt>
</event>
<event>
12    6  0.1530859E-007  0.1466280E+04  0.7818608E-02  0.8907191E-01
          2   -1    0    0  501    0  0.00000000000E+00  0.00000000000E+00  0.60808241375E+03  0.60808241375E+03  0.00000000000E+00 0. -1.
         -1   -1    0    0    0  501 -0.00000000000E+00 -0.00000000000E+00 -0.88391653975E+03  0.88391653975E+03  0.00000000000E+00 0.  1.
         24    2    1    2    0    0 -0.12521942171E+03 -0.41907064407E+03 -0.19836977598E+03  0.48713512182E+03  0.81547229156E+02 0.  0.
        254    2    1    2    0    0  0.12521942171E+03  0.41907064407E+03 -0.77464350011E+02  0.10048638317E+04  0.90136035325E+03 0.  0.
         23    2    4    4    0    0  0.46010238203E+03  0.33281430180E+02 -0.11826143888E+03  0.48458639197E+03  0.89645679287E+02 0.  0.
         23    2    4    4    0    0 -0.33488296031E+03  0.38578921389E+03  0.40797088865E+02  0.52027743972E+03  0.89690005883E+02 0.  0.
          2    1    3    3  502    0 -0.27939611790E+02 -0.41102398275E+02 -0.83357504423E+00  0.49706376837E+02  0.00000000000E+00 0. -1.
         -1    1    3    3    0  502 -0.97279809924E+02 -0.37796824580E+03 -0.19753620094E+03  0.43742874498E+03  0.00000000000E+00 0.  1.
         11    1    5    5    0    0  0.25066406183E+03 -0.17752997389E+02 -0.36000555573E+02  0.25385759947E+03  0.00000000000E+00 0.  1.
        -11    1    5    5    0    0  0.20943832020E+03  0.51034427570E+02 -0.82260883303E+02  0.23072879250E+03  0.00000000000E+00 0. -1.
          3    1    6    6  503    0 -0.14025574722E+03  0.97422640382E+02  0.14293884215E+02  0.17136849364E+03  0.00000000000E+00 0. -1.
         -3    1    6    6    0  503 -0.19462721309E+03  0.28836657351E+03  0.26503204650E+02  0.34890894608E+03  0.00000000000E+00 0.  1.
<mgrwt>
<rscale>  0 0.14662798E+04</rscale>
<asrwt>0</asrwt>
<pdfrwt beam="1">  1        2 0.93551141E-01 0.14662798E+04</pdfrwt>
<pdfrwt beam="2">  1       -1 0.13598716E+00 0.14662798E+04</pdfrwt>
<totfact> 0.24421739E+01</totfact>
</mgrwt>
</event>
<event>
12    6  0.1530859E-007  0.1255184E+04  0.7818608E-02  0.9065879E-01
         -1   -1    0    0    0  501 -0.00000000000E+00  0.00000000000E+00  0.47682260137E+03  0.47682260137E+03  0.00000000000E+00 0.  1.
          2   -1    0    0  501    0  0.00000000000E+00 -0.00000000000E+00 -0.82603469719E+03  0.82603469719E+03  0.00000000000E+00 0. -1.
         24    2    1    2    0    0 -0.20037429964E+03 -0.22044041508E+03 -0.69780929179E+02  0.31627432458E+03  0.80101396703E+02 0.  0.
        254    2    1    2    0    0  0.20037429964E+03  0.22044041508E+03 -0.27943116664E+03  0.98658297398E+03  0.89806478113E+03 0.  0.
         23    2    4    4    0    0  0.34119271421E+03 -0.25740826009E+03 -0.93482214558E+02  0.44707910256E+03  0.92028902605E+02 0.  0.
         23    2    4    4    0    0 -0.14081841457E+03  0.47784867517E+03 -0.18594895208E+03  0.53950387142E+03  0.91204343420E+02 0.  0.
          2    1    3    3  502    0 -0.26651680167E+02 -0.59379425806E+02  0.10946187850E+02  0.66000358281E+02  0.00000000000E+00 0. -1.
         -1    1    3    3    0  502 -0.17372261947E+03 -0.16106098927E+03 -0.80727117030E+02  0.25027396630E+03  0.00000000000E+00 0.  1.
         11    1    5    5    0    0  0.70858517236E+01 -0.21127013598E+02 -0.22661015094E+02  0.31781780996E+02  0.00000000000E+00 0. -1.
        -11    1    5    5    0    0  0.33410686249E+03 -0.23628124649E+03 -0.70821199464E+02  0.41529732156E+03  0.00000000000E+00 0.  1.
          3    1    6    6  503    0 -0.53367535247E+02  0.74575982978E+02 -0.53263658365E+02  0.10605040480E+03  0.00000000000E+00 0. -1.
         -3    1    6    6    0  503 -0.87450879325E+02  0.40327269219E+03 -0.13268529371E+03  0.43345346662E+03  0.00000000000E+00 0.  1.
<mgrwt>
<rscale>  0 0.12551845E+04</rscale>
<asrwt>0</asrwt>
<pdfrwt beam="1">  1        2 0.12708226E+00 0.12551845E+04</pdfrwt>
<pdfrwt beam="2">  1       -1 0.73357324E-01 0.12551845E+04</pdfrwt>
<totfact> 0.69369678E+01</totfact>
</mgrwt>
</event>
<event>
12    6  0.1530859E-007  0.1618628E+04  0.7818608E-02  0.8809185E-01
         -1   -1    0    0    0  501 -0.00000000000E+00  0.00000000000E+00  0.84171280883E+03  0.84171280883E+03  0.00000000000E+00 0.  1.
          2   -1    0    0  501    0  0.00000000000E+00 -0.00000000000E+00 -0.77816182436E+03  0.77816182436E+03  0.00000000000E+00 0. -1.
         24    2    1    2    0    0  0.44309049611E+03  0.22354793966E+03 -0.23154529081E+03  0.55296319021E+03  0.76499666419E+02 0.  0.
        254    2    1    2    0    0 -0.44309049611E+03 -0.22354793966E+03  0.29509627527E+03  0.10669114430E+04  0.89717074540E+03 0.  0.
         23    2    4    4    0    0 -0.33807383948E+03 -0.25307039489E+03 -0.25301857370E+03  0.50071212957E+03  0.91409476291E+02 0.  0.
         23    2    4    4    0    0 -0.10501665663E+03  0.29522455226E+02  0.54811484897E+03  0.56619931340E+03  0.90838875510E+02 0.  0.
          4    1    3    3  502    0  0.37631693053E+03  0.15674336024E+03 -0.19073953292E+03  0.45007164163E+03  0.00000000000E+00 0. -1.
         -3    1    3    3    0  502  0.66773565581E+02  0.66804579423E+02 -0.40805757892E+02  0.10289154858E+03  0.00000000000E+00 0.  1.
         11    1    5    5    0    0 -0.13888566992E+03 -0.15858104511E+03 -0.10830576296E+03  0.23699644610E+03  0.00000000000E+00 0.  1.
        -11    1    5    5    0    0 -0.19918816956E+03 -0.94489349782E+02 -0.14471281074E+03  0.26371568347E+03  0.00000000000E+00 0. -1.
          1    1    6    6  503    0 -0.95982670893E+02  0.23677479865E+02  0.54643890603E+03  0.55530962011E+03  0.00000000000E+00 0. -1.
         -1    1    6    6    0  503 -0.90339857385E+01  0.58449753615E+01  0.16759429424E+01  0.10889693294E+02  0.00000000000E+00 0.  1.
<mgrwt>
<rscale>  0 0.16186275E+04</rscale>
<asrwt>0</asrwt>
<pdfrwt beam="1">  1        2 0.11971720E+00 0.16186275E+04</pdfrwt>
<pdfrwt beam="2">  1       -1 0.12949428E+00 0.16186275E+04</pdfrwt>
<totfact> 0.20012954E+01</totfact>
</mgrwt>
</event>
<event>
12    6  0.1530859E-007  0.1307494E+04  0.7818608E-02  0.9023643E-01
          2   -1    0    0  501    0  0.00000000000E+00  0.00000000000E+00  0.14703458957E+04  0.14703458957E+04  0.00000000000E+00 0. -1.
         -1   -1    0    0    0  501 -0.00000000000E+00 -0.00000000000E+00 -0.29066976382E+03  0.29066976382E+03  0.00000000000E+00 0.  1.
         24    2    1    2    0    0 -0.38848735097E+02 -0.26424287797E+03  0.65480968820E+03  0.71193008411E+03  0.82068228521E+02 0.  0.
        254    2    1    2    0    0  0.38848735097E+02  0.26424287797E+03  0.52486644363E+03  0.10490855754E+04  0.86819481570E+03 0.  0.
         23    2    4    4    0    0  0.22629570210E+03 -0.24831544957E+03  0.14214548642E+03  0.37651631496E+03  0.93214209425E+02 0.  0.
         23    2    4    4    0    0 -0.18744696700E+03  0.51255832754E+03  0.38272095721E+03  0.67256926040E+03  0.89563800609E+02 0.  0.
          4    1    3    3  502    0  0.89727389971E+01 -0.98285352849E+02  0.32472539385E+03  0.33939225395E+03  0.00000000000E+00 0. -1.
         -3    1    3    3    0  502 -0.47821474094E+02 -0.16595752512E+03  0.33008429435E+03  0.37253783017E+03  0.00000000000E+00 0.  1.
         11    1    5    5    0    0  0.15069657783E+02 -0.57428304743E+02  0.25334095164E+01  0.59426618069E+02  0.00000000000E+00 0.  1.
        -11    1    5    5    0    0  0.21122604431E+03 -0.19088714483E+03  0.13961207691E+03  0.31708969689E+03  0.00000000000E+00 0. -1.
          3    1    6    6  503    0 -0.43301629491E+02  0.20695029043E+03  0.10993963620E+03  0.23830689757E+03  0.00000000000E+00 0. -1.
         -3    1    6    6    0  503 -0.14414533751E+03  0.30560803711E+03  0.27278132101E+03  0.43426236283E+03  0.00000000000E+00 0.  1.
<mgrwt>
<rscale>  0 0.13074939E+04</rscale>
<asrwt>0</asrwt>
<pdfrwt beam="1">  1        2 0.22620706E+00 0.13074939E+04</pdfrwt>
<pdfrwt beam="2">  1       -1 0.44718426E-01 0.13074939E+04</pdfrwt>
<totfact> 0.72967019E+01</totfact>
</mgrwt>
</event>
<event>
12    6  0.1530859E-007  0.2871458E+04  0.7818608E-02  0.8281421E-01
         -1   -1    0    0    0  501 -0.00000000000E+00  0.00000000000E+00  0.10388590743E+04  0.10388590743E+04  0.00000000000E+00 0.  1.
          2   -1    0    0  501    0  0.00000000000E+00 -0.00000000000E+00 -0.19842124984E+04  0.19842124984E+04  0.00000000000E+00 0. -1.
         24    2    1    2    0    0  0.79991178195E+03  0.70664234631E+03  0.34120327260E+03  0.11233546171E+04  0.79395579907E+02 0.  0.
        254    2    1    2    0    0 -0.79991178195E+03 -0.70664234631E+03 -0.12865566967E+04  0.18997169556E+04  0.90249327588E+03 0.  0.
         23    2    4    4    0    0 -0.81821457213E+03 -0.23194639196E+03 -0.54560609549E+03  0.10149162996E+04  0.95367022253E+02 0.  0.
         23    2    4    4    0    0  0.18302790184E+02 -0.47469595435E+03 -0.74095060126E+03  0.88480065603E+03  0.90516110188E+02 0.  0.
          4    1    3    3  502    0  0.77345674508E+02  0.78948106565E+02  0.60054473933E+02  0.12578432627E+03  0.00000000000E+00 0. -1.
         -3    1    3    3    0  502  0.72256610744E+03  0.62769423974E+03  0.28114879867E+03  0.99757029087E+03  0.00000000000E+00 0.  1.
         11    1    5    5    0    0 -0.60195010267E+03 -0.20155467495E+03 -0.37061950229E+03  0.73506940391E+03  0.00000000000E+00 0.  1.
        -11    1    5    5    0    0 -0.21626446946E+03 -0.30391717014E+02 -0.17498659320E+03  0.27984689567E+03  0.00000000000E+00 0. -1.
          4    1    6    6  503    0  0.34710984162E+02 -0.28814822876E+03 -0.37994277286E+03  0.47811166563E+03  0.00000000000E+00 0. -1.
         -4    1    6    6    0  503 -0.16408193978E+02 -0.18654772559E+03 -0.36100782839E+03  0.40668899040E+03  0.00000000000E+00 0.  1.
<mgrwt>
<rscale>  0 0.28714576E+04</rscale>
<asrwt>0</asrwt>
<pdfrwt beam="1">  1        2 0.30526346E+00 0.28714576E+04</pdfrwt>
<pdfrwt beam="2">  1       -1 0.15982447E+00 0.28714576E+04</pdfrwt>
<totfact> 0.19668376E+00</totfact>
</mgrwt>
</event>
<event>
12    6  0.1530859E-007  0.1459378E+04  0.7818608E-02  0.8911925E-01
         -1   -1    0    0    0  501 -0.00000000000E+00  0.00000000000E+00  0.19417953904E+03  0.19417953904E+03  0.00000000000E+00 0.  1.
          2   -1    0    0  501    0  0.00000000000E+00 -0.00000000000E+00 -0.27420294561E+04  0.27420294561E+04  0.00000000000E+00 0. -1.
         24    2    1    2    0    0  0.20245742704E+03  0.78308736634E+02 -0.43877065369E+01  0.23129091495E+03  0.79718049223E+02 0.  0.
        254    2    1    2    0    0 -0.20245742704E+03 -0.78308736634E+02 -0.25434622105E+04  0.27049180802E+04  0.89457282332E+03 0.  0.
         23    2    4    4    0    0 -0.48395515346E+03  0.83725396588E+02 -0.20282614776E+04  0.20889044541E+04  0.91949249069E+02 0.  0.
         23    2    4    4    0    0  0.28149772642E+03 -0.16203413322E+03 -0.51520073297E+03  0.61601362610E+03  0.92438963585E+02 0.  0.
          4    1    3    3  502    0  0.83446326420E+01  0.24763470177E+02 -0.14102518036E+02  0.29694163805E+02  0.00000000000E+00 0. -1.
         -3    1    3    3    0  502  0.19411279440E+03  0.53545266457E+02  0.97148114988E+01  0.20159675114E+03  0.00000000000E+00 0.  1.
         11    1    5    5    0    0 -0.31323259216E+03  0.10636727928E+02 -0.13205673008E+04  0.13572493480E+04  0.00000000000E+00 0. -1.
        -11    1    5    5    0    0 -0.17072256129E+03  0.73088668661E+02 -0.70769417677E+03  0.73165510608E+03  0.00000000000E+00 0.  1.
          4    1    6    6  503    0  0.19223916648E+03 -0.11462078769E+03 -0.26938922132E+03  0.35023474223E+03  0.00000000000E+00 0. -1.
         -4    1    6    6    0  503  0.89258559934E+02 -0.47413345534E+02 -0.24581151164E+03  0.26577888387E+03  0.00000000000E+00 0.  1.
<mgrwt>
<rscale>  0 0.14593780E+04</rscale>
<asrwt>0</asrwt>
<pdfrwt beam="1">  1        2 0.42185070E+00 0.14593780E+04</pdfrwt>
<pdfrwt beam="2">  1       -1 0.29873774E-01 0.14593780E+04</pdfrwt>
<totfact> 0.28581831E+01</totfact>
</mgrwt>
</event>
<event>
12    6  0.1530859E-007  0.3986867E+04  0.7818608E-02  0.8007201E-01
          2   -1    0    0  501    0  0.00000000000E+00  0.00000000000E+00  0.34685993657E+04  0.34685993657E+04  0.00000000000E+00 0. -1.
         -1   -1    0    0    0  501 -0.00000000000E+00 -0.00000000000E+00 -0.11456430237E+04  0.11456430237E+04  0.00000000000E+00 0.  1.
         24    2    1    2    0    0  0.66258965013E+03  0.11900145524E+04 -0.41588913893E+03  0.14263166834E+04  0.79093780349E+02 0.  0.
        254    2    1    2    0    0 -0.66258965013E+03 -0.11900145524E+04  0.27388454809E+04  0.31879257059E+04  0.89801784987E+03 0.  0.
         23    2    4    4    0    0 -0.69078992047E+03 -0.83914638635E+03  0.25593467853E+04  0.27821271630E+04  0.92834325548E+02 0.  0.
         23    2    4    4    0    0  0.28200270343E+02 -0.35086816603E+03  0.17949869565E+03  0.40579854288E+03  0.92460534746E+02 0.  0.
          4    1    3    3  502    0  0.31357125059E+03  0.49217365064E+03 -0.19720914915E+03  0.61599779228E+03  0.00000000000E+00 0. -1.
         -3    1    3    3    0  502  0.34901839954E+03  0.69784090174E+03 -0.21867998978E+03  0.81031889111E+03  0.00000000000E+00 0.  1.
         11    1    5    5    0    0 -0.61001547201E+03 -0.77296702538E+03  0.22640353600E+04  0.24688971242E+04  0.00000000000E+00 0.  1.
        -11    1    5    5    0    0 -0.80774448456E+02 -0.66179360971E+02  0.29531142525E+03  0.31323003883E+03  0.00000000000E+00 0. -1.
          4    1    6    6  503    0  0.11421127666E+01  0.51096558791E+01  0.84303494735E+01  0.99239002927E+01  0.00000000000E+00 0. -1.
         -4    1    6    6    0  503  0.27058157577E+02 -0.35597782191E+03  0.17106834618E+03  0.39587464259E+03  0.00000000000E+00 0.  1.
<mgrwt>
<rscale>  0 0.39868668E+04</rscale>
<asrwt>0</asrwt>
<pdfrwt beam="1">  1        2 0.53363067E+00 0.39868668E+04</pdfrwt>
<pdfrwt beam="2">  1       -1 0.17625277E+00 0.39868668E+04</pdfrwt>
<totfact> 0.16945146E-01</totfact>
</mgrwt>
</event>
<event>
12    6  0.1530859E-007  0.1814478E+04  0.7818608E-02  0.8698638E-01
         -1   -1    0    0    0  501 -0.00000000000E+00  0.00000000000E+00  0.21694898165E+03  0.21694898165E+03  0.00000000000E+00 0.  1.
          2   -1    0    0  501    0  0.00000000000E+00 -0.00000000000E+00 -0.37939005806E+04  0.37939005806E+04  0.00000000000E+00 0. -1.
         24    2    1    2    0    0 -0.21876409551E+01  0.66283910333E+03 -0.16238878292E+04  0.17557133455E+04  0.78467874293E+02 0.  0.
        254    2    1    2    0    0  0.21876409551E+01 -0.66283910333E+03 -0.19530637698E+04  0.22551362167E+04  0.91204210669E+03 0.  0.
         23    2    4    4    0    0  0.25617069564E+03  0.12118039661E+03 -0.47023684010E+03  0.55630721622E+03  0.89704621992E+02 0.  0.
         23    2    4    4    0    0 -0.25398305469E+03 -0.78401949994E+03 -0.14828269297E+04  0.16988290005E+04  0.89723470347E+02 0.  0.
          4    1    3    3  502    0 -0.24719537253E+02  0.23070537186E+03 -0.64437399877E+03  0.68487507943E+03  0.00000000000E+00 0. -1.
         -3    1    3    3    0  502  0.22531896298E+02  0.43213373147E+03 -0.97951383040E+03  0.10708382661E+04  0.00000000000E+00 0.  1.
         11    1    5    5    0    0  0.23704511686E+03  0.13458450822E+03 -0.41720892909E+03  0.49836399127E+03  0.00000000000E+00 0. -1.
        -11    1    5    5    0    0  0.19125578779E+02 -0.13404111615E+02 -0.53027911011E+02  0.57943224954E+02  0.00000000000E+00 0.  1.
          3    1    6    6  503    0 -0.23376128486E+03 -0.76796781435E+03 -0.14264015401E+04  0.16367773996E+04  0.00000000000E+00 0. -1.
         -3    1    6    6    0  503 -0.20221769826E+02 -0.16051685596E+02 -0.56425389547E+02  0.62051600873E+02  0.00000000000E+00 0.  1.
<mgrwt>
<rscale>  0 0.18144783E+04</rscale>
<asrwt>0</asrwt>
<pdfrwt beam="1">  1        2 0.58367702E+00 0.18144783E+04</pdfrwt>
<pdfrwt beam="2">  1       -1 0.33376766E-01 0.18144783E+04</pdfrwt>
<totfact> 0.45536026E+00</totfact>
</mgrwt>
</event>
<event>
12    6  0.1530859E-007  0.1551953E+04  0.7818608E-02  0.8850621E-01
          2   -1    0    0  501    0  0.00000000000E+00  0.00000000000E+00  0.25464877729E+04  0.25464877729E+04  0.00000000000E+00 0. -1.
         -1   -1    0    0    0  501 -0.00000000000E+00 -0.00000000000E+00 -0.23645892390E+03  0.23645892390E+03  0.00000000000E+00 0.  1.
         24    2    1    2    0    0  0.49265243045E+03 -0.10630707221E+03  0.90145251891E+03  0.10357169705E+04  0.78008899029E+02 0.  0.
        254    2    1    2    0    0 -0.49265243045E+03  0.10630707221E+03  0.14085763301E+04  0.17472297263E+04  0.90261665611E+03 0.  0.
         23    2    4    4    0    0 -0.17073313913E+03  0.42652532926E+03  0.10859826291E+04  0.11826809352E+04  0.91116751976E+02 0.  0.
         23    2    4    4    0    0 -0.32191929132E+03 -0.32021825705E+03  0.32259370095E+03  0.56454879104E+03  0.92069969610E+02 0.  0.
          2    1    3    3  502    0  0.45058595497E+03 -0.11402297720E+03  0.85030540658E+03  0.96904500752E+03  0.00000000000E+00 0. -1.
         -1    1    3    3    0  502  0.42066475483E+02  0.77159049928E+01  0.51147112338E+02  0.66671962998E+02  0.00000000000E+00 0.  1.
         11    1    5    5    0    0  0.16796771680E+01 -0.38926567482E+01  0.57546481369E+01  0.71477316071E+01  0.00000000000E+00 0. -1.
        -11    1    5    5    0    0 -0.17241281630E+03  0.43041798600E+03  0.10802279810E+04  0.11755332036E+04  0.00000000000E+00 0.  1.
          3    1    6    6  503    0 -0.81128841253E+02 -0.54309207318E+02  0.31541645578E+02  0.10259753549E+03  0.00000000000E+00 0. -1.
         -3    1    6    6    0  503 -0.24079045007E+03 -0.26590904973E+03  0.29105205537E+03  0.46195125555E+03  0.00000000000E+00 0.  1.
<mgrwt>
<rscale>  0 0.15519533E+04</rscale>
<asrwt>0</asrwt>
<pdfrwt beam="1">  1        2 0.39176733E+00 0.15519533E+04</pdfrwt>
<pdfrwt beam="2">  1       -1 0.36378298E-01 0.15519533E+04</pdfrwt>
<totfact> 0.26021380E+01</totfact>
</mgrwt>
</event>
<event>
12    6  0.2154883E-007  0.2871634E+04  0.7818608E-02  0.8281368E-01
          2   -1    0    0  501    0  0.00000000000E+00  0.00000000000E+00  0.26780624418E+04  0.26780624418E+04  0.00000000000E+00 0. -1.
         -1   -1    0    0    0  501 -0.00000000000E+00 -0.00000000000E+00 -0.76979926831E+03  0.76979926831E+03  0.00000000000E+00 0.  1.
         24    2    1    2    0    0 -0.10458990259E+04 -0.89988557892E+02  0.17711914153E+04  0.20606166321E+04  0.83780438609E+02 0.  0.
        254    2    1    2    0    0  0.10458990259E+04  0.89988557892E+02  0.13707175819E+03  0.13872450780E+04  0.89646947892E+03 0.  0.
         23    2    4    4    0    0  0.48417530746E+03 -0.23548062590E+03 -0.27575885708E+03  0.61178363915E+03  0.91429865696E+02 0.  0.
         23    2    4    4    0    0  0.56172371844E+03  0.32546918379E+03  0.41283061527E+03  0.77546143886E+03  0.97198769556E+02 0.  0.
          2    1    3    3  502    0 -0.84935751541E+03 -0.90484241626E+02  0.13831138456E+04  0.16256074239E+04  0.00000000000E+00 0. -1.
         -1    1    3    3    0  502 -0.19654151050E+03  0.49568373406E+00  0.38807756976E+03  0.43500920818E+03  0.00000000000E+00 0.  1.
         11    1    5    5    0    0  0.41121032596E+03 -0.23398983004E+03 -0.23996819719E+03  0.53049967804E+03  0.00000000000E+00 0. -1.
        -11    1    5    5    0    0  0.72964981502E+02 -0.14907958576E+01 -0.35790659892E+02  0.81283961107E+02  0.00000000000E+00 0.  1.
          1    1    6    6  503    0  0.52626558043E+03  0.29979040420E+03  0.35203042954E+03  0.70053920012E+03  0.00000000000E+00 0. -1.
         -1    1    6    6    0  503  0.35458138018E+02  0.25678779596E+02  0.60800185730E+02  0.74922238741E+02  0.00000000000E+00 0.  1.
<mgrwt>
<rscale>  0 0.28716340E+04</rscale>
<asrwt>0</asrwt>
<pdfrwt beam="1">  1        2 0.41200960E+00 0.28716340E+04</pdfrwt>
<pdfrwt beam="2">  1       -1 0.11843066E+00 0.28716340E+04</pdfrwt>
<totfact> 0.17197342E+00</totfact>
</mgrwt>
</event>
<event>
12    6  0.1530859E-007  0.2055156E+04  0.7818608E-02  0.8581259E-01
          2   -1    0    0  501    0  0.00000000000E+00  0.00000000000E+00  0.28195659062E+04  0.28195659062E+04  0.00000000000E+00 0. -1.
         -1   -1    0    0    0  501 -0.00000000000E+00 -0.00000000000E+00 -0.37449609240E+03  0.37449609240E+03  0.00000000000E+00 0.  1.
         24    2    1    2    0    0  0.73176133037E+03  0.76726296851E+02  0.15760985800E+04  0.17411950787E+04  0.79448088986E+02 0.  0.
        254    2    1    2    0    0 -0.73176133037E+03 -0.76726296851E+02  0.86897123380E+03  0.14528669199E+04  0.90241327152E+03 0.  0.
         23    2    4    4    0    0  0.10677281081E+03 -0.71504466705E+02  0.51417028112E+03  0.53767991877E+03  0.90638265495E+02 0.  0.
         23    2    4    4    0    0 -0.83853414117E+03 -0.52218301464E+01  0.35480095268E+03  0.91518700116E+03  0.92286280991E+02 0.  0.
          4    1    3    3  502    0  0.47951188182E+03  0.34745774978E+02  0.11078143532E+04  0.12076388346E+04  0.00000000000E+00 0. -1.
         -3    1    3    3    0  502  0.25224944855E+03  0.41980521873E+02  0.46828422681E+03  0.53355624407E+03  0.00000000000E+00 0.  1.
         11    1    5    5    0    0  0.10054008917E+03 -0.79024890260E+02  0.34028394626E+03  0.36351947251E+03  0.00000000000E+00 0.  1.
        -11    1    5    5    0    0  0.62327216327E+01  0.75204235555E+01  0.17388633486E+03  0.17416044625E+03  0.00000000000E+00 0. -1.
          3    1    6    6  503    0 -0.36279509172E+01  0.76971026600E+01  0.50173182841E+01  0.98783045094E+01  0.00000000000E+00 0. -1.
         -3    1    6    6    0  503 -0.83490619025E+03 -0.12918932806E+02  0.34978363439E+03  0.90530869666E+03  0.00000000000E+00 0.  1.
<mgrwt>
<rscale>  0 0.20551559E+04</rscale>
<asrwt>0</asrwt>
<pdfrwt beam="1">  1        2 0.43377936E+00 0.20551559E+04</pdfrwt>
<pdfrwt beam="2">  1       -1 0.57614785E-01 0.20551559E+04</pdfrwt>
<totfact> 0.72370163E+00</totfact>
</mgrwt>
</event>
<event>
12    6  0.1530859E-007  0.1614064E+04  0.7818608E-02  0.8811954E-01
          2   -1    0    0  501    0  0.00000000000E+00  0.00000000000E+00  0.12101398273E+04  0.12101398273E+04  0.00000000000E+00 0. -1.
         -1   -1    0    0    0  501 -0.00000000000E+00 -0.00000000000E+00 -0.53820264705E+03  0.53820264705E+03  0.00000000000E+00 0.  1.
         24    2    1    2    0    0  0.14075223964E+03  0.20139814825E+03  0.75351617507E+03  0.79652515499E+03  0.79330255031E+02 0.  0.
        254    2    1    2    0    0 -0.14075223964E+03 -0.20139814825E+03 -0.81578994793E+02  0.95181731938E+03  0.91593049409E+03 0.  0.
         23    2    4    4    0    0 -0.18824932196E+03 -0.54606578117E+03 -0.19666760915E+02  0.58647549680E+03  0.99704976150E+02 0.  0.
         23    2    4    4    0    0  0.47497082316E+02  0.34466763292E+03 -0.61912233879E+02  0.36534182258E+03  0.92681026168E+02 0.  0.
          2    1    3    3  502    0  0.12085801416E+03  0.10848604037E+03  0.44508110155E+03  0.47378588782E+03  0.00000000000E+00 0. -1.
         -1    1    3    3    0  502  0.19894225487E+02  0.92912107882E+02  0.30843507352E+03  0.32273926718E+03  0.00000000000E+00 0.  1.
         11    1    5    5    0    0 -0.19449868936E+03 -0.54358050012E+03 -0.13711573108E+02  0.57749243069E+03  0.00000000000E+00 0.  1.
        -11    1    5    5    0    0  0.62493673990E+01 -0.24852810591E+01 -0.59551878071E+01  0.89830661051E+01  0.00000000000E+00 0. -1.
          1    1    6    6  503    0  0.53484781961E+02  0.24780727102E+03 -0.65127369721E+01  0.25359708439E+03  0.00000000000E+00 0. -1.
         -1    1    6    6    0  503 -0.59876996442E+01  0.96860361907E+02 -0.55399496906E+02  0.11174473819E+03  0.00000000000E+00 0.  1.
<mgrwt>
<rscale>  0 0.16140638E+04</rscale>
<asrwt>0</asrwt>
<pdfrwt beam="1">  1        2 0.18617536E+00 0.16140638E+04</pdfrwt>
<pdfrwt beam="2">  1       -1 0.82800407E-01 0.16140638E+04</pdfrwt>
<totfact> 0.29564507E+01</totfact>
</mgrwt>
</event>
<event>
12    6  0.1530859E-007  0.2650032E+04  0.7818608E-02  0.8351402E-01
         -1   -1    0    0    0  501 -0.00000000000E+00  0.00000000000E+00  0.44351620184E+03  0.44351620184E+03  0.00000000000E+00 0.  1.
          2   -1    0    0  501    0  0.00000000000E+00 -0.00000000000E+00 -0.39585195471E+04  0.39585195471E+04  0.00000000000E+00 0. -1.
         24    2    1    2    0    0 -0.36262187041E+03  0.11038594514E+04 -0.18518626850E+04  0.21877186791E+04  0.81959168898E+02 0.  0.
        254    2    1    2    0    0  0.36262187041E+03 -0.11038594514E+04 -0.16631406602E+04  0.22143170698E+04  0.88722202456E+03 0.  0.
         23    2    4    4    0    0  0.10893870213E+03 -0.10453841343E+04 -0.16216419838E+04  0.19345241126E+04  0.89247910684E+02 0.  0.
         23    2    4    4    0    0  0.25368316827E+03 -0.58475317002E+02 -0.41498676437E+02  0.27979295722E+03  0.93741379343E+02 0.  0.
          4    1    3    3  502    0 -0.31901954766E+03  0.10071366888E+04 -0.16408417006E+04  0.19515274193E+04  0.00000000000E+00 0. -1.
         -3    1    3    3    0  502 -0.43602322744E+02  0.96722762551E+02 -0.21102098443E+03  0.23619125982E+03  0.00000000000E+00 0.  1.
         11    1    5    5    0    0  0.61700326258E+02 -0.28643802849E+03 -0.40728086565E+03  0.50172839061E+03  0.00000000000E+00 0. -1.
        -11    1    5    5    0    0  0.47238375877E+02 -0.75894610586E+03 -0.12143611181E+04  0.14327957220E+04  0.00000000000E+00 0.  1.
          4    1    6    6  503    0  0.91998422825E+00  0.27054516416E+01 -0.18496065882E+02  0.18715509416E+02  0.00000000000E+00 0. -1.
         -4    1    6    6    0  503  0.25276318405E+03 -0.61180768644E+02 -0.23002610554E+02  0.26107744781E+03  0.00000000000E+00 0.  1.
<mgrwt>
<rscale>  0 0.26500321E+04</rscale>
<asrwt>0</asrwt>
<pdfrwt beam="1">  1        2 0.60900302E+00 0.26500321E+04</pdfrwt>
<pdfrwt beam="2">  1       -1 0.68233261E-01 0.26500321E+04</pdfrwt>
<totfact> 0.80595813E-01</totfact>
</mgrwt>
</event>
<event>
12    6  0.1530859E-007  0.3992828E+04  0.7818608E-02  0.8005995E-01
          2   -1    0    0  501    0  0.00000000000E+00  0.00000000000E+00  0.22905841203E+04  0.22905841203E+04  0.00000000000E+00 0. -1.
         -1   -1    0    0    0  501 -0.00000000000E+00 -0.00000000000E+00 -0.17400230370E+04  0.17400230370E+04  0.00000000000E+00 0.  1.
         24    2    1    2    0    0 -0.51837454755E+03 -0.16998435698E+03  0.20916176879E+04  0.21638255074E+04  0.98333213852E+02 0.  0.
        254    2    1    2    0    0  0.51837454755E+03  0.16998435698E+03 -0.15410566047E+04  0.18667816499E+04  0.90133868023E+03 0.  0.
         23    2    4    4    0    0  0.18958866272E+03 -0.21457998999E+03 -0.12304764453E+04  0.12666418446E+04  0.91218676288E+02 0.  0.
         23    2    4    4    0    0  0.32878588483E+03  0.38456434697E+03 -0.31058015939E+03  0.60013980533E+03  0.87851326197E+02 0.  0.
          2    1    3    3  502    0 -0.29838912487E+03 -0.72547517314E+02  0.13355495426E+04  0.13703984066E+04  0.00000000000E+00 0. -1.
         -1    1    3    3    0  502 -0.21998542268E+03 -0.97436839663E+02  0.75606814530E+03  0.79342710078E+03  0.00000000000E+00 0.  1.
         11    1    5    5    0    0  0.12469480172E+02 -0.42309808783E+02 -0.32804930372E+03  0.33100144037E+03  0.00000000000E+00 0.  1.
        -11    1    5    5    0    0  0.17711918254E+03 -0.17227018121E+03 -0.90242714156E+03  0.93564040421E+03  0.00000000000E+00 0. -1.
          2    1    6    6  503    0  0.72931848762E+02  0.14027173605E+03 -0.11870420642E+03  0.19770155063E+03  0.00000000000E+00 0. -1.
         -2    1    6    6    0  503  0.25585403607E+03  0.24429261092E+03 -0.19187595297E+03  0.40243825470E+03  0.00000000000E+00 0.  1.
<mgrwt>
<rscale>  0 0.39928281E+04</rscale>
<asrwt>0</asrwt>
<pdfrwt beam="1">  1        2 0.35239756E+00 0.39928281E+04</pdfrwt>
<pdfrwt beam="2">  1       -1 0.26769585E+00 0.39928281E+04</pdfrwt>
<totfact> 0.22031144E-01</totfact>
</mgrwt>
</event>
<event>
12    6  0.1530859E-007  0.1233797E+04  0.7818608E-02  0.9083778E-01
         -1   -1    0    0    0  501 -0.00000000000E+00  0.00000000000E+00  0.27607783365E+03  0.27607783365E+03  0.00000000000E+00 0.  1.
          2   -1    0    0  501    0  0.00000000000E+00 -0.00000000000E+00 -0.13784659014E+04  0.13784659014E+04  0.00000000000E+00 0. -1.
         24    2    1    2    0    0 -0.17326293971E+03  0.56050696640E+02 -0.54150780745E+03  0.57698203062E+03  0.80720699098E+02 0.  0.
        254    2    1    2    0    0  0.17326293971E+03 -0.56050696640E+02 -0.56088026033E+03  0.10775617044E+04  0.90188182906E+03 0.  0.
         23    2    4    4    0    0 -0.34649479087E+03  0.40551975954E+02 -0.11147679456E+03  0.37776823484E+03  0.92621059577E+02 0.  0.
         23    2    4    4    0    0  0.51975773058E+03 -0.96602672594E+02 -0.44940346577E+03  0.69979346960E+03  0.90924420269E+02 0.  0.
          4    1    3    3  502    0 -0.12879330963E+03  0.16170835986E+02 -0.44444156154E+03  0.46300919448E+03  0.00000000000E+00 0. -1.
         -3    1    3    3    0  502 -0.44469630083E+02  0.39879860654E+02 -0.97066245906E+02  0.11397283615E+03  0.00000000000E+00 0.  1.
         11    1    5    5    0    0 -0.28803634315E+03  0.60348004183E+02 -0.11496842365E+03  0.31595024137E+03  0.00000000000E+00 0.  1.
        -11    1    5    5    0    0 -0.58458447721E+02 -0.19796028229E+02  0.34916290906E+01  0.61817993475E+02  0.00000000000E+00 0. -1.
          1    1    6    6  503    0  0.23021124853E+03 -0.62811666256E+02 -0.25594427444E+03  0.34992855841E+03  0.00000000000E+00 0. -1.
         -1    1    6    6    0  503  0.28954648205E+03 -0.33791006338E+02 -0.19345919132E+03  0.34986491120E+03  0.00000000000E+00 0.  1.
<mgrwt>
<rscale>  0 0.12337972E+04</rscale>
<asrwt>0</asrwt>
<pdfrwt beam="1">  1        2 0.21207168E+00 0.12337972E+04</pdfrwt>
<pdfrwt beam="2">  1       -1 0.42473512E-01 0.12337972E+04</pdfrwt>
<totfact> 0.91060466E+01</totfact>
</mgrwt>
</event>
<event>
12    6  0.1530859E-007  0.1053156E+04  0.7818608E-02  0.9252092E-01
          2   -1    0    0  501    0  0.00000000000E+00  0.00000000000E+00  0.72616144182E+03  0.72616144182E+03  0.00000000000E+00 0. -1.
         -1   -1    0    0    0  501 -0.00000000000E+00 -0.00000000000E+00 -0.38184934479E+03  0.38184934479E+03  0.00000000000E+00 0.  1.
         24    2    1    2    0    0 -0.12705027587E+03  0.57209042782E+01  0.78775802947E+02  0.16665442774E+03  0.73440927354E+02 0.  0.
        254    2    1    2    0    0  0.12705027587E+03 -0.57209042782E+01  0.26553629408E+03  0.94135635887E+03  0.89412961564E+03 0.  0.
         23    2    4    4    0    0 -0.79737112959E+02  0.49541868212E+02 -0.30125269095E+03  0.32853660398E+03  0.91491597778E+02 0.  0.
         23    2    4    4    0    0  0.20678738883E+03 -0.55262772490E+02  0.56678898503E+03  0.61281975489E+03  0.92104832793E+02 0.  0.
          2    1    3    3  502    0 -0.92200470148E+02  0.33965083252E+02  0.70762534799E+02  0.12108629116E+03  0.00000000000E+00 0. -1.
         -1    1    3    3    0  502 -0.34849805725E+02 -0.28244178974E+02  0.80132681474E+01  0.45568136580E+02  0.00000000000E+00 0.  1.
         11    1    5    5    0    0  0.13516645496E+02 -0.80643010727E+00 -0.10161812006E+03  0.10251630290E+03  0.00000000000E+00 0. -1.
        -11    1    5    5    0    0 -0.93253758454E+02  0.50348298319E+02 -0.19963457089E+03  0.22602030109E+03  0.00000000000E+00 0.  1.
          4    1    6    6  503    0  0.92985420389E+02 -0.42597043030E+02  0.38178310891E+03  0.39524566883E+03  0.00000000000E+00 0. -1.
         -4    1    6    6    0  503  0.11380196844E+03 -0.12665729460E+02  0.18500587612E+03  0.21757408606E+03  0.00000000000E+00 0.  1.
<mgrwt>
<rscale>  0 0.10531558E+04</rscale>
<asrwt>0</asrwt>
<pdfrwt beam="1">  1        2 0.11171714E+00 0.10531558E+04</pdfrwt>
<pdfrwt beam="2">  1       -1 0.58746053E-01 0.10531558E+04</pdfrwt>
<totfact> 0.13052806E+02</totfact>
</mgrwt>
</event>
<event>
12    6  0.1530859E-007  0.1011651E+04  0.7818608E-02  0.9295857E-01
         -1   -1    0    0    0  501 -0.00000000000E+00  0.00000000000E+00  0.34889866129E+03  0.34889866129E+03  0.00000000000E+00 0.  1.
          2   -1    0    0  501    0  0.00000000000E+00 -0.00000000000E+00 -0.73333503259E+03  0.73333503259E+03  0.00000000000E+00 0. -1.
         24    2    1    2    0    0  0.30916824271E+02 -0.99699713359E+01 -0.98727536090E+02  0.13159407916E+03  0.80713226522E+02 0.  0.
        254    2    1    2    0    0 -0.30916824271E+02  0.99699713359E+01 -0.28570883520E+03  0.95063961472E+03  0.90610754782E+03 0.  0.
         23    2    4    4    0    0 -0.32813504971E+03  0.27475830858E+03  0.23915797179E+02  0.43815233993E+03  0.90778679494E+02 0.  0.
         23    2    4    4    0    0  0.29721822543E+03 -0.26478833725E+03 -0.30962463238E+03  0.51248727479E+03  0.91237364988E+02 0.  0.
          4    1    3    3  502    0  0.16185257187E+02  0.32429868556E+01 -0.10834263427E+03  0.10959290996E+03  0.00000000000E+00 0. -1.
         -3    1    3    3    0  502  0.14731567084E+02 -0.13212958192E+02  0.96150981791E+01  0.22001169194E+02  0.00000000000E+00 0.  1.
         11    1    5    5    0    0 -0.37816902292E+02  0.15710276879E+01 -0.62833254967E+01  0.38367517593E+02  0.00000000000E+00 0. -1.
        -11    1    5    5    0    0 -0.29031814741E+03  0.27318728090E+03  0.30199122676E+02  0.39978482234E+03  0.00000000000E+00 0.  1.
          2    1    6    6  503    0  0.92629657801E+01 -0.19264442083E+01  0.56996461665E+01  0.11045346928E+02  0.00000000000E+00 0. -1.
         -2    1    6    6    0  503  0.28795525965E+03 -0.26286189304E+03 -0.31532427855E+03  0.50144192786E+03  0.00000000000E+00 0.  1.
<mgrwt>
<rscale>  0 0.10116513E+04</rscale>
<asrwt>0</asrwt>
<pdfrwt beam="1">  1        2 0.11282077E+00 0.10116513E+04</pdfrwt>
<pdfrwt beam="2">  1       -1 0.53676718E-01 0.10116513E+04</pdfrwt>
<totfact> 0.15401835E+02</totfact>
</mgrwt>
</event>
<event>
12    6  0.1530859E-007  0.1915570E+04  0.7818608E-02  0.8647145E-01
          2   -1    0    0  501    0  0.00000000000E+00  0.00000000000E+00  0.20402399525E+04  0.20402399525E+04  0.00000000000E+00 0. -1.
         -1   -1    0    0    0  501 -0.00000000000E+00 -0.00000000000E+00 -0.44962928325E+03  0.44962928325E+03  0.00000000000E+00 0.  1.
         24    2    1    2    0    0 -0.26976208685E+03  0.67335988807E+03  0.42725747664E+03  0.84559669592E+03  0.79370639630E+02 0.  0.
        254    2    1    2    0    0  0.26976208685E+03 -0.67335988807E+03  0.11633531926E+04  0.16442725398E+04  0.90777552958E+03 0.  0.
         23    2    4    4    0    0 -0.14075932473E+03 -0.62120826288E+03  0.10026223500E+04  0.11916235312E+04  0.94879766550E+02 0.  0.
         23    2    4    4    0    0  0.41052141159E+03 -0.52151625198E+02  0.16073084263E+03  0.45264900861E+03  0.88369111342E+02 0.  0.
          4    1    3    3  502    0 -0.39290851201E+02  0.66161113026E+02  0.21874923761E+02  0.79997350922E+02  0.00000000000E+00 0. -1.
         -3    1    3    3    0  502 -0.23047123565E+03  0.60719877505E+03  0.40538255288E+03  0.76559934500E+03  0.00000000000E+00 0.  1.
         11    1    5    5    0    0 -0.13082176086E+02 -0.26080354987E+03  0.43008237954E+03  0.50315056210E+03  0.00000000000E+00 0. -1.
        -11    1    5    5    0    0 -0.12767714865E+03 -0.36040471301E+03  0.57253997047E+03  0.68847296913E+03  0.00000000000E+00 0.  1.
          4    1    6    6  503    0  0.13545497672E+03 -0.15094667984E+02  0.96309595375E+01  0.13663328694E+03  0.00000000000E+00 0. -1.
         -4    1    6    6    0  503  0.27506643487E+03 -0.37056957214E+02  0.15109988309E+03  0.31601572167E+03  0.00000000000E+00 0.  1.
<mgrwt>
<rscale>  0 0.19155695E+04</rscale>
<asrwt>0</asrwt>
<pdfrwt beam="1">  1        2 0.31388306E+00 0.19155695E+04</pdfrwt>
<pdfrwt beam="2">  1       -1 0.69173737E-01 0.19155695E+04</pdfrwt>
<totfact> 0.14287716E+01</totfact>
</mgrwt>
</event>
<event>
12    6  0.1530859E-007  0.1660326E+04  0.7818608E-02  0.8784321E-01
         -1   -1    0    0    0  501 -0.00000000000E+00  0.00000000000E+00  0.10092905146E+04  0.10092905146E+04  0.00000000000E+00 0.  1.
          2   -1    0    0  501    0  0.00000000000E+00 -0.00000000000E+00 -0.68282670883E+03  0.68282670883E+03  0.00000000000E+00 0. -1.
         24    2    1    2    0    0 -0.24506481254E+03  0.88825238980E+01  0.65007600356E+03  0.69942636210E+03  0.80391318068E+02 0.  0.
        254    2    1    2    0    0  0.24506481254E+03 -0.88825238980E+01 -0.32361219777E+03  0.99269086135E+03  0.90585574463E+03 0.  0.
         23    2    4    4    0    0  0.50161638449E+03 -0.15538694553E+03  0.17125871214E+02  0.53253046485E+03  0.86783065703E+02 0.  0.
         23    2    4    4    0    0 -0.25655157196E+03  0.14650442163E+03 -0.34073806898E+03  0.46016039650E+03  0.91448915892E+02 0.  0.
          4    1    3    3  502    0 -0.50540101076E+02  0.34694571274E+02  0.17462012384E+03  0.18506810298E+03  0.00000000000E+00 0. -1.
         -3    1    3    3    0  502 -0.19452471146E+03 -0.25812047376E+02  0.47545587972E+03  0.51435825911E+03  0.00000000000E+00 0.  1.
         11    1    5    5    0    0 -0.11876326091E+01  0.39164127999E+00 -0.55208656235E+01  0.56607253368E+01  0.00000000000E+00 0. -1.
        -11    1    5    5    0    0  0.50280401710E+03 -0.15577858681E+03  0.22646736837E+02  0.52686973951E+03  0.00000000000E+00 0.  1.
          1    1    6    6  503    0 -0.56032772885E+01 -0.60680261295E+01 -0.36003612461E+02  0.36938838202E+02  0.00000000000E+00 0. -1.
         -1    1    6    6    0  503 -0.25094829467E+03  0.15257244776E+03 -0.30473445652E+03  0.42322155829E+03  0.00000000000E+00 0.  1.
<mgrwt>
<rscale>  0 0.16603259E+04</rscale>
<asrwt>0</asrwt>
<pdfrwt beam="1">  1        2 0.10505026E+00 0.16603259E+04</pdfrwt>
<pdfrwt beam="2">  1       -1 0.15527546E+00 0.16603259E+04</pdfrwt>
<totfact> 0.14637223E+01</totfact>
</mgrwt>
</event>
<event>
12    6  0.1530859E-007  0.2148144E+04  0.7818608E-02  0.8540327E-01
          2   -1    0    0  501    0  0.00000000000E+00  0.00000000000E+00  0.51511103312E+03  0.51511103312E+03  0.00000000000E+00 0. -1.
         -1   -1    0    0    0  501 -0.00000000000E+00 -0.00000000000E+00 -0.22395765373E+04  0.22395765373E+04  0.00000000000E+00 0.  1.
         24    2    1    2    0    0 -0.80414457512E+03 -0.33719678811E+03 -0.54261769156E+03  0.10300612840E+04  0.79007075930E+02 0.  0.
        254    2    1    2    0    0  0.80414457512E+03  0.33719678811E+03 -0.11818478126E+04  0.17246262864E+04  0.90400298887E+03 0.  0.
         23    2    4    4    0    0  0.43665451117E+03  0.62879626432E+03 -0.64468897609E+03  0.10050851884E+04  0.92306315185E+02 0.  0.
         23    2    4    4    0    0  0.36749006395E+03 -0.29159947621E+03 -0.53715883652E+03  0.71954109802E+03  0.95501698705E+02 0.  0.
          2    1    3    3  502    0 -0.54742086443E+03 -0.21185724630E+03 -0.32518196217E+03  0.67104128349E+03  0.00000000000E+00 0. -1.
         -1    1    3    3    0  502 -0.25672371069E+03 -0.12533954181E+03 -0.21743572939E+03  0.35902000054E+03  0.00000000000E+00 0.  1.
         11    1    5    5    0    0  0.26658108502E+02  0.30743974343E+02 -0.65290939272E+02  0.76933435243E+02  0.00000000000E+00 0.  1.
        -11    1    5    5    0    0  0.40999640267E+03  0.59805228997E+03 -0.57939803682E+03  0.92815175312E+03  0.00000000000E+00 0. -1.
          3    1    6    6  503    0  0.31509639158E+03 -0.22167196577E+03 -0.47841656136E+03  0.61425288162E+03  0.00000000000E+00 0. -1.
         -3    1    6    6    0  503  0.52393672369E+02 -0.69927510446E+02 -0.58742275163E+02  0.10528821640E+03  0.00000000000E+00 0.  1.
<mgrwt>
<rscale>  0 0.21481439E+04</rscale>
<asrwt>0</asrwt>
<pdfrwt beam="1">  1        2 0.79247852E-01 0.21481439E+04</pdfrwt>
<pdfrwt beam="2">  1       -1 0.34455023E+00 0.21481439E+04</pdfrwt>
<totfact> 0.10537159E+00</totfact>
</mgrwt>
</event>
<event>
12    6  0.1530859E-007  0.1991942E+04  0.7818608E-02  0.8610397E-01
         -1   -1    0    0    0  501 -0.00000000000E+00  0.00000000000E+00  0.41227988717E+03  0.41227988717E+03  0.00000000000E+00 0.  1.
          2   -1    0    0  501    0  0.00000000000E+00 -0.00000000000E+00 -0.24060316328E+04  0.24060316328E+04  0.00000000000E+00 0. -1.
         24    2    1    2    0    0 -0.57084982370E+03 -0.13415226481E+03 -0.15507482791E+04  0.16598356011E+04  0.79797532641E+02 0.  0.
        254    2    1    2    0    0  0.57084982370E+03  0.13415226481E+03 -0.44300346653E+03  0.11584759189E+04  0.89551551180E+03 0.  0.
         23    2    4    4    0    0  0.42661054416E+03 -0.32857431576E+03 -0.36989687369E+03  0.65952515888E+03  0.90510224103E+02 0.  0.
         23    2    4    4    0    0  0.14423927954E+03  0.46272658056E+03 -0.73106592837E+02  0.49895075999E+03  0.93201013156E+02 0.  0.
          2    1    3    3  502    0 -0.47684034891E+03 -0.13903550274E+03 -0.12670691506E+04  0.13609451943E+04  0.00000000000E+00 0. -1.
         -1    1    3    3    0  502 -0.94009474793E+02  0.48832379294E+01 -0.28367912853E+03  0.29889040689E+03  0.00000000000E+00 0.  1.
         11    1    5    5    0    0  0.32013184815E+03 -0.28412019081E+03 -0.26390363446E+03  0.50284571323E+03  0.00000000000E+00 0.  1.
        -11    1    5    5    0    0  0.10647869601E+03 -0.44454124943E+02 -0.10599323923E+03  0.15667944565E+03  0.00000000000E+00 0. -1.
          2    1    6    6  503    0  0.15052491727E+03  0.45004357265E+03 -0.82902986484E+02  0.48173631083E+03  0.00000000000E+00 0.  1.
         -2    1    6    6    0  503 -0.62856377273E+01  0.12683007912E+02  0.97963936466E+01  0.17214449158E+02  0.00000000000E+00 0. -1.
<mgrwt>
<rscale>  0 0.19919422E+04</rscale>
<asrwt>0</asrwt>
<pdfrwt beam="1">  1        2 0.37015872E+00 0.19919422E+04</pdfrwt>
<pdfrwt beam="2">  1       -1 0.63427674E-01 0.19919422E+04</pdfrwt>
<totfact> 0.10526181E+01</totfact>
</mgrwt>
</event>
<event>
12    6  0.1530859E-007  0.1907982E+04  0.7818608E-02  0.8650893E-01
         -1   -1    0    0    0  501 -0.00000000000E+00  0.00000000000E+00  0.97120339720E+03  0.97120339720E+03  0.00000000000E+00 0.  1.
          2   -1    0    0  501    0  0.00000000000E+00 -0.00000000000E+00 -0.93708390892E+03  0.93708390892E+03  0.00000000000E+00 0. -1.
         24    2    1    2    0    0 -0.50143928688E+02 -0.46347303007E+03  0.58905070782E+03  0.75541554320E+03  0.79688414121E+02 0.  0.
        254    2    1    2    0    0  0.50143928688E+02  0.46347303007E+03 -0.55493121953E+03  0.11528717629E+04  0.89657290843E+03 0.  0.
         23    2    4    4    0    0  0.17414882917E+03  0.37629403371E+03 -0.76720517814E+03  0.87676554597E+03  0.90493219258E+02 0.  0.
         23    2    4    4    0    0 -0.12400490048E+03  0.87178996358E+02  0.21227395860E+03  0.27610621695E+03  0.90537377844E+02 0.  0.
          4    1    3    3  502    0  0.15484790810E+01 -0.89703578232E+01 -0.61575559531E+00  0.91238293438E+01  0.00000000000E+00 0. -1.
         -3    1    3    3    0  502 -0.51692407769E+02 -0.45450267225E+03  0.58966646341E+03  0.74629171386E+03  0.00000000000E+00 0.  1.
         11    1    5    5    0    0  0.15268800567E+03  0.31986034305E+03 -0.57658434539E+03  0.67681147558E+03  0.00000000000E+00 0. -1.
        -11    1    5    5    0    0  0.21460823495E+02  0.56433690661E+02 -0.19062083275E+03  0.19995407039E+03  0.00000000000E+00 0.  1.
          2    1    6    6  503    0 -0.99163592993E+02  0.19683008943E+02  0.96186691205E+02  0.13954468310E+03  0.00000000000E+00 0. -1.
         -2    1    6    6    0  503 -0.24841307485E+02  0.67495987415E+02  0.11608726740E+03  0.13656153385E+03  0.00000000000E+00 0.  1.
<mgrwt>
<rscale>  0 0.19079823E+04</rscale>
<asrwt>0</asrwt>
<pdfrwt beam="1">  1        2 0.14416676E+00 0.19079823E+04</pdfrwt>
<pdfrwt beam="2">  1       -1 0.14941591E+00 0.19079823E+04</pdfrwt>
<totfact> 0.10426671E+01</totfact>
</mgrwt>
</event>
<event>
12    6  0.1530859E-007  0.1962743E+04  0.7818608E-02  0.8624241E-01
         -1   -1    0    0    0  501 -0.00000000000E+00  0.00000000000E+00  0.35997602557E+03  0.35997602557E+03  0.00000000000E+00 0.  1.
          2   -1    0    0  501    0  0.00000000000E+00 -0.00000000000E+00 -0.26754270078E+04  0.26754270078E+04  0.00000000000E+00 0. -1.
         24    2    1    2    0    0  0.16329501004E+03 -0.68745599888E+03 -0.43345257540E+03  0.83265716318E+03  0.78586293775E+02 0.  0.
        254    2    1    2    0    0 -0.16329501004E+03  0.68745599888E+03 -0.18819984068E+04  0.22027458702E+04  0.90050561057E+03 0.  0.
         23    2    4    4    0    0  0.60912543074E+02  0.49694796687E+03 -0.18149754145E+04  0.18849847906E+04  0.91456470474E+02 0.  0.
         23    2    4    4    0    0 -0.22420755311E+03  0.19050803201E+03 -0.67022992294E+02  0.31776107954E+03  0.99587574725E+02 0.  0.
          2    1    3    3  502    0  0.37529684201E+01 -0.39226893559E+02 -0.46851894549E+02  0.61220372206E+02  0.00000000000E+00 0. -1.
         -1    1    3    3    0  502  0.15954204162E+03 -0.64822910532E+03 -0.38660068085E+03  0.77143679097E+03  0.00000000000E+00 0.  1.
         11    1    5    5    0    0  0.25194101690E+01 -0.39370778783E+01 -0.16476015544E+02  0.17126210848E+02  0.00000000000E+00 0.  1.
        -11    1    5    5    0    0  0.58393132905E+02  0.50088504475E+03 -0.17984993989E+04  0.18678585798E+04  0.00000000000E+00 0. -1.
          3    1    6    6  503    0 -0.20698177590E+03  0.17372115112E+03 -0.27665136401E+02  0.27163551622E+03  0.00000000000E+00 0. -1.
         -3    1    6    6    0  503 -0.17225777214E+02  0.16786880887E+02 -0.39357855893E+02  0.46125563314E+02  0.00000000000E+00 0.  1.
<mgrwt>
<rscale>  0 0.19627426E+04</rscale>
<asrwt>0</asrwt>
<pdfrwt beam="1">  1        2 0.41160416E+00 0.19627426E+04</pdfrwt>
<pdfrwt beam="2">  1       -1 0.55380926E-01 0.19627426E+04</pdfrwt>
<totfact> 0.96154079E+00</totfact>
</mgrwt>
</event>
<event>
12    6  0.1530859E-007  0.3421840E+04  0.7818608E-02  0.8132567E-01
         -1   -1    0    0    0  501 -0.00000000000E+00  0.00000000000E+00  0.20777132172E+04  0.20777132172E+04  0.00000000000E+00 0.  1.
          2   -1    0    0  501    0  0.00000000000E+00 -0.00000000000E+00 -0.14088792618E+04  0.14088792618E+04  0.00000000000E+00 0. -1.
         24    2    1    2    0    0  0.15062101602E+04 -0.45868326224E+02  0.82790158678E+03  0.17211826846E+04  0.79220239422E+02 0.  0.
        254    2    1    2    0    0 -0.15062101602E+04  0.45868326224E+02 -0.15906763141E+03  0.17654097944E+04  0.90586769502E+03 0.  0.
         23    2    4    4    0    0 -0.13939484247E+04  0.11551930314E+03 -0.41600359550E+03  0.14624573438E+04  0.96361666800E+02 0.  0.
         23    2    4    4    0    0 -0.11226173548E+03 -0.69650976913E+02  0.25693596409E+03  0.30295245062E+03  0.91159979473E+02 0.  0.
          2    1    3    3  502    0  0.78608337141E+03 -0.84268186916E+01  0.39023945113E+03  0.87765876472E+03  0.00000000000E+00 0. -1.
         -1    1    3    3    0  502  0.72012678879E+03 -0.37441507532E+02  0.43766213565E+03  0.84352391987E+03  0.00000000000E+00 0.  1.
         11    1    5    5    0    0 -0.59559277988E+02 -0.12349556533E+02 -0.87142575277E+01  0.61447192167E+02  0.00000000000E+00 0. -1.
        -11    1    5    5    0    0 -0.13343891467E+04  0.12786885967E+03 -0.40728933797E+03  0.14010101516E+04  0.00000000000E+00 0.  1.
          1    1    6    6  503    0  0.14086964473E+02  0.87211146286E+00  0.37846336166E+02  0.40392428841E+02  0.00000000000E+00 0. -1.
         -1    1    6    6    0  503 -0.12634869996E+03 -0.70523088376E+02  0.21908962792E+03  0.26256002178E+03  0.00000000000E+00 0.  1.
<mgrwt>
<rscale>  0 0.34218399E+04</rscale>
<asrwt>0</asrwt>
<pdfrwt beam="1">  1        2 0.21675066E+00 0.34218399E+04</pdfrwt>
<pdfrwt beam="2">  1       -1 0.31964819E+00 0.34218399E+04</pdfrwt>
<totfact> 0.33131137E-01</totfact>
</mgrwt>
</event>
<event>
12    6  0.1530859E-007  0.1767267E+04  0.7818608E-02  0.8723903E-01
         -1   -1    0    0    0  501 -0.00000000000E+00  0.00000000000E+00  0.11441024499E+04  0.11441024499E+04  0.00000000000E+00 0.  1.
          2   -1    0    0  501    0  0.00000000000E+00 -0.00000000000E+00 -0.68246353746E+03  0.68246353746E+03  0.00000000000E+00 0. -1.
         24    2    1    2    0    0 -0.97694417554E+02  0.39892237985E+03 -0.34900697542E+03  0.54487561758E+03  0.80001908618E+02 0.  0.
        254    2    1    2    0    0  0.97694417554E+02 -0.39892237985E+03  0.81064588787E+03  0.12816903698E+04  0.90382530621E+03 0.  0.
         23    2    4    4    0    0  0.35464328903E+03 -0.10883145046E+03  0.79534518153E+03  0.88206047609E+03  0.88547041942E+02 0.  0.
         23    2    4    4    0    0 -0.25694887147E+03 -0.29009092939E+03  0.15300706338E+02  0.39962989370E+03  0.96407834022E+02 0.  0.
          4    1    3    3  502    0 -0.52268778994E+02  0.16439434703E+03 -0.19641721389E+03  0.26141394092E+03  0.00000000000E+00 0. -1.
         -3    1    3    3    0  502 -0.45425638560E+02  0.23452803282E+03 -0.15258976152E+03  0.28346167666E+03  0.00000000000E+00 0.  1.
         11    1    5    5    0    0  0.59453326611E+01 -0.12793767752E+02  0.95840711327E+01  0.17055259987E+02  0.00000000000E+00 0. -1.
        -11    1    5    5    0    0  0.34869795637E+03 -0.96037682707E+02  0.78576111040E+03  0.86500521611E+03  0.00000000000E+00 0.  1.
          3    1    6    6  503    0 -0.29484083530E+02 -0.43491296993E+02 -0.30932122230E+02  0.60972127086E+02  0.00000000000E+00 0. -1.
         -3    1    6    6    0  503 -0.22746478794E+03 -0.24659963240E+03  0.46232828568E+02  0.33865776662E+03  0.00000000000E+00 0.  1.
<mgrwt>
<rscale>  0 0.17672670E+04</rscale>
<asrwt>0</asrwt>
<pdfrwt beam="1">  1        2 0.10499439E+00 0.17672670E+04</pdfrwt>
<pdfrwt beam="2">  1       -1 0.17601576E+00 0.17672670E+04</pdfrwt>
<totfact> 0.10168337E+01</totfact>
</mgrwt>
</event>
<event>
12    6  0.1530859E-007  0.3211571E+04  0.7818608E-02  0.8185768E-01
          2   -1    0    0  501    0  0.00000000000E+00  0.00000000000E+00  0.27556707775E+04  0.27556707775E+04  0.00000000000E+00 0. -1.
         -1   -1    0    0    0  501 -0.00000000000E+00 -0.00000000000E+00 -0.93572409086E+03  0.93572409086E+03  0.00000000000E+00 0.  1.
         24    2    1    2    0    0  0.14469645195E+04  0.49246973239E+02  0.11811657511E+04  0.18702413776E+04  0.80738429354E+02 0.  0.
        254    2    1    2    0    0 -0.14469645195E+04 -0.49246973239E+02  0.63878093555E+03  0.18211534907E+04  0.90134752909E+03 0.  0.
         23    2    4    4    0    0 -0.11501570418E+04 -0.34549280982E+03  0.22425651035E+03  0.12247864047E+04  0.87087612312E+02 0.  0.
         23    2    4    4    0    0 -0.29680747771E+03  0.29624583658E+03  0.41452442519E+03  0.59636708608E+03  0.89257648214E+02 0.  0.
          4    1    3    3  502    0  0.38638607112E+03  0.38799510578E+02  0.34913075006E+03  0.52219907949E+03  0.00000000000E+00 0. -1.
         -3    1    3    3    0  502  0.10605784484E+04  0.10447462661E+02  0.83203500102E+03  0.13480422981E+04  0.00000000000E+00 0.  1.
         11    1    5    5    0    0 -0.34575613963E+02 -0.10165865813E+02  0.22690295187E+02  0.42587174176E+02  0.00000000000E+00 0. -1.
        -11    1    5    5    0    0 -0.11155814278E+04 -0.33532694401E+03  0.20156621517E+03  0.11821992305E+04  0.00000000000E+00 0.  1.
          3    1    6    6  503    0 -0.48255769749E+01  0.34053282579E+02  0.19428586157E+02  0.39501673478E+02  0.00000000000E+00 0. -1.
         -3    1    6    6    0  503 -0.29198190073E+03  0.26219255400E+03  0.39509583904E+03  0.55686541261E+03  0.00000000000E+00 0.  1.
<mgrwt>
<rscale>  0 0.32115713E+04</rscale>
<asrwt>0</asrwt>
<pdfrwt beam="1">  1        2 0.42394934E+00 0.32115713E+04</pdfrwt>
<pdfrwt beam="2">  1       -1 0.14395755E+00 0.32115713E+04</pdfrwt>
<totfact> 0.91505863E-01</totfact>
</mgrwt>
</event>
<event>
12    6  0.1530859E-007  0.1452604E+04  0.7818608E-02  0.8916597E-01
         -1   -1    0    0    0  501 -0.00000000000E+00  0.00000000000E+00  0.21378510471E+04  0.21378510471E+04  0.00000000000E+00 0.  1.
          2   -1    0    0  501    0  0.00000000000E+00 -0.00000000000E+00 -0.24675005595E+03  0.24675005595E+03  0.00000000000E+00 0. -1.
         24    2    1    2    0    0 -0.25318858893E+02  0.40562552526E+03  0.31860891435E+03  0.52248148162E+03  0.79386062839E+02 0.  0.
        254    2    1    2    0    0  0.25318858893E+02 -0.40562552526E+03  0.15724920768E+04  0.18621196214E+04  0.91081559140E+03 0.  0.
         23    2    4    4    0    0 -0.16228061711E+03  0.22704808843E+03  0.73940011932E+03  0.79542752245E+03  0.90036514100E+02 0.  0.
         23    2    4    4    0    0  0.18759947601E+03 -0.63267361369E+03  0.83309195744E+03  0.10666920989E+04  0.91216004821E+02 0.  0.
          2    1    3    3  502    0 -0.23497776909E+02  0.36749988577E+03  0.31416664263E+03  0.48405473957E+03  0.00000000000E+00 0. -1.
         -1    1    3    3    0  502 -0.18210819840E+01  0.38125639492E+02  0.44422717159E+01  0.38426742045E+02  0.00000000000E+00 0.  1.
         11    1    5    5    0    0 -0.15208865128E+03  0.17809246000E+03  0.67101360331E+03  0.71070889820E+03  0.00000000000E+00 0. -1.
        -11    1    5    5    0    0 -0.10191965829E+02  0.48955628427E+02  0.68386516007E+02  0.84718624243E+02  0.00000000000E+00 0.  1.
          3    1    6    6  503    0  0.11312952456E+03 -0.31765288365E+03  0.35794182516E+03  0.49175603100E+03  0.00000000000E+00 0. -1.
         -3    1    6    6    0  503  0.74469951445E+02 -0.31502073004E+03  0.47515013228E+03  0.57493606794E+03  0.00000000000E+00 0.  1.
<mgrwt>
<rscale>  0 0.14526044E+04</rscale>
<asrwt>0</asrwt>
<pdfrwt beam="1">  1        2 0.37961549E-01 0.14526044E+04</pdfrwt>
<pdfrwt beam="2">  1       -1 0.32890015E+00 0.14526044E+04</pdfrwt>
<totfact> 0.32628789E+00</totfact>
</mgrwt>
</event>
<event>
12    6  0.1530859E-007  0.2936852E+04  0.7818608E-02  0.8261997E-01
         -1   -1    0    0    0  501 -0.00000000000E+00  0.00000000000E+00  0.92107665316E+03  0.92107665316E+03  0.00000000000E+00 0.  1.
          2   -1    0    0  501    0  0.00000000000E+00 -0.00000000000E+00 -0.23410368167E+04  0.23410368167E+04  0.00000000000E+00 0. -1.
         24    2    1    2    0    0 -0.63177344432E+03  0.93340812503E+03  0.14371286449E+03  0.11386154427E+04  0.73507319632E+02 0.  0.
        254    2    1    2    0    0  0.63177344432E+03 -0.93340812503E+03 -0.15636730280E+04  0.21234980272E+04  0.89094451010E+03 0.  0.
         23    2    4    4    0    0 -0.16941303333E+03 -0.29530106353E+03 -0.68676883890E+03  0.77213957841E+03  0.92976322113E+02 0.  0.
         23    2    4    4    0    0  0.80118647765E+03 -0.63810706150E+03 -0.87690418914E+03  0.13513584488E+04  0.90157119947E+02 0.  0.
          4    1    3    3  502    0 -0.17302074340E+03  0.31045779676E+03  0.30293298065E+02  0.35670422639E+03  0.00000000000E+00 0. -1.
         -3    1    3    3    0  502 -0.45875270093E+03  0.62295032827E+03  0.11341956643E+03  0.78191121628E+03  0.00000000000E+00 0.  1.
         11    1    5    5    0    0 -0.12527322716E+03 -0.22941824433E+03 -0.42815558451E+03  0.50164062517E+03  0.00000000000E+00 0. -1.
        -11    1    5    5    0    0 -0.44139806165E+02 -0.65882819195E+02 -0.25861325440E+03  0.27049895324E+03  0.00000000000E+00 0.  1.
          1    1    6    6  503    0  0.72049734887E+03 -0.55680583733E+03 -0.74377626809E+03  0.11757347946E+04  0.00000000000E+00 0. -1.
         -1    1    6    6    0  503  0.80689128783E+02 -0.81301224173E+02 -0.13312792105E+03  0.17562365421E+03  0.00000000000E+00 0.  1.
<mgrwt>
<rscale>  0 0.29368516E+04</rscale>
<asrwt>0</asrwt>
<pdfrwt beam="1">  1        2 0.36015951E+00 0.29368516E+04</pdfrwt>
<pdfrwt beam="2">  1       -1 0.14170410E+00 0.29368516E+04</pdfrwt>
<totfact> 0.17063776E+00</totfact>
</mgrwt>
</event>
<event>
12    6  0.1530859E-007  0.2730093E+04  0.7818608E-02  0.8325307E-01
         -1   -1    0    0    0  501 -0.00000000000E+00  0.00000000000E+00  0.12505412719E+04  0.12505412719E+04  0.00000000000E+00 0.  1.
          2   -1    0    0  501    0  0.00000000000E+00 -0.00000000000E+00 -0.14900358304E+04  0.14900358304E+04  0.00000000000E+00 0. -1.
         24    2    1    2    0    0 -0.10652268891E+04 -0.57058721740E+03  0.42731156543E+02  0.12117695442E+04  0.79255148153E+02 0.  0.
        254    2    1    2    0    0  0.10652268891E+04  0.57058721740E+03 -0.28222571512E+03  0.15288075581E+04  0.89292950316E+03 0.  0.
         23    2    4    4    0    0  0.11270751280E+04  0.62800531659E+03 -0.40384720484E+03  0.13550402411E+04  0.91391839282E+02 0.  0.
         23    2    4    4    0    0 -0.61848238935E+02 -0.57418099185E+02  0.12162148972E+03  0.17376731702E+03  0.91001378715E+02 0.  0.
          2    1    3    3  502    0 -0.85856497652E+03 -0.45172070948E+03  0.34886291516E+01  0.97015338416E+03  0.00000000000E+00 0. -1.
         -1    1    3    3    0  502 -0.20666191258E+03 -0.11886650793E+03  0.39242527391E+02  0.24161616000E+03  0.00000000000E+00 0.  1.
         11    1    5    5    0    0  0.20503291128E+02  0.19338733497E+01  0.13261782189E+01  0.20636946525E+02  0.00000000000E+00 0.  1.
        -11    1    5    5    0    0  0.11065718369E+04  0.62607144324E+03 -0.40517338306E+03  0.13344032946E+04  0.00000000000E+00 0. -1.
          4    1    6    6  503    0 -0.72647343840E+02 -0.56833572477E+02  0.13047853334E+03  0.15978842007E+03  0.00000000000E+00 0. -1.
         -4    1    6    6    0  503  0.10799104905E+02 -0.58452670880E+00 -0.88570436150E+01  0.13978896946E+02  0.00000000000E+00 0.  1.
<mgrwt>
<rscale>  0 0.27300925E+04</rscale>
<asrwt>0</asrwt>
<pdfrwt beam="1">  1        2 0.22923628E+00 0.27300925E+04</pdfrwt>
<pdfrwt beam="2">  1       -1 0.19239097E+00 0.27300925E+04</pdfrwt>
<totfact> 0.21789922E+00</totfact>
</mgrwt>
</event>
<event>
12    6  0.1530859E-007  0.1450195E+04  0.7818608E-02  0.8918265E-01
         -1   -1    0    0    0  501 -0.00000000000E+00  0.00000000000E+00  0.43696495160E+03  0.43696495160E+03  0.00000000000E+00 0.  1.
          2   -1    0    0  501    0  0.00000000000E+00 -0.00000000000E+00 -0.12032239091E+04  0.12032239091E+04  0.00000000000E+00 0. -1.
         24    2    1    2    0    0 -0.33007678521E+03 -0.26717874049E+03 -0.99148006718E+02  0.44340098202E+03  0.80243006645E+02 0.  0.
        254    2    1    2    0    0  0.33007678521E+03  0.26717874049E+03 -0.66711095079E+03  0.11967878787E+04  0.89829229229E+03 0.  0.
         23    2    4    4    0    0  0.18869481446E+03 -0.21918656163E+03  0.56833500425E+02  0.30852041231E+03  0.91138994069E+02 0.  0.
         23    2    4    4    0    0  0.14138197075E+03  0.48636530211E+03 -0.72394445122E+03  0.88826746637E+03  0.91561206901E+02 0.  0.
          4    1    3    3  502    0 -0.78434880267E+02 -0.84886884767E+02 -0.59973517636E+02  0.13020997068E+03  0.00000000000E+00 0. -1.
         -3    1    3    3    0  502 -0.25164190495E+03 -0.18229185572E+03 -0.39174489081E+02  0.31319101134E+03  0.00000000000E+00 0.  1.
         11    1    5    5    0    0  0.64197852876E+01 -0.51074531584E+02  0.28779053270E+02  0.58975039863E+02  0.00000000000E+00 0.  1.
        -11    1    5    5    0    0  0.18227502917E+03 -0.16811203004E+03  0.28054447155E+02  0.24954537245E+03  0.00000000000E+00 0. -1.
          1    1    6    6  503    0  0.89467827778E+01  0.18617667400E+03 -0.25011046416E+03  0.31192473955E+03  0.00000000000E+00 0. -1.
         -1    1    6    6    0  503  0.13243518797E+03  0.30018862811E+03 -0.47383398706E+03  0.57634272682E+03  0.00000000000E+00 0.  1.
<mgrwt>
<rscale>  0 0.14501954E+04</rscale>
<asrwt>0</asrwt>
<pdfrwt beam="1">  1        2 0.18511137E+00 0.14501954E+04</pdfrwt>
<pdfrwt beam="2">  1       -1 0.67225378E-01 0.14501954E+04</pdfrwt>
<totfact> 0.46735933E+01</totfact>
</mgrwt>
</event>
<event>
12    6  0.2121247E-007  0.1661878E+04  0.7818608E-02  0.8783410E-01
          2   -1    0    0  501    0  0.00000000000E+00  0.00000000000E+00  0.17152026707E+04  0.17152026707E+04  0.00000000000E+00 0. -1.
         -1   -1    0    0    0  501 -0.00000000000E+00 -0.00000000000E+00 -0.40255302560E+03  0.40255302560E+03  0.00000000000E+00 0.  1.
         24    2    1    2    0    0  0.43556385818E+02  0.23317318102E+02  0.12058692091E+04  0.12108055316E+04  0.97409598195E+02 0.  0.
        254    2    1    2    0    0 -0.43556385818E+02 -0.23317318102E+02  0.10678043594E+03  0.90695016464E+03  0.89928620782E+03 0.  0.
         23    2    4    4    0    0 -0.38016573176E+03  0.21301161188E+03  0.17554698554E+03  0.48016759554E+03  0.99218170075E+02 0.  0.
         23    2    4    4    0    0  0.33660934594E+03 -0.23632892998E+03 -0.68766549604E+02  0.42678256910E+03  0.90869731082E+02 0.  0.
          2    1    3    3  502    0  0.35479381953E+02  0.30918361247E+02  0.11925275883E+04  0.11934558142E+04  0.00000000000E+00 0. -1.
         -1    1    3    3    0  502  0.80770038647E+01 -0.76010431451E+01  0.13341620847E+02  0.17349717437E+02  0.00000000000E+00 0.  1.
         11    1    5    5    0    0 -0.65522399014E+02  0.14904751062E+02 -0.39097559050E+01  0.67309899480E+02  0.00000000000E+00 0. -1.
        -11    1    5    5    0    0 -0.31464333274E+03  0.19810686082E+03  0.17945674145E+03  0.41285769606E+03  0.00000000000E+00 0.  1.
          3    1    6    6  503    0  0.34036605636E+03 -0.22236344505E+03 -0.68654123645E+02  0.41232019439E+03  0.00000000000E+00 0. -1.
         -3    1    6    6    0  503 -0.37567104168E+01 -0.13965484936E+02 -0.11242595830E+00  0.14462374710E+02  0.00000000000E+00 0.  1.
<mgrwt>
<rscale>  0 0.16618785E+04</rscale>
<asrwt>0</asrwt>
<pdfrwt beam="1">  1        2 0.26387733E+00 0.16618785E+04</pdfrwt>
<pdfrwt beam="2">  1       -1 0.61931236E-01 0.16618785E+04</pdfrwt>
<totfact> 0.27650459E+01</totfact>
</mgrwt>
</event>
<event>
12    6  0.1530859E-007  0.2937341E+04  0.7818608E-02  0.8261853E-01
          2   -1    0    0  501    0  0.00000000000E+00  0.00000000000E+00  0.24171224694E+04  0.24171224694E+04  0.00000000000E+00 0. -1.
         -1   -1    0    0    0  501 -0.00000000000E+00 -0.00000000000E+00 -0.89238037801E+03  0.89238037801E+03  0.00000000000E+00 0.  1.
         24    2    1    2    0    0  0.32068040501E+03 -0.34459514760E+02  0.21595004921E+04  0.21849454023E+04  0.80750574422E+02 0.  0.
        254    2    1    2    0    0 -0.32068040501E+03  0.34459514760E+02 -0.63475840071E+03  0.11245574451E+04  0.87045266374E+03 0.  0.
         23    2    4    4    0    0 -0.44753118198E+03 -0.22946136159E+03 -0.63854843019E+03  0.81790511424E+03  0.91038469256E+02 0.  0.
         23    2    4    4    0    0  0.12685077698E+03  0.26392087635E+03  0.37900294777E+01  0.30665233090E+03  0.90972188773E+02 0.  0.
          2    1    3    3  502    0  0.30078382028E+03 -0.43911972530E+02  0.20912987544E+04  0.21132746268E+04  0.00000000000E+00 0. -1.
         -1    1    3    3    0  502  0.19896584725E+02  0.94524577698E+01  0.68201737709E+02  0.71670775552E+02  0.00000000000E+00 0.  1.
         11    1    5    5    0    0 -0.17991847391E+01 -0.16796063884E+02 -0.26903968730E+02  0.31767410363E+02  0.00000000000E+00 0. -1.
        -11    1    5    5    0    0 -0.44573199724E+03 -0.21266529770E+03 -0.61164446146E+03  0.78613770387E+03  0.00000000000E+00 0.  1.
          4    1    6    6  503    0  0.98578204375E+02  0.10070251319E+03  0.47454915293E+01  0.14100063202E+03  0.00000000000E+00 0.  1.
         -4    1    6    6    0  503  0.28272572603E+02  0.16321836315E+03 -0.95546205156E+00  0.16565169887E+03  0.00000000000E+00 0. -1.
<mgrwt>
<rscale>  0 0.29373407E+04</rscale>
<asrwt>0</asrwt>
<pdfrwt beam="1">  1        2 0.37186499E+00 0.29373407E+04</pdfrwt>
<pdfrwt beam="2">  1       -1 0.13728929E+00 0.29373407E+04</pdfrwt>
<totfact> 0.16765163E+00</totfact>
</mgrwt>
</event>
<event>
12    6  0.1530859E-007  0.1378954E+04  0.7818608E-02  0.8969195E-01
          2   -1    0    0  501    0  0.00000000000E+00  0.00000000000E+00  0.32122407151E+04  0.32122407151E+04  0.00000000000E+00 0. -1.
         -1   -1    0    0    0  501 -0.00000000000E+00 -0.00000000000E+00 -0.14798969191E+03  0.14798969191E+03  0.00000000000E+00 0.  1.
         24    2    1    2    0    0  0.30933376006E+03 -0.18301575983E+03  0.52968333962E+03  0.64700247845E+03  0.94157439365E+02 0.  0.
        254    2    1    2    0    0 -0.30933376006E+03  0.18301575983E+03  0.25345676835E+04  0.27132279285E+04  0.89910528099E+03 0.  0.
         23    2    4    4    0    0 -0.20588619688E+03  0.20867902400E+03  0.18451187457E+03  0.35901672155E+03  0.94405049496E+02 0.  0.
         23    2    4    4    0    0 -0.10344756318E+03 -0.25663264173E+02  0.23500558090E+04  0.23542112070E+04  0.90488122943E+02 0.  0.
          4    1    3    3  502    0  0.13771636281E+03 -0.33282735803E+02  0.23733751424E+03  0.27641026166E+03  0.00000000000E+00 0. -1.
         -3    1    3    3    0  502  0.17161739725E+03 -0.14973302403E+03  0.29234582538E+03  0.37059221678E+03  0.00000000000E+00 0.  1.
         11    1    5    5    0    0 -0.12391015429E+03  0.87322649911E+02  0.13897055233E+03  0.20564966797E+03  0.00000000000E+00 0. -1.
        -11    1    5    5    0    0 -0.81976042592E+02  0.12135637409E+03  0.45541322249E+02  0.15336705358E+03  0.00000000000E+00 0.  1.
          1    1    6    6  503    0 -0.37269230951E+02 -0.31770527609E+02  0.17126484969E+04  0.17133485448E+04  0.00000000000E+00 0. -1.
         -1    1    6    6    0  503 -0.66178332227E+02  0.61072634355E+01  0.63740731204E+03  0.64086266217E+03  0.00000000000E+00 0.  1.
<mgrwt>
<rscale>  0 0.13789540E+04</rscale>
<asrwt>0</asrwt>
<pdfrwt beam="1">  1        2 0.49419083E+00 0.13789540E+04</pdfrwt>
<pdfrwt beam="2">  1       -1 0.22767647E-01 0.13789540E+04</pdfrwt>
<totfact> 0.23526113E+01</totfact>
</mgrwt>
</event>
<event>
12    6  0.1530859E-007  0.1340438E+04  0.7818608E-02  0.8998098E-01
         -1   -1    0    0    0  501 -0.00000000000E+00  0.00000000000E+00  0.26901216572E+03  0.26901216572E+03  0.00000000000E+00 0.  1.
          2   -1    0    0  501    0  0.00000000000E+00 -0.00000000000E+00 -0.16697892886E+04  0.16697892886E+04  0.00000000000E+00 0. -1.
         24    2    1    2    0    0  0.29283641865E+03 -0.19718560931E+03 -0.32185398980E+03  0.48450427717E+03  0.80740765664E+02 0.  0.
        254    2    1    2    0    0 -0.29283641865E+03  0.19718560931E+03 -0.10789231331E+04  0.14542971772E+04  0.90899385025E+03 0.  0.
         23    2    4    4    0    0 -0.92192584686E+02 -0.22182578641E+03  0.20205971592E+02  0.25753914559E+03  0.90619964887E+02 0.  0.
         23    2    4    4    0    0 -0.20064383396E+03  0.41901139572E+03 -0.10991291047E+04  0.11967580316E+04  0.91194843769E+02 0.  0.
          2    1    3    3  502    0  0.49463776709E+02 -0.23010600350E+01 -0.56094736335E+02  0.74823656206E+02  0.00000000000E+00 0. -1.
         -1    1    3    3    0  502  0.24337264194E+03 -0.19488454928E+03 -0.26575925347E+03  0.40968062097E+03  0.00000000000E+00 0.  1.
         11    1    5    5    0    0 -0.96432859280E+02 -0.22682589298E+03  0.11634827288E+02  0.24674815356E+03  0.00000000000E+00 0.  1.
        -11    1    5    5    0    0  0.42402745938E+01  0.50001065755E+01  0.85711443043E+01  0.10790992034E+02  0.00000000000E+00 0. -1.
          1    1    6    6  503    0 -0.71890216840E+02  0.68986108154E+02 -0.20361824156E+03  0.22668849704E+03  0.00000000000E+00 0. -1.
         -1    1    6    6    0  503 -0.12875361712E+03  0.35002528757E+03 -0.89551086313E+03  0.97006953454E+03  0.00000000000E+00 0.  1.
<mgrwt>
<rscale>  0 0.13404382E+04</rscale>
<asrwt>0</asrwt>
<pdfrwt beam="1">  1        2 0.25689067E+00 0.13404382E+04</pdfrwt>
<pdfrwt beam="2">  1       -1 0.41386486E-01 0.13404382E+04</pdfrwt>
<totfact> 0.64939687E+01</totfact>
</mgrwt>
</event>
<event>
12    6  0.1530859E-007  0.3272132E+04  0.7818608E-02  0.8170023E-01
         -1   -1    0    0    0  501 -0.00000000000E+00  0.00000000000E+00  0.13561033407E+04  0.13561033407E+04  0.00000000000E+00 0.  1.
          2   -1    0    0  501    0  0.00000000000E+00 -0.00000000000E+00 -0.19738261371E+04  0.19738261371E+04  0.00000000000E+00 0. -1.
         24    2    1    2    0    0 -0.13427815674E+04  0.33316455273E+03  0.32824976384E+03  0.14241503156E+04  0.79970350452E+02 0.  0.
        254    2    1    2    0    0  0.13427815674E+04 -0.33316455273E+03 -0.94597256019E+03  0.19057791623E+04  0.90723159884E+03 0.  0.
         23    2    4    4    0    0  0.87999493339E+02  0.14657008178E+03  0.82816920163E+02  0.21095290105E+03  0.91737584978E+02 0.  0.
         23    2    4    4    0    0  0.12547820740E+04 -0.47973463450E+03 -0.10287894804E+04  0.16948262612E+04  0.96978802070E+02 0.  0.
          2    1    3    3  502    0 -0.23450645941E+03  0.28371344829E+02  0.47692530516E+02  0.24098296657E+03  0.00000000000E+00 0. -1.
         -3    1    3    3    0  502 -0.11082751080E+04  0.30479320790E+03  0.28055723332E+03  0.11831673490E+04  0.00000000000E+00 0.  1.
         11    1    5    5    0    0  0.24820804234E+02 -0.43530552223E+01  0.29662891229E+02  0.38921825865E+02  0.00000000000E+00 0. -1.
        -11    1    5    5    0    0  0.63178689104E+02  0.15092313700E+03  0.53154028934E+02  0.17203107519E+03  0.00000000000E+00 0.  1.
          2    1    6    6  503    0  0.44261008367E+02 -0.31026977771E+02 -0.59926909462E+02  0.80702817106E+02  0.00000000000E+00 0. -1.
         -2    1    6    6    0  503  0.12105210657E+04 -0.44870765673E+03 -0.96886257090E+03  0.16141234441E+04  0.00000000000E+00 0.  1.
<mgrwt>
<rscale>  0 0.32721322E+04</rscale>
<asrwt>0</asrwt>
<pdfrwt beam="1">  1        2 0.30366556E+00 0.32721322E+04</pdfrwt>
<pdfrwt beam="2">  1       -1 0.20863129E+00 0.32721322E+04</pdfrwt>
<totfact> 0.86410980E-01</totfact>
</mgrwt>
</event>
<event>
12    6  0.1530859E-007  0.1987690E+04  0.7818608E-02  0.8612398E-01
          2   -1    0    0  501    0  0.00000000000E+00  0.00000000000E+00  0.31493513926E+04  0.31493513926E+04  0.00000000000E+00 0. -1.
         -1   -1    0    0    0  501 -0.00000000000E+00 -0.00000000000E+00 -0.31362909189E+03  0.31362909189E+03  0.00000000000E+00 0.  1.
         24    2    1    2    0    0 -0.22647817807E+03  0.73640957172E+03  0.92377340193E+03  0.12072355566E+04  0.10231797735E+03 0.  0.
        254    2    1    2    0    0  0.22647817807E+03 -0.73640957172E+03  0.19119488988E+04  0.22557449279E+04  0.91610325065E+03 0.  0.
         23    2    4    4    0    0 -0.13714966984E+03 -0.64324213844E+03  0.62511189367E+03  0.91228267911E+03  0.94468652966E+02 0.  0.
         23    2    4    4    0    0  0.36362784791E+03 -0.93167433280E+02  0.12868370051E+04  0.13434622488E+04  0.89643482049E+02 0.  0.
          4    1    3    3  502    0 -0.58694170168E+02  0.21876100114E+03  0.34608735903E+03  0.41361557189E+03  0.00000000000E+00 0. -1.
         -3    1    3    3    0  502 -0.16778400790E+03  0.51764857057E+03  0.57768604290E+03  0.79361998468E+03  0.00000000000E+00 0.  1.
         11    1    5    5    0    0  0.41017936524E+01 -0.14950197343E+03  0.11741642422E+03  0.19014279225E+03  0.00000000000E+00 0.  1.
        -11    1    5    5    0    0 -0.14125146349E+03 -0.49374016501E+03  0.50769546946E+03  0.72213988686E+03  0.00000000000E+00 0. -1.
          2    1    6    6  503    0  0.30436366035E+02 -0.35179002986E+02  0.19347409265E+03  0.19898783670E+03  0.00000000000E+00 0. -1.
         -2    1    6    6    0  503  0.33319148187E+03 -0.57988430295E+02  0.10933629125E+04  0.11444744121E+04  0.00000000000E+00 0.  1.
<mgrwt>
<rscale>  0 0.19876903E+04</rscale>
<asrwt>0</asrwt>
<pdfrwt beam="1">  1        2 0.48451558E+00 0.19876903E+04</pdfrwt>
<pdfrwt beam="2">  1       -1 0.48250632E-01 0.19876903E+04</pdfrwt>
<totfact> 0.63805940E+00</totfact>
</mgrwt>
</event>
<event>
12    6  0.1530859E-007  0.1358743E+04  0.7818608E-02  0.8984236E-01
          2   -1    0    0  501    0  0.00000000000E+00  0.00000000000E+00  0.19949080580E+04  0.19949080580E+04  0.00000000000E+00 0. -1.
         -3   -1    0    0    0  501 -0.00000000000E+00 -0.00000000000E+00 -0.23136190066E+03  0.23136190066E+03  0.00000000000E+00 0.  1.
         24    2    1    2    0    0  0.10528452752E+03  0.28818562729E+03  0.15345219408E+03  0.35241403721E+03  0.80698762310E+02 0.  0.
        254    2    1    2    0    0 -0.10528452752E+03 -0.28818562729E+03  0.16100939633E+04  0.18738559215E+04  0.90818371288E+03 0.  0.
         23    2    4    4    0    0 -0.28679241816E+03  0.23441390860E+03  0.82777712693E+03  0.91140221280E+03  0.90770314364E+02 0.  0.
         23    2    4    4    0    0  0.18150789064E+03 -0.52259953589E+03  0.78231683636E+03  0.96245370868E+03  0.90786120233E+02 0.  0.
          2    1    3    3  502    0  0.34907575671E+02  0.41906145331E+02  0.56531973833E+02  0.78552707918E+02  0.00000000000E+00 0. -1.
         -1    1    3    3    0  502  0.70376951850E+02  0.24627948196E+03  0.96920220248E+02  0.27386132929E+03  0.00000000000E+00 0.  1.
         11    1    5    5    0    0 -0.72546966034E+02  0.11531631296E+03  0.29395727415E+03  0.32399350818E+03  0.00000000000E+00 0.  1.
        -11    1    5    5    0    0 -0.21424545213E+03  0.11909759563E+03  0.53381985278E+03  0.58740870462E+03  0.00000000000E+00 0. -1.
          2    1    6    6  503    0  0.13315425413E+03 -0.38370670648E+03  0.50043372740E+03  0.64451129355E+03  0.00000000000E+00 0. -1.
         -2    1    6    6    0  503  0.48353636512E+02 -0.13889282941E+03  0.28188310896E+03  0.31794241514E+03  0.00000000000E+00 0.  1.
<mgrwt>
<rscale>  0 0.13587431E+04</rscale>
<asrwt>0</asrwt>
<pdfrwt beam="1">  1        2 0.30690892E+00 0.13587431E+04</pdfrwt>
<pdfrwt beam="2">  1       -3 0.35594140E-01 0.13587431E+04</pdfrwt>
<totfact> 0.33112185E+01</totfact>
</mgrwt>
</event>
<event>
12    6  0.1530859E-007  0.1939258E+04  0.7818608E-02  0.8635558E-01
         -1   -1    0    0    0  501 -0.00000000000E+00  0.00000000000E+00  0.37337348606E+03  0.37337348606E+03  0.00000000000E+00 0.  1.
          2   -1    0    0  501    0  0.00000000000E+00 -0.00000000000E+00 -0.25180700945E+04  0.25180700945E+04  0.00000000000E+00 0. -1.
         24    2    1    2    0    0  0.18029337120E+03 -0.39524493501E+03 -0.17378513771E+04  0.17931802843E+04  0.81509906719E+02 0.  0.
        254    2    1    2    0    0 -0.18029337120E+03  0.39524493501E+03 -0.40684523137E+03  0.10982632962E+04  0.92300323252E+03 0.  0.
         23    2    4    4    0    0 -0.38534496081E+03  0.14432772898E+03  0.15026599230E+03  0.44726540619E+03  0.90250999754E+02 0.  0.
         23    2    4    4    0    0  0.20505158960E+03  0.25091720603E+03 -0.55711122367E+03  0.65099789006E+03  0.91759133864E+02 0.  0.
          2    1    3    3  502    0  0.10926472959E+03 -0.30909684517E+03 -0.13747324545E+04  0.14132830439E+04  0.00000000000E+00 0. -1.
         -1    1    3    3    0  502  0.71028641608E+02 -0.86148089841E+02 -0.36311892258E+03  0.37989724038E+03  0.00000000000E+00 0.  1.
         11    1    5    5    0    0 -0.14141891313E+03  0.78091755799E+02  0.19608383926E+02  0.16273327882E+03  0.00000000000E+00 0. -1.
        -11    1    5    5    0    0 -0.24392604768E+03  0.66235973185E+02  0.13065760837E+03  0.28453212737E+03  0.00000000000E+00 0.  1.
          4    1    6    6  503    0  0.53488933121E+02  0.60002021040E+02 -0.71242235406E+02  0.10740933200E+03  0.00000000000E+00 0. -1.
         -4    1    6    6    0  503  0.15156265648E+03  0.19091518499E+03 -0.48586898826E+03  0.54358855806E+03  0.00000000000E+00 0.  1.
<mgrwt>
<rscale>  0 0.19392582E+04</rscale>
<asrwt>0</asrwt>
<pdfrwt beam="1">  1        2 0.38739542E+00 0.19392582E+04</pdfrwt>
<pdfrwt beam="2">  1       -1 0.57442072E-01 0.19392582E+04</pdfrwt>
<totfact> 0.11093603E+01</totfact>
</mgrwt>
</event>
<event>
12    6  0.1530859E-007  0.2046983E+04  0.7818608E-02  0.8584964E-01
          2   -1    0    0  501    0  0.00000000000E+00  0.00000000000E+00  0.19516149381E+04  0.19516149381E+04  0.00000000000E+00 0. -1.
         -1   -1    0    0    0  501 -0.00000000000E+00 -0.00000000000E+00 -0.53675289927E+03  0.53675289927E+03  0.00000000000E+00 0.  1.
         24    2    1    2    0    0  0.57586080667E+03 -0.55372808123E+03  0.31916446222E+03  0.86402066525E+03  0.80220317996E+02 0.  0.
        254    2    1    2    0    0 -0.57586080667E+03  0.55372808123E+03  0.10956975766E+04  0.16243471721E+04  0.89427070823E+03 0.  0.
         23    2    4    4    0    0 -0.53689894051E+03 -0.86373051288E+02  0.49734533933E+03  0.74245333219E+03  0.90353680692E+02 0.  0.
         23    2    4    4    0    0 -0.38961866165E+02  0.64010113252E+03  0.59835223730E+03  0.88189383995E+03  0.91999229341E+02 0.  0.
          2    1    3    3  502    0  0.52189077345E+03 -0.53042073083E+03  0.29528928540E+03  0.80056973036E+03  0.00000000000E+00 0. -1.
         -1    1    3    3    0  502  0.53970033224E+02 -0.23307350403E+02  0.23875176827E+02  0.63450934883E+02  0.00000000000E+00 0.  1.
         11    1    5    5    0    0 -0.39337702848E+03 -0.58971156136E+02  0.41450670351E+03  0.57449011397E+03  0.00000000000E+00 0.  1.
        -11    1    5    5    0    0 -0.14352191203E+03 -0.27401895152E+02  0.82838635824E+02  0.16796321822E+03  0.00000000000E+00 0. -1.
          4    1    6    6  503    0 -0.67607417418E+02  0.43662036293E+03  0.42499202228E+03  0.61304675451E+03  0.00000000000E+00 0. -1.
         -4    1    6    6    0  503  0.28645551254E+02  0.20348076959E+03  0.17336021502E+03  0.26884708544E+03  0.00000000000E+00 0.  1.
<mgrwt>
<rscale>  0 0.20469831E+04</rscale>
<asrwt>0</asrwt>
<pdfrwt beam="1">  1        2 0.30024845E+00 0.20469831E+04</pdfrwt>
<pdfrwt beam="2">  1       -1 0.82577370E-01 0.20469831E+04</pdfrwt>
<totfact> 0.10916076E+01</totfact>
</mgrwt>
</event>
<event>
12    6  0.1530859E-007  0.1762279E+04  0.7818608E-02  0.8726620E-01
          2   -1    0    0  501    0  0.00000000000E+00  0.00000000000E+00  0.26995020955E+04  0.26995020955E+04  0.00000000000E+00 0. -1.
         -1   -1    0    0    0  501 -0.00000000000E+00 -0.00000000000E+00 -0.28761125949E+03  0.28761125949E+03  0.00000000000E+00 0.  1.
         24    2    1    2    0    0  0.35387266571E+03 -0.54796792694E+03  0.10315360953E+04  0.12229111530E+04  0.77137926980E+02 0.  0.
        254    2    1    2    0    0 -0.35387266571E+03  0.54796792694E+03  0.13803547407E+04  0.17642022020E+04  0.88404495743E+03 0.  0.
         23    2    4    4    0    0 -0.12643158720E+03  0.10218637675E+03  0.12150148497E+04  0.12291531811E+04  0.90163495193E+02 0.  0.
         23    2    4    4    0    0 -0.22744107851E+03  0.44578155019E+03  0.16533989105E+03  0.53504902087E+03  0.92138702408E+02 0.  0.
          2    1    3    3  502    0  0.34483496914E+03 -0.49615685336E+03  0.95209554743E+03  0.11276385549E+04  0.00000000000E+00 0. -1.
         -1    1    3    3    0  502  0.90376965725E+01 -0.51811073589E+02  0.79440547832E+02  0.95272598083E+02  0.00000000000E+00 0.  1.
         11    1    5    5    0    0 -0.82064966561E+02  0.89791667631E+02  0.10725452175E+04  0.10794213477E+04  0.00000000000E+00 0.  1.
        -11    1    5    5    0    0 -0.44366620641E+02  0.12394709120E+02  0.14246963221E+03  0.14973183344E+03  0.00000000000E+00 0. -1.
          4    1    6    6  503    0 -0.84000590287E+02  0.25082579158E+03  0.60897173753E+02  0.27143717995E+03  0.00000000000E+00 0. -1.
         -4    1    6    6    0  503 -0.14344048822E+03  0.19495575861E+03  0.10444271729E+03  0.26361184092E+03  0.00000000000E+00 0.  1.
<mgrwt>
<rscale>  0 0.17622794E+04</rscale>
<asrwt>0</asrwt>
<pdfrwt beam="1">  1        2 0.41530800E+00 0.17622794E+04</pdfrwt>
<pdfrwt beam="2">  1       -1 0.44247888E-01 0.17622794E+04</pdfrwt>
<totfact> 0.14512820E+01</totfact>
</mgrwt>
</event>
<event>
12    6  0.1530859E-007  0.2650239E+04  0.7818608E-02  0.8351334E-01
          2   -1    0    0  501    0  0.00000000000E+00  0.00000000000E+00  0.10750255702E+04  0.10750255702E+04  0.00000000000E+00 0. -1.
         -1   -1    0    0    0  501 -0.00000000000E+00 -0.00000000000E+00 -0.16333951346E+04  0.16333951346E+04  0.00000000000E+00 0.  1.
         24    2    1    2    0    0 -0.46088163753E+03  0.34305733000E+03  0.79416398669E+03  0.98351623033E+03  0.80669214068E+02 0.  0.
        254    2    1    2    0    0  0.46088163753E+03 -0.34305733000E+03 -0.13525335510E+04  0.17249044745E+04  0.90324316990E+03 0.  0.
         23    2    4    4    0    0  0.69651839901E+03 -0.32118222874E+03 -0.12071426009E+04  0.14326778027E+04  0.84122072811E+02 0.  0.
         23    2    4    4    0    0 -0.23563676147E+03 -0.21875101265E+02 -0.14539095007E+03  0.29222667178E+03  0.90855357142E+02 0.  0.
          2    1    3    3  502    0 -0.38019484169E+03  0.27375396404E+03  0.59075759234E+03  0.75397870221E+03  0.00000000000E+00 0. -1.
         -1    1    3    3    0  502 -0.80686795838E+02  0.69303365958E+02  0.20340639435E+03  0.22953752812E+03  0.00000000000E+00 0.  1.
         11    1    5    5    0    0  0.10400718926E+03 -0.81063472300E+02 -0.22464724575E+03  0.26049024355E+03  0.00000000000E+00 0. -1.
        -11    1    5    5    0    0  0.59251120974E+03 -0.24011875643E+03 -0.98249535518E+03  0.11721875591E+04  0.00000000000E+00 0.  1.
          2    1    6    6  503    0 -0.79805072479E+02 -0.27679123042E+02 -0.97711077064E+02  0.12916051264E+03  0.00000000000E+00 0. -1.
         -2    1    6    6    0  503 -0.15583168900E+03  0.58040217774E+01 -0.47679873009E+02  0.16306615913E+03  0.00000000000E+00 0.  1.
<mgrwt>
<rscale>  0 0.26502389E+04</rscale>
<asrwt>0</asrwt>
<pdfrwt beam="1">  1        2 0.16538855E+00 0.26502389E+04</pdfrwt>
<pdfrwt beam="2">  1       -1 0.25129156E+00 0.26502389E+04</pdfrwt>
<totfact> 0.15499896E+00</totfact>
</mgrwt>
</event>
<event>
12    6  0.1530859E-007  0.1977264E+04  0.7818608E-02  0.8617325E-01
          2   -1    0    0  501    0  0.00000000000E+00  0.00000000000E+00  0.32243379151E+04  0.32243379151E+04  0.00000000000E+00 0. -1.
         -1   -1    0    0    0  501 -0.00000000000E+00 -0.00000000000E+00 -0.30312994450E+03  0.30312994450E+03  0.00000000000E+00 0.  1.
         24    2    1    2    0    0  0.32858549869E+03  0.36820088510E+03  0.85999541666E+02  0.50734132821E+03  0.80367782156E+02 0.  0.
        254    2    1    2    0    0 -0.32858549869E+03 -0.36820088510E+03  0.28352084290E+04  0.30201265314E+04  0.91608793704E+03 0.  0.
         23    2    4    4    0    0 -0.24052738462E+03 -0.46416445331E+03  0.69712106951E+03  0.87616862666E+03  0.91605754771E+02 0.  0.
         23    2    4    4    0    0 -0.88058114072E+02  0.95963568215E+02  0.21380873594E+04  0.21439579048E+04  0.90414063538E+02 0.  0.
          2    1    3    3  502    0  0.28803576691E+02  0.16187694932E+02  0.23998941005E+02  0.40836707344E+02  0.00000000000E+00 0. -1.
         -1    1    3    3    0  502  0.29978192200E+03  0.35201319016E+03  0.62000600661E+02  0.46650462087E+03  0.00000000000E+00 0.  1.
         11    1    5    5    0    0 -0.31843381053E+02 -0.16701290152E+02  0.62512247710E+02  0.72115983828E+02  0.00000000000E+00 0.  1.
        -11    1    5    5    0    0 -0.20868400357E+03 -0.44746316316E+03  0.63460882180E+03  0.80405264283E+03  0.00000000000E+00 0. -1.
          3    1    6    6  503    0 -0.94430853472E+02  0.81664129265E+02  0.20816244252E+04  0.20853648275E+04  0.00000000000E+00 0. -1.
         -3    1    6    6    0  503  0.63727394008E+01  0.14299438950E+02  0.56462934254E+02  0.58593077290E+02  0.00000000000E+00 0.  1.
<mgrwt>
<rscale>  0 0.19772641E+04</rscale>
<asrwt>0</asrwt>
<pdfrwt beam="1">  1        2 0.49605196E+00 0.19772641E+04</pdfrwt>
<pdfrwt beam="2">  1       -1 0.46635378E-01 0.19772641E+04</pdfrwt>
<totfact> 0.60890889E+00</totfact>
</mgrwt>
</event>
<event>
12    6  0.1530859E-007  0.1208250E+04  0.7818608E-02  0.9105666E-01
         -1   -1    0    0    0  501 -0.00000000000E+00  0.00000000000E+00  0.27040413454E+03  0.27040413454E+03  0.00000000000E+00 0.  1.
          2   -1    0    0  501    0  0.00000000000E+00 -0.00000000000E+00 -0.13497097142E+04  0.13497097142E+04  0.00000000000E+00 0. -1.
         24    2    1    2    0    0 -0.24295851573E+02 -0.22232459990E+03 -0.60143952408E+02  0.24516442434E+03  0.80434966463E+02 0.  0.
        254    2    1    2    0    0  0.24295851573E+02  0.22232459990E+03 -0.10191616272E+04  0.13749494244E+04  0.89542000262E+03 0.  0.
         23    2    4    4    0    0 -0.16678593271E+03 -0.13875360893E+03 -0.91300734432E+03  0.94318073753E+03  0.94537725414E+02 0.  0.
         23    2    4    4    0    0  0.19108178428E+03  0.36107820883E+03 -0.10615428293E+03  0.43176868687E+03  0.90916148189E+02 0.  0.
          4    1    3    3  502    0 -0.10352194623E+02 -0.22097175794E+02  0.17424786978E+02  0.29984601261E+02  0.00000000000E+00 0. -1.
         -3    1    3    3    0  502 -0.13943656950E+02 -0.20022742410E+03 -0.77568739386E+02  0.21517982308E+03  0.00000000000E+00 0.  1.
         11    1    5    5    0    0 -0.81749165783E+02 -0.11477784130E+03 -0.66875467820E+03  0.68343960857E+03  0.00000000000E+00 0. -1.
        -11    1    5    5    0    0 -0.85036766926E+02 -0.23975767626E+02 -0.24425266613E+03  0.25974112896E+03  0.00000000000E+00 0.  1.
          4    1    6    6  503    0  0.25838339155E+02  0.13213653639E+03 -0.17157185608E+02  0.13572786389E+03  0.00000000000E+00 0. -1.
         -4    1    6    6    0  503  0.16524344513E+03  0.22894167244E+03 -0.88997097318E+02  0.29604082298E+03  0.00000000000E+00 0.  1.
<mgrwt>
<rscale>  0 0.12082501E+04</rscale>
<asrwt>0</asrwt>
<pdfrwt beam="1">  1        2 0.20764764E+00 0.12082501E+04</pdfrwt>
<pdfrwt beam="2">  1       -1 0.41600637E-01 0.12082501E+04</pdfrwt>
<totfact> 0.98467804E+01</totfact>
</mgrwt>
</event>
<event>
12    6  0.1530859E-007  0.4228038E+04  0.7818608E-02  0.7960060E-01
          2   -1    0    0  501    0  0.00000000000E+00  0.00000000000E+00  0.48290355393E+04  0.48290355393E+04  0.00000000000E+00 0. -1.
         -1   -1    0    0    0  501 -0.00000000000E+00 -0.00000000000E+00 -0.92545930476E+03  0.92545930476E+03  0.00000000000E+00 0.  1.
         24    2    1    2    0    0 -0.95104247862E+03  0.17181527380E+04  0.24107039586E+04  0.31103763514E+04  0.80105208179E+02 0.  0.
        254    2    1    2    0    0  0.95104247862E+03 -0.17181527380E+04  0.14928722760E+04  0.26441184927E+04  0.95192664823E+03 0.  0.
         23    2    4    4    0    0  0.18837646526E+03 -0.12400056494E+04  0.10414967336E+04  0.16330018858E+04  0.94233803508E+02 0.  0.
         23    2    4    4    0    0  0.76266601336E+03 -0.47814708863E+03  0.45137554236E+03  0.10111166069E+04  0.91284314962E+02 0.  0.
          2    1    3    3  502    0 -0.84312149986E+03  0.15426598414E+04  0.21923846297E+04  0.28101963658E+04  0.00000000000E+00 0. -1.
         -1    1    3    3    0  502 -0.10792097876E+03  0.17549289658E+03  0.21831932895E+03  0.30017998567E+03  0.00000000000E+00 0.  1.
         11    1    5    5    0    0  0.96347698942E+02 -0.90644039726E+03  0.74205395165E+03  0.11753982900E+04  0.00000000000E+00 0. -1.
        -11    1    5    5    0    0  0.92028766319E+02 -0.33356525209E+03  0.29944278197E+03  0.45760359582E+03  0.00000000000E+00 0.  1.
          4    1    6    6  503    0  0.70975486440E+03 -0.46968242369E+03  0.42816249876E+03  0.95272066840E+03  0.00000000000E+00 0. -1.
         -4    1    6    6    0  503  0.52911148960E+02 -0.84646649462E+01  0.23213043600E+02  0.58395938472E+02  0.00000000000E+00 0.  1.
<mgrwt>
<rscale>  0 0.42280378E+04</rscale>
<asrwt>0</asrwt>
<pdfrwt beam="1">  1        2 0.74292853E+00 0.42280378E+04</pdfrwt>
<pdfrwt beam="2">  1       -1 0.14237836E+00 0.42280378E+04</pdfrwt>
<totfact> 0.19202547E-02</totfact>
</mgrwt>
</event>
<event>
12    6  0.1530859E-007  0.4283921E+04  0.7818608E-02  0.7949598E-01
         -1   -1    0    0    0  501 -0.00000000000E+00  0.00000000000E+00  0.25917729207E+04  0.25917729207E+04  0.00000000000E+00 0.  1.
          2   -1    0    0  501    0  0.00000000000E+00 -0.00000000000E+00 -0.17702144972E+04  0.17702144972E+04  0.00000000000E+00 0. -1.
         24    2    1    2    0    0  0.24960295470E+02 -0.12902790084E+04  0.20101595011E+04  0.23900962586E+04  0.79849668786E+02 0.  0.
        254    2    1    2    0    0 -0.24960295470E+02  0.12902790084E+04 -0.11886010777E+04  0.19718911593E+04  0.90007737807E+03 0.  0.
         23    2    4    4    0    0 -0.24505612229E+02  0.11857652604E+04 -0.53591193350E+03  0.13046636865E+04  0.91137021191E+02 0.  0.
         23    2    4    4    0    0 -0.45468324035E+00  0.10451374805E+03 -0.65268914416E+03  0.66722747285E+03  0.90917827475E+02 0.  0.
          2    1    3    3  502    0 -0.11182174357E+02 -0.24906862336E+03  0.44014216478E+03  0.50585110990E+03  0.00000000000E+00 0. -1.
         -1    1    3    3    0  502  0.36142469827E+02 -0.10412103850E+04  0.15700173363E+04  0.18842451487E+04  0.00000000000E+00 0.  1.
         11    1    5    5    0    0 -0.11387848731E+02  0.73050089871E+03 -0.37820751376E+03  0.82267987066E+03  0.00000000000E+00 0. -1.
        -11    1    5    5    0    0 -0.13117763498E+02  0.45526436165E+03 -0.15770441974E+03  0.48198381582E+03  0.00000000000E+00 0.  1.
          1    1    6    6  503    0 -0.20286953411E+02  0.93239073305E+02 -0.62038346880E+03  0.62767884593E+03  0.00000000000E+00 0. -1.
         -1    1    6    6    0  503  0.19832270171E+02  0.11274674747E+02 -0.32305675367E+02  0.39548626925E+02  0.00000000000E+00 0.  1.
<mgrwt>
<rscale>  0 0.42839206E+04</rscale>
<asrwt>0</asrwt>
<pdfrwt beam="1">  1        2 0.27234069E+00 0.42839206E+04</pdfrwt>
<pdfrwt beam="2">  1       -1 0.39873430E+00 0.42839206E+04</pdfrwt>
<totfact> 0.57406117E-02</totfact>
</mgrwt>
</event>
<event>
12    6  0.1530859E-007  0.1807264E+04  0.7818608E-02  0.8702446E-01
          2   -1    0    0  501    0  0.00000000000E+00  0.00000000000E+00  0.19213044803E+04  0.19213044803E+04  0.00000000000E+00 0. -1.
         -1   -1    0    0    0  501 -0.00000000000E+00 -0.00000000000E+00 -0.42499827884E+03  0.42499827884E+03  0.00000000000E+00 0.  1.
         24    2    1    2    0    0  0.65032737417E+03  0.15247608984E+03  0.48330438428E+03  0.82833564859E+03  0.79888467863E+02 0.  0.
        254    2    1    2    0    0 -0.65032737417E+03 -0.15247608984E+03  0.10130018172E+04  0.15179671106E+04  0.91207281265E+03 0.  0.
         23    2    4    4    0    0 -0.76067529245E+02 -0.39931035496E+03  0.69475025381E+03  0.81062639611E+03  0.95928151898E+02 0.  0.
         23    2    4    4    0    0 -0.57425984492E+03  0.24683426511E+03  0.31825156341E+03  0.70734071447E+03  0.91352639921E+02 0.  0.
          4    1    3    3  502    0  0.38191752741E+03  0.11074539266E+03  0.32777136342E+03  0.51532475821E+03  0.00000000000E+00 0. -1.
         -3    1    3    3    0  502  0.26840984676E+03  0.41730697178E+02  0.15553302086E+03  0.31301089038E+03  0.00000000000E+00 0.  1.
         11    1    5    5    0    0 -0.19194182453E+02 -0.58390281738E+01  0.31221127806E+02  0.37111584600E+02  0.00000000000E+00 0.  1.
        -11    1    5    5    0    0 -0.56873346792E+02 -0.39347132678E+03  0.66352912601E+03  0.77351481151E+03  0.00000000000E+00 0. -1.
          4    1    6    6  503    0 -0.38926798410E+03  0.21264167953E+03  0.22119469945E+03  0.49565425690E+03  0.00000000000E+00 0. -1.
         -4    1    6    6    0  503 -0.18499186082E+03  0.34192585579E+02  0.97056863954E+02  0.21168645757E+03  0.00000000000E+00 0.  1.
<mgrwt>
<rscale>  0 0.18072643E+04</rscale>
<asrwt>0</asrwt>
<pdfrwt beam="1">  1        2 0.29558530E+00 0.18072643E+04</pdfrwt>
<pdfrwt beam="2">  1       -1 0.65384352E-01 0.18072643E+04</pdfrwt>
<totfact> 0.18827834E+01</totfact>
</mgrwt>
</event>
<event>
12    6  0.1530859E-007  0.1163024E+04  0.7818608E-02  0.9145852E-01
          2   -1    0    0  501    0  0.00000000000E+00  0.00000000000E+00  0.91928300913E+03  0.91928300913E+03  0.00000000000E+00 0. -1.
         -1   -1    0    0    0  501 -0.00000000000E+00 -0.00000000000E+00 -0.36784746421E+03  0.36784746421E+03  0.00000000000E+00 0.  1.
         24    2    1    2    0    0 -0.29459955436E+02 -0.10660742201E+03 -0.98300801774E+02  0.16880986244E+03  0.81244634445E+02 0.  0.
        254    2    1    2    0    0  0.29459955436E+02  0.10660742201E+03  0.64973634670E+03  0.11183206109E+04  0.90346590259E+03 0.  0.
         23    2    4    4    0    0 -0.34830987185E+03  0.69832482469E+02  0.68806207298E+01  0.36624219270E+03  0.88823748705E+02 0.  0.
         23    2    4    4    0    0  0.37776982729E+03  0.36774939541E+02  0.64285572597E+03  0.75207841821E+03  0.91082512777E+02 0.  0.
          2    1    3    3  502    0  0.23570286819E+02 -0.11204140042E+02 -0.31228752414E+02  0.40697987077E+02  0.00000000000E+00 0. -1.
         -1    1    3    3    0  502 -0.53030242255E+02 -0.95403281968E+02 -0.67072049361E+02  0.12811187536E+03  0.00000000000E+00 0.  1.
         11    1    5    5    0    0 -0.94969545302E+02  0.55655284863E+02  0.21211621102E+02  0.11210110676E+03  0.00000000000E+00 0. -1.
        -11    1    5    5    0    0 -0.25334032655E+03  0.14177197607E+02 -0.14331000372E+02  0.25414108593E+03  0.00000000000E+00 0.  1.
          1    1    6    6  503    0  0.16404364020E+03  0.31067004440E+02  0.20164273154E+03  0.26179240982E+03  0.00000000000E+00 0. -1.
         -1    1    6    6    0  503  0.21372618709E+03  0.57079351002E+01  0.44121299443E+03  0.49028600839E+03  0.00000000000E+00 0.  1.
<mgrwt>
<rscale>  0 0.11630235E+04</rscale>
<asrwt>0</asrwt>
<pdfrwt beam="1">  1        2 0.14142815E+00 0.11630235E+04</pdfrwt>
<pdfrwt beam="2">  1       -1 0.56591918E-01 0.11630235E+04</pdfrwt>
<totfact> 0.10148371E+02</totfact>
</mgrwt>
</event>
<event>
12    6  0.1530859E-007  0.1727643E+04  0.7818608E-02  0.8745754E-01
          2   -1    0    0  501    0  0.00000000000E+00  0.00000000000E+00  0.19657417370E+04  0.19657417370E+04  0.00000000000E+00 0. -1.
         -1   -1    0    0    0  501 -0.00000000000E+00 -0.00000000000E+00 -0.37959582048E+03  0.37959582048E+03  0.00000000000E+00 0.  1.
         24    2    1    2    0    0  0.31092437737E+03  0.41153829131E+03  0.86096118668E+02  0.52900470690E+03  0.79973149385E+02 0.  0.
        254    2    1    2    0    0 -0.31092437737E+03 -0.41153829131E+03  0.15000497979E+04  0.18163328506E+04  0.88480387341E+03 0.  0.
         23    2    4    4    0    0 -0.21828802349E+03  0.48299468960E+02  0.12581753172E+04  0.12808544207E+04  0.87180377360E+02 0.  0.
         23    2    4    4    0    0 -0.92636353875E+02 -0.45983776027E+03  0.24187448065E+03  0.53547842992E+03  0.90562821813E+02 0.  0.
          4    1    3    3  502    0  0.24614618767E+02  0.84027420939E+01 -0.42601525129E+01  0.26355918333E+02  0.00000000000E+00 0. -1.
         -3    1    3    3    0  502  0.28630975860E+03  0.40313554921E+03  0.90356271180E+02  0.50264878857E+03  0.00000000000E+00 0.  1.
         11    1    5    5    0    0 -0.11064917421E+03  0.13375023954E+02  0.39954776798E+03  0.41480182005E+03  0.00000000000E+00 0. -1.
        -11    1    5    5    0    0 -0.10763884928E+03  0.34924445005E+02  0.85862754926E+03  0.86605260064E+03  0.00000000000E+00 0.  1.
          1    1    6    6  503    0 -0.36070122372E+02 -0.30286896500E+03  0.11539670577E+03  0.32610897471E+03  0.00000000000E+00 0. -1.
         -1    1    6    6    0  503 -0.56566231504E+02 -0.15696879527E+03  0.12647777488E+03  0.20936945521E+03  0.00000000000E+00 0.  1.
<mgrwt>
<rscale>  0 0.17276427E+04</rscale>
<asrwt>0</asrwt>
<pdfrwt beam="1">  1        2 0.30242180E+00 0.17276427E+04</pdfrwt>
<pdfrwt beam="2">  1       -1 0.58399358E-01 0.17276427E+04</pdfrwt>
<totfact> 0.22431127E+01</totfact>
</mgrwt>
</event>
<event>
12    6  0.1530859E-007  0.1529942E+04  0.7818608E-02  0.8864782E-01
          2   -1    0    0  501    0  0.00000000000E+00  0.00000000000E+00  0.27982221895E+04  0.27982221895E+04  0.00000000000E+00 0. -1.
         -1   -1    0    0    0  501 -0.00000000000E+00 -0.00000000000E+00 -0.20912590609E+03  0.20912590609E+03  0.00000000000E+00 0.  1.
         24    2    1    2    0    0 -0.22738197266E+03  0.26065698861E+03  0.15206370861E+03  0.38650072313E+03  0.81331484100E+02 0.  0.
        254    2    1    2    0    0  0.22738197266E+03 -0.26065698861E+03  0.24370325748E+04  0.26208473725E+04  0.90003808358E+03 0.  0.
         23    2    4    4    0    0  0.40138919921E+03  0.20420168143E+03  0.11369861221E+04  0.12263770548E+04  0.91932706864E+02 0.  0.
         23    2    4    4    0    0 -0.17400722656E+03 -0.46485867004E+03  0.13000464527E+04  0.13944703177E+04  0.89747366730E+02 0.  0.
          2    1    3    3  502    0 -0.16434382155E+03  0.17286328680E+03  0.14286079139E+03  0.27802843978E+03  0.00000000000E+00 0. -1.
         -1    1    3    3    0  502 -0.63038151104E+02  0.87793701806E+02  0.92029172188E+01  0.10847228336E+03  0.00000000000E+00 0.  1.
         11    1    5    5    0    0  0.10397209104E+02  0.13932988597E+02  0.14591929088E+02  0.22697015727E+02  0.00000000000E+00 0.  1.
        -11    1    5    5    0    0  0.39099199011E+03  0.19026869283E+03  0.11223941931E+04  0.12036800390E+04  0.00000000000E+00 0. -1.
          2    1    6    6  503    0 -0.15078701179E+03 -0.39204580728E+03  0.11760678518E+04  0.12488283429E+04  0.00000000000E+00 0. -1.
         -2    1    6    6    0  503 -0.23220214763E+02 -0.72812862755E+02  0.12397860088E+03  0.14564197483E+03  0.00000000000E+00 0.  1.
<mgrwt>
<rscale>  0 0.15299422E+04</rscale>
<asrwt>0</asrwt>
<pdfrwt beam="1">  1        2 0.43049570E+00 0.15299422E+04</pdfrwt>
<pdfrwt beam="2">  1       -1 0.32173218E-01 0.15299422E+04</pdfrwt>
<totfact> 0.23062525E+01</totfact>
</mgrwt>
</event>
<event>
12    6  0.1530859E-007  0.4142052E+04  0.7818608E-02  0.7976488E-01
          2   -1    0    0  501    0  0.00000000000E+00  0.00000000000E+00  0.27958051571E+04  0.27958051571E+04  0.00000000000E+00 0. -1.
         -1   -1    0    0    0  501 -0.00000000000E+00 -0.00000000000E+00 -0.15341369870E+04  0.15341369870E+04  0.00000000000E+00 0.  1.
         24    2    1    2    0    0 -0.18145022597E+04  0.72221428786E+03  0.88220554259E+03  0.21441873441E+04  0.72393501476E+02 0.  0.
        254    2    1    2    0    0  0.18145022597E+04 -0.72221428786E+03  0.37946262747E+03  0.21857548001E+04  0.90527356764E+03 0.  0.
         23    2    4    4    0    0  0.10152363742E+04 -0.41272913054E+02 -0.10567216411E+03  0.10254958757E+04  0.89815566486E+02 0.  0.
         23    2    4    4    0    0  0.79926588550E+03 -0.68094137481E+03  0.48513479158E+03  0.11602589244E+04  0.91312068633E+02 0.  0.
          2    1    3    3  502    0 -0.93735026934E+03  0.38512248048E+03  0.41998281656E+03  0.10969641829E+04  0.00000000000E+00 0. -1.
         -1    1    3    3    0  502 -0.87715199036E+03  0.33709180738E+03  0.46222272603E+03  0.10472231612E+04  0.00000000000E+00 0.  1.
         11    1    5    5    0    0  0.34321100664E+03 -0.37921781216E+02 -0.71297489768E+02  0.35258359096E+03  0.00000000000E+00 0. -1.
        -11    1    5    5    0    0  0.67202536755E+03 -0.33511318381E+01 -0.34374674338E+02  0.67291228474E+03  0.00000000000E+00 0.  1.
          1    1    6    6  503    0  0.50498347149E+03 -0.38037498225E+03  0.26515417415E+03  0.68556558378E+03  0.00000000000E+00 0. -1.
         -1    1    6    6    0  503  0.29428241401E+03 -0.30056639256E+03  0.21998061743E+03  0.47469334057E+03  0.00000000000E+00 0.  1.
<mgrwt>
<rscale>  0 0.41420517E+04</rscale>
<asrwt>0</asrwt>
<pdfrwt beam="1">  1        2 0.43012387E+00 0.41420517E+04</pdfrwt>
<pdfrwt beam="2">  1       -1 0.23602108E+00 0.41420517E+04</pdfrwt>
<totfact> 0.17743974E-01</totfact>
</mgrwt>
</event>
<event>
12    6  0.1530859E-007  0.1451394E+04  0.7818608E-02  0.8917435E-01
          2   -1    0    0  501    0  0.00000000000E+00  0.00000000000E+00  0.19686008615E+04  0.19686008615E+04  0.00000000000E+00 0. -1.
         -1   -1    0    0    0  501 -0.00000000000E+00 -0.00000000000E+00 -0.26751785873E+03  0.26751785873E+03  0.00000000000E+00 0.  1.
         24    2    1    2    0    0 -0.15488477159E+03 -0.13183188565E+03  0.11416427672E+04  0.11623096035E+04  0.79034598984E+02 0.  0.
        254    2    1    2    0    0  0.15488477159E+03  0.13183188565E+03  0.55944023556E+03  0.10738091168E+04  0.89371343480E+03 0.  0.
         23    2    4    4    0    0  0.21456392184E+03  0.37496836109E+03 -0.13720443487E+02  0.44164920401E+03  0.90701821699E+02 0.  0.
         23    2    4    4    0    0 -0.59679150246E+02 -0.24313647544E+03  0.57316067904E+03  0.63215991276E+03  0.91847942981E+02 0.  0.
          4    1    3    3  502    0 -0.95566287072E+02 -0.11763427970E+03  0.92118717905E+03  0.93357193500E+03  0.00000000000E+00 0. -1.
         -3    1    3    3    0  502 -0.59318484519E+02 -0.14197605948E+02  0.22045558815E+03  0.22873766845E+03  0.00000000000E+00 0.  1.
         11    1    5    5    0    0  0.11606667906E+03  0.21847501999E+03 -0.52049214334E+02  0.25280808741E+03  0.00000000000E+00 0.  1.
        -11    1    5    5    0    0  0.98497242776E+02  0.15649334110E+03  0.38328770846E+02  0.18884111659E+03  0.00000000000E+00 0. -1.
          3    1    6    6  503    0  0.24127842263E+02 -0.72865831560E+02  0.15605665876E+03  0.17391165264E+03  0.00000000000E+00 0. -1.
         -3    1    6    6    0  503 -0.83806992509E+02 -0.17027064388E+03  0.41710402028E+03  0.45824826011E+03  0.00000000000E+00 0.  1.
<mgrwt>
<rscale>  0 0.14513937E+04</rscale>
<asrwt>0</asrwt>
<pdfrwt beam="1">  1        2 0.30286166E+00 0.14513937E+04</pdfrwt>
<pdfrwt beam="2">  1       -1 0.41156595E-01 0.14513937E+04</pdfrwt>
<totfact> 0.44424727E+01</totfact>
</mgrwt>
</event>
<event>
12    6  0.2512348E-007  0.2443027E+04  0.7818608E-02  0.8423568E-01
          2   -1    0    0  501    0  0.00000000000E+00  0.00000000000E+00  0.16395463726E+04  0.16395463726E+04  0.00000000000E+00 0. -1.
         -1   -1    0    0    0  501 -0.00000000000E+00 -0.00000000000E+00 -0.91006574130E+03  0.91006574130E+03  0.00000000000E+00 0.  1.
         24    2    1    2    0    0  0.16027729097E+03 -0.34101244163E+03  0.12992838598E+04  0.13552958427E+04  0.81914452646E+02 0.  0.
        254    2    1    2    0    0 -0.16027729097E+03  0.34101244163E+03 -0.56980322847E+03  0.11943162712E+04  0.97966185042E+03 0.  0.
         23    2    4    4    0    0  0.26658309412E+03 -0.17653524006E+03 -0.38167182584E+02  0.33259852764E+03  0.83269500488E+02 0.  0.
         23    2    4    4    0    0 -0.42686038509E+03  0.51754768169E+03 -0.53163604589E+03  0.86171774358E+03  0.99273325347E+02 0.  0.
          2    1    3    3  502    0  0.16218164996E+03 -0.32195780224E+03  0.12710220885E+04  0.13211573954E+04  0.00000000000E+00 0. -1.
         -1    1    3    3    0  502 -0.19043589874E+01 -0.19054639393E+02  0.28261771256E+02  0.34138447242E+02  0.00000000000E+00 0.  1.
         11    1    5    5    0    0  0.14558038202E+03 -0.78942015946E+02  0.19590474914E+02  0.16676113521E+03  0.00000000000E+00 0. -1.
        -11    1    5    5    0    0  0.12100271210E+03 -0.97593224115E+02 -0.57757657497E+02  0.16583739243E+03  0.00000000000E+00 0.  1.
          4    1    6    6  503    0 -0.34463823278E+03  0.42656118559E+03 -0.38235901558E+03  0.66852701766E+03  0.00000000000E+00 0.  1.
         -4    1    6    6    0  503 -0.82222152313E+02  0.90986496103E+02 -0.14927703031E+03  0.19319072592E+03  0.00000000000E+00 0. -1.
<mgrwt>
<rscale>  0 0.24430268E+04</rscale>
<asrwt>0</asrwt>
<pdfrwt beam="1">  1        2 0.25223790E+00 0.24430268E+04</pdfrwt>
<pdfrwt beam="2">  1       -1 0.14001011E+00 0.24430268E+04</pdfrwt>
<totfact> 0.45320438E+00</totfact>
</mgrwt>
</event>
<event>
12    6  0.1530859E-007  0.2722445E+04  0.7818608E-02  0.8327759E-01
          2   -1    0    0  501    0  0.00000000000E+00  0.00000000000E+00  0.90740001882E+03  0.90740001882E+03  0.00000000000E+00 0. -1.
         -1   -1    0    0    0  501 -0.00000000000E+00 -0.00000000000E+00 -0.20420173853E+04  0.20420173853E+04  0.00000000000E+00 0.  1.
         24    2    1    2    0    0 -0.10250491099E+04  0.70799703857E+02  0.18794354946E+03  0.10476587814E+04  0.80795227498E+02 0.  0.
        254    2    1    2    0    0  0.10250491099E+04 -0.70799703857E+02 -0.13225609160E+04  0.19017586227E+04  0.90098846104E+03 0.  0.
         23    2    4    4    0    0 -0.12727339246E+03 -0.31511236777E+02 -0.20354521757E+02  0.16061991341E+03  0.90515057069E+02 0.  0.
         23    2    4    4    0    0  0.11523225023E+04 -0.39288467080E+02 -0.13022063942E+04  0.17411387093E+04  0.80198372349E+02 0.  0.
          2    1    3    3  502    0 -0.68842672845E+03  0.30525142900E+02  0.16035789478E+03  0.70751522896E+03  0.00000000000E+00 0. -1.
         -1    1    3    3    0  502 -0.33662238143E+03  0.40274560957E+02  0.27585654674E+02  0.34014355246E+03  0.00000000000E+00 0.  1.
         11    1    5    5    0    0 -0.94546969001E+02  0.25628008857E+01  0.22070186415E+02  0.97122553632E+02  0.00000000000E+00 0. -1.
        -11    1    5    5    0    0 -0.32726423456E+02 -0.34074037663E+02 -0.42424708172E+02  0.63497359774E+02  0.00000000000E+00 0.  1.
          2    1    6    6  503    0  0.61422820468E+02  0.13868892338E+02 -0.84518279791E+02  0.10539662550E+03  0.00000000000E+00 0.  1.
         -2    1    6    6    0  503  0.10908996819E+04 -0.53157359418E+02 -0.12176881144E+04  0.16357420838E+04  0.00000000000E+00 0. -1.
<mgrwt>
<rscale>  0 0.27224449E+04</rscale>
<asrwt>0</asrwt>
<pdfrwt beam="1">  1        2 0.13960000E+00 0.27224449E+04</pdfrwt>
<pdfrwt beam="2">  1       -1 0.31415652E+00 0.27224449E+04</pdfrwt>
<totfact> 0.77316610E-01</totfact>
</mgrwt>
</event>
<event>
12    6  0.1530859E-007  0.1732140E+04  0.7818608E-02  0.8743243E-01
          2   -1    0    0  501    0  0.00000000000E+00  0.00000000000E+00  0.16810597660E+04  0.16810597660E+04  0.00000000000E+00 0. -1.
         -1   -1    0    0    0  501 -0.00000000000E+00 -0.00000000000E+00 -0.44619331492E+03  0.44619331492E+03  0.00000000000E+00 0.  1.
         24    2    1    2    0    0  0.44783243335E+02  0.40068473296E+03  0.10545367919E+04  0.11316831617E+04  0.78135388595E+02 0.  0.
        254    2    1    2    0    0 -0.44783243335E+02 -0.40068473296E+03  0.18032965921E+03  0.99556991922E+03  0.89223701109E+03 0.  0.
         23    2    4    4    0    0 -0.26316744174E+03  0.18901265176E+03  0.50482164039E+01  0.33655097496E+03  0.90874580266E+02 0.  0.
         23    2    4    4    0    0  0.21838419841E+03 -0.58969738472E+03  0.17528144280E+03  0.65901894426E+03  0.90264727591E+02 0.  0.
          2    1    3    3  502    0 -0.60070911280E+01  0.97404348201E+01  0.98939132920E+01  0.15127813277E+02  0.00000000000E+00 0. -1.
         -1    1    3    3    0  502  0.50790334463E+02  0.39094429814E+03  0.10446428786E+04  0.11165553484E+04  0.00000000000E+00 0.  1.
         11    1    5    5    0    0 -0.60005823288E+02  0.63382851388E+02 -0.35576806229E+02  0.94253879602E+02  0.00000000000E+00 0.  1.
        -11    1    5    5    0    0 -0.20316161846E+03  0.12562980037E+03  0.40625022633E+02  0.24229709536E+03  0.00000000000E+00 0. -1.
          1    1    6    6  503    0  0.20579510990E+03 -0.51641334003E+03  0.12659675077E+03  0.57014130032E+03  0.00000000000E+00 0. -1.
         -1    1    6    6    0  503  0.12589088509E+02 -0.73284044686E+02  0.48684692030E+02  0.88877643944E+02  0.00000000000E+00 0.  1.
<mgrwt>
<rscale>  0 0.17321404E+04</rscale>
<asrwt>0</asrwt>
<pdfrwt beam="1">  1        2 0.25862458E+00 0.17321404E+04</pdfrwt>
<pdfrwt beam="2">  1       -1 0.68645126E-01 0.17321404E+04</pdfrwt>
<totfact> 0.23332356E+01</totfact>
</mgrwt>
</event>
<event>
12    6  0.1530859E-007  0.2071330E+04  0.7818608E-02  0.8573979E-01
          2   -1    0    0  501    0  0.00000000000E+00  0.00000000000E+00  0.64962755404E+03  0.64962755404E+03  0.00000000000E+00 0. -1.
         -1   -1    0    0    0  501 -0.00000000000E+00 -0.00000000000E+00 -0.16511033114E+04  0.16511033114E+04  0.00000000000E+00 0.  1.
         24    2    1    2    0    0  0.52512686560E+03  0.51659065677E+03  0.31996804390E+02  0.74200448838E+03  0.83202966637E+02 0.  0.
        254    2    1    2    0    0 -0.52512686560E+03 -0.51659065677E+03 -0.10334725618E+04  0.15587263770E+04  0.90495207109E+03 0.  0.
         23    2    4    4    0    0 -0.76245976166E+03 -0.29304004878E+03 -0.65906081404E+03  0.10535468941E+04  0.91556229811E+02 0.  0.
         23    2    4    4    0    0  0.23733289606E+03 -0.22355060799E+03 -0.37441174771E+03  0.50517948291E+03  0.93382949425E+02 0.  0.
          4    1    3    3  502    0  0.22071147515E+03  0.27463443516E+03  0.21968236148E+02  0.35301590847E+03  0.00000000000E+00 0. -1.
         -3    1    3    3    0  502  0.30441539045E+03  0.24195622161E+03  0.10028568242E+02  0.38898857991E+03  0.00000000000E+00 0.  1.
         11    1    5    5    0    0 -0.30887241872E+03 -0.82119765676E+02 -0.22043814813E+03  0.38825095507E+03  0.00000000000E+00 0.  1.
        -11    1    5    5    0    0 -0.45358734293E+03 -0.21092028310E+03 -0.43862266591E+03  0.66529593907E+03  0.00000000000E+00 0. -1.
          3    1    6    6  503    0  0.23537459026E+03 -0.18593500992E+03 -0.31615241481E+03  0.43580428525E+03  0.00000000000E+00 0. -1.
         -3    1    6    6    0  503  0.19583057996E+01 -0.37615598072E+02 -0.58259332906E+02  0.69375197661E+02  0.00000000000E+00 0.  1.
<mgrwt>
<rscale>  0 0.20713302E+04</rscale>
<asrwt>0</asrwt>
<pdfrwt beam="1">  1        2 0.99942703E-01 0.20713302E+04</pdfrwt>
<pdfrwt beam="2">  1       -1 0.25401589E+00 0.20713302E+04</pdfrwt>
<totfact> 0.31142541E+00</totfact>
</mgrwt>
</event>
<event>
12    6  0.1530859E-007  0.1491921E+04  0.7818608E-02  0.8889843E-01
         -1   -1    0    0    0  501 -0.00000000000E+00  0.00000000000E+00  0.21741345558E+03  0.21741345558E+03  0.00000000000E+00 0.  1.
          2   -1    0    0  501    0  0.00000000000E+00 -0.00000000000E+00 -0.25594428918E+04  0.25594428918E+04  0.00000000000E+00 0. -1.
         24    2    1    2    0    0 -0.45014275522E+03  0.88869338499E+02 -0.63029851520E+03  0.78335850407E+03  0.76472663313E+02 0.  0.
        254    2    1    2    0    0  0.45014275522E+03 -0.88869338499E+02 -0.17117309210E+04  0.19934978433E+04  0.91295380272E+03 0.  0.
         23    2    4    4    0    0  0.48984061252E+02 -0.42992669116E+02  0.90801411398E+02  0.14399111049E+03  0.90778498192E+02 0.  0.
         23    2    4    4    0    0  0.40115869397E+03 -0.45876669384E+02 -0.18025323324E+04  0.18495067328E+04  0.92300481038E+02 0.  0.
          2    1    3    3  502    0 -0.38321056739E+03  0.97330589690E+02 -0.56390370764E+03  0.68870238430E+03  0.00000000000E+00 0. -1.
         -1    1    3    3    0  502 -0.66932187829E+02 -0.84612511903E+01 -0.66394807561E+02  0.94656119772E+02  0.00000000000E+00 0.  1.
         11    1    5    5    0    0 -0.13199493168E+02  0.11926189310E+02 -0.37728733957E+01  0.18185026396E+02  0.00000000000E+00 0.  1.
        -11    1    5    5    0    0  0.62183554420E+02 -0.54918858426E+02  0.94574284793E+02  0.12580608409E+03  0.00000000000E+00 0. -1.
          1    1    6    6  503    0  0.39052493020E+03 -0.34182279763E+02 -0.17748676593E+04  0.18176450031E+04  0.00000000000E+00 0. -1.
         -1    1    6    6    0  503  0.10633763772E+02 -0.11694389621E+02 -0.27664673120E+02  0.31861729699E+02  0.00000000000E+00 0.  1.
<mgrwt>
<rscale>  0 0.14919213E+04</rscale>
<asrwt>0</asrwt>
<pdfrwt beam="1">  1        2 0.39376043E+00 0.14919213E+04</pdfrwt>
<pdfrwt beam="2">  1       -1 0.33448225E-01 0.14919213E+04</pdfrwt>
<totfact> 0.29882841E+01</totfact>
</mgrwt>
</event>
<event>
12    6  0.1530859E-007  0.2014531E+04  0.7818608E-02  0.8599857E-01
         -1   -1    0    0    0  501 -0.00000000000E+00  0.00000000000E+00  0.52033504369E+03  0.52033504369E+03  0.00000000000E+00 0.  1.
          2   -1    0    0  501    0  0.00000000000E+00 -0.00000000000E+00 -0.19498670279E+04  0.19498670279E+04  0.00000000000E+00 0. -1.
         24    2    1    2    0    0  0.14162836934E+01 -0.33703432875E+03  0.32288830446E+03  0.47306442363E+03  0.77064564668E+02 0.  0.
        254    2    1    2    0    0 -0.14162836934E+01  0.33703432875E+03 -0.17524202887E+04  0.19971376480E+04  0.89665365227E+03 0.  0.
         23    2    4    4    0    0  0.36596715362E+03 -0.73327970521E+02 -0.54455593313E+03  0.66660223709E+03  0.92241148071E+02 0.  0.
         23    2    4    4    0    0 -0.36738343732E+03  0.41036229927E+03 -0.12078643556E+04  0.13305354109E+04  0.89556526842E+02 0.  0.
          4    1    3    3  502    0 -0.96496801860E+01 -0.13835305631E+03  0.18393151704E+03  0.23035947447E+03  0.00000000000E+00 0. -1.
         -3    1    3    3    0  502  0.11065963879E+02 -0.19868127243E+03  0.13895678743E+03  0.24270494916E+03  0.00000000000E+00 0.  1.
         11    1    5    5    0    0  0.30257268715E+03 -0.85160954087E+02 -0.48989012985E+03  0.58206095766E+03  0.00000000000E+00 0. -1.
        -11    1    5    5    0    0  0.63394466471E+02  0.11832983566E+02 -0.54665803279E+02  0.84541279428E+02  0.00000000000E+00 0.  1.
          1    1    6    6  503    0 -0.19985531338E+03  0.17080574535E+03 -0.63868752551E+03  0.69067974067E+03  0.00000000000E+00 0. -1.
         -1    1    6    6    0  503 -0.16752812394E+03  0.23955655392E+03 -0.56917683006E+03  0.63985567022E+03  0.00000000000E+00 0.  1.
<mgrwt>
<rscale>  0 0.20145314E+04</rscale>
<asrwt>0</asrwt>
<pdfrwt beam="1">  1        2 0.29997954E+00 0.20145314E+04</pdfrwt>
<pdfrwt beam="2">  1       -1 0.80051545E-01 0.20145314E+04</pdfrwt>
<totfact> 0.11724980E+01</totfact>
</mgrwt>
</event>
<event>
12    6  0.1530859E-007  0.1280858E+04  0.7818608E-02  0.9044884E-01
         -1   -1    0    0    0  501 -0.00000000000E+00  0.00000000000E+00  0.18129548800E+03  0.18129548800E+03  0.00000000000E+00 0.  1.
          2   -1    0    0  501    0  0.00000000000E+00 -0.00000000000E+00 -0.22623244421E+04  0.22623244421E+04  0.00000000000E+00 0. -1.
         24    2    1    2    0    0 -0.13441564644E+03  0.28119615101E+03 -0.52347389577E+03  0.61492869268E+03  0.83507701345E+02 0.  0.
        254    2    1    2    0    0  0.13441564644E+03 -0.28119615101E+03 -0.15575550583E+04  0.18286912374E+04  0.90608776657E+03 0.  0.
         23    2    4    4    0    0  0.23416887386E+03 -0.50784567257E+03 -0.14237853269E+04  0.15322407527E+04  0.88627188304E+02 0.  0.
         23    2    4    4    0    0 -0.99753227419E+02  0.22664952156E+03 -0.13376973142E+03  0.29645048471E+03  0.93101218231E+02 0.  0.
          4    1    3    3  502    0 -0.88330469599E+02  0.20558823927E+03 -0.43806390111E+03  0.49190321959E+03  0.00000000000E+00 0. -1.
         -3    1    3    3    0  502 -0.46085176843E+02  0.75607911748E+02 -0.85409994654E+02  0.12302547310E+03  0.00000000000E+00 0.  1.
         11    1    5    5    0    0  0.56565207871E+01 -0.54620257719E+02 -0.19922941772E+03  0.20665848559E+03  0.00000000000E+00 0.  1.
        -11    1    5    5    0    0  0.22851235307E+03 -0.45322541485E+03 -0.12245559092E+04  0.13255822671E+04  0.00000000000E+00 0. -1.
          3    1    6    6  503    0 -0.10344859501E+03  0.13317787108E+03 -0.10469402621E+03  0.19849130026E+03  0.00000000000E+00 0. -1.
         -3    1    6    6    0  503  0.36953675870E+01  0.93471650476E+02 -0.29075705212E+02  0.97959184449E+02  0.00000000000E+00 0.  1.
<mgrwt>
<rscale>  0 0.12808579E+04</rscale>
<asrwt>0</asrwt>
<pdfrwt beam="1">  1        2 0.34804994E+00 0.12808579E+04</pdfrwt>
<pdfrwt beam="2">  1       -1 0.27891612E-01 0.12808579E+04</pdfrwt>
<totfact> 0.61877516E+01</totfact>
</mgrwt>
</event>
<event>
12    6  0.1530859E-007  0.1678510E+04  0.7818608E-02  0.8773717E-01
         -1   -1    0    0    0  501 -0.00000000000E+00  0.00000000000E+00  0.15522386494E+04  0.15522386494E+04  0.00000000000E+00 0.  1.
          2   -1    0    0  501    0  0.00000000000E+00 -0.00000000000E+00 -0.45376329866E+03  0.45376329866E+03  0.00000000000E+00 0. -1.
         24    2    1    2    0    0 -0.21549075373E+03  0.20743352056E+02  0.10423205943E+04  0.10675900625E+04  0.80310451485E+02 0.  0.
        254    2    1    2    0    0  0.21549075373E+03 -0.20743352056E+02  0.56154756434E+02  0.93841188558E+03  0.91137092269E+03 0.  0.
         23    2    4    4    0    0  0.34325424166E+03 -0.15584488060E+03 -0.32395980336E+03  0.50559328987E+03  0.92539285415E+02 0.  0.
         23    2    4    4    0    0 -0.12776348793E+03  0.13510152854E+03  0.38011455980E+03  0.43281859570E+03  0.90933637103E+02 0.  0.
          2    1    3    3  502    0 -0.35067993752E+02  0.30899760430E+02  0.14837554455E+03  0.15556304703E+03  0.00000000000E+00 0. -1.
         -1    1    3    3    0  502 -0.18042275998E+03 -0.10156408375E+02  0.89394504977E+03  0.91202701548E+03  0.00000000000E+00 0.  1.
         11    1    5    5    0    0  0.33933309618E+03 -0.13480645196E+03 -0.29403236128E+03  0.46880140693E+03  0.00000000000E+00 0.  1.
        -11    1    5    5    0    0  0.39211454747E+01 -0.21038428633E+02 -0.29927442079E+02  0.36791882943E+02  0.00000000000E+00 0. -1.
          3    1    6    6  503    0  0.12219789625E+02  0.21117427894E+02  0.28089852563E+02  0.37206301030E+02  0.00000000000E+00 0. -1.
         -3    1    6    6    0  503 -0.13998327755E+03  0.11398410065E+03  0.35202470723E+03  0.39561229467E+03  0.00000000000E+00 0.  1.
<mgrwt>
<rscale>  0 0.16785100E+04</rscale>
<asrwt>0</asrwt>
<pdfrwt beam="1">  1        2 0.69809739E-01 0.16785100E+04</pdfrwt>
<pdfrwt beam="2">  1       -1 0.23880594E+00 0.16785100E+04</pdfrwt>
<totfact> 0.61976214E+00</totfact>
</mgrwt>
</event>
<event>
12    6  0.1530859E-007  0.1282510E+04  0.7818608E-02  0.9043551E-01
         -1   -1    0    0    0  501 -0.00000000000E+00  0.00000000000E+00  0.47013505275E+03  0.47013505275E+03  0.00000000000E+00 0.  1.
          2   -1    0    0  501    0  0.00000000000E+00 -0.00000000000E+00 -0.87465947914E+03  0.87465947914E+03  0.00000000000E+00 0. -1.
         24    2    1    2    0    0  0.18370457017E+03  0.17181142735E+03  0.95350824270E+02  0.28045005284E+03  0.79334209382E+02 0.  0.
        254    2    1    2    0    0 -0.18370457017E+03 -0.17181142735E+03 -0.49987525066E+03  0.10643444790E+04  0.90536587532E+03 0.  0.
         23    2    4    4    0    0 -0.23487629659E+03 -0.42570948743E+03 -0.59530461956E+03  0.77353691378E+03  0.87042084825E+02 0.  0.
         23    2    4    4    0    0  0.51171726421E+02  0.25389806008E+03  0.95429368901E+02  0.29080756526E+03  0.91539636603E+02 0.  0.
          4    1    3    3  502    0  0.73252702602E+02  0.61258072491E+02  0.77840849285E+02  0.12319783968E+03  0.00000000000E+00 0. -1.
         -1    1    3    3    0  502  0.11045186756E+03  0.11055335486E+03  0.17509974986E+02  0.15725221316E+03  0.00000000000E+00 0.  1.
         11    1    5    5    0    0 -0.24072865013E+03 -0.41585771173E+03 -0.58999195414E+03  0.76090631838E+03  0.00000000000E+00 0. -1.
        -11    1    5    5    0    0  0.58523535384E+01 -0.98517757038E+01 -0.53126654130E+01  0.12630595403E+02  0.00000000000E+00 0.  1.
          1    1    6    6  503    0  0.74962116980E+02  0.19056966905E+03  0.55169187194E+02  0.21208431568E+03  0.00000000000E+00 0. -1.
         -1    1    6    6    0  503 -0.23790390559E+02  0.63328391031E+02  0.40260181707E+02  0.78723249581E+02  0.00000000000E+00 0.  1.
<mgrwt>
<rscale>  0 0.12825102E+04</rscale>
<asrwt>0</asrwt>
<pdfrwt beam="1">  1        2 0.13456300E+00 0.12825102E+04</pdfrwt>
<pdfrwt beam="2">  1       -1 0.72328470E-01 0.12825102E+04</pdfrwt>
<totfact> 0.65922693E+01</totfact>
</mgrwt>
</event>
<event>
12    6  0.1530859E-007  0.2838458E+04  0.7818608E-02  0.8291427E-01
          2   -1    0    0  501    0  0.00000000000E+00  0.00000000000E+00  0.23841298201E+04  0.23841298201E+04  0.00000000000E+00 0. -1.
         -1   -1    0    0    0  501 -0.00000000000E+00 -0.00000000000E+00 -0.84484142061E+03  0.84484142061E+03  0.00000000000E+00 0.  1.
         24    2    1    2    0    0  0.38914966645E+03  0.11531631310E+04  0.11157695200E+04  0.16531216526E+04  0.81528564474E+02 0.  0.
        254    2    1    2    0    0 -0.38914966645E+03 -0.11531631310E+04  0.42351887943E+03  0.15758495881E+04  0.90703418538E+03 0.  0.
         23    2    4    4    0    0 -0.57182201494E+03 -0.78737838361E+03  0.56927867578E+03  0.11312317555E+04  0.93069534775E+02 0.  0.
         23    2    4    4    0    0  0.18267234849E+03 -0.36578474740E+03 -0.14575979635E+03  0.44461783255E+03  0.96288267500E+02 0.  0.
          2    1    3    3  502    0  0.24759327973E+03  0.83486208759E+03  0.82054700242E+03  0.11964925911E+04  0.00000000000E+00 0. -1.
         -1    1    3    3    0  502  0.14155638672E+03  0.31830104342E+03  0.29522251761E+03  0.45662906145E+03  0.00000000000E+00 0.  1.
         11    1    5    5    0    0 -0.55965984861E+03 -0.78551456092E+03  0.56669953665E+03  0.11186601970E+04  0.00000000000E+00 0. -1.
        -11    1    5    5    0    0 -0.12162166331E+02 -0.18638226847E+01  0.25791391284E+01  0.12571558516E+02  0.00000000000E+00 0.  1.
          1    1    6    6  503    0  0.15039495888E+03 -0.23915805353E+03 -0.61500995227E+02  0.28913247939E+03  0.00000000000E+00 0. -1.
         -1    1    6    6    0  503  0.32277389606E+02 -0.12662669387E+03 -0.84258801125E+02  0.15548535316E+03  0.00000000000E+00 0.  1.
<mgrwt>
<rscale>  0 0.28384585E+04</rscale>
<asrwt>0</asrwt>
<pdfrwt beam="1">  1        2 0.36678920E+00 0.28384585E+04</pdfrwt>
<pdfrwt beam="2">  1       -1 0.12997560E+00 0.28384585E+04</pdfrwt>
<totfact> 0.20310104E+00</totfact>
</mgrwt>
</event>
<event>
12    6  0.1530859E-007  0.1505699E+04  0.7818608E-02  0.8880672E-01
          2   -1    0    0  501    0  0.00000000000E+00  0.00000000000E+00  0.29103758613E+04  0.29103758613E+04  0.00000000000E+00 0. -1.
         -1   -1    0    0    0  501 -0.00000000000E+00 -0.00000000000E+00 -0.19474553589E+03  0.19474553589E+03  0.00000000000E+00 0.  1.
         24    2    1    2    0    0  0.24387601450E+03  0.31395423970E+02  0.27132816140E+02  0.25966421931E+03  0.78918527519E+02 0.  0.
        254    2    1    2    0    0 -0.24387601450E+03 -0.31395423970E+02  0.26884975092E+04  0.28454571778E+04  0.89896969397E+03 0.  0.
         23    2    4    4    0    0  0.14340741462E+03 -0.11785700373E+03  0.10898295212E+03  0.23389164983E+03  0.91498962363E+02 0.  0.
         23    2    4    4    0    0 -0.38728342912E+03  0.86461579757E+02  0.25795145571E+04  0.26115655280E+04  0.94419793857E+02 0.  0.
          4    1    3    3  502    0  0.58557975120E+02  0.38501493651E+01  0.41323014766E+02  0.71773613881E+02  0.00000000000E+00 0. -1.
         -3    1    3    3    0  502  0.18531803938E+03  0.27545274605E+02 -0.14190198626E+02  0.18789060543E+03  0.00000000000E+00 0.  1.
         11    1    5    5    0    0  0.35578695025E+02 -0.68562807539E+02  0.81292311916E+02  0.11213894102E+03  0.00000000000E+00 0.  1.
        -11    1    5    5    0    0  0.10782871960E+03 -0.49294196188E+02  0.27690640203E+02  0.12175270881E+03  0.00000000000E+00 0. -1.
          3    1    6    6  503    0 -0.39187116435E+03  0.88161698340E+02  0.25647365763E+04  0.25959986903E+04  0.00000000000E+00 0. -1.
         -3    1    6    6    0  503  0.45877352266E+01 -0.17001185837E+01  0.14777980856E+02  0.15566837698E+02  0.00000000000E+00 0.  1.
<mgrwt>
<rscale>  0 0.15056994E+04</rscale>
<asrwt>0</asrwt>
<pdfrwt beam="1">  1        2 0.44775010E+00 0.15056994E+04</pdfrwt>
<pdfrwt beam="2">  1       -1 0.29960854E-01 0.15056994E+04</pdfrwt>
<totfact> 0.22407787E+01</totfact>
</mgrwt>
</event>
<event>
12    6  0.1530859E-007  0.1341113E+04  0.7818608E-02  0.8997583E-01
          2   -1    0    0  501    0  0.00000000000E+00  0.00000000000E+00  0.23347844358E+04  0.23347844358E+04  0.00000000000E+00 0. -1.
         -1   -1    0    0    0  501 -0.00000000000E+00 -0.00000000000E+00 -0.19258558664E+03  0.19258558664E+03  0.00000000000E+00 0.  1.
         24    2    1    2    0    0 -0.31268913134E+03 -0.18033978121E+03  0.73767621084E+03  0.82507727210E+03  0.79305632559E+02 0.  0.
        254    2    1    2    0    0  0.31268913134E+03  0.18033978121E+03  0.14045226383E+04  0.17022927503E+04  0.89152668874E+03 0.  0.
         23    2    4    4    0    0  0.54971046891E+03  0.32694563221E+03  0.11227973912E+04  0.12953621171E+04  0.90631046586E+02 0.  0.
         23    2    4    4    0    0 -0.23702133758E+03 -0.14660585100E+03  0.28172524714E+03  0.40693063328E+03  0.92471808733E+02 0.  0.
          2    1    3    3  502    0 -0.17445060522E+02 -0.31147205184E+02  0.44795943992E+02  0.57281368048E+02  0.00000000000E+00 0. -1.
         -1    1    3    3    0  502 -0.29524407082E+03 -0.14919257603E+03  0.69288026684E+03  0.76779590405E+03  0.00000000000E+00 0.  1.
         11    1    5    5    0    0  0.10315101411E+03  0.24936234495E+02  0.20887216802E+03  0.23428514694E+03  0.00000000000E+00 0. -1.
        -11    1    5    5    0    0  0.44655945481E+03  0.30200939771E+03  0.91392522317E+03  0.10610769701E+04  0.00000000000E+00 0.  1.
          2    1    6    6  503    0 -0.11307193534E+03 -0.11116790947E+03  0.19601786944E+03  0.25212411983E+03  0.00000000000E+00 0. -1.
         -2    1    6    6    0  503 -0.12394940224E+03 -0.35437941522E+02  0.85707377696E+02  0.15480651345E+03  0.00000000000E+00 0.  1.
<mgrwt>
<rscale>  0 0.13411127E+04</rscale>
<asrwt>0</asrwt>
<pdfrwt beam="1">  1        2 0.35919759E+00 0.13411127E+04</pdfrwt>
<pdfrwt beam="2">  1       -1 0.29628553E-01 0.13411127E+04</pdfrwt>
<totfact> 0.50436743E+01</totfact>
</mgrwt>
</event>
<event>
12    6  0.1530859E-007  0.1213852E+04  0.7818608E-02  0.9100818E-01
         -1   -1    0    0    0  501 -0.00000000000E+00  0.00000000000E+00  0.22755666870E+03  0.22755666870E+03  0.00000000000E+00 0.  1.
          2   -1    0    0  501    0  0.00000000000E+00 -0.00000000000E+00 -0.16187567230E+04  0.16187567230E+04  0.00000000000E+00 0. -1.
         24    2    1    2    0    0 -0.57642016842E+02 -0.29465872006E+02 -0.87857594358E+03  0.88461964458E+03  0.80407631636E+02 0.  0.
        254    2    1    2    0    0  0.57642016842E+02  0.29465872006E+02 -0.51262411072E+03  0.96169374712E+03  0.81109835695E+03 0.  0.
         23    2    4    4    0    0  0.72309411833E+02  0.38508933085E+03 -0.11093995535E+03  0.41756907913E+03  0.92378668421E+02 0.  0.
         23    2    4    4    0    0 -0.14667394992E+02 -0.35562345885E+03 -0.40168415536E+03  0.54412466799E+03  0.89656660020E+02 0.  0.
          4    1    3    3  502    0 -0.25290416020E+02 -0.37012169697E+02 -0.76428939538E+03  0.76560289036E+03  0.00000000000E+00 0. -1.
         -3    1    3    3    0  502 -0.32351600822E+02  0.75462976906E+01 -0.11428654820E+03  0.11901675422E+03  0.00000000000E+00 0.  1.
         11    1    5    5    0    0  0.31632505567E+00 -0.46667375114E+01 -0.59150900593E+01  0.75410072902E+01  0.00000000000E+00 0. -1.
        -11    1    5    5    0    0  0.71993086778E+02  0.38975606836E+03 -0.10502486529E+03  0.41002807184E+03  0.00000000000E+00 0.  1.
          1    1    6    6  503    0  0.30210396400E+02 -0.75708733786E+02 -0.67014099234E+02  0.10552426223E+03  0.00000000000E+00 0. -1.
         -1    1    6    6    0  503 -0.44877791391E+02 -0.27991472506E+03 -0.33467005613E+03  0.43860040576E+03  0.00000000000E+00 0.  1.
<mgrwt>
<rscale>  0 0.12138515E+04</rscale>
<asrwt>0</asrwt>
<pdfrwt beam="1">  1        2 0.24903950E+00 0.12138515E+04</pdfrwt>
<pdfrwt beam="2">  1       -1 0.35008718E-01 0.12138515E+04</pdfrwt>
<totfact> 0.94806430E+01</totfact>
</mgrwt>
</event>
<event>
12    6  0.1530859E-007  0.1466315E+04  0.7818608E-02  0.8907167E-01
         -1   -1    0    0    0  501 -0.00000000000E+00  0.00000000000E+00  0.87881395491E+03  0.87881395491E+03  0.00000000000E+00 0.  1.
          2   -1    0    0  501    0  0.00000000000E+00 -0.00000000000E+00 -0.61164237459E+03  0.61164237459E+03  0.00000000000E+00 0. -1.
         24    2    1    2    0    0  0.35521776506E+03  0.24648179503E+03  0.24941853121E+03  0.50553092705E+03  0.80118528452E+02 0.  0.
        254    2    1    2    0    0 -0.35521776506E+03 -0.24648179503E+03  0.17753049109E+02  0.98492540245E+03  0.88477677509E+03 0.  0.
         23    2    4    4    0    0 -0.26091759201E+02 -0.22470383605E+02 -0.39353055658E+03  0.40481331841E+03  0.88441086394E+02 0.  0.
         23    2    4    4    0    0 -0.32912600586E+03 -0.22401141142E+03  0.41128360569E+03  0.58011208403E+03  0.94184847747E+02 0.  0.
          2    1    3    3  502    0  0.22324001483E+02  0.43051391970E+02  0.16850698161E+02  0.51339355482E+02  0.00000000000E+00 0. -1.
         -1    1    3    3    0  502  0.33289376358E+03  0.20343040306E+03  0.23256783305E+03  0.45419157157E+03  0.00000000000E+00 0.  1.
         11    1    5    5    0    0 -0.36741299125E+02 -0.51709845255E+02 -0.24704619504E+03  0.25506009809E+03  0.00000000000E+00 0. -1.
        -11    1    5    5    0    0  0.10649539924E+02  0.29239461651E+02 -0.14648436155E+03  0.14975322032E+03  0.00000000000E+00 0.  1.
          2    1    6    6  503    0 -0.27780504709E+03 -0.14841539661E+03  0.28899567278E+03  0.42745908930E+03  0.00000000000E+00 0. -1.
         -2    1    6    6    0  503 -0.51320958778E+02 -0.75596014816E+02  0.12228793291E+03  0.15265299473E+03  0.00000000000E+00 0.  1.
<mgrwt>
<rscale>  0 0.14663149E+04</rscale>
<asrwt>0</asrwt>
<pdfrwt beam="1">  1        2 0.94098826E-01 0.14663149E+04</pdfrwt>
<pdfrwt beam="2">  1       -1 0.13520215E+00 0.14663149E+04</pdfrwt>
<totfact> 0.24612305E+01</totfact>
</mgrwt>
</event>
<event>
12    6  0.1530859E-007  0.2515157E+04  0.7818608E-02  0.8397606E-01
         -1   -1    0    0    0  501 -0.00000000000E+00  0.00000000000E+00  0.13816541449E+04  0.13816541449E+04  0.00000000000E+00 0.  1.
          2   -1    0    0  501    0  0.00000000000E+00 -0.00000000000E+00 -0.11446449771E+04  0.11446449771E+04  0.00000000000E+00 0. -1.
         24    2    1    2    0    0  0.10279810195E+03 -0.62135594095E+03 -0.79463134341E+03  0.10168966284E+04  0.77389442583E+02 0.  0.
        254    2    1    2    0    0 -0.10279810195E+03  0.62135594095E+03  0.10316405112E+04  0.15094024936E+04  0.90408135045E+03 0.  0.
         23    2    4    4    0    0  0.65923355542E+02  0.71446604935E+03  0.10710111964E+04  0.12924916168E+04  0.93069717602E+02 0.  0.
         23    2    4    4    0    0 -0.16872145749E+03 -0.93110108403E+02 -0.39370685226E+02  0.21691087673E+03  0.91454114649E+02 0.  0.
          4    1    3    3  502    0  0.10592036146E+03 -0.49924283912E+03 -0.60745874812E+03  0.79339061380E+03  0.00000000000E+00 0. -1.
         -1    1    3    3    0  502 -0.31222595151E+01 -0.12211310183E+03 -0.18717259528E+03  0.22350601461E+03  0.00000000000E+00 0.  1.
         11    1    5    5    0    0 -0.16577546179E+02  0.95035953631E+02  0.17948128419E+03  0.20376500900E+03  0.00000000000E+00 0. -1.
        -11    1    5    5    0    0  0.82500901721E+02  0.61943009572E+03  0.89152991221E+03  0.10887266078E+04  0.00000000000E+00 0.  1.
          3    1    6    6  503    0 -0.86557992833E+02 -0.28539615070E+02 -0.61686985641E+02  0.11005489516E+03  0.00000000000E+00 0. -1.
         -3    1    6    6    0  503 -0.82163464654E+02 -0.64570493333E+02  0.22316300414E+02  0.10685598157E+03  0.00000000000E+00 0.  1.
<mgrwt>
<rscale>  0 0.25151568E+04</rscale>
<asrwt>0</asrwt>
<pdfrwt beam="1">  1        2 0.17609923E+00 0.25151568E+04</pdfrwt>
<pdfrwt beam="2">  1       -1 0.21256218E+00 0.25151568E+04</pdfrwt>
<totfact> 0.25651029E+00</totfact>
</mgrwt>
</event>
<event>
12    6  0.1530859E-007  0.1900542E+04  0.7818608E-02  0.8654587E-01
         -1   -1    0    0    0  501 -0.00000000000E+00  0.00000000000E+00  0.49041082208E+03  0.49041082208E+03  0.00000000000E+00 0.  1.
          2   -1    0    0  501    0  0.00000000000E+00 -0.00000000000E+00 -0.18413437478E+04  0.18413437478E+04  0.00000000000E+00 0. -1.
         24    2    1    2    0    0  0.32950574922E+03 -0.46336925867E+03  0.45182199881E+02  0.57597849044E+03  0.80154111680E+02 0.  0.
        254    2    1    2    0    0 -0.32950574922E+03  0.46336925867E+03 -0.13961151256E+04  0.17557760794E+04  0.90018169749E+03 0.  0.
         23    2    4    4    0    0 -0.55150963872E+03  0.48891576868E+03 -0.12984139065E+04  0.14956524193E+04  0.88859307221E+02 0.  0.
         23    2    4    4    0    0  0.22200388950E+03 -0.25546510012E+02 -0.97701219084E+02  0.26012366005E+03  0.90445780334E+02 0.  0.
          4    1    3    3  502    0  0.71488372866E+02 -0.14694045303E+03 -0.11314062317E+02  0.16379893833E+03  0.00000000000E+00 0. -1.
         -1    1    3    3    0  502  0.25801737635E+03 -0.31642880563E+03  0.56496262198E+02  0.41217955211E+03  0.00000000000E+00 0.  1.
         11    1    5    5    0    0 -0.22485081538E+03  0.24439663516E+03 -0.64054379196E+03  0.72151504064E+03  0.00000000000E+00 0. -1.
        -11    1    5    5    0    0 -0.32665882334E+03  0.24451913352E+03 -0.65787011452E+03  0.77413737870E+03  0.00000000000E+00 0.  1.
          3    1    6    6  503    0  0.11574228422E+03 -0.52102250637E+02 -0.77583102138E+02  0.14876175119E+03  0.00000000000E+00 0. -1.
         -3    1    6    6    0  503  0.10626160528E+03  0.26555740625E+02 -0.20118116946E+02  0.11136190887E+03  0.00000000000E+00 0.  1.
<mgrwt>
<rscale>  0 0.19005419E+04</rscale>
<asrwt>0</asrwt>
<pdfrwt beam="1">  1        2 0.28328365E+00 0.19005419E+04</pdfrwt>
<pdfrwt beam="2">  1       -1 0.75447819E-01 0.19005419E+04</pdfrwt>
<totfact> 0.15412657E+01</totfact>
</mgrwt>
</event>
<event>
12    6  0.1530859E-007  0.1737195E+04  0.7818608E-02  0.8740430E-01
         -1   -1    0    0    0  501 -0.00000000000E+00  0.00000000000E+00  0.91704153741E+03  0.91704153741E+03  0.00000000000E+00 0.  1.
          2   -1    0    0  501    0  0.00000000000E+00 -0.00000000000E+00 -0.82271254303E+03  0.82271254303E+03  0.00000000000E+00 0. -1.
         24    2    1    2    0    0  0.12798974821E+03 -0.32661550632E+03  0.56613426919E+03  0.67074010782E+03  0.79531232071E+02 0.  0.
        254    2    1    2    0    0 -0.12798974821E+03  0.32661550632E+03 -0.47180527481E+03  0.10690139726E+04  0.89282226210E+03 0.  0.
         23    2    4    4    0    0 -0.26309132195E+02  0.29821452208E+01 -0.66342456886E+03  0.67014192743E+03  0.90867930065E+02 0.  0.
         23    2    4    4    0    0 -0.10168061602E+03  0.32363336110E+03  0.19161929405E+03  0.39887204519E+03  0.85460250935E+02 0.  0.
          4    1    3    3  502    0 -0.93351731821E+01 -0.30348730858E+02  0.35029780125E+02  0.47278709994E+02  0.00000000000E+00 0. -1.
         -3    1    3    3    0  502  0.13732492139E+03 -0.29626677546E+03  0.53110448906E+03  0.62346139783E+03  0.00000000000E+00 0.  1.
         11    1    5    5    0    0  0.11373470596E+02 -0.20127828872E+02 -0.50874084223E+03  0.50926587347E+03  0.00000000000E+00 0. -1.
        -11    1    5    5    0    0 -0.37682602791E+02  0.23109974093E+02 -0.15468372663E+03  0.16087605397E+03  0.00000000000E+00 0.  1.
          4    1    6    6  503    0 -0.77882964687E+02  0.22893950457E+03  0.17803681054E+03  0.30029345456E+03  0.00000000000E+00 0. -1.
         -4    1    6    6    0  503 -0.23797651329E+02  0.94693856527E+02  0.13582483513E+02  0.98578590633E+02  0.00000000000E+00 0.  1.
<mgrwt>
<rscale>  0 0.17371950E+04</rscale>
<asrwt>0</asrwt>
<pdfrwt beam="1">  1        2 0.12657116E+00 0.17371950E+04</pdfrwt>
<pdfrwt beam="2">  1       -1 0.14108331E+00 0.17371950E+04</pdfrwt>
<totfact> 0.14760977E+01</totfact>
</mgrwt>
</event>
<event>
12    6  0.1530859E-007  0.2277529E+04  0.7818608E-02  0.8486834E-01
         -1   -1    0    0    0  501 -0.00000000000E+00  0.00000000000E+00  0.43803300456E+03  0.43803300456E+03  0.00000000000E+00 0.  1.
          2   -1    0    0  501    0  0.00000000000E+00 -0.00000000000E+00 -0.29604733012E+04  0.29604733012E+04  0.00000000000E+00 0. -1.
         24    2    1    2    0    0 -0.75977113379E+03 -0.53035944632E+03 -0.17165736111E+04  0.19523119013E+04  0.79771421692E+02 0.  0.
        254    2    1    2    0    0  0.75977113379E+03  0.53035944632E+03 -0.80586668559E+03  0.14461944045E+04  0.76388731012E+03 0.  0.
         23    2    4    4    0    0  0.67664934954E+03  0.42637111787E+03 -0.93916632868E+03  0.12369244835E+04  0.91115929185E+02 0.  0.
         23    2    4    4    0    0  0.83121784249E+02  0.10398832844E+03  0.13329964309E+03  0.20926992098E+03  0.91116966100E+02 0.  0.
          2    1    3    3  502    0 -0.60056553831E+03 -0.37853675667E+03 -0.12983111160E+04  0.14797232160E+04  0.00000000000E+00 0. -1.
         -1    1    3    3    0  502 -0.15920559548E+03 -0.15182268965E+03 -0.41826249504E+03  0.47258868531E+03  0.00000000000E+00 0.  1.
         11    1    5    5    0    0  0.17884514308E+02  0.68419358526E+01 -0.49542936645E+02  0.53114692032E+02  0.00000000000E+00 0.  1.
        -11    1    5    5    0    0  0.65876483523E+03  0.41952918202E+03 -0.88962339204E+03  0.11838097915E+04  0.00000000000E+00 0. -1.
          3    1    6    6  503    0  0.58236824258E+01  0.32086329613E+02  0.88993202592E+02  0.94779944781E+02  0.00000000000E+00 0. -1.
         -3    1    6    6    0  503  0.77298101824E+02  0.71901998830E+02  0.44306440497E+02  0.11448997620E+03  0.00000000000E+00 0.  1.
<mgrwt>
<rscale>  0 0.22775294E+04</rscale>
<asrwt>0</asrwt>
<pdfrwt beam="1">  1        2 0.45545744E+00 0.22775294E+04</pdfrwt>
<pdfrwt beam="2">  1       -1 0.67389692E-01 0.22775294E+04</pdfrwt>
<totfact> 0.42508868E+00</totfact>
</mgrwt>
</event>
<event>
12    6  0.1530859E-007  0.1209749E+04  0.7818608E-02  0.9104366E-01
          2   -1    0    0  501    0  0.00000000000E+00  0.00000000000E+00  0.51648458081E+03  0.51648458081E+03  0.00000000000E+00 0. -1.
         -1   -1    0    0    0  501 -0.00000000000E+00 -0.00000000000E+00 -0.70839091284E+03  0.70839091284E+03  0.00000000000E+00 0.  1.
         24    2    1    2    0    0  0.22089519910E+03  0.12734605234E+03  0.63227212137E+02  0.27738052929E+03  0.89053757028E+02 0.  0.
        254    2    1    2    0    0 -0.22089519910E+03 -0.12734605234E+03 -0.25513354417E+03  0.94749496437E+03  0.87615174263E+03 0.  0.
         23    2    4    4    0    0 -0.11959195576E+03 -0.40144435537E+03  0.13715229116E+03  0.45011509054E+03  0.91285472155E+02 0.  0.
         23    2    4    4    0    0 -0.10130324334E+03  0.27409830302E+03 -0.39228583533E+03  0.49737987383E+03  0.90035190080E+02 0.  0.
          2    1    3    3  502    0  0.19103760129E+03  0.10229861112E+03  0.17662139187E+02  0.21742199085E+03  0.00000000000E+00 0. -1.
         -1    1    3    3    0  502  0.29857597807E+02  0.25047441218E+02  0.45565072950E+02  0.59958538436E+02  0.00000000000E+00 0.  1.
         11    1    5    5    0    0 -0.11400243658E+03 -0.27566038631E+03  0.12563625565E+03  0.32368143731E+03  0.00000000000E+00 0. -1.
        -11    1    5    5    0    0 -0.55895191791E+01 -0.12578396905E+03  0.11516035519E+02  0.12643365323E+03  0.00000000000E+00 0.  1.
          2    1    6    6  503    0 -0.10623074815E+03  0.24977319940E+03 -0.38582499799E+03  0.47173356047E+03  0.00000000000E+00 0. -1.
         -2    1    6    6    0  503  0.49275048149E+01  0.24325103621E+02 -0.64608373407E+01  0.25646313361E+02  0.00000000000E+00 0.  1.
<mgrwt>
<rscale>  0 0.12097487E+04</rscale>
<asrwt>0</asrwt>
<pdfrwt beam="1">  1        2 0.79459167E-01 0.12097487E+04</pdfrwt>
<pdfrwt beam="2">  1       -1 0.10898322E+00 0.12097487E+04</pdfrwt>
<totfact> 0.52180968E+01</totfact>
</mgrwt>
</event>
<event>
12    6  0.1530859E-007  0.1782531E+04  0.7818608E-02  0.8715645E-01
          2   -1    0    0  501    0  0.00000000000E+00  0.00000000000E+00  0.10897752998E+04  0.10897752998E+04  0.00000000000E+00 0. -1.
         -1   -1    0    0    0  501 -0.00000000000E+00 -0.00000000000E+00 -0.72891564219E+03  0.72891564219E+03  0.00000000000E+00 0.  1.
         24    2    1    2    0    0  0.30868120654E+03  0.53546796972E+03 -0.75163028617E+02  0.62783285879E+03  0.80712971978E+02 0.  0.
        254    2    1    2    0    0 -0.30868120654E+03 -0.53546796972E+03  0.43602268622E+03  0.11908580832E+04  0.91979190992E+03 0.  0.
         23    2    4    4    0    0 -0.39263963088E+03 -0.75060429542E+03  0.39648453768E+03  0.93974360556E+03  0.91352983130E+02 0.  0.
         23    2    4    4    0    0  0.83958424338E+02  0.21513632571E+03  0.39538148542E+02  0.25111447763E+03  0.90346887226E+02 0.  0.
          2    1    3    3  502    0  0.40301435721E+02  0.60249736256E+02  0.16713088980E+02  0.74387927672E+02  0.00000000000E+00 0. -1.
         -1    1    3    3    0  502  0.26837977082E+03  0.47521823346E+03 -0.91876117597E+02  0.55344493112E+03  0.00000000000E+00 0.  1.
         11    1    5    5    0    0 -0.14394526451E+02 -0.83244066057E+02  0.48435877099E+02  0.97379726410E+02  0.00000000000E+00 0. -1.
        -11    1    5    5    0    0 -0.37824510443E+03 -0.66736022937E+03  0.34804866058E+03  0.84236387915E+03  0.00000000000E+00 0.  1.
          4    1    6    6  503    0  0.12958311014E+02  0.51101094413E+01 -0.17330349696E+02  0.22234479157E+02  0.00000000000E+00 0. -1.
         -4    1    6    6    0  503  0.71000113324E+02  0.21002621627E+03  0.56868498238E+02  0.22887999848E+03  0.00000000000E+00 0.  1.
<mgrwt>
<rscale>  0 0.17825311E+04</rscale>
<asrwt>0</asrwt>
<pdfrwt beam="1">  1        2 0.16765774E+00 0.17825311E+04</pdfrwt>
<pdfrwt beam="2">  1       -1 0.11214087E+00 0.17825311E+04</pdfrwt>
<totfact> 0.17380025E+01</totfact>
</mgrwt>
</event>
<event>
12    6  0.1530859E-007  0.1487694E+04  0.7818608E-02  0.8892677E-01
          4   -1    0    0  501    0  0.00000000000E+00  0.00000000000E+00  0.17018357636E+04  0.17018357636E+04  0.00000000000E+00 0. -1.
         -3   -1    0    0    0  501 -0.00000000000E+00 -0.00000000000E+00 -0.32512459522E+03  0.32512459522E+03  0.00000000000E+00 0.  1.
         24    2    1    2    0    0 -0.54595752678E+02 -0.34758027423E+03  0.86315659050E+03  0.93575705570E+03  0.82518024236E+02 0.  0.
        254    2    1    2    0    0  0.54595752678E+02  0.34758027423E+03  0.51355457788E+03  0.10912033031E+04  0.89621069009E+03 0.  0.
         23    2    4    4    0    0  0.45826424280E+03  0.97491864849E+02  0.21926346354E+03  0.52515557552E+03  0.90560102232E+02 0.  0.
         23    2    4    4    0    0 -0.40366849012E+03  0.25008840938E+03  0.29429111434E+03  0.56604772760E+03  0.91160888078E+02 0.  0.
          4    1    3    3  502    0 -0.11606327332E+02 -0.19705384928E+03  0.57325599410E+03  0.60628983260E+03  0.00000000000E+00 0. -1.
         -3    1    3    3    0  502 -0.42989425346E+02 -0.15052642495E+03  0.28990059640E+03  0.32946722310E+03  0.00000000000E+00 0.  1.
         11    1    5    5    0    0  0.24359371245E+03  0.71623435517E+02  0.16303019895E+03  0.30173938926E+03  0.00000000000E+00 0.  1.
        -11    1    5    5    0    0  0.21467053035E+03  0.25868429332E+02  0.56233264583E+02  0.22341618626E+03  0.00000000000E+00 0. -1.
          3    1    6    6  503    0 -0.94349268611E+02  0.49665753574E+02  0.11277973135E+03  0.15520225310E+03  0.00000000000E+00 0. -1.
         -3    1    6    6    0  503 -0.30931922151E+03  0.20042265581E+03  0.18151138299E+03  0.41084547449E+03  0.00000000000E+00 0.  1.
<mgrwt>
<rscale>  0 0.14876944E+04</rscale>
<asrwt>0</asrwt>
<pdfrwt beam="1">  1        4 0.26182088E+00 0.14876944E+04</pdfrwt>
<pdfrwt beam="2">  1       -3 0.50019170E-01 0.14876944E+04</pdfrwt>
<totfact> 0.46872052E-01</totfact>
</mgrwt>
</event>
<event>
12    6  0.1530859E-007  0.2479690E+04  0.7818608E-02  0.8410257E-01
         -1   -1    0    0    0  501 -0.00000000000E+00  0.00000000000E+00  0.40581976842E+03  0.40581976842E+03  0.00000000000E+00 0.  1.
          2   -1    0    0  501    0  0.00000000000E+00 -0.00000000000E+00 -0.37879275781E+04  0.37879275781E+04  0.00000000000E+00 0. -1.
         24    2    1    2    0    0 -0.62829544261E+03 -0.81959760573E+03 -0.21539596320E+04  0.23900435378E+04  0.79187233682E+02 0.  0.
        254    2    1    2    0    0  0.62829544261E+03  0.81959760573E+03 -0.12281481777E+04  0.18037038087E+04  0.82371359381E+03 0.  0.
         23    2    4    4    0    0  0.39179182955E+03  0.95318884146E+03 -0.93614746137E+03  0.13953227863E+04  0.92107564689E+02 0.  0.
         23    2    4    4    0    0  0.23650361306E+03 -0.13359123573E+03 -0.29200071633E+03  0.40838102237E+03  0.87920781594E+02 0.  0.
          2    1    3    3  502    0 -0.48609198451E+03 -0.68130904436E+03 -0.17130368371E+04  0.19065577978E+04  0.00000000000E+00 0. -1.
         -3    1    3    3    0  502 -0.14220345810E+03 -0.13828856137E+03 -0.44092279492E+03  0.48348574000E+03  0.00000000000E+00 0.  1.
         11    1    5    5    0    0  0.29424315116E+03  0.68489546322E+03 -0.72870461111E+03  0.10424352439E+04  0.00000000000E+00 0.  1.
        -11    1    5    5    0    0  0.97548678386E+02  0.26829337824E+03 -0.20744285026E+03  0.35288754241E+03  0.00000000000E+00 0. -1.
          2    1    6    6  503    0  0.60113521357E+02 -0.32370966952E+02 -0.13562821639E+03  0.15184376191E+03  0.00000000000E+00 0. -1.
         -2    1    6    6    0  503  0.17639009170E+03 -0.10122026878E+03 -0.15637249995E+03  0.25653726046E+03  0.00000000000E+00 0.  1.
<mgrwt>
<rscale>  0 0.24796902E+04</rscale>
<asrwt>0</asrwt>
<pdfrwt beam="1">  1        2 0.58275808E+00 0.24796902E+04</pdfrwt>
<pdfrwt beam="2">  1       -1 0.62433812E-01 0.24796902E+04</pdfrwt>
<totfact> 0.13295890E+00</totfact>
</mgrwt>
</event>
<event>
12    6  0.1530859E-007  0.1823827E+04  0.7818608E-02  0.8693730E-01
         -1   -1    0    0    0  501 -0.00000000000E+00  0.00000000000E+00  0.15216897698E+04  0.15216897698E+04  0.00000000000E+00 0.  1.
          2   -1    0    0  501    0  0.00000000000E+00 -0.00000000000E+00 -0.54648866612E+03  0.54648866612E+03  0.00000000000E+00 0. -1.
         24    2    1    2    0    0 -0.36796290356E+03  0.51876627817E+03  0.68243547727E+03  0.93623527213E+03  0.79392407548E+02 0.  0.
        254    2    1    2    0    0  0.36796290356E+03 -0.51876627817E+03  0.29276562646E+03  0.11319431638E+04  0.88942029680E+03 0.  0.
         23    2    4    4    0    0  0.26762175126E+03 -0.44406112555E+02 -0.26283592260E+03  0.38883714181E+03  0.92294615582E+02 0.  0.
         23    2    4    4    0    0  0.10034115230E+03 -0.47436016562E+03  0.55560154906E+03  0.74310602203E+03  0.91801770619E+02 0.  0.
          4    1    3    3  502    0 -0.15059793785E+02  0.21730228295E+02  0.91049169111E+01  0.27962469894E+02  0.00000000000E+00 0. -1.
         -3    1    3    3    0  502 -0.35290310977E+03  0.49703604988E+03  0.67333056036E+03  0.90827280223E+03  0.00000000000E+00 0.  1.
         11    1    5    5    0    0  0.14998718513E+03 -0.70024777546E+02 -0.16480708511E+03  0.23358296272E+03  0.00000000000E+00 0. -1.
        -11    1    5    5    0    0  0.11763456613E+03  0.25618664991E+02 -0.98028837491E+02  0.15525417909E+03  0.00000000000E+00 0.  1.
          3    1    6    6  503    0 -0.29545366852E+01 -0.40447053403E+02  0.17483893369E+02  0.44163106133E+02  0.00000000000E+00 0. -1.
         -3    1    6    6    0  503  0.10329568898E+03 -0.43391311222E+03  0.53811765569E+03  0.69894291590E+03  0.00000000000E+00 0.  1.
<mgrwt>
<rscale>  0 0.18238270E+04</rscale>
<asrwt>0</asrwt>
<pdfrwt beam="1">  1        2 0.84075180E-01 0.18238270E+04</pdfrwt>
<pdfrwt beam="2">  1       -1 0.23410612E+00 0.18238270E+04</pdfrwt>
<totfact> 0.52942289E+00</totfact>
</mgrwt>
</event>
<event>
12    6  0.1530859E-007  0.2164941E+04  0.7818608E-02  0.8533164E-01
         -1   -1    0    0    0  501 -0.00000000000E+00  0.00000000000E+00  0.50980479284E+03  0.50980479284E+03  0.00000000000E+00 0.  1.
          2   -1    0    0  501    0  0.00000000000E+00 -0.00000000000E+00 -0.22984134761E+04  0.22984134761E+04  0.00000000000E+00 0. -1.
         24    2    1    2    0    0  0.23039461318E+02  0.74880995552E+02  0.41196735707E+03  0.42631610821E+03  0.76748554070E+02 0.  0.
        254    2    1    2    0    0 -0.23039461318E+02 -0.74880995552E+02 -0.22005760404E+04  0.23819021608E+04  0.90817675250E+03 0.  0.
         23    2    4    4    0    0 -0.32400032594E+02 -0.39034639128E+02  0.58712067595E+02  0.12050116637E+03  0.92195222500E+02 0.  0.
         23    2    4    4    0    0  0.93605712759E+01 -0.35846356424E+02 -0.22592881080E+04  0.22614009944E+04  0.90438493641E+02 0.  0.
          4    1    3    3  502    0 -0.12538322453E+02 -0.96411492714E+01  0.35912836772E+02  0.39241472121E+02  0.00000000000E+00 0. -1.
         -3    1    3    3    0  502  0.35577783771E+02  0.84522144823E+02  0.37605452030E+03  0.38707463609E+03  0.00000000000E+00 0.  1.
         11    1    5    5    0    0 -0.63952899995E+02 -0.18000281354E+02  0.29798105527E+02  0.72814220037E+02  0.00000000000E+00 0.  1.
        -11    1    5    5    0    0  0.31552867402E+02 -0.21034357775E+02  0.28913962069E+02  0.47686946335E+02  0.00000000000E+00 0. -1.
          1    1    6    6  503    0 -0.35799544765E+02 -0.35490729664E+02 -0.95285378716E+03  0.95418632300E+03  0.00000000000E+00 0. -1.
         -1    1    6    6    0  503  0.45160116041E+02 -0.35562675977E+00 -0.13064343208E+04  0.13072146714E+04  0.00000000000E+00 0.  1.
<mgrwt>
<rscale>  0 0.21649408E+04</rscale>
<asrwt>0</asrwt>
<pdfrwt beam="1">  1        2 0.35360207E+00 0.21649408E+04</pdfrwt>
<pdfrwt beam="2">  1       -1 0.78431507E-01 0.21649408E+04</pdfrwt>
<totfact> 0.77110480E+00</totfact>
</mgrwt>
</event>
<event>
12    6  0.1530859E-007  0.2212073E+04  0.7818608E-02  0.8513420E-01
         -1   -1    0    0    0  501 -0.00000000000E+00  0.00000000000E+00  0.13045244679E+04  0.13045244679E+04  0.00000000000E+00 0.  1.
          2   -1    0    0  501    0  0.00000000000E+00 -0.00000000000E+00 -0.93774927624E+03  0.93774927624E+03  0.00000000000E+00 0. -1.
         24    2    1    2    0    0 -0.18898089292E+03 -0.89240788041E+03  0.17270287135E+02  0.91575035405E+03  0.78707339036E+02 0.  0.
        254    2    1    2    0    0  0.18898089292E+03  0.89240788041E+03  0.34950490455E+03  0.13265233901E+04  0.89744360452E+03 0.  0.
         23    2    4    4    0    0  0.30785196604E+02 -0.51994724366E+02 -0.19272498859E+03  0.22203482029E+03  0.92224511400E+02 0.  0.
         23    2    4    4    0    0  0.15819569631E+03  0.94440260477E+03  0.54222989313E+03  0.11044885698E+04  0.94655087607E+02 0.  0.
          2    1    3    3  502    0 -0.10464046815E+03 -0.50248807786E+03 -0.29304763699E+02  0.51410374939E+03  0.00000000000E+00 0. -1.
         -1    1    3    3    0  502 -0.84340424772E+02 -0.38991980255E+03  0.46575050834E+02  0.40164660466E+03  0.00000000000E+00 0.  1.
         11    1    5    5    0    0  0.61299543919E+02 -0.16617681137E+02 -0.10866746916E+03  0.12586659709E+03  0.00000000000E+00 0. -1.
        -11    1    5    5    0    0 -0.30514347315E+02 -0.35377043229E+02 -0.84057519431E+02  0.96168223195E+02  0.00000000000E+00 0.  1.
          3    1    6    6  503    0  0.33564945010E+02  0.26801438448E+03  0.20119120035E+03  0.33680293188E+03  0.00000000000E+00 0. -1.
         -3    1    6    6    0  503  0.12463075130E+03  0.67638822030E+03  0.34103869278E+03  0.76768563794E+03  0.00000000000E+00 0.  1.
<mgrwt>
<rscale>  0 0.22120731E+04</rscale>
<asrwt>0</asrwt>
<pdfrwt beam="1">  1        2 0.14426912E+00 0.22120731E+04</pdfrwt>
<pdfrwt beam="2">  1       -1 0.20069607E+00 0.22120731E+04</pdfrwt>
<totfact> 0.42880737E+00</totfact>
</mgrwt>
</event>
<event>
12    6  0.1530859E-007  0.1954299E+04  0.7818608E-02  0.8628291E-01
          2   -1    0    0  501    0  0.00000000000E+00  0.00000000000E+00  0.60803655572E+03  0.60803655572E+03  0.00000000000E+00 0. -1.
         -1   -1    0    0    0  501 -0.00000000000E+00 -0.00000000000E+00 -0.15703347151E+04  0.15703347151E+04  0.00000000000E+00 0.  1.
         24    2    1    2    0    0 -0.75785863858E+03 -0.15591581649E+03 -0.35826281537E+03  0.85634449697E+03  0.79461907254E+02 0.  0.
        254    2    1    2    0    0  0.75785863858E+03  0.15591581649E+03 -0.60403534400E+03  0.13220267738E+04  0.88557136134E+03 0.  0.
         23    2    4    4    0    0  0.23702369887E+02 -0.29371338339E+03 -0.12675675512E+03  0.33340110955E+03  0.90882731907E+02 0.  0.
         23    2    4    4    0    0  0.73415626870E+03  0.44962919988E+03 -0.47727858888E+03  0.98862566429E+03  0.91836857699E+02 0.  0.
          4    1    3    3  502    0 -0.15186343474E+03 -0.50569043518E+02 -0.10336323620E+03  0.19053527120E+03  0.00000000000E+00 0. -1.
         -3    1    3    3    0  502 -0.60599520385E+03 -0.10534677298E+03 -0.25489957916E+03  0.66580922577E+03  0.00000000000E+00 0.  1.
         11    1    5    5    0    0  0.44548712291E+02 -0.12064782782E+03 -0.84976183355E+02  0.15414745493E+03  0.00000000000E+00 0.  1.
        -11    1    5    5    0    0 -0.20846342404E+02 -0.17306555557E+03 -0.41780571765E+02  0.17925365461E+03  0.00000000000E+00 0. -1.
          1    1    6    6  503    0  0.59736554858E+03  0.37452745140E+03 -0.42879586908E+03  0.82521652178E+03  0.00000000000E+00 0. -1.
         -1    1    6    6    0  503  0.13679072012E+03  0.75101748480E+02 -0.48482719799E+02  0.16340914250E+03  0.00000000000E+00 0.  1.
<mgrwt>
<rscale>  0 0.19542988E+04</rscale>
<asrwt>0</asrwt>
<pdfrwt beam="1">  1        2 0.93544086E-01 0.19542988E+04</pdfrwt>
<pdfrwt beam="2">  1       -1 0.24158995E+00 0.19542988E+04</pdfrwt>
<totfact> 0.41129474E+00</totfact>
</mgrwt>
</event>
<event>
12    6  0.1890873E-007  0.2423937E+04  0.7818608E-02  0.8430596E-01
          2   -1    0    0  501    0  0.00000000000E+00  0.00000000000E+00  0.12086280720E+04  0.12086280720E+04  0.00000000000E+00 0. -1.
         -1   -1    0    0    0  501 -0.00000000000E+00 -0.00000000000E+00 -0.12153181539E+04  0.12153181539E+04  0.00000000000E+00 0.  1.
         24    2    1    2    0    0 -0.92754219115E+02  0.57145771335E+03  0.86712285165E+03  0.10459319472E+04  0.83092328236E+02 0.  0.
        254    2    1    2    0    0  0.92754219115E+02 -0.57145771335E+03 -0.87381293355E+03  0.13780142788E+04  0.89454292597E+03 0.  0.
         23    2    4    4    0    0  0.33801066568E+03 -0.56862517182E+03 -0.27151102042E+03  0.72073665124E+03  0.90317717481E+02 0.  0.
         23    2    4    4    0    0 -0.24525644657E+03 -0.28325415372E+01 -0.60230191313E+03  0.65727762755E+03  0.95328575170E+02 0.  0.
          2    1    3    3  502    0 -0.74405618580E+02  0.46914121234E+03  0.76318973643E+03  0.89893728757E+03  0.00000000000E+00 0. -1.
         -1    1    3    3    0  502 -0.18348600534E+02  0.10231650102E+03  0.10393311522E+03  0.14699465964E+03  0.00000000000E+00 0.  1.
         11    1    5    5    0    0  0.31787744889E+03 -0.49380295058E+03 -0.21735590778E+03  0.62620365471E+03  0.00000000000E+00 0.  1.
        -11    1    5    5    0    0  0.20133216791E+02 -0.74822221232E+02 -0.54155112642E+02  0.94532996534E+02  0.00000000000E+00 0. -1.
          1    1    6    6  503    0 -0.15527170504E+03 -0.11810402019E+02 -0.48360042420E+03  0.50805330259E+03  0.00000000000E+00 0.  1.
         -1    1    6    6    0  503 -0.89984741531E+02  0.89778604821E+01 -0.11870148893E+03  0.14922432496E+03  0.00000000000E+00 0. -1.
<mgrwt>
<rscale>  0 0.24239370E+04</rscale>
<asrwt>0</asrwt>
<pdfrwt beam="1">  1        2 0.18594278E+00 0.24239370E+04</pdfrwt>
<pdfrwt beam="2">  1       -1 0.18697202E+00 0.24239370E+04</pdfrwt>
<totfact> 0.35534996E+00</totfact>
</mgrwt>
</event>
<event>
12    6  0.1530859E-007  0.1857585E+04  0.7818608E-02  0.8676262E-01
          2   -1    0    0  501    0  0.00000000000E+00  0.00000000000E+00  0.72563134977E+03  0.72563134977E+03  0.00000000000E+00 0. -1.
         -1   -1    0    0    0  501 -0.00000000000E+00 -0.00000000000E+00 -0.11888342977E+04  0.11888342977E+04  0.00000000000E+00 0.  1.
         24    2    1    2    0    0  0.42401485140E+03  0.13784930708E+03 -0.74603349352E+03  0.87261620790E+03  0.78115601346E+02 0.  0.
        254    2    1    2    0    0 -0.42401485140E+03 -0.13784930708E+03  0.28283054562E+03  0.10418494395E+04  0.89814592994E+03 0.  0.
         23    2    4    4    0    0 -0.35157264162E+03  0.22772628976E+03 -0.15911183852E+03  0.45721146129E+03  0.90901913029E+02 0.  0.
         23    2    4    4    0    0 -0.72442209775E+02 -0.36557559684E+03  0.44194238414E+03  0.58463797825E+03  0.87149893568E+02 0.  0.
          4    1    3    3  502    0  0.15714528845E+03  0.51844070855E+02 -0.20692790704E+03  0.26495586062E+03  0.00000000000E+00 0. -1.
         -3    1    3    3    0  502  0.26686956295E+03  0.86005236229E+02 -0.53910558648E+03  0.60766034728E+03  0.00000000000E+00 0.  1.
         11    1    5    5    0    0 -0.20658825126E+03  0.11801761193E+03 -0.13568824173E+03  0.27389443446E+03  0.00000000000E+00 0. -1.
        -11    1    5    5    0    0 -0.14498439036E+03  0.10970867783E+03 -0.23423596796E+02  0.18331702683E+03  0.00000000000E+00 0.  1.
          1    1    6    6  503    0 -0.42207467271E+02 -0.30927141820E+03  0.40320306869E+03  0.50990488820E+03  0.00000000000E+00 0. -1.
         -1    1    6    6    0  503 -0.30234742504E+02 -0.56304178645E+02  0.38739315450E+02  0.74733090052E+02  0.00000000000E+00 0.  1.
<mgrwt>
<rscale>  0 0.18575849E+04</rscale>
<asrwt>0</asrwt>
<pdfrwt beam="1">  1        2 0.11163559E+00 0.18575849E+04</pdfrwt>
<pdfrwt beam="2">  1       -1 0.18289758E+00 0.18575849E+04</pdfrwt>
<totfact> 0.83292480E+00</totfact>
</mgrwt>
</event>
<event>
12    6  0.1530859E-007  0.3264583E+04  0.7818608E-02  0.8171966E-01
         -1   -1    0    0    0  501 -0.00000000000E+00  0.00000000000E+00  0.10688637933E+04  0.10688637933E+04  0.00000000000E+00 0.  1.
          2   -1    0    0  501    0  0.00000000000E+00 -0.00000000000E+00 -0.24927178745E+04  0.24927178745E+04  0.00000000000E+00 0. -1.
         24    2    1    2    0    0 -0.23977158103E+03  0.12990390008E+04  0.13431871774E+03  0.13300408736E+04  0.77294700413E+02 0.  0.
        254    2    1    2    0    0  0.23977158103E+03 -0.12990390008E+04 -0.15581727990E+04  0.22315407942E+04  0.89826449771E+03 0.  0.
         23    2    4    4    0    0  0.14401359201E+02 -0.12104073072E+04 -0.86117554023E+03  0.14883793262E+04  0.91413669113E+02 0.  0.
         23    2    4    4    0    0  0.22537022183E+03 -0.88631693600E+02 -0.69699725876E+03  0.74316146802E+03  0.88523865898E+02 0.  0.
          4    1    3    3  502    0 -0.38057987737E+02  0.24243225340E+03 -0.44263084901E+01  0.24544123559E+03  0.00000000000E+00 0. -1.
         -3    1    3    3    0  502 -0.20171359329E+03  0.10566067474E+04  0.13874502623E+03  0.10845996380E+04  0.00000000000E+00 0.  1.
         11    1    5    5    0    0 -0.30762707756E+02 -0.69297747921E+03 -0.52043368210E+03  0.86718818508E+03  0.00000000000E+00 0.  1.
        -11    1    5    5    0    0  0.45164066957E+02 -0.51742982804E+03 -0.34074185812E+03  0.62119114109E+03  0.00000000000E+00 0. -1.
          1    1    6    6  503    0 -0.15207478874E+01 -0.20873226116E+02 -0.50593621434E+02  0.54751427127E+02  0.00000000000E+00 0. -1.
         -1    1    6    6    0  503  0.22689096971E+03 -0.67758467484E+02 -0.64640363733E+03  0.68841004089E+03  0.00000000000E+00 0.  1.
<mgrwt>
<rscale>  0 0.32645832E+04</rscale>
<asrwt>0</asrwt>
<pdfrwt beam="1">  1        2 0.38349506E+00 0.32645832E+04</pdfrwt>
<pdfrwt beam="2">  1       -1 0.16444058E+00 0.32645832E+04</pdfrwt>
<totfact> 0.90521061E-01</totfact>
</mgrwt>
</event>
<event>
12    6  0.1530859E-007  0.3369562E+04  0.7818608E-02  0.8145418E-01
         -1   -1    0    0    0  501 -0.00000000000E+00  0.00000000000E+00  0.15112697400E+04  0.15112697400E+04  0.00000000000E+00 0.  1.
          2   -1    0    0  501    0  0.00000000000E+00 -0.00000000000E+00 -0.18782129737E+04  0.18782129737E+04  0.00000000000E+00 0. -1.
         24    2    1    2    0    0 -0.13161381868E+02 -0.12399493286E+04  0.78639343229E+03  0.14706919140E+04  0.82900640054E+02 0.  0.
        254    2    1    2    0    0  0.13161381868E+02  0.12399493286E+04 -0.11533366660E+04  0.19187907997E+04  0.90217798037E+03 0.  0.
         23    2    4    4    0    0 -0.40799808333E+03  0.80337739930E+03 -0.55750327440E+03  0.10635160485E+04  0.91535799875E+02 0.  0.
         23    2    4    4    0    0  0.42115946519E+03  0.43657192928E+03 -0.59583339163E+03  0.85527475121E+03  0.92234076759E+02 0.  0.
          4    1    3    3  502    0  0.12235407155E+02 -0.18077591881E+03  0.85420905863E+02  0.20031567379E+03  0.00000000000E+00 0. -1.
         -3    1    3    3    0  502 -0.25396789023E+02 -0.10591734098E+04  0.70097252643E+03  0.12703762402E+04  0.00000000000E+00 0.  1.
         11    1    5    5    0    0 -0.80315662720E+01  0.66435236268E+02 -0.48227553156E+02  0.82486626542E+02  0.00000000000E+00 0. -1.
        -11    1    5    5    0    0 -0.39996651705E+03  0.73694216303E+03 -0.50927572124E+03  0.98102942191E+03  0.00000000000E+00 0.  1.
          3    1    6    6  503    0  0.57894937326E+02  0.61818300366E+02 -0.42969007564E+02  0.94971899208E+02  0.00000000000E+00 0. -1.
         -3    1    6    6    0  503  0.36326452787E+03  0.37475362891E+03 -0.55286438407E+03  0.76030285200E+03  0.00000000000E+00 0.  1.
<mgrwt>
<rscale>  0 0.33695617E+04</rscale>
<asrwt>0</asrwt>
<pdfrwt beam="1">  1        2 0.28895584E+00 0.33695617E+04</pdfrwt>
<pdfrwt beam="2">  1       -1 0.23250304E+00 0.33695617E+04</pdfrwt>
<totfact> 0.67028784E-01</totfact>
</mgrwt>
</event>
<event>
12    6  0.1530859E-007  0.1725361E+04  0.7818608E-02  0.8747031E-01
         -1   -1    0    0    0  501 -0.00000000000E+00  0.00000000000E+00  0.45991257450E+03  0.45991257450E+03  0.00000000000E+00 0.  1.
          2   -1    0    0  501    0  0.00000000000E+00 -0.00000000000E+00 -0.16181715421E+04  0.16181715421E+04  0.00000000000E+00 0. -1.
         24    2    1    2    0    0  0.39819154683E+03 -0.80147708970E+02  0.15059445619E+03  0.44059003319E+03  0.80378628339E+02 0.  0.
        254    2    1    2    0    0 -0.39819154683E+03  0.80147708970E+02 -0.13088534238E+04  0.16374940834E+04  0.89627530647E+03 0.  0.
         23    2    4    4    0    0  0.21741078533E+02 -0.34939184349E+03 -0.35622014072E+03  0.50767137227E+03  0.91049979544E+02 0.  0.
         23    2    4    4    0    0 -0.41993262537E+03  0.42953955246E+03 -0.95263328305E+03  0.11298227111E+04  0.90230535899E+02 0.  0.
          2    1    3    3  502    0  0.24701495981E+03 -0.88667660593E+02  0.89035619698E+02  0.27713838778E+03  0.00000000000E+00 0. -1.
         -1    1    3    3    0  502  0.15117658702E+03  0.85199516230E+01  0.61558836490E+02  0.16345164541E+03  0.00000000000E+00 0.  1.
         11    1    5    5    0    0  0.10723336914E+02 -0.34603353835E+03 -0.35536191721E+03  0.49612124710E+03  0.00000000000E+00 0.  1.
        -11    1    5    5    0    0  0.11017741619E+02 -0.33583051390E+01 -0.85822350149E+00  0.11550125167E+02  0.00000000000E+00 0. -1.
          1    1    6    6  503    0 -0.18796965545E+03  0.13053882381E+03 -0.37180952935E+03  0.43659512367E+03  0.00000000000E+00 0. -1.
         -1    1    6    6    0  503 -0.23196296991E+03  0.29900072865E+03 -0.58082375370E+03  0.69322758745E+03  0.00000000000E+00 0.  1.
<mgrwt>
<rscale>  0 0.17253608E+04</rscale>
<asrwt>0</asrwt>
<pdfrwt beam="1">  1        2 0.24894947E+00 0.17253608E+04</pdfrwt>
<pdfrwt beam="2">  1       -1 0.70755782E-01 0.17253608E+04</pdfrwt>
<totfact> 0.23784878E+01</totfact>
</mgrwt>
</event>
<event>
12    6  0.1530859E-007  0.3265873E+04  0.7818608E-02  0.8171634E-01
          2   -1    0    0  501    0  0.00000000000E+00  0.00000000000E+00  0.28871388675E+04  0.28871388675E+04  0.00000000000E+00 0. -1.
         -1   -1    0    0    0  501 -0.00000000000E+00 -0.00000000000E+00 -0.92357256765E+03  0.92357256765E+03  0.00000000000E+00 0.  1.
         24    2    1    2    0    0 -0.13271090271E+04 -0.42888325641E+03  0.15822000450E+04  0.21106500831E+04  0.79546047177E+02 0.  0.
        254    2    1    2    0    0  0.13271090271E+04  0.42888325641E+03  0.38136625483E+03  0.17000613520E+04  0.89420867957E+03 0.  0.
         23    2    4    4    0    0  0.60532531595E+03  0.19266131604E+03 -0.26920461441E+03  0.69589382824E+03  0.90884404242E+02 0.  0.
         23    2    4    4    0    0  0.72178371117E+03  0.23622194037E+03  0.65057086924E+03  0.10041675237E+04  0.91309522913E+02 0.  0.
          4    1    3    3  502    0 -0.47192187514E+03 -0.15915565765E+03  0.62247940359E+03  0.79719595301E+03  0.00000000000E+00 0. -1.
         -3    1    3    3    0  502 -0.85518715199E+03 -0.26972759876E+03  0.95972064139E+03  0.13134541301E+04  0.00000000000E+00 0.  1.
         11    1    5    5    0    0  0.57501454756E+03  0.18994015653E+03 -0.23362889434E+03  0.64907738617E+03  0.00000000000E+00 0.  1.
        -11    1    5    5    0    0  0.30310768394E+02  0.27211595103E+01 -0.35575720073E+02  0.46816442073E+02  0.00000000000E+00 0. -1.
          3    1    6    6  503    0  0.29146165194E+03  0.14286391817E+03  0.27639638701E+03  0.42632728791E+03  0.00000000000E+00 0. -1.
         -3    1    6    6    0  503  0.43032205923E+03  0.93358022193E+02  0.37417448223E+03  0.57784023581E+03  0.00000000000E+00 0.  1.
<mgrwt>
<rscale>  0 0.32658734E+04</rscale>
<asrwt>0</asrwt>
<pdfrwt beam="1">  1        2 0.44417521E+00 0.32658734E+04</pdfrwt>
<pdfrwt beam="2">  1       -1 0.14208809E+00 0.32658734E+04</pdfrwt>
<totfact> 0.78429742E-01</totfact>
</mgrwt>
</event>
<event>
12    6  0.1530859E-007  0.1190597E+04  0.7818608E-02  0.9121127E-01
         -1   -1    0    0    0  501 -0.00000000000E+00  0.00000000000E+00  0.18336781434E+03  0.18336781434E+03  0.00000000000E+00 0.  1.
          2   -1    0    0  501    0  0.00000000000E+00 -0.00000000000E+00 -0.19326193773E+04  0.19326193773E+04  0.00000000000E+00 0. -1.
         24    2    1    2    0    0  0.19375513122E+01 -0.95633696965E+02  0.17769878813E+02  0.12552342001E+03  0.79314577964E+02 0.  0.
        254    2    1    2    0    0 -0.19375513122E+01  0.95633696965E+02 -0.17670214418E+04  0.19904637716E+04  0.91128024908E+03 0.  0.
         23    2    4    4    0    0 -0.61064286635E+02  0.27950539683E+03 -0.17489293204E+04  0.17744732721E+04  0.90274645925E+02 0.  0.
         23    2    4    4    0    0  0.59126735323E+02 -0.18387169986E+03 -0.18092121326E+02  0.21599049948E+03  0.94972618006E+02 0.  0.
          2    1    3    3  502    0 -0.26778475586E+02 -0.23493798544E+02  0.30432135423E+02  0.46852536657E+02  0.00000000000E+00 0. -1.
         -1    1    3    3    0  502  0.28716026899E+02 -0.72139898421E+02 -0.12662256610E+02  0.78670883353E+02  0.00000000000E+00 0.  1.
         11    1    5    5    0    0 -0.21951984074E+02  0.24980340371E+03 -0.14430745265E+04  0.14647005562E+04  0.00000000000E+00 0. -1.
        -11    1    5    5    0    0 -0.39112302561E+02  0.29701993119E+02 -0.30585479391E+03  0.30977271598E+03  0.00000000000E+00 0.  1.
          1    1    6    6  503    0  0.52600500785E+02 -0.19234924748E+03 -0.55278753077E+01  0.19948835328E+03  0.00000000000E+00 0. -1.
         -1    1    6    6    0  503  0.65262345375E+01  0.84775476244E+01 -0.12564246018E+02  0.16502146193E+02  0.00000000000E+00 0.  1.
<mgrwt>
<rscale>  0 0.11905968E+04</rscale>
<asrwt>0</asrwt>
<pdfrwt beam="1">  1        2 0.29732606E+00 0.11905968E+04</pdfrwt>
<pdfrwt beam="2">  1       -1 0.28210433E-01 0.11905968E+04</pdfrwt>
<totfact> 0.93183734E+01</totfact>
</mgrwt>
</event>
<event>
12    6  0.1530859E-007  0.2367956E+04  0.7818608E-02  0.8451599E-01
          2   -1    0    0  501    0  0.00000000000E+00  0.00000000000E+00  0.88831169216E+03  0.88831169216E+03  0.00000000000E+00 0. -1.
         -1   -1    0    0    0  501 -0.00000000000E+00 -0.00000000000E+00 -0.15780541029E+04  0.15780541029E+04  0.00000000000E+00 0.  1.
         24    2    1    2    0    0  0.49035043358E+03  0.77500059771E+03  0.14339822724E+03  0.93146395939E+03  0.77411768525E+02 0.  0.
        254    2    1    2    0    0 -0.49035043358E+03 -0.77500059771E+03 -0.83314063796E+03  0.15349018357E+04  0.90594196741E+03 0.  0.
         23    2    4    4    0    0 -0.22476033827E+02 -0.75189534866E+03 -0.28858288098E+03  0.81086674901E+03  0.91504196730E+02 0.  0.
         23    2    4    4    0    0 -0.46787439976E+03 -0.23105249045E+02 -0.54455775698E+03  0.72403508665E+03  0.90792893589E+02 0.  0.
          4    1    3    3  502    0  0.99204515788E+02  0.17215320154E+03  0.96026301640E-01  0.19869139381E+03  0.00000000000E+00 0. -1.
         -3    1    3    3    0  502  0.39114591779E+03  0.60284739616E+03  0.14330220093E+03  0.73277256558E+03  0.00000000000E+00 0.  1.
         11    1    5    5    0    0 -0.13208984159E+02 -0.66396624283E+03 -0.22213099513E+03  0.70026268491E+03  0.00000000000E+00 0. -1.
        -11    1    5    5    0    0 -0.92670496680E+01 -0.87929105832E+02 -0.66451885857E+02  0.11060406410E+03  0.00000000000E+00 0.  1.
          2    1    6    6  503    0 -0.32291948122E+03 -0.10310665170E+02 -0.43514377242E+03  0.54197177403E+03  0.00000000000E+00 0. -1.
         -2    1    6    6    0  503 -0.14495491853E+03 -0.12794583876E+02 -0.10941398456E+03  0.18206331262E+03  0.00000000000E+00 0.  1.
<mgrwt>
<rscale>  0 0.23679560E+04</rscale>
<asrwt>0</asrwt>
<pdfrwt beam="1">  1        2 0.13666334E+00 0.23679560E+04</pdfrwt>
<pdfrwt beam="2">  1       -1 0.24277755E+00 0.23679560E+04</pdfrwt>
<totfact> 0.23870625E+00</totfact>
</mgrwt>
</event>
<event>
12    6  0.1530859E-007  0.1579953E+04  0.7818608E-02  0.8832959E-01
          2   -1    0    0  501    0  0.00000000000E+00  0.00000000000E+00  0.25189213763E+04  0.25189213763E+04  0.00000000000E+00 0. -1.
         -1   -1    0    0    0  501 -0.00000000000E+00 -0.00000000000E+00 -0.24775011209E+03  0.24775011209E+03  0.00000000000E+00 0.  1.
         24    2    1    2    0    0 -0.29921089645E+03  0.28036728043E+03  0.13489685833E+04  0.14127953899E+04  0.90230828721E+02 0.  0.
        254    2    1    2    0    0  0.29921089645E+03 -0.28036728043E+03  0.92220268090E+03  0.13538760985E+04  0.90243544531E+03 0.  0.
         23    2    4    4    0    0  0.25553578307E+03 -0.59724502236E+03  0.57085585650E+03  0.86950453889E+03  0.90341469394E+02 0.  0.
         23    2    4    4    0    0  0.43675113374E+02  0.31687774193E+03  0.35134682441E+03  0.48437155962E+03  0.94086119514E+02 0.  0.
          2    1    3    3  502    0 -0.17419180533E+03  0.14458788310E+03  0.59627177439E+03  0.63779970987E+03  0.00000000000E+00 0. -1.
         -1    1    3    3    0  502 -0.12501909112E+03  0.13577939733E+03  0.75269680894E+03  0.77499568004E+03  0.00000000000E+00 0.  1.
         11    1    5    5    0    0 -0.18028271517E+01  0.25927697399E+01  0.26678991405E+01  0.41340448095E+01  0.00000000000E+00 0. -1.
        -11    1    5    5    0    0  0.25733861022E+03 -0.59983779210E+03  0.56818795736E+03  0.86537049408E+03  0.00000000000E+00 0.  1.
          1    1    6    6  503    0 -0.15990162147E+02  0.49708411072E+02  0.23499343549E+02  0.57261073724E+02  0.00000000000E+00 0. -1.
         -1    1    6    6    0  503  0.59665275521E+02  0.26716933086E+03  0.32784748086E+03  0.42711048589E+03  0.00000000000E+00 0.  1.
<mgrwt>
<rscale>  0 0.15799532E+04</rscale>
<asrwt>0</asrwt>
<pdfrwt beam="1">  1        2 0.38752635E+00 0.15799532E+04</pdfrwt>
<pdfrwt beam="2">  1       -1 0.38115404E-01 0.15799532E+04</pdfrwt>
<totfact> 0.24751860E+01</totfact>
</mgrwt>
</event>
<event>
12    6  0.1530859E-007  0.1237996E+04  0.7818608E-02  0.9080234E-01
         -1   -1    0    0    0  501 -0.00000000000E+00  0.00000000000E+00  0.10038588473E+04  0.10038588473E+04  0.00000000000E+00 0.  1.
          2   -1    0    0  501    0  0.00000000000E+00 -0.00000000000E+00 -0.38168552291E+03  0.38168552291E+03  0.00000000000E+00 0. -1.
         24    2    1    2    0    0 -0.26889224872E+03 -0.44345081094E+02  0.36263797177E+02  0.28675502863E+03  0.81509851073E+02 0.  0.
        254    2    1    2    0    0  0.26889224872E+03  0.44345081094E+02  0.58590952724E+03  0.10987893416E+04  0.88869483823E+03 0.  0.
         23    2    4    4    0    0  0.47084383621E+03  0.31936863169E+03  0.35572706548E+03  0.67751756924E+03  0.93798030397E+02 0.  0.
         23    2    4    4    0    0 -0.20195158750E+03 -0.27502355059E+03  0.23018246176E+03  0.42127177238E+03  0.89797235077E+02 0.  0.
          4    1    3    3  502    0 -0.20074831209E+03 -0.50486326339E+02 -0.46193359412E+01  0.20705094112E+03  0.00000000000E+00 0. -1.
         -3    1    3    3    0  502 -0.68143936621E+02  0.61412452449E+01  0.40883133119E+02  0.79704087505E+02  0.00000000000E+00 0.  1.
         11    1    5    5    0    0  0.48381338545E+02  0.75136951810E+01  0.49626231495E+02  0.69713502186E+02  0.00000000000E+00 0.  1.
        -11    1    5    5    0    0  0.42246249767E+03  0.31185493650E+03  0.30610083399E+03  0.60780406705E+03  0.00000000000E+00 0. -1.
          3    1    6    6  503    0 -0.19417402499E+03 -0.28144759309E+03  0.21825057590E+03  0.40564715396E+03  0.00000000000E+00 0. -1.
         -3    1    6    6    0  503 -0.77775625036E+01  0.64240424954E+01  0.11931885857E+02  0.15624618414E+02  0.00000000000E+00 0.  1.
<mgrwt>
<rscale>  0 0.12379958E+04</rscale>
<asrwt>0</asrwt>
<pdfrwt beam="1">  1        2 0.58720850E-01 0.12379958E+04</pdfrwt>
<pdfrwt beam="2">  1       -1 0.15443982E+00 0.12379958E+04</pdfrwt>
<totfact> 0.30445683E+01</totfact>
</mgrwt>
</event>
<event>
12    6  0.1530859E-007  0.1438849E+04  0.7818608E-02  0.8926168E-01
          2   -1    0    0  501    0  0.00000000000E+00  0.00000000000E+00  0.63042214746E+03  0.63042214746E+03  0.00000000000E+00 0. -1.
         -1   -1    0    0    0  501 -0.00000000000E+00 -0.00000000000E+00 -0.82099157497E+03  0.82099157497E+03  0.00000000000E+00 0.  1.
         24    2    1    2    0    0 -0.17232221174E+03  0.39689428395E+03 -0.13354683117E+03  0.46009138831E+03  0.81420588255E+02 0.  0.
        254    2    1    2    0    0  0.17232221174E+03 -0.39689428395E+03 -0.57022596345E+02  0.99132233413E+03  0.89008335360E+03 0.  0.
         23    2    4    4    0    0  0.15115288759E+03  0.20790864113E+03  0.18875892514E+03  0.33197501627E+03  0.92218659289E+02 0.  0.
         23    2    4    4    0    0  0.21169324142E+02 -0.60480292508E+03 -0.24578152149E+03  0.65934731786E+03  0.89975612226E+02 0.  0.
          4    1    3    3  502    0 -0.53071302729E+02  0.54112806680E+02 -0.87282693786E+01  0.76295096215E+02  0.00000000000E+00 0. -1.
         -3    1    3    3    0  502 -0.11925090901E+03  0.34278147727E+03 -0.12481856179E+03  0.38379629209E+03  0.00000000000E+00 0.  1.
         11    1    5    5    0    0  0.10283133632E+03  0.19139681694E+03  0.12635770660E+03  0.25134298335E+03  0.00000000000E+00 0. -1.
        -11    1    5    5    0    0  0.48321551278E+02  0.16511824186E+02  0.62401218548E+02  0.80632032916E+02  0.00000000000E+00 0.  1.
          1    1    6    6  503    0  0.45607264072E+02 -0.18315998433E+03 -0.61226453772E+02  0.19843457622E+03  0.00000000000E+00 0. -1.
         -1    1    6    6    0  503 -0.24437939930E+02 -0.42164294074E+03 -0.18455506772E+03  0.46091274164E+03  0.00000000000E+00 0.  1.
<mgrwt>
<rscale>  0 0.14388485E+04</rscale>
<asrwt>0</asrwt>
<pdfrwt beam="1">  1        2 0.96988023E-01 0.14388485E+04</pdfrwt>
<pdfrwt beam="2">  1       -1 0.12630640E+00 0.14388485E+04</pdfrwt>
<totfact> 0.28242209E+01</totfact>
</mgrwt>
</event>
<event>
12    6  0.1530859E-007  0.2882844E+04  0.7818608E-02  0.8278000E-01
         -1   -1    0    0    0  501 -0.00000000000E+00  0.00000000000E+00  0.16644968804E+04  0.16644968804E+04  0.00000000000E+00 0.  1.
          2   -1    0    0  501    0  0.00000000000E+00 -0.00000000000E+00 -0.12482437216E+04  0.12482437216E+04  0.00000000000E+00 0. -1.
         24    2    1    2    0    0  0.22494645987E+03  0.10245403263E+02 -0.11073716208E+04  0.11328088380E+04  0.79234328902E+02 0.  0.
        254    2    1    2    0    0 -0.22494645987E+03 -0.10245403263E+02  0.15236247797E+04  0.17799317639E+04  0.89219882142E+03 0.  0.
         23    2    4    4    0    0  0.10717791961E+03 -0.34692496613E+03  0.10021446077E+04  0.10699618703E+04  0.93169471322E+02 0.  0.
         23    2    4    4    0    0 -0.33212437947E+03  0.33667956287E+03  0.52148017191E+03  0.70996989367E+03  0.91956232685E+02 0.  0.
          4    1    3    3  502    0  0.22563670960E+03 -0.12750666227E+01 -0.10754252998E+04  0.10988417202E+04  0.00000000000E+00 0. -1.
         -3    1    3    3    0  502 -0.69024973556E+00  0.11520469886E+02 -0.31946320997E+02  0.33967117869E+02  0.00000000000E+00 0.  1.
         11    1    5    5    0    0  0.20201642162E+02 -0.75393982091E+02  0.34343204035E+03  0.35219018331E+03  0.00000000000E+00 0. -1.
        -11    1    5    5    0    0  0.86976277444E+02 -0.27153098404E+03  0.65871256740E+03  0.71777168695E+03  0.00000000000E+00 0.  1.
          4    1    6    6  503    0 -0.64336924730E+02  0.10743200717E+03  0.98273061937E+02  0.15918062304E+03  0.00000000000E+00 0. -1.
         -4    1    6    6    0  503 -0.26778745474E+03  0.22924755570E+03  0.42320710997E+03  0.55078927063E+03  0.00000000000E+00 0.  1.
<mgrwt>
<rscale>  0 0.28828443E+04</rscale>
<asrwt>0</asrwt>
<pdfrwt beam="1">  1        2 0.19203750E+00 0.28828443E+04</pdfrwt>
<pdfrwt beam="2">  1       -1 0.25607644E+00 0.28828443E+04</pdfrwt>
<totfact> 0.11108669E+00</totfact>
</mgrwt>
</event>
<event>
12    6  0.1530859E-007  0.1723233E+04  0.7818608E-02  0.8748224E-01
          2   -1    0    0  501    0  0.00000000000E+00  0.00000000000E+00  0.37297124430E+04  0.37297124430E+04  0.00000000000E+00 0. -1.
         -1   -1    0    0    0  501 -0.00000000000E+00 -0.00000000000E+00 -0.19904553155E+03  0.19904553155E+03  0.00000000000E+00 0.  1.
         24    2    1    2    0    0  0.82087065138E+02 -0.24080093789E+03 -0.17901800303E+02  0.26717308218E+03  0.79609066279E+02 0.  0.
        254    2    1    2    0    0 -0.82087065138E+02  0.24080093789E+03  0.35485687118E+04  0.36615848924E+04  0.86610660092E+03 0.  0.
         23    2    4    4    0    0  0.46907417882E+01 -0.26705838719E+03  0.21433399519E+04  0.21620019986E+04  0.94891029324E+02 0.  0.
         23    2    4    4    0    0 -0.86777806926E+02  0.50785932508E+03  0.14052287599E+04  0.14995828938E+04  0.92895133823E+02 0.  0.
          4    1    3    3  502    0  0.43539415445E+02 -0.49136616101E+02  0.18725064609E+02  0.68269435209E+02  0.00000000000E+00 0. -1.
         -3    1    3    3    0  502  0.38547649692E+02 -0.19166432179E+03 -0.36626864911E+02  0.19890364697E+03  0.00000000000E+00 0.  1.
         11    1    5    5    0    0  0.25310901247E+02 -0.15553834476E+03  0.91823300734E+03  0.93165695091E+03  0.00000000000E+00 0.  1.
        -11    1    5    5    0    0 -0.20620159459E+02 -0.11152004243E+03  0.12251069445E+04  0.12303450477E+04  0.00000000000E+00 0. -1.
          3    1    6    6  503    0 -0.96639028455E+02  0.47021151211E+03  0.12362282669E+04  0.13261592272E+04  0.00000000000E+00 0. -1.
         -3    1    6    6    0  503  0.98612215291E+01  0.37647812965E+02  0.16900049301E+03  0.17342366663E+03  0.00000000000E+00 0.  1.
<mgrwt>
<rscale>  0 0.17232325E+04</rscale>
<asrwt>0</asrwt>
<pdfrwt beam="1">  1        2 0.57380186E+00 0.17232325E+04</pdfrwt>
<pdfrwt beam="2">  1       -1 0.30622392E-01 0.17232325E+04</pdfrwt>
<totfact> 0.59787533E+00</totfact>
</mgrwt>
</event>
<event>
12    6  0.1530859E-007  0.3258188E+04  0.7818608E-02  0.8173617E-01
         -1   -1    0    0    0  501 -0.00000000000E+00  0.00000000000E+00  0.83208213859E+03  0.83208213859E+03  0.00000000000E+00 0.  1.
          2   -1    0    0  501    0  0.00000000000E+00 -0.00000000000E+00 -0.31895257786E+04  0.31895257786E+04  0.00000000000E+00 0. -1.
         24    2    1    2    0    0  0.10315177044E+04  0.50288031438E+03 -0.22862345120E+04  0.25593147592E+04  0.79412890853E+02 0.  0.
        254    2    1    2    0    0 -0.10315177044E+04 -0.50288031438E+03 -0.71209127948E+02  0.14622931580E+04  0.90350050075E+03 0.  0.
         23    2    4    4    0    0 -0.10349305568E+04 -0.45964616105E+03  0.21706870092E+03  0.11567016882E+04  0.92109304014E+02 0.  0.
         23    2    4    4    0    0  0.34128523539E+01 -0.43234153329E+02 -0.28827782887E+03  0.30559146976E+03  0.91658061268E+02 0.  0.
          4    1    3    3  502    0  0.39624707797E+03  0.19661944990E+03 -0.79675983499E+03  0.91131618527E+03  0.00000000000E+00 0. -1.
         -3    1    3    3    0  502  0.63527062648E+03  0.30626086448E+03 -0.14894746771E+04  0.16479985739E+04  0.00000000000E+00 0.  1.
         11    1    5    5    0    0 -0.47323250294E+03 -0.26042834281E+03  0.10054863234E+03  0.54943785003E+03  0.00000000000E+00 0.  1.
        -11    1    5    5    0    0 -0.56169805386E+03 -0.19921781824E+03  0.11652006859E+03  0.60726383821E+03  0.00000000000E+00 0. -1.
          2    1    6    6  503    0  0.29080859732E+02 -0.46950254379E+02 -0.89778388843E+02  0.10540484757E+03  0.00000000000E+00 0. -1.
         -2    1    6    6    0  503 -0.25668007379E+02  0.37161010506E+01 -0.19849944003E+03  0.20018662219E+03  0.00000000000E+00 0.  1.
<mgrwt>
<rscale>  0 0.32581881E+04</rscale>
<asrwt>0</asrwt>
<pdfrwt beam="1">  1        2 0.49069629E+00 0.32581881E+04</pdfrwt>
<pdfrwt beam="2">  1       -1 0.12801263E+00 0.32581881E+04</pdfrwt>
<totfact> 0.66038447E-01</totfact>
</mgrwt>
</event>
<event>
12    6  0.1530859E-007  0.3249625E+04  0.7818608E-02  0.8175833E-01
         -1   -1    0    0    0  501 -0.00000000000E+00  0.00000000000E+00  0.71082585449E+03  0.71082585449E+03  0.00000000000E+00 0.  1.
          2   -1    0    0  501    0  0.00000000000E+00 -0.00000000000E+00 -0.37140126362E+04  0.37140126362E+04  0.00000000000E+00 0. -1.
         24    2    1    2    0    0  0.48803537512E+02  0.94095679315E+03 -0.29706113169E+04  0.31174683935E+04  0.79348073466E+02 0.  0.
        254    2    1    2    0    0 -0.48803537512E+02 -0.94095679315E+03 -0.32575464767E+02  0.13073700971E+04  0.90574496303E+03 0.  0.
         23    2    4    4    0    0 -0.51412551404E+02 -0.10728201521E+04 -0.17432219064E+03  0.10922737598E+04  0.95327912182E+02 0.  0.
         23    2    4    4    0    0  0.26090138918E+01  0.13186335897E+03  0.14174672588E+03  0.21509633736E+03  0.93699240410E+02 0.  0.
          2    1    3    3  502    0  0.26733364659E+02  0.87112223438E+03 -0.27042031488E+04  0.28411763920E+04  0.00000000000E+00 0. -1.
         -1    1    3    3    0  502  0.22070172853E+02  0.69834558769E+02 -0.26640816806E+03  0.27629200158E+03  0.00000000000E+00 0.  1.
         11    1    5    5    0    0 -0.24703006300E+02 -0.60815132482E+02 -0.47474370398E+01  0.65812286220E+02  0.00000000000E+00 0.  1.
        -11    1    5    5    0    0 -0.26709545104E+02 -0.10120050196E+04 -0.16957475360E+03  0.10264614735E+04  0.00000000000E+00 0. -1.
          1    1    6    6  503    0  0.42581753183E+02  0.10435658228E+03  0.10704647049E+03  0.15544275092E+03  0.00000000000E+00 0. -1.
         -1    1    6    6    0  503 -0.39972739291E+02  0.27506776690E+02  0.34700255386E+02  0.59653586432E+02  0.00000000000E+00 0.  1.
<mgrwt>
<rscale>  0 0.32496253E+04</rscale>
<asrwt>0</asrwt>
<pdfrwt beam="1">  1        2 0.57138657E+00 0.32496253E+04</pdfrwt>
<pdfrwt beam="2">  1       -1 0.10935782E+00 0.32496253E+04</pdfrwt>
<totfact> 0.41927630E-01</totfact>
</mgrwt>
</event>
<event>
12    6  0.1530859E-007  0.1620475E+04  0.7818608E-02  0.8808068E-01
          2   -1    0    0  501    0  0.00000000000E+00  0.00000000000E+00  0.14019279632E+04  0.14019279632E+04  0.00000000000E+00 0. -1.
         -1   -1    0    0    0  501 -0.00000000000E+00 -0.00000000000E+00 -0.46827260082E+03  0.46827260082E+03  0.00000000000E+00 0.  1.
         24    2    1    2    0    0 -0.12738786476E+03  0.43186184366E+03  0.68997147397E+03  0.82832962327E+03  0.85656347014E+02 0.  0.
        254    2    1    2    0    0  0.12738786476E+03 -0.43186184366E+03  0.24368388844E+03  0.10418709408E+04  0.90740338310E+03 0.  0.
         23    2    4    4    0    0 -0.33439146847E+03 -0.40288386602E+03  0.56768619591E+02  0.53437540906E+03  0.90561238717E+02 0.  0.
         23    2    4    4    0    0  0.46177933323E+03 -0.28977977645E+02  0.18691526885E+03  0.50749553172E+03  0.92382472366E+02 0.  0.
          2    1    3    3  502    0 -0.61581617478E+02  0.33636792166E+03  0.49983959714E+03  0.60561976289E+03  0.00000000000E+00 0. -1.
         -1    1    3    3    0  502 -0.65806247284E+02  0.95493922002E+02  0.19013187683E+03  0.22270986038E+03  0.00000000000E+00 0.  1.
         11    1    5    5    0    0 -0.29239949268E+02 -0.65693167690E+02  0.32636192185E+02  0.78966372303E+02  0.00000000000E+00 0.  1.
        -11    1    5    5    0    0 -0.30515151920E+03 -0.33719069833E+03  0.24132427405E+02  0.45540903676E+03  0.00000000000E+00 0. -1.
          2    1    6    6  503    0  0.35629323412E+03 -0.87751759136E+01  0.10238032480E+03  0.37081478301E+03  0.00000000000E+00 0. -1.
         -2    1    6    6    0  503  0.10548609911E+03 -0.20202801731E+02  0.84534944045E+02  0.13668074871E+03  0.00000000000E+00 0.  1.
<mgrwt>
<rscale>  0 0.16204746E+04</rscale>
<asrwt>0</asrwt>
<pdfrwt beam="1">  1        2 0.21568122E+00 0.16204746E+04</pdfrwt>
<pdfrwt beam="2">  1       -1 0.72041939E-01 0.16204746E+04</pdfrwt>
<totfact> 0.30623669E+01</totfact>
</mgrwt>
</event>
<event>
12    6  0.1530859E-007  0.1739822E+04  0.7818608E-02  0.8738973E-01
          2   -1    0    0  501    0  0.00000000000E+00  0.00000000000E+00  0.12398627409E+04  0.12398627409E+04  0.00000000000E+00 0. -1.
         -1   -1    0    0    0  501 -0.00000000000E+00 -0.00000000000E+00 -0.61034555878E+03  0.61034555878E+03  0.00000000000E+00 0.  1.
         24    2    1    2    0    0  0.35889548731E+03 -0.41125710083E+03 -0.20069242093E+03  0.58647593459E+03  0.75750909182E+02 0.  0.
        254    2    1    2    0    0 -0.35889548731E+03  0.41125710083E+03  0.83020960301E+03  0.12637323651E+04  0.78091813384E+03 0.  0.
         23    2    4    4    0    0  0.23922563475E+02  0.70666521666E+02  0.72261689906E+03  0.73208435839E+03  0.90588512883E+02 0.  0.
         23    2    4    4    0    0 -0.38281805079E+03  0.34059057916E+03  0.10759270395E+03  0.53164800666E+03  0.92313652423E+02 0.  0.
          2    1    3    3  502    0  0.46958908029E+02 -0.39767484097E+02 -0.59207592532E-01  0.61535317828E+02  0.00000000000E+00 0. -1.
         -1    1    3    3    0  502  0.31193657928E+03 -0.37148961673E+03 -0.20063321333E+03  0.52494061676E+03  0.00000000000E+00 0.  1.
         11    1    5    5    0    0 -0.95676059421E+01  0.26232886875E+02  0.55027665906E+03  0.55098466852E+03  0.00000000000E+00 0.  1.
        -11    1    5    5    0    0  0.33490169417E+02  0.44433634791E+02  0.17234024000E+03  0.18109968987E+03  0.00000000000E+00 0. -1.
          2    1    6    6  503    0 -0.20920652753E+03  0.12490195144E+03  0.44865200572E+02  0.24775139729E+03  0.00000000000E+00 0. -1.
         -2    1    6    6    0  503 -0.17361152326E+03  0.21568862772E+03  0.62727503374E+02  0.28389660938E+03  0.00000000000E+00 0.  1.
<mgrwt>
<rscale>  0 0.17398215E+04</rscale>
<asrwt>0</asrwt>
<pdfrwt beam="1">  1        2 0.19074811E+00 0.17398215E+04</pdfrwt>
<pdfrwt beam="2">  1       -1 0.93899316E-01 0.17398215E+04</pdfrwt>
<totfact> 0.21320759E+01</totfact>
</mgrwt>
</event>
<event>
12    6  0.1530859E-007  0.2004340E+04  0.7818608E-02  0.8604594E-01
          2   -1    0    0  501    0  0.00000000000E+00  0.00000000000E+00  0.88712683896E+03  0.88712683896E+03  0.00000000000E+00 0. -1.
         -1   -1    0    0    0  501 -0.00000000000E+00 -0.00000000000E+00 -0.11321317148E+04  0.11321317148E+04  0.00000000000E+00 0.  1.
         24    2    1    2    0    0  0.24138082156E+03 -0.75984571524E+03 -0.13256160790E+03  0.81220597249E+03  0.80472044036E+02 0.  0.
        254    2    1    2    0    0 -0.24138082156E+03  0.75984571524E+03 -0.11244326793E+03  0.12070525813E+04  0.89927872956E+03 0.  0.
         23    2    4    4    0    0  0.17501586121E+03  0.74773366118E+03 -0.40203897290E+02  0.77373189917E+03  0.85489874903E+02 0.  0.
         23    2    4    4    0    0 -0.41639668276E+03  0.12112054066E+02 -0.72239370637E+02  0.43332068209E+03  0.94949394871E+02 0.  0.
          2    1    3    3  502    0  0.23450482885E+03 -0.70523035638E+03 -0.10478365149E+03  0.75054778924E+03  0.00000000000E+00 0. -1.
         -1    1    3    3    0  502  0.68759927046E+01 -0.54615358862E+02 -0.27777956407E+02  0.61658183248E+02  0.00000000000E+00 0.  1.
         11    1    5    5    0    0  0.36009613084E+02  0.33961290435E+03 -0.14625974816E+02  0.34182968884E+03  0.00000000000E+00 0. -1.
        -11    1    5    5    0    0  0.13900624812E+03  0.40812075682E+03 -0.25577922474E+02  0.43190221033E+03  0.00000000000E+00 0.  1.
          1    1    6    6  503    0 -0.24213053075E+03  0.48525094851E+02 -0.63983782596E+02  0.25509959464E+03  0.00000000000E+00 0.  1.
         -1    1    6    6    0  503 -0.17426615201E+03 -0.36413040785E+02 -0.82555880406E+01  0.17822108745E+03  0.00000000000E+00 0. -1.
<mgrwt>
<rscale>  0 0.20043397E+04</rscale>
<asrwt>0</asrwt>
<pdfrwt beam="1">  1        2 0.13648105E+00 0.20043397E+04</pdfrwt>
<pdfrwt beam="2">  1       -1 0.17417411E+00 0.20043397E+04</pdfrwt>
<totfact> 0.72711533E+00</totfact>
</mgrwt>
</event>
<event>
12    6  0.1530859E-007  0.1162986E+04  0.7818608E-02  0.9145886E-01
          2   -1    0    0  501    0  0.00000000000E+00  0.00000000000E+00  0.10608551457E+04  0.10608551457E+04  0.00000000000E+00 0. -1.
         -3   -1    0    0    0  501 -0.00000000000E+00 -0.00000000000E+00 -0.31873721911E+03  0.31873721911E+03  0.00000000000E+00 0.  1.
         24    2    1    2    0    0 -0.89705782613E+02 -0.89514749357E+02  0.35559067210E+03  0.38580432952E+03  0.79625603942E+02 0.  0.
        254    2    1    2    0    0  0.89705782613E+02  0.89514749357E+02  0.38652725453E+03  0.99378803533E+03  0.90672560506E+03 0.  0.
         23    2    4    4    0    0 -0.41012472983E+02  0.31677135986E+03 -0.16865219850E+03  0.37331957037E+03  0.94328257645E+02 0.  0.
         23    2    4    4    0    0  0.13071825560E+03 -0.22725661051E+03  0.55517945304E+03  0.62046846496E+03  0.89577126370E+02 0.  0.
          2    1    3    3  502    0 -0.63726311245E+02 -0.75741086946E+02  0.33647459362E+03  0.35073195912E+03  0.00000000000E+00 0. -1.
         -1    1    3    3    0  502 -0.25979471368E+02 -0.13773662411E+02  0.19116078479E+02  0.35072370396E+02  0.00000000000E+00 0.  1.
         11    1    5    5    0    0  0.18210265296E+02  0.17690900115E+03 -0.11706099138E+03  0.21291238609E+03  0.00000000000E+00 0.  1.
        -11    1    5    5    0    0 -0.59222738279E+02  0.13986235872E+03 -0.51591207127E+02  0.16040718428E+03  0.00000000000E+00 0. -1.
          3    1    6    6  503    0  0.13006908590E+02 -0.86851664923E+02  0.24441700399E+03  0.25971535035E+03  0.00000000000E+00 0. -1.
         -3    1    6    6    0  503  0.11771134701E+03 -0.14040494558E+03  0.31076244905E+03  0.36075311461E+03  0.00000000000E+00 0.  1.
<mgrwt>
<rscale>  0 0.11629858E+04</rscale>
<asrwt>0</asrwt>
<pdfrwt beam="1">  1        2 0.16320848E+00 0.11629858E+04</pdfrwt>
<pdfrwt beam="2">  1       -3 0.49036496E-01 0.11629858E+04</pdfrwt>
<totfact> 0.60023496E+01</totfact>
</mgrwt>
</event>
<event>
12    6  0.1530859E-007  0.1460990E+04  0.7818608E-02  0.8910816E-01
         -1   -1    0    0    0  501 -0.00000000000E+00  0.00000000000E+00  0.52950916471E+03  0.52950916471E+03  0.00000000000E+00 0.  1.
          2   -1    0    0  501    0  0.00000000000E+00 -0.00000000000E+00 -0.10077696001E+04  0.10077696001E+04  0.00000000000E+00 0. -1.
         24    2    1    2    0    0 -0.19039880772E+03  0.39484243046E+03 -0.26110998154E+03  0.51579147049E+03  0.75565651508E+02 0.  0.
        254    2    1    2    0    0  0.19039880772E+03 -0.39484243046E+03 -0.21715045386E+03  0.10214872943E+04  0.89673280414E+03 0.  0.
         23    2    4    4    0    0  0.39691352583E+03 -0.31109554334E+03 -0.45361458448E+03  0.68432397416E+03  0.90621886434E+02 0.  0.
         23    2    4    4    0    0 -0.20651471810E+03 -0.83746887128E+02  0.23646413062E+03  0.33716332018E+03  0.90010829939E+02 0.  0.
          4    1    3    3  502    0 -0.83667099508E+02  0.18447096739E+03 -0.16424720366E+03  0.26078125941E+03  0.00000000000E+00 0. -1.
         -3    1    3    3    0  502 -0.10673170821E+03  0.21037146307E+03 -0.96862777889E+02  0.25501021107E+03  0.00000000000E+00 0.  1.
         11    1    5    5    0    0  0.16022636135E+03 -0.90465529827E+02 -0.12061395492E+03  0.22000960224E+03  0.00000000000E+00 0.  1.
        -11    1    5    5    0    0  0.23668716448E+03 -0.22063001351E+03 -0.33300062955E+03  0.46431437192E+03  0.00000000000E+00 0. -1.
          2    1    6    6  503    0  0.79238921864E+00 -0.24176917111E+01  0.40345789637E+02  0.40425930482E+02  0.00000000000E+00 0. -1.
         -2    1    6    6    0  503 -0.20730710732E+03 -0.81329195417E+02  0.19611834098E+03  0.29673738970E+03  0.00000000000E+00 0.  1.
<mgrwt>
<rscale>  0 0.14609904E+04</rscale>
<asrwt>0</asrwt>
<pdfrwt beam="1">  1        2 0.15504148E+00 0.14609904E+04</pdfrwt>
<pdfrwt beam="2">  1       -1 0.81462948E-01 0.14609904E+04</pdfrwt>
<totfact> 0.41318014E+01</totfact>
</mgrwt>
</event>
<event>
12    6  0.1530859E-007  0.1428285E+04  0.7818608E-02  0.8933595E-01
         -1   -1    0    0    0  501 -0.00000000000E+00  0.00000000000E+00  0.10020851821E+04  0.10020851821E+04  0.00000000000E+00 0.  1.
          2   -1    0    0  501    0  0.00000000000E+00 -0.00000000000E+00 -0.50893829507E+03  0.50893829507E+03  0.00000000000E+00 0. -1.
         24    2    1    2    0    0  0.25268892130E+03 -0.31199155381E+03  0.12355594681E+03  0.42799434429E+03  0.81991866386E+02 0.  0.
        254    2    1    2    0    0 -0.25268892130E+03  0.31199155381E+03  0.36959094026E+03  0.10830291329E+04  0.93550212134E+03 0.  0.
         23    2    4    4    0    0 -0.44856733097E+03  0.34590304748E+03 -0.83251068977E+02  0.57976407620E+03  0.91291154545E+02 0.  0.
         23    2    4    4    0    0  0.19587840967E+03 -0.33911493675E+02  0.45284200924E+03  0.50326505672E+03  0.93228167439E+02 0.  0.
          2    1    3    3  502    0  0.46731698769E+02 -0.11670408925E+03  0.31253700841E+02  0.12953953039E+03  0.00000000000E+00 0. -1.
         -1    1    3    3    0  502  0.20595722253E+03 -0.19528746456E+03  0.92302245969E+02  0.29845481389E+03  0.00000000000E+00 0.  1.
         11    1    5    5    0    0 -0.43474946037E+03  0.31948158329E+03 -0.61819651360E+02  0.54304442235E+03  0.00000000000E+00 0.  1.
        -11    1    5    5    0    0 -0.13817870606E+02  0.26421464193E+02 -0.21431417618E+02  0.36719653856E+02  0.00000000000E+00 0. -1.
          3    1    6    6  503    0  0.48510055708E+02  0.21634782622E+02  0.18578879491E+03  0.19323241353E+03  0.00000000000E+00 0. -1.
         -3    1    6    6    0  503  0.14736835396E+03 -0.55546276297E+02  0.26705321433E+03  0.31003264319E+03  0.00000000000E+00 0.  1.
<mgrwt>
<rscale>  0 0.14282850E+04</rscale>
<asrwt>0</asrwt>
<pdfrwt beam="1">  1        2 0.78298199E-01 0.14282850E+04</pdfrwt>
<pdfrwt beam="2">  1       -1 0.15416695E+00 0.14282850E+04</pdfrwt>
<totfact> 0.21695806E+01</totfact>
</mgrwt>
</event>
<event>
12    6  0.1530859E-007  0.1228242E+04  0.7818608E-02  0.9088489E-01
         -1   -1    0    0    0  501 -0.00000000000E+00  0.00000000000E+00  0.38774973409E+03  0.38774973409E+03  0.00000000000E+00 0.  1.
          2   -1    0    0  501    0  0.00000000000E+00 -0.00000000000E+00 -0.97264981476E+03  0.97264981476E+03  0.00000000000E+00 0. -1.
         24    2    1    2    0    0  0.60873751220E+02 -0.87827818770E+02 -0.44690850405E+03  0.46667193346E+03  0.81462526034E+02 0.  0.
        254    2    1    2    0    0 -0.60873751220E+02  0.87827818770E+02 -0.13799157662E+03  0.89372761539E+03  0.87652041389E+03 0.  0.
         23    2    4    4    0    0  0.46220853600E+02  0.40056665084E+03  0.15847750470E+03  0.44068599404E+03  0.80616479544E+02 0.  0.
         23    2    4    4    0    0 -0.10709460482E+03 -0.31273883207E+03 -0.29646908132E+03  0.45304162135E+03  0.89877489006E+02 0.  0.
          2    1    3    3  502    0  0.67597295877E+02 -0.55114972568E+02 -0.20956295990E+03  0.22698830096E+03  0.00000000000E+00 0. -1.
         -1    1    3    3    0  502 -0.67235446562E+01 -0.32712846202E+02 -0.23734554415E+03  0.23968363249E+03  0.00000000000E+00 0.  1.
         11    1    5    5    0    0  0.46678489053E+02  0.32790724920E+03  0.95965555212E+02  0.34483537117E+03  0.00000000000E+00 0. -1.
        -11    1    5    5    0    0 -0.45763545318E+00  0.72659401639E+02  0.62511949488E+02  0.95850622876E+02  0.00000000000E+00 0.  1.
          4    1    6    6  503    0 -0.88352146741E+02 -0.31010681704E+03 -0.27035323253E+03  0.42078879518E+03  0.00000000000E+00 0.  1.
         -4    1    6    6    0  503 -0.18742458080E+02 -0.26320150296E+01 -0.26115848787E+02  0.32252826168E+02  0.00000000000E+00 0. -1.
<mgrwt>
<rscale>  0 0.12282422E+04</rscale>
<asrwt>0</asrwt>
<pdfrwt beam="1">  1        2 0.14963843E+00 0.12282422E+04</pdfrwt>
<pdfrwt beam="2">  1       -1 0.59653805E-01 0.12282422E+04</pdfrwt>
<totfact> 0.83993136E+01</totfact>
</mgrwt>
</event>
<event>
12    6  0.1530859E-007  0.1814817E+04  0.7818608E-02  0.8698459E-01
          2   -1    0    0  501    0  0.00000000000E+00  0.00000000000E+00  0.29925187160E+04  0.29925187160E+04  0.00000000000E+00 0. -1.
         -1   -1    0    0    0  501 -0.00000000000E+00 -0.00000000000E+00 -0.27514961905E+03  0.27514961905E+03  0.00000000000E+00 0.  1.
         24    2    1    2    0    0  0.59545395731E+03  0.29072597259E+02  0.43254323101E+03  0.74079880324E+03  0.79237547959E+02 0.  0.
        254    2    1    2    0    0 -0.59545395731E+03 -0.29072597259E+02  0.22848258659E+04  0.25268695318E+04  0.89957198814E+03 0.  0.
         23    2    4    4    0    0 -0.38892295802E+03 -0.23717912563E+03  0.38648589288E+03  0.60390460851E+03  0.88399241399E+02 0.  0.
         23    2    4    4    0    0 -0.20653099929E+03  0.20810652837E+03  0.18983399730E+04  0.19229649233E+04  0.90200122003E+02 0.  0.
          4    1    3    3  502    0  0.22695213456E+03  0.48771411164E+02  0.17734992757E+03  0.29212825734E+03  0.00000000000E+00 0. -1.
         -3    1    3    3    0  502  0.36850182275E+03 -0.19698813904E+02  0.25519330344E+03  0.44867054590E+03  0.00000000000E+00 0.  1.
         11    1    5    5    0    0 -0.33125253483E+03 -0.23312436117E+03  0.32332814467E+03  0.51828206485E+03  0.00000000000E+00 0.  1.
        -11    1    5    5    0    0 -0.57670423187E+02 -0.40547644588E+01  0.63157748207E+02  0.85622543666E+02  0.00000000000E+00 0. -1.
          2    1    6    6  503    0 -0.61039523571E+02  0.10740061596E+03  0.59673009566E+03  0.60938290329E+03  0.00000000000E+00 0. -1.
         -2    1    6    6    0  503 -0.14549147572E+03  0.10070591241E+03  0.13016098774E+04  0.13135820200E+04  0.00000000000E+00 0.  1.
<mgrwt>
<rscale>  0 0.18148172E+04</rscale>
<asrwt>0</asrwt>
<pdfrwt beam="1">  1        2 0.46038747E+00 0.18148172E+04</pdfrwt>
<pdfrwt beam="2">  1       -1 0.42330713E-01 0.18148172E+04</pdfrwt>
<totfact> 0.10406654E+01</totfact>
</mgrwt>
</event>
<event>
12    6  0.1530859E-007  0.1934243E+04  0.7818608E-02  0.8637997E-01
         -1   -1    0    0    0  501 -0.00000000000E+00  0.00000000000E+00  0.16373300635E+04  0.16373300635E+04  0.00000000000E+00 0.  1.
          2   -1    0    0  501    0  0.00000000000E+00 -0.00000000000E+00 -0.57124925058E+03  0.57124925058E+03  0.00000000000E+00 0. -1.
         24    2    1    2    0    0 -0.19010960083E+03 -0.71831346818E+03  0.60228337310E+03  0.95969772221E+03  0.78476477972E+02 0.  0.
        254    2    1    2    0    0  0.19010960083E+03  0.71831346818E+03  0.46379743986E+03  0.12488815919E+04  0.89021416888E+03 0.  0.
         23    2    4    4    0    0  0.18076453203E+03  0.91510863391E+03  0.33805048667E+03  0.99596129829E+03  0.86954863403E+02 0.  0.
         23    2    4    4    0    0  0.93450688055E+01 -0.19679516572E+03  0.12574695319E+03  0.25292029361E+03  0.96647354442E+02 0.  0.
          2    1    3    3  502    0 -0.18223474985E+02 -0.20586353574E+03  0.16620723081E+03  0.26521073500E+03  0.00000000000E+00 0. -1.
         -1    1    3    3    0  502 -0.17188612585E+03 -0.51244993244E+03  0.43607614229E+03  0.69448698720E+03  0.00000000000E+00 0.  1.
         11    1    5    5    0    0  0.16081140334E+03  0.68218589504E+03  0.22370141999E+03  0.73571749207E+03  0.00000000000E+00 0.  1.
        -11    1    5    5    0    0  0.19953128691E+02  0.23292273887E+03  0.11434906668E+03  0.26024380622E+03  0.00000000000E+00 0. -1.
          1    1    6    6  503    0  0.30760897413E+02 -0.65452092265E+02  0.89358948500E+02  0.11495751767E+03  0.00000000000E+00 0. -1.
         -1    1    6    6    0  503 -0.21415828608E+02 -0.13134307346E+03  0.36388004693E+02  0.13796277594E+03  0.00000000000E+00 0.  1.
<mgrwt>
<rscale>  0 0.19342426E+04</rscale>
<asrwt>0</asrwt>
<pdfrwt beam="1">  1        2 0.87884501E-01 0.19342426E+04</pdfrwt>
<pdfrwt beam="2">  1       -1 0.25189693E+00 0.19342426E+04</pdfrwt>
<totfact> 0.38036386E+00</totfact>
</mgrwt>
</event>
<event>
12    6  0.1530859E-007  0.1419343E+04  0.7818608E-02  0.8939935E-01
         -1   -1    0    0    0  501 -0.00000000000E+00  0.00000000000E+00  0.24488925922E+03  0.24488925922E+03  0.00000000000E+00 0.  1.
          2   -1    0    0  501    0  0.00000000000E+00 -0.00000000000E+00 -0.20565766196E+04  0.20565766196E+04  0.00000000000E+00 0. -1.
         24    2    1    2    0    0  0.24475346756E+03 -0.31769915045E+03 -0.48069555402E+03  0.63089938165E+03  0.78286678558E+02 0.  0.
        254    2    1    2    0    0 -0.24475346756E+03  0.31769915045E+03 -0.13309918063E+04  0.16705664971E+04  0.92650754056E+03 0.  0.
         23    2    4    4    0    0 -0.44077245108E+03  0.62775390332E+02 -0.12481640110E+04  0.13282788413E+04  0.90499605403E+02 0.  0.
         23    2    4    4    0    0  0.19601898352E+03  0.25492376012E+03 -0.82827795308E+02  0.34228765582E+03  0.83011025058E+02 0.  0.
          2    1    3    3  502    0  0.38777932305E+01 -0.10423244487E+02 -0.42796574287E+02  0.44217961019E+02  0.00000000000E+00 0. -1.
         -1    1    3    3    0  502  0.24087567433E+03 -0.30727590596E+03 -0.43789897973E+03  0.58668142063E+03  0.00000000000E+00 0.  1.
         11    1    5    5    0    0 -0.37472015985E+03  0.20471689843E+02 -0.10052836267E+04  0.10730468109E+04  0.00000000000E+00 0.  1.
        -11    1    5    5    0    0 -0.66052291229E+02  0.42303700489E+02 -0.24288038436E+03  0.25523203043E+03  0.00000000000E+00 0. -1.
          4    1    6    6  503    0  0.70110757225E+02  0.69799664796E+02 -0.63530733362E+02  0.11757408543E+03  0.00000000000E+00 0.  1.
         -4    1    6    6    0  503  0.12590822629E+03  0.18512409532E+03 -0.19297061946E+02  0.22471357039E+03  0.00000000000E+00 0. -1.
<mgrwt>
<rscale>  0 0.14193428E+04</rscale>
<asrwt>0</asrwt>
<pdfrwt beam="1">  1        2 0.31639641E+00 0.14193428E+04</pdfrwt>
<pdfrwt beam="2">  1       -1 0.37675270E-01 0.14193428E+04</pdfrwt>
<totfact> 0.46770522E+01</totfact>
</mgrwt>
</event>
<event>
12    6  0.1530859E-007  0.2881010E+04  0.7818608E-02  0.8278550E-01
          2   -1    0    0  501    0  0.00000000000E+00  0.00000000000E+00  0.34794008525E+04  0.34794008525E+04  0.00000000000E+00 0. -1.
         -1   -1    0    0    0  501 -0.00000000000E+00 -0.00000000000E+00 -0.59638256920E+03  0.59638256920E+03  0.00000000000E+00 0.  1.
         24    2    1    2    0    0  0.12655781769E+04 -0.21907189560E+03  0.15727879112E+04  0.20322234728E+04  0.81177661956E+02 0.  0.
        254    2    1    2    0    0 -0.12655781769E+04  0.21907189560E+03  0.13102303721E+04  0.20435599489E+04  0.89986277810E+03 0.  0.
         23    2    4    4    0    0 -0.12367151789E+04  0.36868316000E+03  0.13402202999E+04  0.18627786290E+04  0.91444311550E+02 0.  0.
         23    2    4    4    0    0 -0.28862997972E+02 -0.14961126441E+03 -0.29989927750E+02  0.18078131992E+03  0.92552076031E+02 0.  0.
          2    1    3    3  502    0  0.10835989971E+04 -0.15868139139E+03  0.13458246811E+04  0.17351111327E+04  0.00000000000E+00 0. -1.
         -3    1    3    3    0  502  0.18197917976E+03 -0.60390504206E+02  0.22696323013E+03  0.29711234019E+03  0.00000000000E+00 0.  1.
         11    1    5    5    0    0 -0.58115003070E+02  0.19478072230E+02  0.38491963205E+02  0.72376654462E+02  0.00000000000E+00 0. -1.
        -11    1    5    5    0    0 -0.11786001758E+04  0.34920508777E+03  0.13017283367E+04  0.17904019745E+04  0.00000000000E+00 0.  1.
          3    1    6    6  503    0 -0.37522942870E+02 -0.13085853585E+02  0.36486199404E+01  0.39906430975E+02  0.00000000000E+00 0. -1.
         -3    1    6    6    0  503  0.86599448978E+01 -0.13652541082E+03 -0.33638547691E+02  0.14087488895E+03  0.00000000000E+00 0.  1.
<mgrwt>
<rscale>  0 0.28810096E+04</rscale>
<asrwt>0</asrwt>
<pdfrwt beam="1">  1        2 0.53529242E+00 0.28810096E+04</pdfrwt>
<pdfrwt beam="2">  1       -1 0.91751167E-01 0.28810096E+04</pdfrwt>
<totfact> 0.95495770E-01</totfact>
</mgrwt>
</event>
<event>
12    6  0.1530859E-007  0.3308034E+04  0.7818608E-02  0.8160854E-01
         -1   -1    0    0    0  501 -0.00000000000E+00  0.00000000000E+00  0.10356580789E+04  0.10356580789E+04  0.00000000000E+00 0.  1.
          2   -1    0    0  501    0  0.00000000000E+00 -0.00000000000E+00 -0.26415791379E+04  0.26415791379E+04  0.00000000000E+00 0. -1.
         24    2    1    2    0    0  0.18598234694E+03 -0.97870887803E+03 -0.20413517320E+04  0.22728934413E+04  0.80418906518E+02 0.  0.
        254    2    1    2    0    0 -0.18598234694E+03  0.97870887803E+03  0.43543067300E+03  0.14043437754E+04  0.88888754476E+03 0.  0.
         23    2    4    4    0    0  0.32361785494E+03  0.53239846978E+03  0.33072620016E+03  0.71280872232E+03  0.10266356936E+03 0.  0.
         23    2    4    4    0    0 -0.50960020187E+03  0.44631040824E+03  0.10470447284E+03  0.69153505309E+03  0.91500583410E+02 0.  0.
          4    1    3    3  502    0  0.73667531231E+02 -0.24490243705E+03 -0.57636525744E+03  0.63055611869E+03  0.00000000000E+00 0. -1.
         -3    1    3    3    0  502  0.11231481570E+03 -0.73380644098E+03 -0.14649864746E+04  0.16423373226E+04  0.00000000000E+00 0.  1.
         11    1    5    5    0    0  0.24522243766E+03  0.40885202356E+03  0.20147599415E+03  0.51757762444E+03  0.00000000000E+00 0. -1.
        -11    1    5    5    0    0  0.78395417277E+02  0.12354644623E+03  0.12925020601E+03  0.19523109788E+03  0.00000000000E+00 0.  1.
          4    1    6    6  503    0 -0.45776433822E+03  0.42305212107E+03  0.76152228583E+02  0.62794939955E+03  0.00000000000E+00 0. -1.
         -4    1    6    6    0  503 -0.51835863660E+02  0.23258287178E+02  0.28552244261E+02  0.63585653541E+02  0.00000000000E+00 0.  1.
<mgrwt>
<rscale>  0 0.33080343E+04</rscale>
<asrwt>0</asrwt>
<pdfrwt beam="1">  1        2 0.40639679E+00 0.33080343E+04</pdfrwt>
<pdfrwt beam="2">  1       -1 0.15933201E+00 0.33080343E+04</pdfrwt>
<totfact> 0.80625653E-01</totfact>
</mgrwt>
</event>
<event>
12    6  0.1530859E-007  0.2369520E+04  0.7818608E-02  0.8451004E-01
         -1   -1    0    0    0  501 -0.00000000000E+00  0.00000000000E+00  0.73502600202E+03  0.73502600202E+03  0.00000000000E+00 0.  1.
          2   -1    0    0  501    0  0.00000000000E+00 -0.00000000000E+00 -0.19096695860E+04  0.19096695860E+04  0.00000000000E+00 0. -1.
         24    2    1    2    0    0 -0.43596420888E+03 -0.75531277136E+03  0.76291313299E+02  0.87927086040E+03  0.82065263422E+02 0.  0.
        254    2    1    2    0    0  0.43596420888E+03  0.75531277136E+03 -0.12509348973E+04  0.17654247276E+04  0.88956403797E+03 0.  0.
         23    2    4    4    0    0 -0.19237933477E+03  0.94334896480E+02 -0.59454754555E+03  0.63785312954E+03  0.86376789705E+02 0.  0.
         23    2    4    4    0    0  0.62834354366E+03  0.66097787488E+03 -0.65638735172E+03  0.11275715981E+04  0.94159403944E+02 0.  0.
          4    1    3    3  502    0  0.23209095500E+01  0.38907585255E+00  0.24289516151E+00  0.23657977973E+01  0.00000000000E+00 0. -1.
         -3    1    3    3    0  502 -0.43828511843E+03 -0.75570184721E+03  0.76048418137E+02  0.87690506261E+03  0.00000000000E+00 0.  1.
         11    1    5    5    0    0 -0.64260856088E+02  0.50772967793E+02 -0.12700553349E+03  0.15112166430E+03  0.00000000000E+00 0.  1.
        -11    1    5    5    0    0 -0.12811847868E+03  0.43561928686E+02 -0.46754201206E+03  0.48673146523E+03  0.00000000000E+00 0. -1.
          2    1    6    6  503    0  0.47432682140E+03  0.50345005348E+03 -0.44653286540E+03  0.82331008115E+03  0.00000000000E+00 0. -1.
         -2    1    6    6    0  503  0.15401672225E+03  0.15752782140E+03 -0.20985448632E+03  0.30426151692E+03  0.00000000000E+00 0.  1.
<mgrwt>
<rscale>  0 0.23695205E+04</rscale>
<asrwt>0</asrwt>
<pdfrwt beam="1">  1        2 0.29379532E+00 0.23695205E+04</pdfrwt>
<pdfrwt beam="2">  1       -1 0.11308092E+00 0.23695205E+04</pdfrwt>
<totfact> 0.54993084E+00</totfact>
</mgrwt>
</event>
<event>
12    6  0.1530859E-007  0.2948663E+04  0.7818608E-02  0.8258544E-01
         -1   -1    0    0    0  501 -0.00000000000E+00  0.00000000000E+00  0.70613217338E+03  0.70613217338E+03  0.00000000000E+00 0.  1.
          2   -1    0    0  501    0  0.00000000000E+00 -0.00000000000E+00 -0.30782535139E+04  0.30782535139E+04  0.00000000000E+00 0. -1.
         24    2    1    2    0    0  0.12189529087E+04 -0.55440832645E+03 -0.12193684630E+04  0.18126660403E+04  0.75391902699E+02 0.  0.
        254    2    1    2    0    0 -0.12189529087E+04  0.55440832645E+03 -0.11527528775E+04  0.19717196469E+04  0.87499964763E+03 0.  0.
         23    2    4    4    0    0 -0.13424706290E+04  0.50290412502E+03 -0.10236256083E+04  0.17639744820E+04  0.93041057101E+02 0.  0.
         23    2    4    4    0    0  0.12351772030E+03  0.51504201422E+02 -0.12912726919E+03  0.20774516495E+03  0.92600712300E+02 0.  0.
          2    1    3    3  502    0  0.91991491837E+03 -0.42826446458E+03 -0.88099342618E+03  0.13438018178E+04  0.00000000000E+00 0. -1.
         -1    1    3    3    0  502  0.29903799037E+03 -0.12614386187E+03 -0.33837503685E+03  0.46886422249E+03  0.00000000000E+00 0.  1.
         11    1    5    5    0    0 -0.81873217729E+03  0.33335814723E+03 -0.67679749750E+03  0.11133305372E+04  0.00000000000E+00 0.  1.
        -11    1    5    5    0    0 -0.52373845175E+03  0.16954597780E+03 -0.34682811078E+03  0.65064394476E+03  0.00000000000E+00 0. -1.
          2    1    6    6  503    0  0.98530940521E+02  0.77914705062E+02 -0.91381177262E+02  0.15533694687E+03  0.00000000000E+00 0. -1.
         -2    1    6    6    0  503  0.24986779778E+02 -0.26410503641E+02 -0.37746091928E+02  0.52408218078E+02  0.00000000000E+00 0.  1.
<mgrwt>
<rscale>  0 0.29486633E+04</rscale>
<asrwt>0</asrwt>
<pdfrwt beam="1">  1        2 0.47357747E+00 0.29486633E+04</pdfrwt>
<pdfrwt beam="2">  1       -1 0.10863572E+00 0.29486633E+04</pdfrwt>
<totfact> 0.11921404E+00</totfact>
</mgrwt>
</event>
<event>
12    6  0.1530859E-007  0.2485028E+04  0.7818608E-02  0.8408339E-01
         -3   -1    0    0    0  501 -0.00000000000E+00  0.00000000000E+00  0.64550614110E+03  0.64550614110E+03  0.00000000000E+00 0.  1.
          2   -1    0    0  501    0  0.00000000000E+00 -0.00000000000E+00 -0.23916756909E+04  0.23916756909E+04  0.00000000000E+00 0. -1.
         24    2    1    2    0    0  0.28897653337E+03 -0.14456032563E+03 -0.20171090762E+04  0.20442313477E+04  0.75813276998E+02 0.  0.
        254    2    1    2    0    0 -0.28897653337E+03  0.14456032563E+03  0.27093952636E+03  0.99295048436E+03  0.89896457820E+03 0.  0.
         23    2    4    4    0    0  0.90665431241E+02 -0.22911793785E+03 -0.15433099961E+03  0.30537509685E+03  0.93384380213E+02 0.  0.
         23    2    4    4    0    0 -0.37964196461E+03  0.37367826348E+03  0.42527052596E+03  0.68757538751E+03  0.90229858554E+02 0.  0.
          2    1    3    3  502    0  0.26056435991E+03 -0.13331804176E+03 -0.19265440519E+04  0.19486506792E+04  0.00000000000E+00 0. -1.
         -1    1    3    3    0  502  0.28412173459E+02 -0.11242283867E+02 -0.90565024311E+02  0.95580668421E+02  0.00000000000E+00 0.  1.
         11    1    5    5    0    0  0.22360121796E+02 -0.17411865282E+03 -0.96440541189E+02  0.20029492827E+03  0.00000000000E+00 0. -1.
        -11    1    5    5    0    0  0.68305309445E+02 -0.54999285034E+02 -0.57890458417E+02  0.10508016858E+03  0.00000000000E+00 0.  1.
          2    1    6    6  503    0 -0.36925157324E+03  0.36108978148E+03  0.38515024922E+03  0.64426180168E+03  0.00000000000E+00 0. -1.
         -2    1    6    6    0  503 -0.10390391372E+02  0.12588481994E+02  0.40120276746E+02  0.43313585835E+02  0.00000000000E+00 0.  1.
<mgrwt>
<rscale>  0 0.24850282E+04</rscale>
<asrwt>0</asrwt>
<pdfrwt beam="1">  1        2 0.36795011E+00 0.24850282E+04</pdfrwt>
<pdfrwt beam="2">  1       -3 0.99308636E-01 0.24850282E+04</pdfrwt>
<totfact> 0.20363407E+00</totfact>
</mgrwt>
</event>
<event>
12    6  0.1530859E-007  0.1297671E+04  0.7818608E-02  0.9031414E-01
          2   -1    0    0  501    0  0.00000000000E+00  0.00000000000E+00  0.18931932303E+04  0.18931932303E+04  0.00000000000E+00 0. -1.
         -1   -1    0    0    0  501 -0.00000000000E+00 -0.00000000000E+00 -0.22236905542E+03  0.22236905542E+03  0.00000000000E+00 0.  1.
         24    2    1    2    0    0 -0.84294600879E+02  0.29698080046E+03  0.60719824943E+03  0.68576292632E+03  0.79233209124E+02 0.  0.
        254    2    1    2    0    0  0.84294600879E+02 -0.29698080046E+03  0.10636259254E+04  0.14297993594E+04  0.90428033445E+03 0.  0.
         23    2    4    4    0    0 -0.33686408147E+03 -0.51059390240E+02  0.13738408429E+03  0.37891295759E+03  0.92823338100E+02 0.  0.
         23    2    4    4    0    0  0.42115868235E+03 -0.24592141022E+03  0.92624184116E+03  0.10508864018E+04  0.92662319661E+02 0.  0.
          2    1    3    3  502    0 -0.53450939155E+02  0.20005630871E+03  0.32068488643E+03  0.38173069819E+03  0.00000000000E+00 0. -1.
         -1    1    3    3    0  502 -0.30843661724E+02  0.96924491751E+02  0.28651336300E+03  0.30403222814E+03  0.00000000000E+00 0.  1.
         11    1    5    5    0    0 -0.28999205730E+03 -0.72970238782E+02  0.10087317811E+03  0.31558746348E+03  0.00000000000E+00 0.  1.
        -11    1    5    5    0    0 -0.46872024170E+02  0.21910848542E+02  0.36510906183E+02  0.63325494108E+02  0.00000000000E+00 0. -1.
          1    1    6    6  503    0  0.20105325805E+03 -0.83040728141E+02  0.33665197085E+03  0.40081507529E+03  0.00000000000E+00 0. -1.
         -1    1    6    6    0  503  0.22010542430E+03 -0.16288068208E+03  0.58958987031E+03  0.65007132653E+03  0.00000000000E+00 0.  1.
<mgrwt>
<rscale>  0 0.12976711E+04</rscale>
<asrwt>0</asrwt>
<pdfrwt beam="1">  1        2 0.29126049E+00 0.12976711E+04</pdfrwt>
<pdfrwt beam="2">  1       -1 0.34210625E-01 0.12976711E+04</pdfrwt>
<totfact> 0.69179730E+01</totfact>
</mgrwt>
</event>
<event>
12    6  0.1530859E-007  0.2444425E+04  0.7818608E-02  0.8423056E-01
         -1   -1    0    0    0  501 -0.00000000000E+00  0.00000000000E+00  0.74686658412E+03  0.74686658412E+03  0.00000000000E+00 0.  1.
          2   -1    0    0  501    0  0.00000000000E+00 -0.00000000000E+00 -0.20000947255E+04  0.20000947255E+04  0.00000000000E+00 0. -1.
         24    2    1    2    0    0 -0.62040423478E+03 -0.57600311972E+03 -0.12462052029E+04  0.15086607407E+04  0.79679448156E+02 0.  0.
        254    2    1    2    0    0  0.62040423478E+03  0.57600311972E+03 -0.70229385136E+01  0.12383005689E+04  0.90369130172E+03 0.  0.
         23    2    4    4    0    0  0.35961228528E+02 -0.42776972907E+02 -0.31184024984E+03  0.32967551899E+03  0.91205959416E+02 0.  0.
         23    2    4    4    0    0  0.58444300625E+03  0.61878009263E+03  0.30481731133E+03  0.90862504990E+03  0.90683280910E+02 0.  0.
          4    1    3    3  502    0 -0.37453714470E+03 -0.35918662454E+03 -0.69532291835E+03  0.86762149858E+03  0.00000000000E+00 0. -1.
         -3    1    3    3    0  502 -0.24586709008E+03 -0.21681649518E+03 -0.55088228450E+03  0.64103924213E+03  0.00000000000E+00 0.  1.
         11    1    5    5    0    0  0.42106741308E+02 -0.35858176985E+02 -0.31505992553E+03  0.31987738775E+03  0.00000000000E+00 0.  1.
        -11    1    5    5    0    0 -0.61455127798E+01 -0.69187959213E+01  0.32196756854E+01  0.97981312426E+01  0.00000000000E+00 0. -1.
          3    1    6    6  503    0  0.13179057154E+03  0.15204927773E+03  0.32950639283E+02  0.20389576316E+03  0.00000000000E+00 0. -1.
         -3    1    6    6    0  503  0.45265243471E+03  0.46673081490E+03  0.27186667205E+03  0.70472928675E+03  0.00000000000E+00 0.  1.
<mgrwt>
<rscale>  0 0.24444254E+04</rscale>
<asrwt>0</asrwt>
<pdfrwt beam="1">  1        2 0.30770687E+00 0.24444254E+04</pdfrwt>
<pdfrwt beam="2">  1       -1 0.11490255E+00 0.24444254E+04</pdfrwt>
<totfact> 0.46843625E+00</totfact>
</mgrwt>
</event>
<event>
12    6  0.1530859E-007  0.2477221E+04  0.7818608E-02  0.8411146E-01
         -1   -1    0    0    0  501 -0.00000000000E+00  0.00000000000E+00  0.14188676764E+04  0.14188676764E+04  0.00000000000E+00 0.  1.
          2   -1    0    0  501    0  0.00000000000E+00 -0.00000000000E+00 -0.10812541355E+04  0.10812541355E+04  0.00000000000E+00 0. -1.
         24    2    1    2    0    0  0.91804250288E+03  0.50861420870E+03  0.37560640150E+03  0.11175622463E+04  0.79842063825E+02 0.  0.
        254    2    1    2    0    0 -0.91804250288E+03 -0.50861420870E+03 -0.37992860580E+02  0.13825595657E+04  0.89918687977E+03 0.  0.
         23    2    4    4    0    0 -0.90933400768E+03 -0.67196487592E+03 -0.18040141009E+03  0.11479699537E+04  0.82856585497E+02 0.  0.
         23    2    4    4    0    0 -0.87084951963E+01  0.16335066722E+03  0.14240854951E+03  0.23458961199E+03  0.89402531899E+02 0.  0.
          4    1    3    3  502    0  0.79507349968E+03  0.41392968845E+03  0.33706861611E+03  0.95765072382E+03  0.00000000000E+00 0. -1.
         -3    1    3    3    0  502  0.12296900320E+03  0.94684520245E+02  0.38537785388E+02  0.15991152249E+03  0.00000000000E+00 0.  1.
         11    1    5    5    0    0 -0.68762898545E+03 -0.52275544407E+03 -0.17117210107E+03  0.88057183927E+03  0.00000000000E+00 0. -1.
        -11    1    5    5    0    0 -0.22170502223E+03 -0.14920943185E+03 -0.92293090179E+01  0.26739811439E+03  0.00000000000E+00 0.  1.
          3    1    6    6  503    0 -0.25859223281E+02  0.97211798287E+02  0.13123989036E+03  0.16535640894E+03  0.00000000000E+00 0. -1.
         -3    1    6    6    0  503  0.17150728084E+02  0.66138868932E+02  0.11168659149E+02  0.69233203050E+02  0.00000000000E+00 0.  1.
<mgrwt>
<rscale>  0 0.24772215E+04</rscale>
<asrwt>0</asrwt>
<pdfrwt beam="1">  1        2 0.16634679E+00 0.24772215E+04</pdfrwt>
<pdfrwt beam="2">  1       -1 0.21828733E+00 0.24772215E+04</pdfrwt>
<totfact> 0.25756748E+00</totfact>
</mgrwt>
</event>
<event>
12    6  0.1530859E-007  0.2206226E+04  0.7818608E-02  0.8515841E-01
          2   -1    0    0  501    0  0.00000000000E+00  0.00000000000E+00  0.12395110322E+04  0.12395110322E+04  0.00000000000E+00 0. -1.
         -1   -1    0    0    0  501 -0.00000000000E+00 -0.00000000000E+00 -0.98172432059E+03  0.98172432059E+03  0.00000000000E+00 0.  1.
         24    2    1    2    0    0 -0.25335910086E+03  0.80687381981E+03 -0.25041952540E+03  0.88543370524E+03  0.77760610824E+02 0.  0.
        254    2    1    2    0    0  0.25335910086E+03 -0.80687381981E+03  0.50820623700E+03  0.13358016475E+04  0.90047557832E+03 0.  0.
         23    2    4    4    0    0 -0.93667624635E+02 -0.85476174869E+03  0.28958253044E+03  0.91189854424E+03  0.91157238432E+02 0.  0.
         23    2    4    4    0    0  0.34702672549E+03  0.47887928883E+02  0.21862370656E+03  0.42390310329E+03  0.95795166759E+02 0.  0.
          2    1    3    3  502    0 -0.70604153408E+02  0.26682221872E+03 -0.46313375397E+02  0.27986420211E+03  0.00000000000E+00 0. -1.
         -1    1    3    3    0  502 -0.18275494745E+03  0.54005160109E+03 -0.20410615000E+03  0.60556950314E+03  0.00000000000E+00 0.  1.
         11    1    5    5    0    0 -0.51884544460E+02 -0.22839346150E+03  0.46900252066E+02  0.23886233034E+03  0.00000000000E+00 0. -1.
        -11    1    5    5    0    0 -0.41783080174E+02 -0.62636828719E+03  0.24268227837E+03  0.67303621390E+03  0.00000000000E+00 0.  1.
          3    1    6    6  503    0  0.27288677456E+03 -0.34401529772E+01  0.16011416875E+03  0.31641045087E+03  0.00000000000E+00 0. -1.
         -3    1    6    6    0  503  0.74139950934E+02  0.51328081860E+02  0.58509537804E+02  0.10749265243E+03  0.00000000000E+00 0.  1.
<mgrwt>
<rscale>  0 0.22062259E+04</rscale>
<asrwt>0</asrwt>
<pdfrwt beam="1">  1        2 0.19069401E+00 0.22062259E+04</pdfrwt>
<pdfrwt beam="2">  1       -1 0.15103451E+00 0.22062259E+04</pdfrwt>
<totfact> 0.63993336E+00</totfact>
</mgrwt>
</event>
<event>
12    6  0.1530859E-007  0.1776328E+04  0.7818608E-02  0.8718990E-01
         -1   -1    0    0    0  501 -0.00000000000E+00  0.00000000000E+00  0.53198056909E+03  0.53198056909E+03  0.00000000000E+00 0.  1.
          2   -1    0    0  501    0  0.00000000000E+00 -0.00000000000E+00 -0.14828264830E+04  0.14828264830E+04  0.00000000000E+00 0. -1.
         24    2    1    2    0    0 -0.35591487729E+03 -0.83059743242E+02  0.26673664383E+03  0.45959314324E+03  0.80641796430E+02 0.  0.
        254    2    1    2    0    0  0.35591487729E+03  0.83059743242E+02 -0.12175825578E+04  0.15552139089E+04  0.89588430980E+03 0.  0.
         23    2    4    4    0    0 -0.44654284028E+02  0.38762599618E+03 -0.79937083863E+03  0.89435142860E+03  0.92859152375E+02 0.  0.
         23    2    4    4    0    0  0.40056916132E+03 -0.30456625294E+03 -0.41821171912E+03  0.66086248026E+03  0.92854296531E+02 0.  0.
          2    1    3    3  502    0 -0.13263446846E+02  0.68313692003E+01 -0.18561650961E+01  0.15034359855E+02  0.00000000000E+00 0. -1.
         -1    1    3    3    0  502 -0.34265143044E+03 -0.89891112442E+02  0.26859280893E+03  0.44455878339E+03  0.00000000000E+00 0.  1.
         11    1    5    5    0    0 -0.47613605247E+02  0.31478774453E+03 -0.71608615124E+03  0.78366941723E+03  0.00000000000E+00 0. -1.
        -11    1    5    5    0    0  0.29593212186E+01  0.72838251644E+02 -0.83284687397E+02  0.11068201136E+03  0.00000000000E+00 0.  1.
          1    1    6    6  503    0  0.30088318109E+03 -0.26594977722E+03 -0.35904453241E+03  0.53867703582E+03  0.00000000000E+00 0. -1.
         -1    1    6    6    0  503  0.99685980226E+02 -0.38616475715E+02 -0.59167186710E+02  0.12218544444E+03  0.00000000000E+00 0.  1.
<mgrwt>
<rscale>  0 0.17763275E+04</rscale>
<asrwt>0</asrwt>
<pdfrwt beam="1">  1        2 0.22812715E+00 0.17763275E+04</pdfrwt>
<pdfrwt beam="2">  1       -1 0.81843166E-01 0.17763275E+04</pdfrwt>
<totfact> 0.20786335E+01</totfact>
</mgrwt>
</event>
<event>
12    6  0.1530859E-007  0.1694954E+04  0.7818608E-02  0.8764247E-01
         -1   -1    0    0    0  501 -0.00000000000E+00  0.00000000000E+00  0.11881432207E+04  0.11881432207E+04  0.00000000000E+00 0.  1.
          2   -1    0    0  501    0  0.00000000000E+00 -0.00000000000E+00 -0.60448715151E+03  0.60448715151E+03  0.00000000000E+00 0. -1.
         24    2    1    2    0    0  0.33294296856E+03  0.18535473143E+03 -0.27501990044E+03  0.47519297742E+03  0.70462922003E+02 0.  0.
        254    2    1    2    0    0 -0.33294296856E+03 -0.18535473143E+03  0.85867596967E+03  0.13174373948E+04  0.92363925406E+03 0.  0.
         23    2    4    4    0    0 -0.24322287213E+03 -0.53037009612E+03  0.70196563919E+03  0.91734853287E+03  0.91229204598E+02 0.  0.
         23    2    4    4    0    0 -0.89720096431E+02  0.34501536469E+03  0.15671033048E+03  0.40008886196E+03  0.91802354080E+02 0.  0.
          4    1    3    3  502    0  0.15042463580E+03  0.46912645626E+02 -0.12780576213E+03  0.20288587977E+03  0.00000000000E+00 0. -1.
         -3    1    3    3    0  502  0.18251833276E+03  0.13844208581E+03 -0.14721413831E+03  0.27230709765E+03  0.00000000000E+00 0.  1.
         11    1    5    5    0    0 -0.88096118595E+02 -0.26050984122E+03  0.27445613604E+03  0.38852602756E+03  0.00000000000E+00 0. -1.
        -11    1    5    5    0    0 -0.15512675353E+03 -0.26986025491E+03  0.42750950316E+03  0.52882250531E+03  0.00000000000E+00 0.  1.
          1    1    6    6  503    0 -0.10546431881E+02  0.73606696827E+01  0.26830996673E+02  0.29754143679E+02  0.00000000000E+00 0. -1.
         -1    1    6    6    0  503 -0.79173664551E+02  0.33765469501E+03  0.12987933380E+03  0.37033471828E+03  0.00000000000E+00 0.  1.
<mgrwt>
<rscale>  0 0.16949541E+04</rscale>
<asrwt>0</asrwt>
<pdfrwt beam="1">  1        2 0.92998023E-01 0.16949541E+04</pdfrwt>
<pdfrwt beam="2">  1       -1 0.18279126E+00 0.16949541E+04</pdfrwt>
<totfact> 0.10621341E+01</totfact>
</mgrwt>
</event>
<event>
12    6  0.1530859E-007  0.1811692E+04  0.7818608E-02  0.8700107E-01
         -1   -1    0    0    0  501 -0.00000000000E+00  0.00000000000E+00  0.45057181553E+03  0.45057181553E+03  0.00000000000E+00 0.  1.
          2   -1    0    0  501    0  0.00000000000E+00 -0.00000000000E+00 -0.18211451805E+04  0.18211451805E+04  0.00000000000E+00 0. -1.
         24    2    1    2    0    0  0.19693526214E+03  0.67249823226E+02  0.29305628727E+03  0.36770471674E+03  0.77580506619E+02 0.  0.
        254    2    1    2    0    0 -0.19693526214E+03 -0.67249823226E+02 -0.16636296522E+04  0.19040122792E+04  0.90238190565E+03 0.  0.
         23    2    4    4    0    0  0.33295876410E+02  0.38050563790E+03 -0.52118507187E+03  0.65210558379E+03  0.87833122526E+02 0.  0.
         23    2    4    4    0    0 -0.23023113855E+03 -0.44775546112E+03 -0.11424445803E+04  0.12519066955E+04  0.92733084081E+02 0.  0.
          4    1    3    3  502    0  0.33291895674E+02  0.19722365391E+02  0.11460009791E+03  0.12095662220E+03  0.00000000000E+00 0. -1.
         -3    1    3    3    0  502  0.16364336647E+03  0.47527457836E+02  0.17845618936E+03  0.24674809454E+03  0.00000000000E+00 0.  1.
         11    1    5    5    0    0  0.62597223688E+01  0.91887852214E+02 -0.19543929560E+03  0.21605341880E+03  0.00000000000E+00 0. -1.
        -11    1    5    5    0    0  0.27036154042E+02  0.28861778568E+03 -0.32574577627E+03  0.43605216499E+03  0.00000000000E+00 0.  1.
          2    1    6    6  503    0 -0.53971747707E+02 -0.16862312986E+03 -0.32063905365E+03  0.36627327530E+03  0.00000000000E+00 0. -1.
         -2    1    6    6    0  503 -0.17625939085E+03 -0.27913233127E+03 -0.82180552668E+03  0.88563342016E+03  0.00000000000E+00 0.  1.
<mgrwt>
<rscale>  0 0.18116917E+04</rscale>
<asrwt>0</asrwt>
<pdfrwt beam="1">  1        2 0.28017618E+00 0.18116917E+04</pdfrwt>
<pdfrwt beam="2">  1       -1 0.69318741E-01 0.18116917E+04</pdfrwt>
<totfact> 0.18991793E+01</totfact>
</mgrwt>
</event>
<event>
12    6  0.1540920E-007  0.2599185E+04  0.7818608E-02  0.8368478E-01
          2   -1    0    0  501    0  0.00000000000E+00  0.00000000000E+00  0.16205531028E+04  0.16205531028E+04  0.00000000000E+00 0. -1.
         -1   -1    0    0    0  501 -0.00000000000E+00 -0.00000000000E+00 -0.10422001375E+04  0.10422001375E+04  0.00000000000E+00 0.  1.
         24    2    1    2    0    0  0.39478326736E+03  0.92142029570E+03 -0.30682421137E+03  0.10513403460E+04  0.79411818077E+02 0.  0.
        254    2    1    2    0    0 -0.39478326736E+03 -0.92142029570E+03  0.88517717670E+03  0.16114128943E+04  0.89902374398E+03 0.  0.
         23    2    4    4    0    0 -0.30759466378E+03  0.40997424924E+02  0.43308853247E+03  0.54067655875E+03  0.92033679636E+02 0.  0.
         23    2    4    4    0    0 -0.87188603580E+02 -0.96241772062E+03  0.45208864422E+03  0.10707363355E+04  0.90787865087E+02 0.  0.
          2    1    3    3  502    0  0.56153814954E+02  0.17098099589E+03 -0.82812327181E+02  0.19810510701E+03  0.00000000000E+00 0. -1.
         -1    1    3    3    0  502  0.33862945241E+03  0.75043929981E+03 -0.22401188419E+03  0.85323523895E+03  0.00000000000E+00 0.  1.
         11    1    5    5    0    0 -0.26125346840E+03  0.67568533605E+02  0.37123293475E+03  0.45894746250E+03  0.00000000000E+00 0.  1.
        -11    1    5    5    0    0 -0.46341195379E+02 -0.26571108680E+02  0.61855597720E+02  0.81729096257E+02  0.00000000000E+00 0. -1.
          1    1    6    6  503    0 -0.27388018412E+02 -0.71657877074E+02  0.22199087083E+02  0.79860843763E+02  0.00000000000E+00 0. -1.
         -1    1    6    6    0  503 -0.59800585168E+02 -0.89075984355E+03  0.42988955714E+03  0.99087549178E+03  0.00000000000E+00 0.  1.
<mgrwt>
<rscale>  0 0.25991850E+04</rscale>
<asrwt>0</asrwt>
<pdfrwt beam="1">  1        2 0.24931586E+00 0.25991850E+04</pdfrwt>
<pdfrwt beam="2">  1       -1 0.16033848E+00 0.25991850E+04</pdfrwt>
<totfact> 0.31781882E+00</totfact>
</mgrwt>
</event>
<event>
12    6  0.1530859E-007  0.1593400E+04  0.7818608E-02  0.8824613E-01
         -1   -1    0    0    0  501 -0.00000000000E+00  0.00000000000E+00  0.76312104555E+03  0.76312104555E+03  0.00000000000E+00 0.  1.
          2   -1    0    0  501    0  0.00000000000E+00 -0.00000000000E+00 -0.83175598223E+03  0.83175598223E+03  0.00000000000E+00 0. -1.
         24    2    1    2    0    0 -0.44660386883E+03 -0.17321948401E+03  0.21887052152E+03  0.53208491584E+03  0.75829065507E+02 0.  0.
        254    2    1    2    0    0  0.44660386883E+03  0.17321948401E+03 -0.28750545820E+03  0.10627921119E+04  0.90410601117E+03 0.  0.
         23    2    4    4    0    0  0.47595026548E+03  0.47882984943E+03 -0.90030770968E+02  0.68745733368E+03  0.93195310973E+02 0.  0.
         23    2    4    4    0    0 -0.29346396656E+02 -0.30561036542E+03 -0.19747468723E+03  0.37533477826E+03  0.87298552274E+02 0.  0.
          4    1    3    3  502    0 -0.14130365597E+02 -0.28666335884E+01 -0.61400413207E+01  0.15671149526E+02  0.00000000000E+00 0. -1.
         -3    1    3    3    0  502 -0.43247350323E+03 -0.17035285042E+03  0.22501056284E+03  0.51641376631E+03  0.00000000000E+00 0.  1.
         11    1    5    5    0    0  0.39923645527E+03  0.38634694394E+03 -0.39068275667E+02  0.55693809214E+03  0.00000000000E+00 0.  1.
        -11    1    5    5    0    0  0.76713810213E+02  0.92482905495E+02 -0.50962495301E+02  0.13051924154E+03  0.00000000000E+00 0. -1.
          1    1    6    6  503    0 -0.30938013848E+02 -0.11620663680E+03 -0.33567735200E+02  0.12485165591E+03  0.00000000000E+00 0. -1.
         -1    1    6    6    0  503  0.15916171915E+01 -0.18940372862E+03 -0.16390695203E+03  0.25048312236E+03  0.00000000000E+00 0.  1.
<mgrwt>
<rscale>  0 0.15933995E+04</rscale>
<asrwt>0</asrwt>
<pdfrwt beam="1">  1        2 0.12796246E+00 0.15933995E+04</pdfrwt>
<pdfrwt beam="2">  1       -1 0.11740324E+00 0.15933995E+04</pdfrwt>
<totfact> 0.23385581E+01</totfact>
</mgrwt>
</event>
<event>
12    6  0.1530859E-007  0.1599054E+04  0.7818608E-02  0.8821129E-01
          2   -1    0    0  501    0  0.00000000000E+00  0.00000000000E+00  0.23634691648E+04  0.23634691648E+04  0.00000000000E+00 0. -1.
         -1   -1    0    0    0  501 -0.00000000000E+00 -0.00000000000E+00 -0.27046821833E+03  0.27046821833E+03  0.00000000000E+00 0.  1.
         24    2    1    2    0    0  0.14795990396E+03 -0.49887977190E+03  0.46040010993E+03  0.69934203224E+03  0.79610657798E+02 0.  0.
        254    2    1    2    0    0 -0.14795990396E+03  0.49887977190E+03  0.16326008365E+04  0.19345953509E+04  0.89805374019E+03 0.  0.
         23    2    4    4    0    0  0.49350870126E+02  0.65168300126E+03  0.68774655765E+03  0.95300928948E+03  0.90028527454E+02 0.  0.
         23    2    4    4    0    0 -0.19731077409E+03 -0.15280322935E+03  0.94485427890E+03  0.98158606143E+03  0.92093534942E+02 0.  0.
          2    1    3    3  502    0  0.71181168537E+02 -0.28837148291E+03  0.31085973222E+03  0.42995190897E+03  0.00000000000E+00 0. -1.
         -1    1    3    3    0  502  0.76778735422E+02 -0.21050828900E+03  0.14954037771E+03  0.26939012327E+03  0.00000000000E+00 0.  1.
         11    1    5    5    0    0  0.49169761057E+02  0.16616524989E+03  0.15924694008E+03  0.23534685806E+03  0.00000000000E+00 0. -1.
        -11    1    5    5    0    0  0.18110906904E+00  0.48551775137E+03  0.52849961758E+03  0.71766243142E+03  0.00000000000E+00 0.  1.
          4    1    6    6  503    0 -0.44594845967E+02  0.66361828418E+01  0.14835606039E+03  0.15505566698E+03  0.00000000000E+00 0. -1.
         -4    1    6    6    0  503 -0.15271592812E+03 -0.15943941219E+03  0.79649821851E+03  0.82653039445E+03  0.00000000000E+00 0.  1.
<mgrwt>
<rscale>  0 0.15990538E+04</rscale>
<asrwt>0</asrwt>
<pdfrwt beam="1">  1        2 0.36361063E+00 0.15990538E+04</pdfrwt>
<pdfrwt beam="2">  1       -1 0.41610497E-01 0.15990538E+04</pdfrwt>
<totfact> 0.25843968E+01</totfact>
</mgrwt>
</event>
<event>
12    6  0.1530859E-007  0.1377478E+04  0.7818608E-02  0.8970284E-01
          2   -1    0    0  501    0  0.00000000000E+00  0.00000000000E+00  0.14150194876E+04  0.14150194876E+04  0.00000000000E+00 0. -1.
         -1   -1    0    0    0  501 -0.00000000000E+00 -0.00000000000E+00 -0.33523307736E+03  0.33523307736E+03  0.00000000000E+00 0.  1.
         24    2    1    2    0    0  0.37657758881E+02  0.26355772983E+03 -0.61410786588E+02  0.28466547801E+03  0.79889710879E+02 0.  0.
        254    2    1    2    0    0 -0.37657758881E+02 -0.26355772983E+03  0.11411971968E+04  0.14655870870E+04  0.88018957255E+03 0.  0.
         23    2    4    4    0    0  0.16413145145E+03 -0.42985460408E+02 -0.77800792431E+02  0.20734986994E+03  0.90300177732E+02 0.  0.
         23    2    4    4    0    0 -0.20178921033E+03 -0.22057226942E+03  0.12189979893E+04  0.12582372170E+04  0.88508671968E+02 0.  0.
          4    1    3    3  502    0 -0.28531798383E+01 -0.12260289547E+01 -0.11855285831E+02  0.12255267616E+02  0.00000000000E+00 0. -1.
         -3    1    3    3    0  502  0.40510938719E+02  0.26478375878E+03 -0.49555500756E+02  0.27241021039E+03  0.00000000000E+00 0.  1.
         11    1    5    5    0    0  0.13544374525E+03 -0.69671409906E+02 -0.54530213191E+02  0.16177965768E+03  0.00000000000E+00 0.  1.
        -11    1    5    5    0    0  0.28687706194E+02  0.26685949498E+02 -0.23270579241E+02  0.45570212261E+02  0.00000000000E+00 0. -1.
          1    1    6    6  503    0 -0.59833695603E+02 -0.10127612498E+03  0.62488428739E+03  0.63585949489E+03  0.00000000000E+00 0.  1.
         -1    1    6    6    0  503 -0.14195551473E+03 -0.11929614444E+03  0.59411370187E+03  0.62237772212E+03  0.00000000000E+00 0. -1.
<mgrwt>
<rscale>  0 0.13774779E+04</rscale>
<asrwt>0</asrwt>
<pdfrwt beam="1">  1        2 0.21769530E+00 0.13774779E+04</pdfrwt>
<pdfrwt beam="2">  1       -1 0.51574320E-01 0.13774779E+04</pdfrwt>
<totfact> 0.59615207E+01</totfact>
</mgrwt>
</event>
<event>
12    6  0.1530859E-007  0.1383060E+04  0.7818608E-02  0.8966173E-01
         -1   -1    0    0    0  501 -0.00000000000E+00  0.00000000000E+00  0.15478358114E+04  0.15478358114E+04  0.00000000000E+00 0.  1.
          2   -1    0    0  501    0  0.00000000000E+00 -0.00000000000E+00 -0.30895637179E+03  0.30895637179E+03  0.00000000000E+00 0. -1.
         24    2    1    2    0    0  0.15559004952E+03 -0.33255034821E+03  0.14621420227E+03  0.40325040984E+03  0.80214104035E+02 0.  0.
        254    2    1    2    0    0 -0.15559004952E+03  0.33255034821E+03  0.10926652373E+04  0.14535417733E+04  0.88547635108E+03 0.  0.
         23    2    4    4    0    0  0.71864756406E+02  0.52894577133E+03  0.97974208626E+03  0.11197470540E+04  0.94819498197E+02 0.  0.
         23    2    4    4    0    0 -0.22745480593E+03 -0.19639542312E+03  0.11292315106E+03  0.33379471926E+03  0.91435362968E+02 0.  0.
          4    1    3    3  502    0  0.37095783067E+01 -0.51653226948E+02 -0.59776149386E+00  0.51789710794E+02  0.00000000000E+00 0. -1.
         -3    1    3    3    0  502  0.15188047122E+03 -0.28089712127E+03  0.14681196376E+03  0.35146069905E+03  0.00000000000E+00 0.  1.
         11    1    5    5    0    0  0.39879027078E+02  0.59601091930E+02  0.13252098966E+03  0.15067992454E+03  0.00000000000E+00 0. -1.
        -11    1    5    5    0    0  0.31985729329E+02  0.46934467940E+03  0.84722109660E+03  0.96906712951E+03  0.00000000000E+00 0.  1.
          3    1    6    6  503    0 -0.16441055095E+03 -0.11819017851E+03  0.11588212072E+03  0.23329897870E+03  0.00000000000E+00 0. -1.
         -3    1    6    6    0  503 -0.63044254981E+02 -0.78205244611E+02 -0.29589696595E+01  0.10049574057E+03  0.00000000000E+00 0.  1.
<mgrwt>
<rscale>  0 0.13830600E+04</rscale>
<asrwt>0</asrwt>
<pdfrwt beam="1">  1        2 0.47531751E-01 0.13830600E+04</pdfrwt>
<pdfrwt beam="2">  1       -1 0.23812858E+00 0.13830600E+04</pdfrwt>
<totfact> 0.98965473E+00</totfact>
</mgrwt>
</event>
<event>
12    6  0.1530859E-007  0.1444505E+04  0.7818608E-02  0.8922219E-01
         -1   -1    0    0    0  501 -0.00000000000E+00  0.00000000000E+00  0.48221055728E+03  0.48221055728E+03  0.00000000000E+00 0.  1.
          2   -1    0    0  501    0  0.00000000000E+00 -0.00000000000E+00 -0.10817864063E+04  0.10817864063E+04  0.00000000000E+00 0. -1.
         24    2    1    2    0    0  0.35197442258E+03 -0.19202052919E+03 -0.13715643606E+03  0.43108256594E+03  0.79135408835E+02 0.  0.
        254    2    1    2    0    0 -0.35197442258E+03  0.19202052919E+03 -0.46241941298E+03  0.11329143977E+04  0.95336532408E+03 0.  0.
         23    2    4    4    0    0 -0.14312951029E+03  0.30035664191E+03 -0.70402598300E+03  0.78422435609E+03  0.93032719470E+02 0.  0.
         23    2    4    4    0    0 -0.20884491229E+03 -0.10833611272E+03  0.24160657002E+03  0.34869004157E+03  0.88645923255E+02 0.  0.
          2    1    3    3  502    0  0.35084610620E+03 -0.17583880748E+03 -0.13245617234E+03  0.41419429504E+03  0.00000000000E+00 0. -1.
         -1    1    3    3    0  502  0.11283163779E+01 -0.16181721704E+02 -0.47002637210E+01  0.16888270906E+02  0.00000000000E+00 0.  1.
         11    1    5    5    0    0 -0.45068523171E+02  0.17755620898E+03 -0.31093815720E+03  0.36088767883E+03  0.00000000000E+00 0. -1.
        -11    1    5    5    0    0 -0.98060987119E+02  0.12280043293E+03 -0.39308782580E+03  0.42333667726E+03  0.00000000000E+00 0.  1.
          4    1    6    6  503    0 -0.32837904265E+02  0.63663315854E+01  0.69422929746E+02  0.77061023280E+02  0.00000000000E+00 0.  1.
         -4    1    6    6    0  503 -0.17600700802E+03 -0.11470244431E+03  0.17218364027E+03  0.27162901830E+03  0.00000000000E+00 0. -1.
<mgrwt>
<rscale>  0 0.14445052E+04</rscale>
<asrwt>0</asrwt>
<pdfrwt beam="1">  1        2 0.16642868E+00 0.14445052E+04</pdfrwt>
<pdfrwt beam="2">  1       -1 0.74186240E-01 0.14445052E+04</pdfrwt>
<totfact> 0.45267327E+01</totfact>
</mgrwt>
</event>
<event>
12    6  0.1530859E-007  0.2309637E+04  0.7818608E-02  0.8474131E-01
         -1   -1    0    0    0  501 -0.00000000000E+00  0.00000000000E+00  0.64317261007E+03  0.64317261007E+03  0.00000000000E+00 0.  1.
          2   -1    0    0  501    0  0.00000000000E+00 -0.00000000000E+00 -0.20734806255E+04  0.20734806255E+04  0.00000000000E+00 0. -1.
         24    2    1    2    0    0  0.64564159135E+03  0.36246010096E+03  0.14399254155E+03  0.75875559398E+03  0.82132880759E+02 0.  0.
        254    2    1    2    0    0 -0.64564159135E+03 -0.36246010096E+03 -0.15743005569E+04  0.19578976415E+04  0.89817066414E+03 0.  0.
         23    2    4    4    0    0 -0.33516797092E+03 -0.32039764692E+03 -0.14811034714E+03  0.49506857183E+03  0.90354828316E+02 0.  0.
         23    2    4    4    0    0 -0.31047362043E+03 -0.42062454037E+02 -0.14261902098E+04  0.14628290697E+04  0.87676984877E+02 0.  0.
          2    1    3    3  502    0  0.24813317037E+03  0.18528226074E+03  0.65477964027E+02  0.31652322214E+03  0.00000000000E+00 0. -1.
         -1    1    3    3    0  502  0.39750842098E+03  0.17717784022E+03  0.78514577524E+02  0.44223237184E+03  0.00000000000E+00 0.  1.
         11    1    5    5    0    0 -0.16148350300E+03 -0.13209602259E+03 -0.22742848806E+02  0.20986547619E+03  0.00000000000E+00 0.  1.
        -11    1    5    5    0    0 -0.17368446792E+03 -0.18830162433E+03 -0.12536749834E+03  0.28520309564E+03  0.00000000000E+00 0. -1.
          3    1    6    6  503    0 -0.12215676003E+03  0.20397210366E+02 -0.64918513397E+03  0.66089307636E+03  0.00000000000E+00 0. -1.
         -3    1    6    6    0  503 -0.18831686040E+03 -0.62459664403E+02 -0.77700507582E+03  0.80193599336E+03  0.00000000000E+00 0.  1.
<mgrwt>
<rscale>  0 0.23096372E+04</rscale>
<asrwt>0</asrwt>
<pdfrwt beam="1">  1        2 0.31899701E+00 0.23096372E+04</pdfrwt>
<pdfrwt beam="2">  1       -1 0.98949634E-01 0.23096372E+04</pdfrwt>
<totfact> 0.61193874E+00</totfact>
</mgrwt>
</event>
<event>
12    6  0.1530859E-007  0.1898885E+04  0.7818608E-02  0.8655412E-01
         -1   -1    0    0    0  501 -0.00000000000E+00  0.00000000000E+00  0.13252477983E+04  0.13252477983E+04  0.00000000000E+00 0.  1.
          2   -1    0    0  501    0  0.00000000000E+00 -0.00000000000E+00 -0.68020554803E+03  0.68020554803E+03  0.00000000000E+00 0. -1.
         24    2    1    2    0    0 -0.48211423913E+03  0.51399198555E+03  0.44359333159E+03  0.83673979398E+03  0.82076416897E+02 0.  0.
        254    2    1    2    0    0  0.48211423913E+03 -0.51399198555E+03  0.20144891868E+03  0.11687135524E+04  0.91032290965E+03 0.  0.
         23    2    4    4    0    0 -0.26208563117E+03 -0.10992863815E+03  0.38331154783E+02  0.30139243701E+03  0.92708899831E+02 0.  0.
         23    2    4    4    0    0  0.74419987030E+03 -0.40406334740E+03  0.16311776390E+03  0.86732111534E+03  0.92400630706E+02 0.  0.
          4    1    3    3  502    0 -0.14256960608E+03  0.18752014486E+03  0.11296345276E+03  0.26124823247E+03  0.00000000000E+00 0. -1.
         -3    1    3    3    0  502 -0.33954463304E+03  0.32647184069E+03  0.33062987884E+03  0.57549156151E+03  0.00000000000E+00 0.  1.
         11    1    5    5    0    0 -0.72391759859E+02  0.65136699113E+01  0.30066557241E+02  0.78657438654E+02  0.00000000000E+00 0. -1.
        -11    1    5    5    0    0 -0.18969387131E+03 -0.11644230807E+03  0.82645975419E+01  0.22273499836E+03  0.00000000000E+00 0.  1.
          4    1    6    6  503    0  0.17358682228E+03 -0.13331386555E+03  0.20497526635E+02  0.21982975280E+03  0.00000000000E+00 0. -1.
         -4    1    6    6    0  503  0.57061304802E+03 -0.27074948185E+03  0.14262023727E+03  0.64749136254E+03  0.00000000000E+00 0.  1.
<mgrwt>
<rscale>  0 0.18988848E+04</rscale>
<asrwt>0</asrwt>
<pdfrwt beam="1">  1        2 0.10464701E+00 0.18988848E+04</pdfrwt>
<pdfrwt beam="2">  1       -1 0.20388428E+00 0.18988848E+04</pdfrwt>
<totfact> 0.64290750E+00</totfact>
</mgrwt>
</event>
<event>
12    6  0.1530859E-007  0.1353153E+04  0.7818608E-02  0.8988445E-01
          2   -1    0    0  501    0  0.00000000000E+00  0.00000000000E+00  0.16385470668E+04  0.16385470668E+04  0.00000000000E+00 0. -1.
         -1   -1    0    0    0  501 -0.00000000000E+00 -0.00000000000E+00 -0.27936671060E+03  0.27936671060E+03  0.00000000000E+00 0.  1.
         24    2    1    2    0    0  0.34812375642E+03 -0.18792928632E+02  0.53288666501E+03  0.64184871413E+03  0.80363238693E+02 0.  0.
        254    2    1    2    0    0 -0.34812375642E+03  0.18792928632E+02  0.82629369117E+03  0.12760650633E+04  0.90776508945E+03 0.  0.
         23    2    4    4    0    0 -0.28443925002E+02 -0.41509238108E+03  0.38867962919E+03  0.57589167365E+03  0.86421200676E+02 0.  0.
         23    2    4    4    0    0 -0.31967983142E+03  0.43388530972E+03  0.43761406198E+03  0.70017338960E+03  0.91022259121E+02 0.  0.
          4    1    3    3  502    0  0.15516703216E+02  0.14921037581E+02  0.18582691070E+02  0.28438035244E+02  0.00000000000E+00 0. -1.
         -3    1    3    3    0  502  0.33260705321E+03 -0.33713966213E+02  0.51430397394E+03  0.61341067889E+03  0.00000000000E+00 0.  1.
         11    1    5    5    0    0 -0.44215733852E+02 -0.25987667693E+03  0.19899001806E+03  0.33028464333E+03  0.00000000000E+00 0.  1.
        -11    1    5    5    0    0  0.15771808850E+02 -0.15521570416E+03  0.18968961114E+03  0.24560703032E+03  0.00000000000E+00 0. -1.
          1    1    6    6  503    0 -0.26920829035E+03  0.39316168576E+03  0.41377812539E+03  0.63107967151E+03  0.00000000000E+00 0.  1.
         -1    1    6    6    0  503 -0.50471541070E+02  0.40723623956E+02  0.23835936590E+02  0.69093718088E+02  0.00000000000E+00 0. -1.
<mgrwt>
<rscale>  0 0.13531526E+04</rscale>
<asrwt>0</asrwt>
<pdfrwt beam="1">  1        2 0.25208416E+00 0.13531526E+04</pdfrwt>
<pdfrwt beam="2">  1       -1 0.42979495E-01 0.13531526E+04</pdfrwt>
<totfact> 0.62981910E+01</totfact>
</mgrwt>
</event>
<event>
12    6  0.1530859E-007  0.1095817E+04  0.7818608E-02  0.9209278E-01
         -1   -1    0    0    0  501 -0.00000000000E+00  0.00000000000E+00  0.73683061316E+03  0.73683061316E+03  0.00000000000E+00 0.  1.
          2   -1    0    0  501    0  0.00000000000E+00 -0.00000000000E+00 -0.40742603604E+03  0.40742603604E+03  0.00000000000E+00 0. -1.
         24    2    1    2    0    0  0.12288806723E+03  0.10067904144E+03 -0.15352225084E+02  0.17781880189E+03  0.78396996359E+02 0.  0.
        254    2    1    2    0    0 -0.12288806723E+03 -0.10067904144E+03  0.34475680220E+03  0.96643784731E+03  0.88876718751E+03 0.  0.
         23    2    4    4    0    0  0.10846220032E+01 -0.20878663222E+03 -0.25103344555E+03  0.33982306262E+03  0.94174778509E+02 0.  0.
         23    2    4    4    0    0 -0.12397268924E+03  0.10810759078E+03  0.59579024775E+03  0.62661478469E+03  0.10307080193E+03 0.  0.
          4    1    3    3  502    0  0.93847156420E+02  0.10341417701E+03 -0.33307756390E+02  0.14356596885E+03  0.00000000000E+00 0. -1.
         -3    1    3    3    0  502  0.29040910813E+02 -0.27351355675E+01  0.17955531306E+02  0.34252833049E+02  0.00000000000E+00 0.  1.
         11    1    5    5    0    0  0.16469029639E+02 -0.19205596400E+03 -0.25176311569E+03  0.31708262120E+03  0.00000000000E+00 0. -1.
        -11    1    5    5    0    0 -0.15384407636E+02 -0.16730668222E+02  0.72967014499E+00  0.22740441420E+02  0.00000000000E+00 0.  1.
          4    1    6    6  503    0 -0.98296088733E+02  0.12670162788E+03  0.45923855357E+03  0.48643136479E+03  0.00000000000E+00 0. -1.
         -4    1    6    6    0  503 -0.25676600503E+02 -0.18594037107E+02  0.13655169419E+03  0.14018341990E+03  0.00000000000E+00 0.  1.
<mgrwt>
<rscale>  0 0.10958175E+04</rscale>
<asrwt>0</asrwt>
<pdfrwt beam="1">  1        2 0.62680929E-01 0.10958175E+04</pdfrwt>
<pdfrwt beam="2">  1       -1 0.11335856E+00 0.10958175E+04</pdfrwt>
<totfact> 0.62924029E+01</totfact>
</mgrwt>
</event>
<event>
12    6  0.1530859E-007  0.1612572E+04  0.7818608E-02  0.8812862E-01
          2   -1    0    0  501    0  0.00000000000E+00  0.00000000000E+00  0.14702038000E+04  0.14702038000E+04  0.00000000000E+00 0. -1.
         -1   -1    0    0    0  501 -0.00000000000E+00 -0.00000000000E+00 -0.44218142719E+03  0.44218142719E+03  0.00000000000E+00 0.  1.
         24    2    1    2    0    0 -0.35980789494E+03  0.93494804688E+02  0.84291025450E+03  0.92466474401E+03  0.79398941463E+02 0.  0.
        254    2    1    2    0    0  0.35980789494E+03 -0.93494804688E+02  0.18511211831E+03  0.98772048319E+03  0.89617088594E+03 0.  0.
         23    2    4    4    0    0  0.49443164621E+03  0.22708641552E+03  0.27636366503E+03  0.61669778420E+03  0.88929122322E+02 0.  0.
         23    2    4    4    0    0 -0.13462375127E+03 -0.32058122021E+03 -0.91251546716E+02  0.37102269900E+03  0.91842937868E+02 0.  0.
          4    1    3    3  502    0 -0.18914893526E+03  0.18359423024E+02  0.36158262624E+03  0.40848057937E+03  0.00000000000E+00 0. -1.
         -3    1    3    3    0  502 -0.17065895968E+03  0.75135381663E+02  0.48132762826E+03  0.51618416464E+03  0.00000000000E+00 0.  1.
         11    1    5    5    0    0  0.47998142097E+03  0.22762504681E+03  0.28169243348E+03  0.60128691445E+03  0.00000000000E+00 0. -1.
        -11    1    5    5    0    0  0.14450225244E+02 -0.53863128701E+00 -0.53287684487E+01  0.15410869750E+02  0.00000000000E+00 0.  1.
          2    1    6    6  503    0 -0.35940819853E+01 -0.47285512453E+02  0.15184893777E+02  0.49793755756E+02  0.00000000000E+00 0. -1.
         -2    1    6    6    0  503 -0.13102966929E+03 -0.27329570775E+03 -0.10643644049E+03  0.32122894324E+03  0.00000000000E+00 0.  1.
<mgrwt>
<rscale>  0 0.16125716E+04</rscale>
<asrwt>0</asrwt>
<pdfrwt beam="1">  1        2 0.22618520E+00 0.16125716E+04</pdfrwt>
<pdfrwt beam="2">  1       -1 0.68027913E-01 0.16125716E+04</pdfrwt>
<totfact> 0.31518166E+01</totfact>
</mgrwt>
</event>
<event>
12    6  0.1530859E-007  0.1826784E+04  0.7818608E-02  0.8692184E-01
         -1   -1    0    0    0  501 -0.00000000000E+00  0.00000000000E+00  0.47771293508E+03  0.47771293508E+03  0.00000000000E+00 0.  1.
          2   -1    0    0  501    0  0.00000000000E+00 -0.00000000000E+00 -0.17464145635E+04  0.17464145635E+04  0.00000000000E+00 0. -1.
         24    2    1    2    0    0 -0.52213126085E+03 -0.43307018659E+03 -0.64951294116E+03  0.94248962134E+03  0.79049260076E+02 0.  0.
        254    2    1    2    0    0  0.52213126085E+03  0.43307018659E+03 -0.61918868722E+03  0.12816378772E+04  0.89388487951E+03 0.  0.
         23    2    4    4    0    0  0.90330405147E+02  0.23751480647E+03  0.19648883609E+03  0.33365432570E+03  0.90246778148E+02 0.  0.
         23    2    4    4    0    0  0.43180085570E+03  0.19555538012E+03 -0.81567752330E+03  0.94798355149E+03  0.93000570982E+02 0.  0.
          2    1    3    3  502    0 -0.42181259260E+03 -0.30659904991E+03 -0.50098117846E+03  0.72312584095E+03  0.00000000000E+00 0. -1.
         -1    1    3    3    0  502 -0.10031866825E+03 -0.12647113668E+03 -0.14853176271E+03  0.21936378039E+03  0.00000000000E+00 0.  1.
         11    1    5    5    0    0  0.55898958803E+02  0.84329245710E+02  0.31653288592E+02  0.10600965030E+03  0.00000000000E+00 0.  1.
        -11    1    5    5    0    0  0.34431446344E+02  0.15318556076E+03  0.16483554749E+03  0.22764467541E+03  0.00000000000E+00 0. -1.
          4    1    6    6  503    0  0.42004515524E+03  0.19955087153E+03 -0.76039852883E+03  0.89132732787E+03  0.00000000000E+00 0. -1.
         -4    1    6    6    0  503  0.11755700461E+02 -0.39954914072E+01 -0.55278994473E+02  0.56656223620E+02  0.00000000000E+00 0.  1.
<mgrwt>
<rscale>  0 0.18267839E+04</rscale>
<asrwt>0</asrwt>
<pdfrwt beam="1">  1        2 0.26867916E+00 0.18267839E+04</pdfrwt>
<pdfrwt beam="2">  1       -1 0.73494298E-01 0.18267839E+04</pdfrwt>
<totfact> 0.18494508E+01</totfact>
</mgrwt>
</event>
<event>
12    6  0.1530859E-007  0.2166404E+04  0.7818608E-02  0.8532543E-01
          2   -1    0    0  501    0  0.00000000000E+00  0.00000000000E+00  0.25782850535E+04  0.25782850535E+04  0.00000000000E+00 0. -1.
         -3   -1    0    0    0  501 -0.00000000000E+00 -0.00000000000E+00 -0.45508035906E+03  0.45508035906E+03  0.00000000000E+00 0.  1.
         24    2    1    2    0    0  0.78988437319E+03  0.39125357475E+03  0.67614506404E+03  0.11139087093E+04  0.81386622257E+02 0.  0.
        254    2    1    2    0    0 -0.78988437319E+03 -0.39125357475E+03  0.14470596304E+04  0.19194567033E+04  0.90185130645E+03 0.  0.
         23    2    4    4    0    0 -0.21202175293E+03 -0.49380692628E+03  0.11090326108E+04  0.12356039700E+04  0.89248724599E+02 0.  0.
         23    2    4    4    0    0 -0.57786262026E+03  0.10255335152E+03  0.33802701963E+03  0.68385273322E+03  0.94603894902E+02 0.  0.
          2    1    3    3  502    0  0.78675374492E+03  0.39121517530E+03  0.67838280658E+03  0.11100603591E+04  0.00000000000E+00 0. -1.
         -1    1    3    3    0  502  0.31306282710E+01  0.38399456772E-01 -0.22377425357E+01  0.38483502368E+01  0.00000000000E+00 0.  1.
         11    1    5    5    0    0 -0.17371436218E+03 -0.45970326172E+03  0.10323477215E+04  0.11433484099E+04  0.00000000000E+00 0. -1.
        -11    1    5    5    0    0 -0.38307390748E+02 -0.34103664551E+02  0.76684889309E+02  0.92255560104E+02  0.00000000000E+00 0.  1.
          1    1    6    6  503    0 -0.43296043905E+03  0.37684040262E+02  0.22878144202E+03  0.49113722817E+03  0.00000000000E+00 0. -1.
         -1    1    6    6    0  503 -0.14490218121E+03  0.64869311259E+02  0.10924557761E+03  0.19271550506E+03  0.00000000000E+00 0.  1.
<mgrwt>
<rscale>  0 0.21664043E+04</rscale>
<asrwt>0</asrwt>
<pdfrwt beam="1">  1        2 0.39665923E+00 0.21664043E+04</pdfrwt>
<pdfrwt beam="2">  1       -3 0.70012365E-01 0.21664043E+04</pdfrwt>
<totfact> 0.35971122E+00</totfact>
</mgrwt>
</event>
<event>
12    6  0.1530859E-007  0.1351380E+04  0.7818608E-02  0.8989784E-01
          2   -1    0    0  501    0  0.00000000000E+00  0.00000000000E+00  0.12693131514E+04  0.12693131514E+04  0.00000000000E+00 0. -1.
         -1   -1    0    0    0  501 -0.00000000000E+00 -0.00000000000E+00 -0.35968835131E+03  0.35968835131E+03  0.00000000000E+00 0.  1.
         24    2    1    2    0    0 -0.19472336258E+03  0.28439479332E+03  0.91942063832E+02  0.36338685891E+03  0.69275390433E+02 0.  0.
        254    2    1    2    0    0  0.19472336258E+03 -0.28439479332E+03  0.81768273621E+03  0.12656146438E+04  0.90242882434E+03 0.  0.
         23    2    4    4    0    0  0.44261310037E+03 -0.46292156851E+03  0.51917210594E+03  0.82906646558E+03  0.87228398716E+02 0.  0.
         23    2    4    4    0    0 -0.24788973779E+03  0.17852677519E+03  0.29851063027E+03  0.43654817818E+03  0.90247348617E+02 0.  0.
          4    1    3    3  502    0 -0.67657835661E+02  0.14160745638E+03  0.16146623282E+02  0.15776871639E+03  0.00000000000E+00 0. -1.
         -3    1    3    3    0  502 -0.12706552692E+03  0.14278733695E+03  0.75795440550E+02  0.20561814252E+03  0.00000000000E+00 0.  1.
         11    1    5    5    0    0  0.57803811669E+02 -0.10171402971E+03  0.72421193223E+02  0.13759307291E+03  0.00000000000E+00 0.  1.
        -11    1    5    5    0    0  0.38480928870E+03 -0.36120753880E+03  0.44675091272E+03  0.69147339267E+03  0.00000000000E+00 0. -1.
          3    1    6    6  503    0 -0.14794268957E+03  0.10668478699E+03  0.23666624073E+03  0.29879690874E+03  0.00000000000E+00 0. -1.
         -3    1    6    6    0  503 -0.99947048221E+02  0.71841988193E+02  0.61844389542E+02  0.13775126944E+03  0.00000000000E+00 0.  1.
<mgrwt>
<rscale>  0 0.13513803E+04</rscale>
<asrwt>0</asrwt>
<pdfrwt beam="1">  1        2 0.19527894E+00 0.13513803E+04</pdfrwt>
<pdfrwt beam="2">  1       -1 0.55336670E-01 0.13513803E+04</pdfrwt>
<totfact> 0.63331389E+01</totfact>
</mgrwt>
</event>
<event>
12    6  0.1530859E-007  0.3984452E+04  0.7818608E-02  0.8007690E-01
          2   -1    0    0  501    0  0.00000000000E+00  0.00000000000E+00  0.26318564621E+04  0.26318564621E+04  0.00000000000E+00 0. -1.
         -1   -1    0    0    0  501 -0.00000000000E+00 -0.00000000000E+00 -0.15080475325E+04  0.15080475325E+04  0.00000000000E+00 0.  1.
         24    2    1    2    0    0 -0.17888043149E+04  0.46312393346E+03  0.90931323312E+03  0.20611520118E+04  0.84808048821E+02 0.  0.
        254    2    1    2    0    0  0.17888043149E+04 -0.46312393346E+03  0.21449569645E+03  0.20787519827E+04  0.92784521732E+03 0.  0.
         23    2    4    4    0    0  0.21887775093E+02  0.64651847677E+02 -0.15833859457E+03  0.19510871332E+03  0.91309163714E+02 0.  0.
         23    2    4    4    0    0  0.17669165398E+04 -0.52777578113E+03  0.37283429102E+03  0.18836432694E+04  0.92548496317E+02 0.  0.
          4    1    3    3  502    0 -0.19863142338E+03  0.40553357860E+02  0.73236692513E+02  0.21555192024E+03  0.00000000000E+00 0. -1.
         -3    1    3    3    0  502 -0.15901728915E+04  0.42257057560E+03  0.83607654061E+03  0.18456000916E+04  0.00000000000E+00 0.  1.
         11    1    5    5    0    0  0.17986081623E+02  0.40688781991E+02 -0.11058174788E+02  0.45840586183E+02  0.00000000000E+00 0. -1.
        -11    1    5    5    0    0  0.39016934708E+01  0.23963065687E+02 -0.14728041978E+03  0.14926812714E+03  0.00000000000E+00 0.  1.
          3    1    6    6  503    0  0.69121041801E+03 -0.16773759680E+03  0.16976383902E+03  0.73125064403E+03  0.00000000000E+00 0. -1.
         -3    1    6    6    0  503  0.10757061218E+04 -0.36003818433E+03  0.20307045200E+03  0.11523926254E+04  0.00000000000E+00 0.  1.
<mgrwt>
<rscale>  0 0.39844521E+04</rscale>
<asrwt>0</asrwt>
<pdfrwt beam="1">  1        2 0.40490099E+00 0.39844521E+04</pdfrwt>
<pdfrwt beam="2">  1       -1 0.23200731E+00 0.39844521E+04</pdfrwt>
<totfact> 0.23945142E-01</totfact>
</mgrwt>
</event>
<event>
12    6  0.1530859E-007  0.2078568E+04  0.7818608E-02  0.8570743E-01
          2   -1    0    0  501    0  0.00000000000E+00  0.00000000000E+00  0.19424916654E+04  0.19424916654E+04  0.00000000000E+00 0. -1.
         -1   -1    0    0    0  501 -0.00000000000E+00 -0.00000000000E+00 -0.55604429710E+03  0.55604429710E+03  0.00000000000E+00 0.  1.
         24    2    1    2    0    0  0.25825763636E+03 -0.80478058300E+02  0.15202545164E+04  0.15462644568E+04  0.81155722630E+02 0.  0.
        254    2    1    2    0    0 -0.25825763636E+03  0.80478058300E+02 -0.13380714805E+03  0.95227150569E+03  0.90318488864E+03 0.  0.
         23    2    4    4    0    0 -0.96241940216E+02 -0.34517669155E+03 -0.28341520540E+03  0.46614007238E+03  0.92482046794E+02 0.  0.
         23    2    4    4    0    0 -0.16201569615E+03  0.42565474985E+03  0.14960805735E+03  0.48613143331E+03  0.80685486670E+02 0.  0.
          2    1    3    3  502    0  0.25754020883E+03 -0.79265309422E+02  0.13831989643E+04  0.14092016617E+04  0.00000000000E+00 0. -1.
         -1    1    3    3    0  502  0.71742753392E+00 -0.12127488773E+01  0.13705555206E+03  0.13706279514E+03  0.00000000000E+00 0.  1.
         11    1    5    5    0    0 -0.79815270731E+02 -0.12221837000E+03 -0.12445840156E+03  0.19182726899E+03  0.00000000000E+00 0. -1.
        -11    1    5    5    0    0 -0.16426669484E+02 -0.22295832155E+03 -0.15895680384E+03  0.27431280339E+03  0.00000000000E+00 0.  1.
          1    1    6    6  503    0  0.54289069368E+01  0.45314028836E+02  0.40851532527E+01  0.45820549069E+02  0.00000000000E+00 0. -1.
         -1    1    6    6    0  503 -0.16744460308E+03  0.38034072101E+03  0.14552290410E+03  0.44031088424E+03  0.00000000000E+00 0.  1.
<mgrwt>
<rscale>  0 0.20785682E+04</rscale>
<asrwt>0</asrwt>
<pdfrwt beam="1">  1        2 0.29884487E+00 0.20785682E+04</pdfrwt>
<pdfrwt beam="2">  1       -1 0.85545277E-01 0.20785682E+04</pdfrwt>
<totfact> 0.10205062E+01</totfact>
</mgrwt>
</event>
<event>
12    6  0.1530859E-007  0.2057335E+04  0.7818608E-02  0.8580274E-01
          2   -1    0    0  501    0  0.00000000000E+00  0.00000000000E+00  0.26841746962E+04  0.26841746962E+04  0.00000000000E+00 0. -1.
         -1   -1    0    0    0  501 -0.00000000000E+00 -0.00000000000E+00 -0.39422070577E+03  0.39422070577E+03  0.00000000000E+00 0.  1.
         24    2    1    2    0    0  0.81112579220E+03 -0.70488558558E+02  0.10447221266E+04  0.13269266193E+04  0.79976519282E+02 0.  0.
        254    2    1    2    0    0 -0.81112579220E+03  0.70488558558E+02  0.12452318638E+04  0.17514687826E+04  0.92420063524E+03 0.  0.
         23    2    4    4    0    0 -0.97867098240E+03 -0.46312423534E+02  0.11362084588E+04  0.15031215270E+04  0.91994188732E+02 0.  0.
         23    2    4    4    0    0  0.16754519020E+03  0.11680098209E+03  0.10902340500E+03  0.24834725559E+03  0.89868772915E+02 0.  0.
          2    1    3    3  502    0  0.16393340363E+03 -0.43704839786E+02  0.23955961767E+03  0.29355252386E+03  0.00000000000E+00 0. -1.
         -1    1    3    3    0  502  0.64719238858E+03 -0.26783718772E+02  0.80516250891E+03  0.10333740955E+04  0.00000000000E+00 0.  1.
         11    1    5    5    0    0 -0.71878053933E+03 -0.69084017569E+02  0.80272804810E+03  0.10797177337E+04  0.00000000000E+00 0.  1.
        -11    1    5    5    0    0 -0.25989044307E+03  0.22771594035E+02  0.33348041073E+03  0.42340379336E+03  0.00000000000E+00 0. -1.
          3    1    6    6  503    0  0.23481337140E+02 -0.95077761874E+01 -0.43771611515E+01  0.25708569421E+02  0.00000000000E+00 0. -1.
         -3    1    6    6    0  503  0.14406385306E+03  0.12630875828E+03  0.11340056615E+03  0.22263868617E+03  0.00000000000E+00 0.  1.
<mgrwt>
<rscale>  0 0.20573354E+04</rscale>
<asrwt>0</asrwt>
<pdfrwt beam="1">  1        2 0.41294994E+00 0.20573354E+04</pdfrwt>
<pdfrwt beam="2">  1       -1 0.60649341E-01 0.20573354E+04</pdfrwt>
<totfact> 0.78817137E+00</totfact>
</mgrwt>
</event>
<event>
12    6  0.1530859E-007  0.2345657E+04  0.7818608E-02  0.8460134E-01
         -1   -1    0    0    0  501 -0.00000000000E+00  0.00000000000E+00  0.10387778814E+04  0.10387778814E+04  0.00000000000E+00 0.  1.
          2   -1    0    0  501    0  0.00000000000E+00 -0.00000000000E+00 -0.13241775027E+04  0.13241775027E+04  0.00000000000E+00 0. -1.
         24    2    1    2    0    0 -0.17025823388E+03 -0.96649497798E+03 -0.32372213189E+03  0.10365988581E+04  0.81490890901E+02 0.  0.
        254    2    1    2    0    0  0.17025823388E+03  0.96649497798E+03  0.38322510570E+02  0.13263565260E+04  0.89143289741E+03 0.  0.
         23    2    4    4    0    0  0.20478953368E+03  0.11026731773E+04 -0.73211052714E+02  0.11278058875E+04  0.93591520146E+02 0.  0.
         23    2    4    4    0    0 -0.34531299799E+02 -0.13617819930E+03  0.11153356328E+03  0.19855063850E+03  0.85121722719E+02 0.  0.
          2    1    3    3  502    0 -0.11132216515E+03 -0.79443459399E+03 -0.27874940786E+03  0.84924683159E+03  0.00000000000E+00 0. -1.
         -1    1    3    3    0  502 -0.58936068724E+02 -0.17206038399E+03 -0.44972724032E+02  0.18735202652E+03  0.00000000000E+00 0.  1.
         11    1    5    5    0    0  0.30483612389E+02  0.22238199161E+03  0.21251872967E+02  0.22546539184E+03  0.00000000000E+00 0.  1.
        -11    1    5    5    0    0  0.17430592129E+03  0.88029118567E+03 -0.94462925681E+02  0.90234049565E+03  0.00000000000E+00 0. -1.
          1    1    6    6  503    0 -0.59295399656E+02 -0.77074419503E+02  0.48517417744E+02  0.10867543598E+03  0.00000000000E+00 0. -1.
         -1    1    6    6    0  503  0.24764099856E+02 -0.59103779799E+02  0.63016145540E+02  0.89875202514E+02  0.00000000000E+00 0.  1.
<mgrwt>
<rscale>  0 0.23456567E+04</rscale>
<asrwt>0</asrwt>
<pdfrwt beam="1">  1        2 0.20371962E+00 0.23456567E+04</pdfrwt>
<pdfrwt beam="2">  1       -1 0.15981198E+00 0.23456567E+04</pdfrwt>
<totfact> 0.48300551E+00</totfact>
</mgrwt>
</event>
<event>
12    6  0.1530859E-007  0.1400116E+04  0.7818608E-02  0.8953735E-01
         -1   -1    0    0    0  501 -0.00000000000E+00  0.00000000000E+00  0.82835223675E+03  0.82835223675E+03  0.00000000000E+00 0.  1.
          2   -1    0    0  501    0  0.00000000000E+00 -0.00000000000E+00 -0.59163355700E+03  0.59163355700E+03  0.00000000000E+00 0. -1.
         24    2    1    2    0    0 -0.13139529607E+03 -0.34764004605E+03 -0.10058186343E+03  0.39298776260E+03  0.78767663754E+02 0.  0.
        254    2    1    2    0    0  0.13139529607E+03  0.34764004605E+03  0.33730054318E+03  0.10269980311E+04  0.89601058816E+03 0.  0.
         23    2    4    4    0    0  0.37135366896E+03  0.23954786695E+03  0.52524152359E+03  0.69249760884E+03  0.91583580047E+02 0.  0.
         23    2    4    4    0    0 -0.23995837288E+03  0.10809217910E+03 -0.18794098041E+03  0.33450042230E+03  0.85468008658E+02 0.  0.
          2    1    3    3  502    0 -0.11506804845E+03 -0.19569678268E+03 -0.56667787778E+02  0.23398530873E+03  0.00000000000E+00 0. -1.
         -1    1    3    3    0  502 -0.16327247619E+02 -0.15194326337E+03 -0.43914075650E+02  0.15900245387E+03  0.00000000000E+00 0.  1.
         11    1    5    5    0    0  0.36782429361E+03  0.21622654114E+03  0.50722789251E+03  0.66281880104E+03  0.00000000000E+00 0. -1.
        -11    1    5    5    0    0  0.35293753456E+01  0.23321325811E+02  0.18013631075E+02  0.29678807800E+02  0.00000000000E+00 0.  1.
          4    1    6    6  503    0 -0.32453710096E+02  0.47781187885E+02 -0.21092704544E+02  0.61491360366E+02  0.00000000000E+00 0.  1.
         -4    1    6    6    0  503 -0.20750466279E+03  0.60310991211E+02 -0.16684827587E+03  0.27300906194E+03  0.00000000000E+00 0. -1.
<mgrwt>
<rscale>  0 0.14001157E+04</rscale>
<asrwt>0</asrwt>
<pdfrwt beam="1">  1        2 0.91020548E-01 0.14001157E+04</pdfrwt>
<pdfrwt beam="2">  1       -1 0.12743881E+00 0.14001157E+04</pdfrwt>
<totfact> 0.29928924E+01</totfact>
</mgrwt>
</event>
<event>
12    6  0.1530859E-007  0.1582414E+04  0.7818608E-02  0.8831425E-01
         -1   -1    0    0    0  501 -0.00000000000E+00  0.00000000000E+00  0.41093381834E+03  0.41093381834E+03  0.00000000000E+00 0.  1.
          2   -1    0    0  501    0  0.00000000000E+00 -0.00000000000E+00 -0.15233811992E+04  0.15233811992E+04  0.00000000000E+00 0. -1.
         24    2    1    2    0    0  0.33287137246E+03 -0.26765419679E+03 -0.76109762113E+03  0.87598742984E+03  0.75115036308E+02 0.  0.
        254    2    1    2    0    0 -0.33287137246E+03  0.26765419679E+03 -0.35134975975E+03  0.10583275877E+04  0.90231286680E+03 0.  0.
         23    2    4    4    0    0 -0.47445517094E+03  0.23036229941E+03 -0.56793243137E+03  0.78177526711E+03  0.10222926901E+03 0.  0.
         23    2    4    4    0    0  0.14158379849E+03  0.37291897383E+02  0.21658267162E+03  0.27655232061E+03  0.90202410073E+02 0.  0.
          4    1    3    3  502    0  0.23803420763E+03 -0.22308094334E+03 -0.61537161834E+03  0.69649667619E+03  0.00000000000E+00 0. -1.
         -3    1    3    3    0  502  0.94837164825E+02 -0.44573253446E+02 -0.14572600279E+03  0.17949075364E+03  0.00000000000E+00 0.  1.
         11    1    5    5    0    0 -0.15401886112E+03  0.12653606706E+03 -0.18759866254E+03  0.27372695161E+03  0.00000000000E+00 0.  1.
        -11    1    5    5    0    0 -0.32043630982E+03  0.10382623234E+03 -0.38033376883E+03  0.50804831550E+03  0.00000000000E+00 0. -1.
          2    1    6    6  503    0  0.10420574094E+02  0.25550702748E+02  0.89069274068E+02  0.93245709597E+02  0.00000000000E+00 0. -1.
         -2    1    6    6    0  503  0.13116322439E+03  0.11741194635E+02  0.12751339755E+03  0.18330661101E+03  0.00000000000E+00 0.  1.
<mgrwt>
<rscale>  0 0.15824144E+04</rscale>
<asrwt>0</asrwt>
<pdfrwt beam="1">  1        2 0.23436634E+00 0.15824144E+04</pdfrwt>
<pdfrwt beam="2">  1       -1 0.63220587E-01 0.15824144E+04</pdfrwt>
<totfact> 0.34187868E+01</totfact>
</mgrwt>
</event>
<event>
12    6  0.1530859E-007  0.1274775E+04  0.7818608E-02  0.9049812E-01
         -1   -1    0    0    0  501 -0.00000000000E+00  0.00000000000E+00  0.16334575033E+03  0.16334575033E+03  0.00000000000E+00 0.  1.
          2   -1    0    0  501    0  0.00000000000E+00 -0.00000000000E+00 -0.24871342079E+04  0.24871342079E+04  0.00000000000E+00 0. -1.
         24    2    1    2    0    0  0.65744996835E+02  0.24046318680E+03 -0.84915194674E+03  0.88852685409E+03  0.79221164822E+02 0.  0.
        254    2    1    2    0    0 -0.65744996835E+02 -0.24046318680E+03 -0.14746365109E+04  0.17619531042E+04  0.93154761198E+03 0.  0.
         23    2    4    4    0    0  0.24646440871E+03 -0.11492796589E+03 -0.13679306165E+04  0.13974811471E+04  0.88126289390E+02 0.  0.
         23    2    4    4    0    0 -0.31220940555E+03 -0.12553522091E+03 -0.10670589436E+03  0.36447195707E+03  0.90663415981E+02 0.  0.
          4    1    3    3  502    0  0.24128727791E+02  0.10863583110E+03 -0.51541769822E+03  0.52729436081E+03  0.00000000000E+00 0. -1.
         -3    1    3    3    0  502  0.41616269044E+02  0.13182735570E+03 -0.33373424853E+03  0.36123249328E+03  0.00000000000E+00 0.  1.
         11    1    5    5    0    0  0.17127045998E+03 -0.60931256805E+02 -0.70237529589E+03  0.72551860403E+03  0.00000000000E+00 0. -1.
        -11    1    5    5    0    0  0.75193948733E+02 -0.53996709085E+02 -0.66555532061E+03  0.67196254309E+03  0.00000000000E+00 0.  1.
          2    1    6    6  503    0 -0.31803917029E+02  0.14237120026E+02 -0.58811263083E+01  0.35337973508E+02  0.00000000000E+00 0. -1.
         -2    1    6    6    0  503 -0.28040548852E+03 -0.13977234094E+03 -0.10082476805E+03  0.32913398356E+03  0.00000000000E+00 0.  1.
<mgrwt>
<rscale>  0 0.12747750E+04</rscale>
<asrwt>0</asrwt>
<pdfrwt beam="1">  1        2 0.38263600E+00 0.12747750E+04</pdfrwt>
<pdfrwt beam="2">  1       -1 0.25130117E-01 0.12747750E+04</pdfrwt>
<totfact> 0.55255937E+01</totfact>
</mgrwt>
</event>
<event>
12    6  0.1530859E-007  0.1127800E+04  0.7818608E-02  0.9178512E-01
         -1   -1    0    0    0  501 -0.00000000000E+00  0.00000000000E+00  0.20835116528E+03  0.20835116528E+03  0.00000000000E+00 0.  1.
          2   -1    0    0  501    0  0.00000000000E+00 -0.00000000000E+00 -0.15261887134E+04  0.15261887134E+04  0.00000000000E+00 0. -1.
         24    2    1    2    0    0 -0.78059447639E+02 -0.13622005285E+03 -0.32499021201E+03  0.37100011346E+03  0.85867724571E+02 0.  0.
        254    2    1    2    0    0  0.78059447639E+02  0.13622005285E+03 -0.99284733607E+03  0.13635397652E+04  0.92132821421E+03 0.  0.
         23    2    4    4    0    0 -0.13079750053E+03  0.40293705286E+02 -0.10863760376E+04  0.10990433231E+04  0.94613753020E+02 0.  0.
         23    2    4    4    0    0  0.20885694817E+03  0.95926347565E+02  0.93528701513E+02  0.26449644204E+03  0.91584173789E+02 0.  0.
          4    1    3    3  502    0 -0.59062869858E+02 -0.14537976805E+03 -0.29754576416E+03  0.33638843816E+03  0.00000000000E+00 0. -1.
         -3    1    3    3    0  502 -0.18996577781E+02  0.91597151985E+01 -0.27444447845E+02  0.34611675305E+02  0.00000000000E+00 0.  1.
         11    1    5    5    0    0 -0.56072555416E+02  0.54502923371E+02 -0.34374636147E+03  0.35252838347E+03  0.00000000000E+00 0.  1.
        -11    1    5    5    0    0 -0.74724945118E+02 -0.14209218085E+02 -0.74262967611E+03  0.74651493967E+03  0.00000000000E+00 0. -1.
          2    1    6    6  503    0  0.18828183900E+03  0.10741868126E+03  0.62628986933E+02  0.22563513465E+03  0.00000000000E+00 0. -1.
         -2    1    6    6    0  503  0.20575109169E+02 -0.11492333700E+02  0.30899714580E+02  0.38861307393E+02  0.00000000000E+00 0.  1.
<mgrwt>
<rscale>  0 0.11278000E+04</rscale>
<asrwt>0</asrwt>
<pdfrwt beam="1">  1        2 0.23479826E+00 0.11278000E+04</pdfrwt>
<pdfrwt beam="2">  1       -1 0.32054026E-01 0.11278000E+04</pdfrwt>
<totfact> 0.12570900E+02</totfact>
</mgrwt>
</event>
<event>
12    6  0.1530859E-007  0.1336693E+04  0.7818608E-02  0.9000963E-01
          2   -1    0    0  501    0  0.00000000000E+00  0.00000000000E+00  0.73028611193E+03  0.73028611193E+03  0.00000000000E+00 0. -1.
         -1   -1    0    0    0  501 -0.00000000000E+00 -0.00000000000E+00 -0.61166037913E+03  0.61166037913E+03  0.00000000000E+00 0.  1.
         24    2    1    2    0    0  0.31405634408E+03  0.15769943395E+03  0.10149777997E+03  0.37464742668E+03  0.80983925876E+02 0.  0.
        254    2    1    2    0    0 -0.31405634408E+03 -0.15769943395E+03  0.17127952835E+02  0.96729906438E+03  0.90104029569E+03 0.  0.
         23    2    4    4    0    0 -0.38982348328E+03  0.28784465833E+03 -0.70026137768E+02  0.49806762242E+03  0.91382717669E+02 0.  0.
         23    2    4    4    0    0  0.75767139195E+02 -0.44554409229E+03  0.87154090603E+02  0.46923144196E+03  0.91280408974E+02 0.  0.
          4    1    3    3  502    0  0.47474144069E+02  0.19271809785E+02 -0.13534829394E+02  0.52994231895E+02  0.00000000000E+00 0. -1.
         -3    1    3    3    0  502  0.26658220001E+03  0.13842762417E+03  0.11503260936E+03  0.32165319478E+03  0.00000000000E+00 0.  1.
         11    1    5    5    0    0 -0.12601390567E+03  0.14238256027E+03 -0.68593883560E+01  0.19026126537E+03  0.00000000000E+00 0.  1.
        -11    1    5    5    0    0 -0.26380957761E+03  0.14546209806E+03 -0.63166749412E+02  0.30780635705E+03  0.00000000000E+00 0. -1.
          3    1    6    6  503    0  0.31178839136E+02 -0.63063656346E+02  0.40945275901E+02  0.81398159563E+02  0.00000000000E+00 0. -1.
         -3    1    6    6    0  503  0.44588300059E+02 -0.38248043594E+03  0.46208814702E+02  0.38783328240E+03  0.00000000000E+00 0.  1.
<mgrwt>
<rscale>  0 0.13366931E+04</rscale>
<asrwt>0</asrwt>
<pdfrwt beam="1">  1        2 0.11235171E+00 0.13366931E+04</pdfrwt>
<pdfrwt beam="2">  1       -1 0.94101596E-01 0.13366931E+04</pdfrwt>
<totfact> 0.47429474E+01</totfact>
</mgrwt>
</event>
<event>
12    6  0.1530859E-007  0.3451708E+04  0.7818608E-02  0.8125331E-01
         -1   -1    0    0    0  501 -0.00000000000E+00  0.00000000000E+00  0.15391405927E+04  0.15391405927E+04  0.00000000000E+00 0.  1.
          2   -1    0    0  501    0  0.00000000000E+00 -0.00000000000E+00 -0.19352173749E+04  0.19352173749E+04  0.00000000000E+00 0. -1.
         24    2    1    2    0    0  0.13319683195E+04 -0.22047600730E+03  0.70168934480E+03  0.15234096739E+04  0.75231800999E+02 0.  0.
        254    2    1    2    0    0 -0.13319683195E+04  0.22047600730E+03 -0.10977661270E+04  0.19509482937E+04  0.88224684809E+03 0.  0.
         23    2    4    4    0    0 -0.41380506003E+03 -0.38051221622E+02 -0.86722953494E+03  0.96594232177E+03  0.90966914558E+02 0.  0.
         23    2    4    4    0    0 -0.91816325951E+03  0.25852722893E+03 -0.23053659210E+03  0.98500597193E+03  0.85026732466E+02 0.  0.
          4    1    3    3  502    0  0.73464332442E+03 -0.13778796263E+03  0.42637544005E+03  0.86051284281E+03  0.00000000000E+00 0. -1.
         -3    1    3    3    0  502  0.59732499512E+03 -0.82688044671E+02  0.27531390476E+03  0.66289683110E+03  0.00000000000E+00 0.  1.
         11    1    5    5    0    0  0.44413000347E+01  0.45236548526E-02 -0.40231401265E+01  0.59925639704E+01  0.00000000000E+00 0.  1.
        -11    1    5    5    0    0 -0.41824636007E+03 -0.38055745277E+02 -0.86320639481E+03  0.95994975780E+03  0.00000000000E+00 0. -1.
          2    1    6    6  503    0 -0.80700574534E+02  0.27115023000E+02  0.34474694439E+01  0.85203827660E+02  0.00000000000E+00 0. -1.
         -2    1    6    6    0  503 -0.83746268497E+03  0.23141220592E+03 -0.23398406154E+03  0.89980214427E+03  0.00000000000E+00 0.  1.
<mgrwt>
<rscale>  0 0.34517078E+04</rscale>
<asrwt>0</asrwt>
<pdfrwt beam="1">  1        2 0.29772575E+00 0.34517078E+04</pdfrwt>
<pdfrwt beam="2">  1       -1 0.23679086E+00 0.34517078E+04</pdfrwt>
<totfact> 0.57986048E-01</totfact>
</mgrwt>
</event>
<event>
12    6  0.1530859E-007  0.1691531E+04  0.7818608E-02  0.8766209E-01
          2   -1    0    0  501    0  0.00000000000E+00  0.00000000000E+00  0.95762215891E+03  0.95762215891E+03  0.00000000000E+00 0. -1.
         -1   -1    0    0    0  501 -0.00000000000E+00 -0.00000000000E+00 -0.74697433389E+03  0.74697433389E+03  0.00000000000E+00 0.  1.
         24    2    1    2    0    0  0.19635879894E+03 -0.34057029158E+02 -0.46975016776E+03  0.51601684973E+03  0.76756171961E+02 0.  0.
        254    2    1    2    0    0 -0.19635879894E+03  0.34057029158E+02  0.68039799279E+03  0.11885796431E+04  0.95397247349E+03 0.  0.
         23    2    4    4    0    0  0.31540505744E+03 -0.98092840781E+02  0.29227277339E+02  0.34486398027E+03  0.94733180429E+02 0.  0.
         23    2    4    4    0    0 -0.51176385638E+03  0.13214986994E+03  0.65117071545E+03  0.84371566280E+03  0.92016227785E+02 0.  0.
          2    1    3    3  502    0  0.28066124591E+02  0.47746588919E+01 -0.21597602650E+02  0.35734593286E+02  0.00000000000E+00 0. -1.
         -1    1    3    3    0  502  0.16829267435E+03 -0.38831688050E+02 -0.44815256511E+03  0.48028225644E+03  0.00000000000E+00 0.  1.
         11    1    5    5    0    0  0.23284417804E+03 -0.26723977236E+02  0.15723110894E+02  0.23489954965E+03  0.00000000000E+00 0.  1.
        -11    1    5    5    0    0  0.82560879398E+02 -0.71368863545E+02  0.13504166445E+02  0.10996443062E+03  0.00000000000E+00 0. -1.
          1    1    6    6  503    0 -0.10141025864E+03  0.37685097676E+02  0.19431615556E+03  0.22240273257E+03  0.00000000000E+00 0. -1.
         -1    1    6    6    0  503 -0.41035359774E+03  0.94464772263E+02  0.45685455989E+03  0.62131293023E+03  0.00000000000E+00 0.  1.
<mgrwt>
<rscale>  0 0.16915309E+04</rscale>
<asrwt>0</asrwt>
<pdfrwt beam="1">  1        2 0.14732649E+00 0.16915309E+04</pdfrwt>
<pdfrwt beam="2">  1       -1 0.11491913E+00 0.16915309E+04</pdfrwt>
<totfact> 0.20052676E+01</totfact>
</mgrwt>
</event>
<event>
12    6  0.1530859E-007  0.1266458E+04  0.7818608E-02  0.9056595E-01
          2   -1    0    0  501    0  0.00000000000E+00  0.00000000000E+00  0.19230416020E+04  0.19230416020E+04  0.00000000000E+00 0. -1.
         -1   -1    0    0    0  501 -0.00000000000E+00 -0.00000000000E+00 -0.20851305040E+03  0.20851305040E+03  0.00000000000E+00 0.  1.
         24    2    1    2    0    0  0.89113682960E+02 -0.29901107910E+03  0.25432553764E+03  0.41043776391E+03  0.80179829344E+02 0.  0.
        254    2    1    2    0    0 -0.89113682960E+02  0.29901107910E+03  0.14602030140E+04  0.17211168885E+04  0.85597992264E+03 0.  0.
         23    2    4    4    0    0  0.22490058237E+03  0.38939268617E+03  0.12233787382E+04  0.13066435746E+04  0.91950846372E+02 0.  0.
         23    2    4    4    0    0 -0.31401426533E+03 -0.90381607067E+02  0.23682427579E+03  0.41447331385E+03  0.94491251248E+02 0.  0.
          2    1    3    3  502    0  0.49881610133E+02 -0.70580357630E+02  0.41926173842E+02  0.96060220516E+02  0.00000000000E+00 0. -1.
         -1    1    3    3    0  502  0.39232072827E+02 -0.22843072147E+03  0.21239936379E+03  0.31437754340E+03  0.00000000000E+00 0.  1.
         11    1    5    5    0    0  0.21622304179E+03  0.30356681052E+03  0.99765783948E+03  0.10650006464E+04  0.00000000000E+00 0.  1.
        -11    1    5    5    0    0  0.86775405794E+01  0.85825875650E+02  0.22572089869E+03  0.24164292819E+03  0.00000000000E+00 0. -1.
          2    1    6    6  503    0 -0.37919128983E+02 -0.32464324673E+02  0.72425480280E+02  0.87961599082E+02  0.00000000000E+00 0. -1.
         -2    1    6    6    0  503 -0.27609513635E+03 -0.57917282394E+02  0.16439879551E+03  0.32651171477E+03  0.00000000000E+00 0.  1.
<mgrwt>
<rscale>  0 0.12664585E+04</rscale>
<asrwt>0</asrwt>
<pdfrwt beam="1">  1        2 0.29585254E+00 0.12664585E+04</pdfrwt>
<pdfrwt beam="2">  1       -1 0.32078932E-01 0.12664585E+04</pdfrwt>
<totfact> 0.74847556E+01</totfact>
</mgrwt>
</event>
<event>
12    6  0.1530859E-007  0.1529291E+04  0.7818608E-02  0.8865205E-01
          2   -1    0    0  501    0  0.00000000000E+00  0.00000000000E+00  0.38645435155E+04  0.38645435155E+04  0.00000000000E+00 0. -1.
         -1   -1    0    0    0  501 -0.00000000000E+00 -0.00000000000E+00 -0.15129421137E+03  0.15129421137E+03  0.00000000000E+00 0.  1.
         24    2    1    2    0    0  0.42342595284E+03  0.20461833518E+03  0.85612090663E+03  0.98016966806E+03  0.81433229105E+02 0.  0.
        254    2    1    2    0    0 -0.42342595284E+03 -0.20461833518E+03  0.28571283975E+04  0.30356680588E+04  0.91155892997E+03 0.  0.
         23    2    4    4    0    0 -0.42926467157E+03 -0.51981402077E+03  0.21582405445E+04  0.22630903661E+04  0.95399071191E+02 0.  0.
         23    2    4    4    0    0  0.58387187324E+01  0.31519568559E+03  0.69888785308E+03  0.77257769277E+03  0.95129644907E+02 0.  0.
          4    1    3    3  502    0  0.38815931288E+03  0.15917904872E+03  0.74281740934E+03  0.85310217756E+03  0.00000000000E+00 0. -1.
         -3    1    3    3    0  502  0.35266639957E+02  0.45439286452E+02  0.11330349728E+03  0.12706749051E+03  0.00000000000E+00 0.  1.
         11    1    5    5    0    0 -0.31492645432E+03 -0.32867986483E+03  0.15447011292E+04  0.16103759510E+04  0.00000000000E+00 0. -1.
        -11    1    5    5    0    0 -0.11433821725E+03 -0.19113415594E+03  0.61353941530E+03  0.65271441506E+03  0.00000000000E+00 0.  1.
          3    1    6    6  503    0  0.28037463382E+02  0.30153350810E+03  0.65298641439E+03  0.71979150678E+03  0.00000000000E+00 0. -1.
         -3    1    6    6    0  503 -0.22198744649E+02  0.13662177493E+02  0.45901438691E+02  0.52786185994E+02  0.00000000000E+00 0.  1.
<mgrwt>
<rscale>  0 0.15292914E+04</rscale>
<asrwt>0</asrwt>
<pdfrwt beam="1">  1        2 0.59454508E+00 0.15292914E+04</pdfrwt>
<pdfrwt beam="2">  1       -1 0.23276035E-01 0.15292914E+04</pdfrwt>
<totfact> 0.77655121E+00</totfact>
</mgrwt>
</event>
<event>
12    6  0.1530859E-007  0.1845622E+04  0.7818608E-02  0.8682408E-01
         -1   -1    0    0    0  501 -0.00000000000E+00  0.00000000000E+00  0.52002692558E+03  0.52002692558E+03  0.00000000000E+00 0.  1.
          2   -1    0    0  501    0  0.00000000000E+00 -0.00000000000E+00 -0.16375688876E+04  0.16375688876E+04  0.00000000000E+00 0. -1.
         24    2    1    2    0    0  0.37357414435E+03 -0.53188434437E+03 -0.11322334363E+03  0.66445760051E+03  0.78903613520E+02 0.  0.
        254    2    1    2    0    0 -0.37357414435E+03  0.53188434437E+03 -0.10043186183E+04  0.14931382126E+04  0.89350279110E+03 0.  0.
         23    2    4    4    0    0 -0.26312964015E+03 -0.18463839584E+03 -0.14287488202E+03  0.36364969932E+03  0.92191795487E+02 0.  0.
         23    2    4    4    0    0 -0.11044450419E+03  0.71652274021E+03 -0.86144373633E+03  0.11294885133E+04  0.89756142299E+02 0.  0.
          2    1    3    3  502    0  0.62275928481E+01  0.10342716975E+01  0.27566400563E+01  0.68885190736E+01  0.00000000000E+00 0. -1.
         -1    1    3    3    0  502  0.36734655150E+03 -0.53291861607E+03 -0.11597998368E+03  0.65756908144E+03  0.00000000000E+00 0.  1.
         11    1    5    5    0    0 -0.22325900982E+01  0.62461556163E+00 -0.21179009011E+02  0.21305516324E+02  0.00000000000E+00 0.  1.
        -11    1    5    5    0    0 -0.26089705006E+03 -0.18526301140E+03 -0.12169587301E+03  0.34234418299E+03  0.00000000000E+00 0. -1.
          4    1    6    6  503    0 -0.95201497678E+02  0.57870428963E+03 -0.74686117667E+03  0.94961234049E+03  0.00000000000E+00 0. -1.
         -4    1    6    6    0  503 -0.15243006512E+02  0.13781845058E+03 -0.11458255966E+03  0.17987617281E+03  0.00000000000E+00 0.  1.
<mgrwt>
<rscale>  0 0.18456218E+04</rscale>
<asrwt>0</asrwt>
<pdfrwt beam="1">  1        2 0.25193367E+00 0.18456218E+04</pdfrwt>
<pdfrwt beam="2">  1       -1 0.80004144E-01 0.18456218E+04</pdfrwt>
<totfact> 0.17757484E+01</totfact>
</mgrwt>
</event>
<event>
12    6  0.1530859E-007  0.3059562E+04  0.7818608E-02  0.8226924E-01
         -1   -1    0    0    0  501 -0.00000000000E+00  0.00000000000E+00  0.25666602682E+04  0.25666602682E+04  0.00000000000E+00 0.  1.
          2   -1    0    0  501    0  0.00000000000E+00 -0.00000000000E+00 -0.91178033468E+03  0.91178033468E+03  0.00000000000E+00 0. -1.
         24    2    1    2    0    0 -0.82024731369E+02  0.13945565125E+04  0.79680928434E+03  0.16102647300E+04  0.80817955312E+02 0.  0.
        254    2    1    2    0    0  0.82024731369E+02 -0.13945565125E+04  0.85807064920E+03  0.18681758729E+04  0.89570080370E+03 0.  0.
         23    2    4    4    0    0  0.34075295023E+03 -0.11863887004E+04  0.88731014350E+03  0.15228497960E+04  0.90119302946E+02 0.  0.
         23    2    4    4    0    0 -0.25872821886E+03 -0.20816781214E+03 -0.29239494301E+02  0.34532607692E+03  0.90116713920E+02 0.  0.
          2    1    3    3  502    0 -0.41378076647E+01  0.17575805108E+02  0.21583930161E+02  0.28140654197E+02  0.00000000000E+00 0. -1.
         -1    1    3    3    0  502 -0.77886923704E+02  0.13769807074E+04  0.77522535418E+03  0.15821240758E+04  0.00000000000E+00 0.  1.
         11    1    5    5    0    0  0.19588857146E+03 -0.64716439934E+03  0.43187489002E+03  0.80231540732E+03  0.00000000000E+00 0. -1.
        -11    1    5    5    0    0  0.14486437877E+03 -0.53922430107E+03  0.45543525348E+03  0.72053438864E+03  0.00000000000E+00 0.  1.
          1    1    6    6  503    0 -0.82033686172E+02 -0.27305086213E+02  0.17453021148E+02  0.88202615309E+02  0.00000000000E+00 0. -1.
         -1    1    6    6    0  503 -0.17669453268E+03 -0.18086272593E+03 -0.46692515448E+02  0.25712346161E+03  0.00000000000E+00 0.  1.
<mgrwt>
<rscale>  0 0.30595623E+04</rscale>
<asrwt>0</asrwt>
<pdfrwt beam="1">  1        2 0.14027390E+00 0.30595623E+04</pdfrwt>
<pdfrwt beam="2">  1       -1 0.39487081E+00 0.30595623E+04</pdfrwt>
<totfact> 0.21660476E-01</totfact>
</mgrwt>
</event>
<event>
12    6  0.1530859E-007  0.1972818E+04  0.7818608E-02  0.8619435E-01
         -1   -1    0    0    0  501 -0.00000000000E+00  0.00000000000E+00  0.74939634094E+03  0.74939634094E+03  0.00000000000E+00 0.  1.
          2   -1    0    0  501    0  0.00000000000E+00 -0.00000000000E+00 -0.12983825915E+04  0.12983825915E+04  0.00000000000E+00 0. -1.
         24    2    1    2    0    0  0.51372857192E+03  0.53635814538E+03  0.50389167642E+02  0.74874129720E+03  0.80482023987E+02 0.  0.
        254    2    1    2    0    0 -0.51372857192E+03 -0.53635814538E+03 -0.59937541822E+03  0.12990376353E+04  0.88127792447E+03 0.  0.
         23    2    4    4    0    0 -0.17133567730E+03  0.19265627921E+03 -0.36433095578E+03  0.45525783609E+03  0.89723440304E+02 0.  0.
         23    2    4    4    0    0 -0.34239289462E+03 -0.72901442460E+03 -0.23504446243E+03  0.84377979918E+03  0.89574129255E+02 0.  0.
          2    1    3    3  502    0  0.28996721901E+03  0.28119057070E+03 -0.99405576863E+01  0.40403952756E+03  0.00000000000E+00 0. -1.
         -1    1    3    3    0  502  0.22376135291E+03  0.25516757469E+03  0.60329725328E+02  0.34470176963E+03  0.00000000000E+00 0.  1.
         11    1    5    5    0    0 -0.38328161637E+02  0.46609786134E+02 -0.31124949880E+02  0.67899062165E+02  0.00000000000E+00 0.  1.
        -11    1    5    5    0    0 -0.13300751567E+03  0.14604649308E+03 -0.33320600590E+03  0.38735877392E+03  0.00000000000E+00 0. -1.
          2    1    6    6  503    0 -0.10159931097E+03 -0.17353295091E+03 -0.23484752694E+02  0.20245404083E+03  0.00000000000E+00 0. -1.
         -2    1    6    6    0  503 -0.24079358365E+03 -0.55548147369E+03 -0.21155970974E+03  0.64132575835E+03  0.00000000000E+00 0.  1.
<mgrwt>
<rscale>  0 0.19728185E+04</rscale>
<asrwt>0</asrwt>
<pdfrwt beam="1">  1        2 0.19975117E+00 0.19728185E+04</pdfrwt>
<pdfrwt beam="2">  1       -1 0.11529174E+00 0.19728185E+04</pdfrwt>
<totfact> 0.11997399E+01</totfact>
</mgrwt>
</event>
<event>
12    6  0.1530859E-007  0.2409885E+04  0.7818608E-02  0.8435812E-01
         -1   -1    0    0    0  501 -0.00000000000E+00  0.00000000000E+00  0.62144761053E+03  0.62144761053E+03  0.00000000000E+00 0.  1.
          2   -1    0    0  501    0  0.00000000000E+00 -0.00000000000E+00 -0.23362974716E+04  0.23362974716E+04  0.00000000000E+00 0. -1.
         24    2    1    2    0    0  0.33204332710E+03  0.97599480972E+03 -0.84351129590E+03  0.13343807604E+04  0.79006757806E+02 0.  0.
        254    2    1    2    0    0 -0.33204332710E+03 -0.97599480972E+03 -0.87133856513E+03  0.16233643217E+04  0.90181050456E+03 0.  0.
         23    2    4    4    0    0 -0.38810679138E+03 -0.84775073696E+03 -0.23550880953E+03  0.96601552088E+03  0.91724553327E+02 0.  0.
         23    2    4    4    0    0  0.56063464281E+02 -0.12824407276E+03 -0.63582975560E+03  0.65734880079E+03  0.90765156167E+02 0.  0.
          4    1    3    3  502    0  0.23613096800E+03  0.76449742192E+03 -0.68396910878E+03  0.10526290343E+04  0.00000000000E+00 0. -1.
         -3    1    3    3    0  502  0.95912359098E+02  0.21149738781E+03 -0.15954218712E+03  0.28175172608E+03  0.00000000000E+00 0.  1.
         11    1    5    5    0    0 -0.18159927706E+03 -0.49074368001E+03 -0.10769993103E+03  0.53423490343E+03  0.00000000000E+00 0.  1.
        -11    1    5    5    0    0 -0.20650751432E+03 -0.35700705696E+03 -0.12780887850E+03  0.43178061746E+03  0.00000000000E+00 0. -1.
          3    1    6    6  503    0 -0.21236427403E+02 -0.59879603305E+02 -0.23192026373E+03  0.24046530201E+03  0.00000000000E+00 0. -1.
         -3    1    6    6    0  503  0.77299891684E+02 -0.68364469455E+02 -0.40390949187E+03  0.41688349878E+03  0.00000000000E+00 0.  1.
<mgrwt>
<rscale>  0 0.24098850E+04</rscale>
<asrwt>0</asrwt>
<pdfrwt beam="1">  1        2 0.35943037E+00 0.24098850E+04</pdfrwt>
<pdfrwt beam="2">  1       -1 0.95607327E-01 0.24098850E+04</pdfrwt>
<totfact> 0.46635698E+00</totfact>
</mgrwt>
</event>
<event>
12    6  0.1530859E-007  0.4009891E+04  0.7818608E-02  0.8002554E-01
         -1   -1    0    0    0  501 -0.00000000000E+00  0.00000000000E+00  0.17399472803E+04  0.17399472803E+04  0.00000000000E+00 0.  1.
          2   -1    0    0  501    0  0.00000000000E+00 -0.00000000000E+00 -0.23103040127E+04  0.23103040127E+04  0.00000000000E+00 0. -1.
         24    2    1    2    0    0 -0.11150984922E+04 -0.67030885959E+02  0.12841956216E+04  0.17041932214E+04  0.84725169486E+02 0.  0.
        254    2    1    2    0    0  0.11150984922E+04  0.67030885959E+02 -0.18545523540E+04  0.23460580716E+04  0.90370695158E+03 0.  0.
         23    2    4    4    0    0  0.52335829405E+02 -0.28572314413E+03 -0.29423629010E+03  0.42339179825E+03  0.91152982863E+02 0.  0.
         23    2    4    4    0    0  0.10627626628E+04  0.35275403009E+03 -0.15603160639E+04  0.19226662733E+04  0.90329928584E+02 0.  0.
          4    1    3    3  502    0 -0.60134170674E+03  0.60940762922E+01  0.69332855908E+03  0.91779816783E+03  0.00000000000E+00 0. -1.
         -3    1    3    3    0  502 -0.51375678549E+03 -0.73124962251E+02  0.59086706251E+03  0.78639505359E+03  0.00000000000E+00 0.  1.
         11    1    5    5    0    0  0.66119781476E+02 -0.28248170256E+03 -0.28335361729E+03  0.40553299522E+03  0.00000000000E+00 0. -1.
        -11    1    5    5    0    0 -0.13783952071E+02 -0.32414415687E+01 -0.10882672814E+02  0.17858803031E+02  0.00000000000E+00 0.  1.
          2    1    6    6  503    0  0.10185096843E+04  0.35124970241E+03 -0.14753401993E+04  0.18268461988E+04  0.00000000000E+00 0. -1.
         -2    1    6    6    0  503  0.44252978533E+02  0.15043276801E+01 -0.84975864638E+02  0.95820074524E+02  0.00000000000E+00 0.  1.
<mgrwt>
<rscale>  0 0.40098914E+04</rscale>
<asrwt>0</asrwt>
<pdfrwt beam="1">  1        2 0.35543138E+00 0.40098914E+04</pdfrwt>
<pdfrwt beam="2">  1       -1 0.26768420E+00 0.40098914E+04</pdfrwt>
<totfact> 0.21444045E-01</totfact>
</mgrwt>
</event>
<event>
12    6  0.1638064E-007  0.2375563E+04  0.7818608E-02  0.8448709E-01
          2   -1    0    0  501    0  0.00000000000E+00  0.00000000000E+00  0.13732052397E+04  0.13732052397E+04  0.00000000000E+00 0. -1.
         -1   -1    0    0    0  501 -0.00000000000E+00 -0.00000000000E+00 -0.10273954784E+04  0.10273954784E+04  0.00000000000E+00 0.  1.
         24    2    1    2    0    0  0.72764629336E+03  0.10897524510E+03 -0.53853080853E+03  0.91538232168E+03  0.81022409448E+02 0.  0.
        254    2    1    2    0    0 -0.72764629336E+03 -0.10897524510E+03  0.88434056983E+03  0.14852183964E+04  0.93939912146E+03 0.  0.
         23    2    4    4    0    0 -0.58525450200E+03  0.35250084572E+03  0.61396161168E+03  0.92431281886E+03  0.10308078459E+03 0.  0.
         23    2    4    4    0    0 -0.14239179136E+03 -0.46147609083E+03  0.27037895815E+03  0.56090557758E+03  0.90965275210E+02 0.  0.
          2    1    3    3  502    0  0.69408644228E+01  0.44229349106E+01  0.19795784536E+01  0.84650270534E+01  0.00000000000E+00 0. -1.
         -1    1    3    3    0  502  0.72070542893E+03  0.10455231019E+03 -0.54051038698E+03  0.90691729463E+03  0.00000000000E+00 0.  1.
         11    1    5    5    0    0 -0.12388142402E+03  0.68095810677E+02  0.18661334443E+03  0.23411148406E+03  0.00000000000E+00 0. -1.
        -11    1    5    5    0    0 -0.46137307798E+03  0.28440503505E+03  0.42734826724E+03  0.69020133480E+03  0.00000000000E+00 0.  1.
          4    1    6    6  503    0 -0.36126124078E+02 -0.13457890888E+03  0.33081769006E+02  0.14321655978E+03  0.00000000000E+00 0. -1.
         -4    1    6    6    0  503 -0.10626566728E+03 -0.32689718195E+03  0.23729718914E+03  0.41768901779E+03  0.00000000000E+00 0.  1.
<mgrwt>
<rscale>  0 0.23755630E+04</rscale>
<asrwt>0</asrwt>
<pdfrwt beam="1">  1        2 0.21126234E+00 0.23755630E+04</pdfrwt>
<pdfrwt beam="2">  1       -1 0.15806084E+00 0.23755630E+04</pdfrwt>
<totfact> 0.46538102E+00</totfact>
</mgrwt>
</event>
<event>
12    6  0.1530859E-007  0.2207869E+04  0.7818608E-02  0.8515160E-01
          2   -1    0    0  501    0  0.00000000000E+00  0.00000000000E+00  0.69581540184E+03  0.69581540184E+03  0.00000000000E+00 0. -1.
         -1   -1    0    0    0  501 -0.00000000000E+00 -0.00000000000E+00 -0.17514298310E+04  0.17514298310E+04  0.00000000000E+00 0.  1.
         24    2    1    2    0    0 -0.66964871910E+03  0.59648662242E+03 -0.46810205878E+03  0.10147692691E+04  0.80071433321E+02 0.  0.
        254    2    1    2    0    0  0.66964871910E+03 -0.59648662242E+03 -0.58751237040E+03  0.14324759637E+04  0.95004784275E+03 0.  0.
         23    2    4    4    0    0  0.27621073584E+02  0.16891315237E+03 -0.35280552524E+03  0.40246473321E+03  0.90617581563E+02 0.  0.
         23    2    4    4    0    0  0.64202764552E+03 -0.76539977479E+03 -0.23470684516E+03  0.10300112305E+04  0.88314885185E+02 0.  0.
          4    1    3    3  502    0 -0.54182320605E+03  0.45309572098E+03 -0.39485312454E+03  0.80918298854E+03  0.00000000000E+00 0. -1.
         -3    1    3    3    0  502 -0.12782551305E+03  0.14339090144E+03 -0.73248934237E+02  0.20558628060E+03  0.00000000000E+00 0.  1.
         11    1    5    5    0    0  0.33038160943E+02  0.82480924967E+02 -0.93072486732E+02  0.12867443743E+03  0.00000000000E+00 0. -1.
        -11    1    5    5    0    0 -0.54170873592E+01  0.86432227399E+02 -0.25973303851E+03  0.27379029578E+03  0.00000000000E+00 0.  1.
          3    1    6    6  503    0  0.49875075004E+03 -0.59983535758E+03 -0.22018884918E+03  0.81057874150E+03  0.00000000000E+00 0. -1.
         -3    1    6    6    0  503  0.14327689548E+03 -0.16556441721E+03 -0.14517995978E+02  0.21943248900E+03  0.00000000000E+00 0.  1.
<mgrwt>
<rscale>  0 0.22078694E+04</rscale>
<asrwt>0</asrwt>
<pdfrwt beam="1">  1        2 0.10704852E+00 0.22078694E+04</pdfrwt>
<pdfrwt beam="2">  1       -1 0.26945074E+00 0.22078694E+04</pdfrwt>
<totfact> 0.22422584E+00</totfact>
</mgrwt>
</event>
<event>
12    6  0.1530859E-007  0.1685123E+04  0.7818608E-02  0.8769895E-01
          2   -1    0    0  501    0  0.00000000000E+00  0.00000000000E+00  0.75217786157E+03  0.75217786157E+03  0.00000000000E+00 0. -1.
         -3   -1    0    0    0  501 -0.00000000000E+00 -0.00000000000E+00 -0.94380610292E+03  0.94380610292E+03  0.00000000000E+00 0.  1.
         24    2    1    2    0    0  0.44739147544E+03 -0.37767344592E+03 -0.16622660110E+03  0.61403493265E+03  0.81309603034E+02 0.  0.
        254    2    1    2    0    0 -0.44739147544E+03  0.37767344592E+03 -0.25401640252E+02  0.10819490318E+04  0.90949002200E+03 0.  0.
         23    2    4    4    0    0 -0.64640274173E+03  0.67999508590E+02 -0.16821764348E+03  0.67739524528E+03  0.90037242640E+02 0.  0.
         23    2    4    4    0    0  0.19901126628E+03  0.30967393733E+03  0.14281600323E+03  0.40455378657E+03  0.88113131122E+02 0.  0.
          4    1    3    3  502    0  0.18891718000E+03 -0.18944020945E+03 -0.41122610802E+02  0.27068129410E+03  0.00000000000E+00 0. -1.
         -3    1    3    3    0  502  0.25847429544E+03 -0.18823323647E+03 -0.12510399029E+03  0.34335363855E+03  0.00000000000E+00 0.  1.
         11    1    5    5    0    0 -0.38576676095E+03  0.74726506243E+02 -0.71969246138E+02  0.39947417561E+03  0.00000000000E+00 0. -1.
        -11    1    5    5    0    0 -0.26063598078E+03 -0.67269976528E+01 -0.96248397343E+02  0.27792106967E+03  0.00000000000E+00 0.  1.
          3    1    6    6  503    0  0.16112501046E+03  0.19507927258E+03  0.65983571415E+02  0.26147853312E+03  0.00000000000E+00 0. -1.
         -3    1    6    6    0  503  0.37886255822E+02  0.11459466475E+03  0.76832431813E+02  0.14307525344E+03  0.00000000000E+00 0.  1.
<mgrwt>
<rscale>  0 0.16851232E+04</rscale>
<asrwt>0</asrwt>
<pdfrwt beam="1">  1        2 0.11571967E+00 0.16851232E+04</pdfrwt>
<pdfrwt beam="2">  1       -3 0.14520094E+00 0.16851232E+04</pdfrwt>
<totfact> 0.78655559E+00</totfact>
</mgrwt>
</event>
<event>
12    6  0.1530859E-007  0.1458591E+04  0.7818608E-02  0.8912466E-01
          2   -1    0    0  501    0  0.00000000000E+00  0.00000000000E+00  0.17273847996E+04  0.17273847996E+04  0.00000000000E+00 0. -1.
         -1   -1    0    0    0  501 -0.00000000000E+00 -0.00000000000E+00 -0.30790588553E+03  0.30790588553E+03  0.00000000000E+00 0.  1.
         24    2    1    2    0    0 -0.30867243382E+03 -0.11754658819E+03  0.15066405038E+02  0.34024774107E+03  0.80284848812E+02 0.  0.
        254    2    1    2    0    0  0.30867243382E+03  0.11754658819E+03  0.14044125090E+04  0.16950429440E+04  0.88977537325E+03 0.  0.
         23    2    4    4    0    0  0.95682798183E+02  0.48643883440E+03  0.86491516424E+03  0.10012393078E+04  0.92865346510E+02 0.  0.
         23    2    4    4    0    0  0.21298963564E+03 -0.36889224620E+03  0.53949734474E+03  0.69380363625E+03  0.94127713726E+02 0.  0.
          2    1    3    3  502    0 -0.15513229294E+03 -0.16311925866E+02  0.85640174581E+01  0.15622243640E+03  0.00000000000E+00 0. -1.
         -1    1    3    3    0  502 -0.15354014088E+03 -0.10123466233E+03  0.65023875804E+01  0.18402530468E+03  0.00000000000E+00 0.  1.
         11    1    5    5    0    0  0.57929938770E+01  0.21662479718E+02  0.93526286169E+02  0.96176857976E+02  0.00000000000E+00 0. -1.
        -11    1    5    5    0    0  0.89889804306E+02  0.46477635468E+03  0.77138887808E+03  0.90506244978E+03  0.00000000000E+00 0.  1.
          4    1    6    6  503    0  0.85180495432E+02 -0.10594168317E+03  0.23626755478E+03  0.27258340830E+03  0.00000000000E+00 0. -1.
         -4    1    6    6    0  503  0.12780914021E+03 -0.26295056303E+03  0.30322978996E+03  0.42122022795E+03  0.00000000000E+00 0.  1.
<mgrwt>
<rscale>  0 0.14585910E+04</rscale>
<asrwt>0</asrwt>
<pdfrwt beam="1">  1        2 0.26575150E+00 0.14585910E+04</pdfrwt>
<pdfrwt beam="2">  1       -1 0.47370137E-01 0.14585910E+04</pdfrwt>
<totfact> 0.46492226E+01</totfact>
</mgrwt>
</event>
<event>
12    6  0.1530859E-007  0.1453367E+04  0.7818608E-02  0.8916070E-01
          2   -1    0    0  501    0  0.00000000000E+00  0.00000000000E+00  0.23119201427E+04  0.23119201427E+04  0.00000000000E+00 0. -1.
         -1   -1    0    0    0  501 -0.00000000000E+00 -0.00000000000E+00 -0.22841127657E+03  0.22841127657E+03  0.00000000000E+00 0.  1.
         24    2    1    2    0    0 -0.12192861375E+03 -0.39566773239E+03  0.36967829171E+03  0.56078522771E+03  0.79990567872E+02 0.  0.
        254    2    1    2    0    0  0.12192861375E+03  0.39566773239E+03  0.17138305744E+04  0.19795461916E+04  0.89998241396E+03 0.  0.
         23    2    4    4    0    0 -0.26115988477E+03  0.45337867832E+03  0.13048280152E+04  0.14086948663E+04  0.89935341523E+02 0.  0.
         23    2    4    4    0    0  0.38308849852E+03 -0.57710945934E+02  0.40900255927E+03  0.57085132534E+03  0.92199735215E+02 0.  0.
          4    1    3    3  502    0 -0.32932617834E+02 -0.12720055761E+03  0.70638110910E+02  0.14917869113E+03  0.00000000000E+00 0. -1.
         -3    1    3    3    0  502 -0.88995995913E+02 -0.26846717478E+03  0.29904018080E+03  0.41160653658E+03  0.00000000000E+00 0.  1.
         11    1    5    5    0    0  0.68965284915E+00  0.46712082330E+02  0.98626671301E+02  0.10913163862E+03  0.00000000000E+00 0. -1.
        -11    1    5    5    0    0 -0.26184953762E+03  0.40666659599E+03  0.12062013439E+04  0.12995632276E+04  0.00000000000E+00 0.  1.
          3    1    6    6  503    0  0.80191386123E+01 -0.72639428567E+00  0.42856706048E+02  0.43606553246E+02  0.00000000000E+00 0. -1.
         -3    1    6    6    0  503  0.37506935991E+03 -0.56984551648E+02  0.36614585322E+03  0.52724477209E+03  0.00000000000E+00 0.  1.
<mgrwt>
<rscale>  0 0.14533666E+04</rscale>
<asrwt>0</asrwt>
<pdfrwt beam="1">  1        2 0.35568001E+00 0.14533666E+04</pdfrwt>
<pdfrwt beam="2">  1       -1 0.35140198E-01 0.14533666E+04</pdfrwt>
<totfact> 0.38045094E+01</totfact>
</mgrwt>
</event>
<event>
12    6  0.1530859E-007  0.1611896E+04  0.7818608E-02  0.8813273E-01
          2   -1    0    0  501    0  0.00000000000E+00  0.00000000000E+00  0.82906418060E+03  0.82906418060E+03  0.00000000000E+00 0. -1.
         -1   -1    0    0    0  501 -0.00000000000E+00 -0.00000000000E+00 -0.78347629572E+03  0.78347629572E+03  0.00000000000E+00 0.  1.
         24    2    1    2    0    0 -0.33434544128E+03  0.11952324210E+03 -0.40540661249E+03  0.54459728110E+03  0.78479281510E+02 0.  0.
        254    2    1    2    0    0  0.33434544128E+03 -0.11952324210E+03  0.45099449737E+03  0.10679431952E+04  0.90057423462E+03 0.  0.
         23    2    4    4    0    0 -0.58464715961E+02 -0.32384385146E+01 -0.23770098640E+03  0.26132070242E+03  0.91422864097E+02 0.  0.
         23    2    4    4    0    0  0.39281015724E+03 -0.11628480358E+03  0.68869548377E+03  0.80662249280E+03  0.92284350525E+02 0.  0.
          4    1    3    3  502    0 -0.31572242418E+02  0.24814263088E+02 -0.18370548460E+02  0.44159157540E+02  0.00000000000E+00 0. -1.
         -3    1    3    3    0  502 -0.30277319886E+03  0.94708979009E+02 -0.38703606403E+03  0.50043812356E+03  0.00000000000E+00 0.  1.
         11    1    5    5    0    0  0.15120943682E+02 -0.26390595719E+02 -0.52128913598E+02  0.60353376982E+02  0.00000000000E+00 0.  1.
        -11    1    5    5    0    0 -0.73585659643E+02  0.23152157204E+02 -0.18557207281E+03  0.20096732544E+03  0.00000000000E+00 0. -1.
          2    1    6    6  503    0  0.26905780089E+03 -0.11083571929E+03  0.42246239656E+03  0.51298258586E+03  0.00000000000E+00 0. -1.
         -2    1    6    6    0  503  0.12375235635E+03 -0.54490842946E+01  0.26623308721E+03  0.29363990694E+03  0.00000000000E+00 0.  1.
<mgrwt>
<rscale>  0 0.16118959E+04</rscale>
<asrwt>0</asrwt>
<pdfrwt beam="1">  1        2 0.12754834E+00 0.16118959E+04</pdfrwt>
<pdfrwt beam="2">  1       -1 0.12053481E+00 0.16118959E+04</pdfrwt>
<totfact> 0.21994717E+01</totfact>
</mgrwt>
</event>
<event>
12    6  0.1530859E-007  0.2107344E+04  0.7818608E-02  0.8558015E-01
         -1   -1    0    0    0  501 -0.00000000000E+00  0.00000000000E+00  0.86759677025E+03  0.86759677025E+03  0.00000000000E+00 0.  1.
          2   -1    0    0  501    0  0.00000000000E+00 -0.00000000000E+00 -0.12796556262E+04  0.12796556262E+04  0.00000000000E+00 0. -1.
         24    2    1    2    0    0  0.16531794833E+03  0.22101111662E+03  0.66788610710E+03  0.72722779412E+03  0.81317124778E+02 0.  0.
        254    2    1    2    0    0 -0.16531794833E+03 -0.22101111662E+03 -0.10799449630E+04  0.14200246023E+04  0.87977997834E+03 0.  0.
         23    2    4    4    0    0  0.91646892544E+02 -0.47541117312E+03 -0.84993067069E+03  0.98201353042E+03  0.86910830821E+02 0.  0.
         23    2    4    4    0    0 -0.25696484087E+03  0.25440005650E+03 -0.23001429235E+03  0.43801107189E+03  0.90536215003E+02 0.  0.
          4    1    3    3  502    0  0.10069739677E+01  0.24896660730E+02  0.24976776439E+02  0.35280264644E+02  0.00000000000E+00 0. -1.
         -3    1    3    3    0  502  0.16431097436E+03  0.19611445589E+03  0.64290933066E+03  0.69194752948E+03  0.00000000000E+00 0.  1.
         11    1    5    5    0    0  0.16122221761E+02 -0.30088235001E+03 -0.50114751886E+03  0.58475546192E+03  0.00000000000E+00 0.  1.
        -11    1    5    5    0    0  0.75524670783E+02 -0.17452882311E+03 -0.34878315182E+03  0.39725806850E+03  0.00000000000E+00 0. -1.
          2    1    6    6  503    0 -0.11003414889E+03  0.52709221132E+02 -0.59196163038E+02  0.13560959270E+03  0.00000000000E+00 0. -1.
         -2    1    6    6    0  503 -0.14693069198E+03  0.20169083537E+03 -0.17081812931E+03  0.30240147919E+03  0.00000000000E+00 0.  1.
<mgrwt>
<rscale>  0 0.21073444E+04</rscale>
<asrwt>0</asrwt>
<pdfrwt beam="1">  1        2 0.19687009E+00 0.21073444E+04</pdfrwt>
<pdfrwt beam="2">  1       -1 0.13347643E+00 0.21073444E+04</pdfrwt>
<totfact> 0.84595677E+00</totfact>
</mgrwt>
</event>
<event>
12    6  0.1530859E-007  0.2813196E+04  0.7818608E-02  0.8299183E-01
          2   -1    0    0  501    0  0.00000000000E+00  0.00000000000E+00  0.11574443731E+04  0.11574443731E+04  0.00000000000E+00 0. -1.
         -1   -1    0    0    0  501 -0.00000000000E+00 -0.00000000000E+00 -0.17093852081E+04  0.17093852081E+04  0.00000000000E+00 0.  1.
         24    2    1    2    0    0  0.76470556041E+03  0.19771917604E+03  0.75638340226E+03  0.10965115421E+04  0.79713511785E+02 0.  0.
        254    2    1    2    0    0 -0.76470556041E+03 -0.19771917604E+03 -0.13083242372E+04  0.17703180392E+04  0.89355815899E+03 0.  0.
         23    2    4    4    0    0 -0.61923895298E+03 -0.46443497935E+03 -0.12095531948E+04  0.14388774356E+04  0.90513052133E+02 0.  0.
         23    2    4    4    0    0 -0.14546660743E+03  0.26671580330E+03 -0.98771042354E+02  0.33144060357E+03  0.88313652836E+02 0.  0.
          4    1    3    3  502    0  0.71503172428E+03  0.18782849254E+03  0.73172684536E+03  0.10401798333E+04  0.00000000000E+00 0. -1.
         -3    1    3    3    0  502  0.49673836134E+02  0.98906835079E+01  0.24656556894E+02  0.56331708783E+02  0.00000000000E+00 0.  1.
         11    1    5    5    0    0 -0.23228118774E+03 -0.16761962320E+03 -0.52978530231E+03  0.60226518644E+03  0.00000000000E+00 0. -1.
        -11    1    5    5    0    0 -0.38695776525E+03 -0.29681535615E+03 -0.67976789254E+03  0.83661224917E+03  0.00000000000E+00 0.  1.
          4    1    6    6  503    0 -0.16214666487E+02  0.89125155297E+02  0.49029900713E-01  0.90588140062E+02  0.00000000000E+00 0. -1.
         -4    1    6    6    0  503 -0.12925194094E+03  0.17759064801E+03 -0.98820072255E+02  0.24085246351E+03  0.00000000000E+00 0.  1.
<mgrwt>
<rscale>  0 0.28131963E+04</rscale>
<asrwt>0</asrwt>
<pdfrwt beam="1">  1        2 0.17806837E+00 0.28131963E+04</pdfrwt>
<pdfrwt beam="2">  1       -1 0.26298234E+00 0.28131963E+04</pdfrwt>
<totfact> 0.11419049E+00</totfact>
</mgrwt>
</event>
<event>
12    6  0.1530859E-007  0.1317043E+04  0.7818608E-02  0.9016158E-01
          2   -1    0    0  501    0  0.00000000000E+00  0.00000000000E+00  0.34646482232E+04  0.34646482232E+04  0.00000000000E+00 0. -1.
         -1   -1    0    0    0  501 -0.00000000000E+00 -0.00000000000E+00 -0.12516440193E+03  0.12516440193E+03  0.00000000000E+00 0.  1.
         24    2    1    2    0    0 -0.23738787591E+03  0.20345924765E+03  0.13316925886E+04  0.13701871816E+04  0.79114429238E+02 0.  0.
        254    2    1    2    0    0  0.23738787591E+03 -0.20345924765E+03  0.20077912327E+04  0.22196254436E+04  0.89317568632E+03 0.  0.
         23    2    4    4    0    0  0.46487508490E+02 -0.52840701119E+03  0.13853870059E+04  0.14866340198E+04  0.96997396497E+02 0.  0.
         23    2    4    4    0    0  0.19090036742E+03  0.32494776354E+03  0.62240422679E+03  0.73299142373E+03  0.88630730733E+02 0.  0.
          4    1    3    3  502    0 -0.22324451436E+03  0.18426506405E+03  0.12907324835E+04  0.13227932835E+04  0.00000000000E+00 0. -1.
         -3    1    3    3    0  502 -0.14143361551E+02  0.19194183598E+02  0.40960105080E+02  0.47393898005E+02  0.00000000000E+00 0.  1.
         11    1    5    5    0    0 -0.21464849053E+02 -0.35205851353E+02  0.96970519122E+02  0.10537301976E+03  0.00000000000E+00 0.  1.
        -11    1    5    5    0    0  0.67952357543E+02 -0.49320115984E+03  0.12884164868E+04  0.13812610001E+04  0.00000000000E+00 0. -1.
          3    1    6    6  503    0  0.13541923708E+03  0.27082894558E+03  0.54492031352E+03  0.62339781489E+03  0.00000000000E+00 0. -1.
         -3    1    6    6    0  503  0.55481130347E+02  0.54118817961E+02  0.77483913272E+02  0.10959360884E+03  0.00000000000E+00 0.  1.
<mgrwt>
<rscale>  0 0.13170431E+04</rscale>
<asrwt>0</asrwt>
<pdfrwt beam="1">  1        2 0.53302273E+00 0.13170431E+04</pdfrwt>
<pdfrwt beam="2">  1       -1 0.19256064E-01 0.13170431E+04</pdfrwt>
<totfact> 0.21320918E+01</totfact>
</mgrwt>
</event>
<event>
12    6  0.1530859E-007  0.1429422E+04  0.7818608E-02  0.8932792E-01
          2   -1    0    0  501    0  0.00000000000E+00  0.00000000000E+00  0.95449391872E+03  0.95449391872E+03  0.00000000000E+00 0. -1.
         -1   -1    0    0    0  501 -0.00000000000E+00 -0.00000000000E+00 -0.53516532877E+03  0.53516532877E+03  0.00000000000E+00 0.  1.
         24    2    1    2    0    0 -0.36924628437E+02  0.25264530659E+03  0.48360380215E+03  0.55245226838E+03  0.78344063346E+02 0.  0.
        254    2    1    2    0    0  0.36924628437E+02 -0.25264530659E+03 -0.64275212188E+02  0.93720697911E+03  0.89946236145E+03 0.  0.
         23    2    4    4    0    0  0.21739901961E+02 -0.31117139745E+03 -0.43933102636E+03  0.54620555663E+03  0.89601883040E+02 0.  0.
         23    2    4    4    0    0  0.15184726476E+02  0.58526090860E+02  0.37505581417E+03  0.39100142248E+03  0.92516860142E+02 0.  0.
          2    1    3    3  502    0 -0.28868454706E+02  0.98982763728E+02  0.27144376587E+03  0.29036648089E+03  0.00000000000E+00 0. -1.
         -1    1    3    3    0  502 -0.80561737313E+01  0.15366254286E+03  0.21216003627E+03  0.26208578749E+03  0.00000000000E+00 0.  1.
         11    1    5    5    0    0 -0.16665467294E+02 -0.22603296616E+03 -0.26728865448E+03  0.35044523739E+03  0.00000000000E+00 0.  1.
        -11    1    5    5    0    0  0.38405369255E+02 -0.85138431289E+02 -0.17204237187E+03  0.19576031924E+03  0.00000000000E+00 0. -1.
          2    1    6    6  503    0  0.37052563898E+00  0.50034374757E+02  0.36975075845E+03  0.37312089103E+03  0.00000000000E+00 0.  1.
         -2    1    6    6    0  503  0.14814200837E+02  0.84917161023E+01  0.53050557157E+01  0.17880531450E+02  0.00000000000E+00 0. -1.
<mgrwt>
<rscale>  0 0.14294223E+04</rscale>
<asrwt>0</asrwt>
<pdfrwt beam="1">  1        2 0.14684522E+00 0.14294223E+04</pdfrwt>
<pdfrwt beam="2">  1       -1 0.82333127E-01 0.14294223E+04</pdfrwt>
<totfact> 0.43845543E+01</totfact>
</mgrwt>
</event>
<event>
12    6  0.1530859E-007  0.1303420E+04  0.7818608E-02  0.9026858E-01
         -1   -1    0    0    0  501 -0.00000000000E+00  0.00000000000E+00  0.48371741648E+03  0.48371741648E+03  0.00000000000E+00 0.  1.
          2   -1    0    0  501    0  0.00000000000E+00 -0.00000000000E+00 -0.87804489470E+03  0.87804489470E+03  0.00000000000E+00 0. -1.
         24    2    1    2    0    0 -0.99764103878E+02 -0.27397047221E+03 -0.24212675471E+03  0.38729937758E+03  0.79766825582E+02 0.  0.
        254    2    1    2    0    0  0.99764103878E+02  0.27397047221E+03 -0.15220072350E+03  0.97446293360E+03  0.91727872136E+03 0.  0.
         23    2    4    4    0    0 -0.34825304027E+03  0.24463439610E+03 -0.25538659477E+03  0.50456569875E+03  0.90763779987E+02 0.  0.
         23    2    4    4    0    0  0.44801714415E+03  0.29336076112E+02  0.10318587127E+03  0.46989723484E+03  0.92607345663E+02 0.  0.
          4    1    3    3  502    0  0.61772321620E+01 -0.44724090874E+01  0.27090431678E+01  0.80931795428E+01  0.00000000000E+00 0. -1.
         -3    1    3    3    0  502 -0.10594133604E+03 -0.26949806312E+03 -0.24483579788E+03  0.37920619804E+03  0.00000000000E+00 0.  1.
         11    1    5    5    0    0 -0.70315107565E+02  0.10195901780E+02 -0.50906459572E+02  0.87405024976E+02  0.00000000000E+00 0.  1.
        -11    1    5    5    0    0 -0.27793793271E+03  0.23443849432E+03 -0.20448013520E+03  0.41716067378E+03  0.00000000000E+00 0. -1.
          2    1    6    6  503    0  0.12324009414E+03  0.26838913639E+01  0.71467714381E+02  0.14248844962E+03  0.00000000000E+00 0.  1.
         -2    1    6    6    0  503  0.32477705001E+03  0.26652184748E+02  0.31718156887E+02  0.32740878522E+03  0.00000000000E+00 0. -1.
<mgrwt>
<rscale>  0 0.13034195E+04</rscale>
<asrwt>0</asrwt>
<pdfrwt beam="1">  1        2 0.13508383E+00 0.13034195E+04</pdfrwt>
<pdfrwt beam="2">  1       -1 0.74418065E-01 0.13034195E+04</pdfrwt>
<totfact> 0.61706930E+01</totfact>
</mgrwt>
</event>
<event>
12    6  0.1530859E-007  0.1344772E+04  0.7818608E-02  0.8994795E-01
          2   -1    0    0  501    0  0.00000000000E+00  0.00000000000E+00  0.11982898980E+04  0.11982898980E+04  0.00000000000E+00 0. -1.
         -1   -1    0    0    0  501 -0.00000000000E+00 -0.00000000000E+00 -0.37729034487E+03  0.37729034487E+03  0.00000000000E+00 0.  1.
         24    2    1    2    0    0 -0.32702113935E+03 -0.95401014975E+02  0.79859903935E+02  0.35859396548E+03  0.78535651659E+02 0.  0.
        254    2    1    2    0    0  0.32702113935E+03  0.95401014975E+02  0.74113964920E+03  0.12169862774E+04  0.90317409203E+03 0.  0.
         23    2    4    4    0    0  0.41326708430E+02 -0.38448438438E+03  0.26688554816E+03  0.47856546827E+03  0.90889344525E+02 0.  0.
         23    2    4    4    0    0  0.28569443092E+03  0.47988539935E+03  0.47425410105E+03  0.73842080913E+03  0.91853332137E+02 0.  0.
          2    1    3    3  502    0 -0.41042308383E+02 -0.15115749678E+01  0.35616929948E+02  0.54362870005E+02  0.00000000000E+00 0. -1.
         -1    1    3    3    0  502 -0.28597883096E+03 -0.93889440007E+02  0.44242973988E+02  0.30423109547E+03  0.00000000000E+00 0.  1.
         11    1    5    5    0    0 -0.59442860375E+01 -0.21484051741E+03  0.10434459756E+03  0.23891332633E+03  0.00000000000E+00 0. -1.
        -11    1    5    5    0    0  0.47270994468E+02 -0.16964386697E+03  0.16254095059E+03  0.23965214194E+03  0.00000000000E+00 0.  1.
          3    1    6    6  503    0  0.20058460993E+02  0.44042800299E+01  0.25293014323E+02  0.32580302538E+02  0.00000000000E+00 0. -1.
         -3    1    6    6    0  503  0.26563596992E+03  0.47548111932E+03  0.44896108672E+03  0.70584050659E+03  0.00000000000E+00 0.  1.
<mgrwt>
<rscale>  0 0.13447724E+04</rscale>
<asrwt>0</asrwt>
<pdfrwt beam="1">  1        2 0.18435229E+00 0.13447724E+04</pdfrwt>
<pdfrwt beam="2">  1       -1 0.58044669E-01 0.13447724E+04</pdfrwt>
<totfact> 0.63599636E+01</totfact>
</mgrwt>
</event>
<event>
12    6  0.1530859E-007  0.1775391E+04  0.7818608E-02  0.8719497E-01
          2   -1    0    0  501    0  0.00000000000E+00  0.00000000000E+00  0.15514818231E+04  0.15514818231E+04  0.00000000000E+00 0. -1.
         -3   -1    0    0    0  501 -0.00000000000E+00 -0.00000000000E+00 -0.50790339151E+03  0.50790339151E+03  0.00000000000E+00 0.  1.
         24    2    1    2    0    0  0.61693916153E+03  0.67440700544E+02  0.15867239612E+03  0.64557054992E+03  0.80138807778E+02 0.  0.
        254    2    1    2    0    0 -0.61693916153E+03 -0.67440700544E+02  0.88490603542E+03  0.14138146646E+04  0.91140059103E+03 0.  0.
         23    2    4    4    0    0 -0.83146387213E+03 -0.15687559903E+03  0.66690912947E+03  0.10810669577E+04  0.89419549926E+02 0.  0.
         23    2    4    4    0    0  0.21452471060E+03  0.89434898488E+02  0.21799690595E+03  0.33274770691E+03  0.95806747814E+02 0.  0.
          4    1    3    3  502    0  0.32667347741E+03  0.37255926251E+02  0.42748715368E+02  0.33155846776E+03  0.00000000000E+00 0. -1.
         -3    1    3    3    0  502  0.29026568412E+03  0.30184774293E+02  0.11592368075E+03  0.31401208215E+03  0.00000000000E+00 0.  1.
         11    1    5    5    0    0 -0.65834971899E+03 -0.90753932512E+02  0.54225699305E+03  0.85773147037E+03  0.00000000000E+00 0.  1.
        -11    1    5    5    0    0 -0.17311415313E+03 -0.66121666520E+02  0.12465213643E+03  0.22333548736E+03  0.00000000000E+00 0. -1.
          3    1    6    6  503    0  0.12544219214E+03  0.95910650218E+02  0.16727117375E+03  0.23003095870E+03  0.00000000000E+00 0. -1.
         -3    1    6    6    0  503  0.89082518458E+02 -0.64757517295E+01  0.50725732199E+02  0.10271674821E+03  0.00000000000E+00 0.  1.
<mgrwt>
<rscale>  0 0.17753905E+04</rscale>
<asrwt>0</asrwt>
<pdfrwt beam="1">  1        2 0.23868951E+00 0.17753905E+04</pdfrwt>
<pdfrwt beam="2">  1       -3 0.78138984E-01 0.17753905E+04</pdfrwt>
<totfact> 0.10978671E+01</totfact>
</mgrwt>
</event>
<event>
12    6  0.1530859E-007  0.3009419E+04  0.7818608E-02  0.8241046E-01
          2   -1    0    0  501    0  0.00000000000E+00  0.00000000000E+00  0.17204924494E+04  0.17204924494E+04  0.00000000000E+00 0. -1.
         -1   -1    0    0    0  501 -0.00000000000E+00 -0.00000000000E+00 -0.13159900692E+04  0.13159900692E+04  0.00000000000E+00 0.  1.
         24    2    1    2    0    0 -0.46173459779E+03  0.49729524558E+03  0.13838597708E+04  0.15432815570E+04  0.78413641173E+02 0.  0.
        254    2    1    2    0    0  0.46173459779E+03 -0.49729524558E+03 -0.97935739059E+03  0.14932009616E+04  0.90000378507E+03 0.  0.
         23    2    4    4    0    0 -0.30980210148E+02 -0.39351298359E+03 -0.20252072374E+02  0.40613308725E+03  0.93390023303E+02 0.  0.
         23    2    4    4    0    0  0.49271480794E+03 -0.10378226199E+03 -0.95910531822E+03  0.10870678743E+04  0.91076408221E+02 0.  0.
          4    1    3    3  502    0 -0.37399239179E+03  0.36262203220E+03  0.10132006686E+04  0.11392719791E+04  0.00000000000E+00 0. -1.
         -3    1    3    3    0  502 -0.87742205998E+02  0.13467321338E+03  0.37065910211E+03  0.40400957797E+03  0.00000000000E+00 0.  1.
         11    1    5    5    0    0 -0.26050708061E+02 -0.27377392642E+02  0.88376677281E+01  0.38810635002E+02  0.00000000000E+00 0. -1.
        -11    1    5    5    0    0 -0.49295020865E+01 -0.36613559095E+03 -0.29089740102E+02  0.36732245225E+03  0.00000000000E+00 0.  1.
          3    1    6    6  503    0  0.10546962782E+03 -0.34707259753E+02 -0.29506936926E+03  0.31526872497E+03  0.00000000000E+00 0. -1.
         -3    1    6    6    0  503  0.38724518012E+03 -0.69075002241E+02 -0.66403594896E+03  0.77179914937E+03  0.00000000000E+00 0.  1.
<mgrwt>
<rscale>  0 0.30094192E+04</rscale>
<asrwt>0</asrwt>
<pdfrwt beam="1">  1        2 0.26469114E+00 0.30094192E+04</pdfrwt>
<pdfrwt beam="2">  1       -1 0.20246001E+00 0.30094192E+04</pdfrwt>
<totfact> 0.13461476E+00</totfact>
</mgrwt>
</event>
<event>
12    6  0.1530859E-007  0.1673694E+04  0.7818608E-02  0.8776511E-01
         -1   -1    0    0    0  501 -0.00000000000E+00  0.00000000000E+00  0.20244653504E+03  0.20244653504E+03  0.00000000000E+00 0.  1.
          2   -1    0    0  501    0  0.00000000000E+00 -0.00000000000E+00 -0.34592486173E+04  0.34592486173E+04  0.00000000000E+00 0. -1.
         24    2    1    2    0    0  0.25530173539E+03  0.11185444615E+03 -0.22973205319E+04  0.23154131627E+04  0.75934803656E+02 0.  0.
        254    2    1    2    0    0 -0.25530173539E+03 -0.11185444615E+03 -0.95948155039E+03  0.13462819897E+04  0.90231921014E+03 0.  0.
         23    2    4    4    0    0 -0.24124327200E+03  0.47851433506E+01 -0.11071367886E+04  0.11367910803E+04  0.91218845185E+02 0.  0.
         23    2    4    4    0    0 -0.14058463390E+02 -0.11663958950E+03  0.14765523821E+03  0.20949090937E+03  0.91005150996E+02 0.  0.
          4    1    3    3  502    0  0.16380931842E+03  0.95661713034E+02 -0.17512837635E+04  0.17615275974E+04  0.00000000000E+00 0. -1.
         -3    1    3    3    0  502  0.91492416973E+02  0.16192733113E+02 -0.54603676844E+03  0.55388556531E+03  0.00000000000E+00 0.  1.
         11    1    5    5    0    0 -0.10622525733E+03  0.38595734533E+02 -0.61740126192E+03  0.62766054061E+03  0.00000000000E+00 0. -1.
        -11    1    5    5    0    0 -0.13501801467E+03 -0.33810591183E+02 -0.48973552668E+03  0.50913053970E+03  0.00000000000E+00 0.  1.
          2    1    6    6  503    0 -0.30611785847E+02 -0.98265052511E+02  0.61591409665E+02  0.11994416919E+03  0.00000000000E+00 0. -1.
         -2    1    6    6    0  503  0.16553322457E+02 -0.18374536987E+02  0.86063828546E+02  0.89546740186E+02  0.00000000000E+00 0.  1.
<mgrwt>
<rscale>  0 0.16736940E+04</rscale>
<asrwt>0</asrwt>
<pdfrwt beam="1">  1        2 0.53219208E+00 0.16736940E+04</pdfrwt>
<pdfrwt beam="2">  1       -1 0.31145622E-01 0.16736940E+04</pdfrwt>
<totfact> 0.90898894E+00</totfact>
</mgrwt>
</event>
<event>
12    6  0.1530859E-007  0.1724059E+04  0.7818608E-02  0.8747760E-01
          2   -1    0    0  501    0  0.00000000000E+00  0.00000000000E+00  0.48429108694E+03  0.48429108694E+03  0.00000000000E+00 0. -1.
         -3   -1    0    0    0  501 -0.00000000000E+00 -0.00000000000E+00 -0.15343979380E+04  0.15343979380E+04  0.00000000000E+00 0.  1.
         24    2    1    2    0    0  0.49064316695E+03 -0.96117875422E+01 -0.84181465640E+03  0.97783512338E+03  0.81771077162E+02 0.  0.
        254    2    1    2    0    0 -0.49064316695E+03  0.96117875422E+01 -0.20829219467E+03  0.10408539016E+04  0.89396202509E+03 0.  0.
         23    2    4    4    0    0 -0.57642225543E+03  0.12934072008E+03 -0.44620607906E+03  0.74594034701E+03  0.91298947905E+02 0.  0.
         23    2    4    4    0    0  0.85779088480E+02 -0.11972893254E+03  0.23791388439E+03  0.29491355455E+03  0.93155348564E+02 0.  0.
          2    1    3    3  502    0  0.29597014610E+02 -0.49090966163E+01 -0.10004333521E+03  0.10444496840E+03  0.00000000000E+00 0. -1.
         -1    1    3    3    0  502  0.46104615234E+03 -0.47026909259E+01 -0.74177132119E+03  0.87339015498E+03  0.00000000000E+00 0.  1.
         11    1    5    5    0    0 -0.39825461435E+03  0.12362901498E+03 -0.28055118815E+03  0.50259311611E+03  0.00000000000E+00 0. -1.
        -11    1    5    5    0    0 -0.17816764108E+03  0.57117051005E+01 -0.16565489091E+03  0.24334723090E+03  0.00000000000E+00 0.  1.
          3    1    6    6  503    0  0.46986458990E+02 -0.35706380517E+02  0.27622050089E+02  0.65158657055E+02  0.00000000000E+00 0. -1.
         -3    1    6    6    0  503  0.38792629491E+02 -0.84022552023E+02  0.21029183430E+03  0.22975489750E+03  0.00000000000E+00 0.  1.
<mgrwt>
<rscale>  0 0.17240594E+04</rscale>
<asrwt>0</asrwt>
<pdfrwt beam="1">  1        2 0.74506321E-01 0.17240594E+04</pdfrwt>
<pdfrwt beam="2">  1       -3 0.23606122E+00 0.17240594E+04</pdfrwt>
<totfact> 0.33459654E+00</totfact>
</mgrwt>
</event>
<event>
12    6  0.1530859E-007  0.2784314E+04  0.7818608E-02  0.8308155E-01
          2   -1    0    0  501    0  0.00000000000E+00  0.00000000000E+00  0.33293366481E+04  0.33293366481E+04  0.00000000000E+00 0. -1.
         -1   -1    0    0    0  501 -0.00000000000E+00 -0.00000000000E+00 -0.58212841330E+03  0.58212841330E+03  0.00000000000E+00 0.  1.
         24    2    1    2    0    0 -0.11537443666E+04  0.27296876241E+03  0.17602095078E+04  0.21237360578E+04  0.79242178309E+02 0.  0.
        254    2    1    2    0    0  0.11537443666E+04 -0.27296876241E+03  0.98699872702E+03  0.17877290037E+04  0.90342154872E+03 0.  0.
         23    2    4    4    0    0  0.75766406303E+03 -0.37847774327E+03  0.10606831176E+04  0.13604636774E+04  0.92263248547E+02 0.  0.
         23    2    4    4    0    0  0.39608030360E+03  0.10550898086E+03 -0.73684390585E+02  0.42726532627E+03  0.95469983112E+02 0.  0.
          4    1    3    3  502    0 -0.25311923241E+03  0.48297692447E+02  0.43929367402E+03  0.50929455617E+03  0.00000000000E+00 0. -1.
         -3    1    3    3    0  502 -0.90062513421E+03  0.22467106996E+03  0.13209158338E+04  0.16144415016E+04  0.00000000000E+00 0.  1.
         11    1    5    5    0    0  0.47410631652E+03 -0.21492908703E+03  0.71460209266E+03  0.88409697582E+03  0.00000000000E+00 0.  1.
        -11    1    5    5    0    0  0.28355774650E+03 -0.16354865623E+03  0.34608102495E+03  0.47636670160E+03  0.00000000000E+00 0. -1.
          1    1    6    6  503    0  0.37541923435E+03  0.11434565579E+03 -0.85828043738E+02  0.40172252067E+03  0.00000000000E+00 0.  1.
         -1    1    6    6    0  503  0.20661069249E+02 -0.88366749276E+01  0.12143653153E+02  0.25542805605E+02  0.00000000000E+00 0. -1.
<mgrwt>
<rscale>  0 0.27843142E+04</rscale>
<asrwt>0</asrwt>
<pdfrwt beam="1">  1        2 0.51220563E+00 0.27843142E+04</pdfrwt>
<pdfrwt beam="2">  1       -1 0.89558220E-01 0.27843142E+04</pdfrwt>
<totfact> 0.12869536E+00</totfact>
</mgrwt>
</event>
<event>
12    6  0.1530859E-007  0.1168932E+04  0.7818608E-02  0.9140493E-01
         -1   -1    0    0    0  501 -0.00000000000E+00  0.00000000000E+00  0.15824211608E+03  0.15824211608E+03  0.00000000000E+00 0.  1.
          2   -1    0    0  501    0  0.00000000000E+00 -0.00000000000E+00 -0.21587207580E+04  0.21587207580E+04  0.00000000000E+00 0. -1.
         24    2    1    2    0    0  0.39866999563E+02  0.15250638836E+03 -0.82472608182E+02  0.19506148549E+03  0.79997974193E+02 0.  0.
        254    2    1    2    0    0 -0.39866999563E+02 -0.15250638836E+03 -0.19180060338E+04  0.21219013886E+04  0.89379571566E+03 0.  0.
         23    2    4    4    0    0  0.38956922035E+03 -0.91783481598E+02 -0.12958864123E+04  0.13589739951E+04  0.85442033166E+02 0.  0.
         23    2    4    4    0    0 -0.42943621991E+03 -0.60722906767E+02 -0.62211962151E+03  0.76292739350E+03  0.83202439270E+02 0.  0.
          4    1    3    3  502    0  0.32827957964E+02  0.18273545517E+02 -0.40875392894E+00  0.37573452991E+02  0.00000000000E+00 0. -1.
         -3    1    3    3    0  502  0.70390415989E+01  0.13423284285E+03 -0.82063854253E+02  0.15748803250E+03  0.00000000000E+00 0.  1.
         11    1    5    5    0    0  0.73416720361E+02  0.16114121658E+02 -0.23148802382E+03  0.24338526027E+03  0.00000000000E+00 0.  1.
        -11    1    5    5    0    0  0.31615249999E+03 -0.10789760326E+03 -0.10643983885E+04  0.11155887349E+04  0.00000000000E+00 0. -1.
          1    1    6    6  503    0 -0.11984318273E+03  0.16717603968E+02 -0.14406955051E+03  0.18814330207E+03  0.00000000000E+00 0. -1.
         -1    1    6    6    0  503 -0.30959303718E+03 -0.77440510735E+02 -0.47805007100E+03  0.57478409143E+03  0.00000000000E+00 0.  1.
<mgrwt>
<rscale>  0 0.11689321E+04</rscale>
<asrwt>0</asrwt>
<pdfrwt beam="1">  1        2 0.33211086E+00 0.11689321E+04</pdfrwt>
<pdfrwt beam="2">  1       -1 0.24344943E-01 0.11689321E+04</pdfrwt>
<totfact> 0.90201751E+01</totfact>
</mgrwt>
</event>
<event>
12    6  0.1530859E-007  0.1614466E+04  0.7818608E-02  0.8811710E-01
         -1   -1    0    0    0  501 -0.00000000000E+00  0.00000000000E+00  0.38041675659E+03  0.38041675659E+03  0.00000000000E+00 0.  1.
          2   -1    0    0  501    0  0.00000000000E+00 -0.00000000000E+00 -0.17129235847E+04  0.17129235847E+04  0.00000000000E+00 0. -1.
         24    2    1    2    0    0 -0.27520154486E+03  0.13755351778E+03  0.12983841831E+03  0.34348082877E+03  0.80400275607E+02 0.  0.
        254    2    1    2    0    0  0.27520154486E+03 -0.13755351778E+03 -0.14623452464E+04  0.17498595125E+04  0.91043826439E+03 0.  0.
         23    2    4    4    0    0  0.41832127390E+03  0.17202298980E+03 -0.12625805631E+04  0.13442089266E+04  0.90572417612E+02 0.  0.
         23    2    4    4    0    0 -0.14311972904E+03 -0.30957650758E+03 -0.19976468328E+03  0.40565058587E+03  0.91244716295E+02 0.  0.
          2    1    3    3  502    0 -0.89593896666E+02  0.72584590761E+02  0.80831075518E+02  0.14081637655E+03  0.00000000000E+00 0. -1.
         -1    1    3    3    0  502 -0.18560764819E+03  0.64968927015E+02  0.49007342790E+02  0.20266445222E+03  0.00000000000E+00 0.  1.
         11    1    5    5    0    0  0.39230347939E+03  0.16706280128E+03 -0.12322723029E+04  0.13039582156E+04  0.00000000000E+00 0. -1.
        -11    1    5    5    0    0  0.26017794509E+02  0.49601885211E+01 -0.30308260228E+02  0.40250711041E+02  0.00000000000E+00 0.  1.
          1    1    6    6  503    0 -0.14980007229E+03 -0.27002084455E+03 -0.19510921686E+03  0.36526555361E+03  0.00000000000E+00 0. -1.
         -1    1    6    6    0  503  0.66803432515E+01 -0.39555663029E+02 -0.46554664170E+01  0.40385032267E+02  0.00000000000E+00 0.  1.
<mgrwt>
<rscale>  0 0.16144657E+04</rscale>
<asrwt>0</asrwt>
<pdfrwt beam="1">  1        2 0.26352671E+00 0.16144657E+04</pdfrwt>
<pdfrwt beam="2">  1       -1 0.58525654E-01 0.16144657E+04</pdfrwt>
<totfact> 0.31139105E+01</totfact>
</mgrwt>
</event>
<event>
12    6  0.1530859E-007  0.1701208E+04  0.7818608E-02  0.8760676E-01
         -1   -1    0    0    0  501 -0.00000000000E+00  0.00000000000E+00  0.13036272611E+04  0.13036272611E+04  0.00000000000E+00 0.  1.
          2   -1    0    0  501    0  0.00000000000E+00 -0.00000000000E+00 -0.55501060826E+03  0.55501060826E+03  0.00000000000E+00 0. -1.
         24    2    1    2    0    0 -0.14437882005E+03 -0.58466546822E+03  0.16328861191E+03  0.62875211058E+03  0.77376303641E+02 0.  0.
        254    2    1    2    0    0  0.14437882005E+03  0.58466546822E+03  0.58532804094E+03  0.12298857588E+04  0.89851606036E+03 0.  0.
         23    2    4    4    0    0 -0.11813645330E+03 -0.79266226134E+02  0.47219261076E+03  0.50135434578E+03  0.90282679263E+02 0.  0.
         23    2    4    4    0    0  0.26251527335E+03  0.66393169436E+03  0.11313543018E+03  0.72853141300E+03  0.90768004581E+02 0.  0.
          4    1    3    3  502    0 -0.47225217590E+02 -0.34203945928E+03  0.79791844681E+02  0.35438390392E+03  0.00000000000E+00 0. -1.
         -3    1    3    3    0  502 -0.97153602456E+02 -0.24262600894E+03  0.83496767224E+02  0.27436820665E+03  0.00000000000E+00 0.  1.
         11    1    5    5    0    0 -0.16615282075E+02 -0.63149719149E+02  0.20057510772E+03  0.21093678784E+03  0.00000000000E+00 0.  1.
        -11    1    5    5    0    0 -0.10152117122E+03 -0.16116506985E+02  0.27161750303E+03  0.29041755794E+03  0.00000000000E+00 0. -1.
          3    1    6    6  503    0  0.21187443502E+03  0.49963997937E+03  0.48525119627E+02  0.54487206978E+03  0.00000000000E+00 0. -1.
         -3    1    6    6    0  503  0.50640838326E+02  0.16429171499E+03  0.64610310555E+02  0.18365934322E+03  0.00000000000E+00 0.  1.
<mgrwt>
<rscale>  0 0.17012078E+04</rscale>
<asrwt>0</asrwt>
<pdfrwt beam="1">  1        2 0.85386248E-01 0.17012078E+04</pdfrwt>
<pdfrwt beam="2">  1       -1 0.20055804E+00 0.17012078E+04</pdfrwt>
<totfact> 0.88310095E+00</totfact>
</mgrwt>
</event>
<event>
12    6  0.1530859E-007  0.1836144E+04  0.7818608E-02  0.8687311E-01
         -1   -1    0    0    0  501 -0.00000000000E+00  0.00000000000E+00  0.10371169111E+04  0.10371169111E+04  0.00000000000E+00 0.  1.
          2   -1    0    0  501    0  0.00000000000E+00 -0.00000000000E+00 -0.81269135467E+03  0.81269135467E+03  0.00000000000E+00 0. -1.
         24    2    1    2    0    0 -0.10900151003E+03 -0.18669301238E+02  0.79268286822E+03  0.80440385584E+03  0.80557816004E+02 0.  0.
        254    2    1    2    0    0  0.10900151003E+03  0.18669301238E+02 -0.56825731178E+03  0.10454044099E+04  0.87047351249E+03 0.  0.
         23    2    4    4    0    0  0.32472912481E+02  0.33383596156E+03 -0.61372293863E+03  0.70627430225E+03  0.98318896120E+02 0.  0.
         23    2    4    4    0    0  0.76528597551E+02 -0.31516666032E+03  0.45465626856E+02  0.33913010770E+03  0.88065070839E+02 0.  0.
          4    1    3    3  502    0 -0.58016087156E+02  0.27696788932E+02  0.47508806042E+03  0.47941802598E+03  0.00000000000E+00 0. -1.
         -3    1    3    3    0  502 -0.50985422876E+02 -0.46366090170E+02  0.31759480780E+03  0.32498582986E+03  0.00000000000E+00 0.  1.
         11    1    5    5    0    0  0.12377170622E+02  0.31936154305E+03 -0.59435128076E+03  0.67483215282E+03  0.00000000000E+00 0.  1.
        -11    1    5    5    0    0  0.20095741858E+02  0.14474418510E+02 -0.19371657867E+02  0.31442149426E+02  0.00000000000E+00 0. -1.
          3    1    6    6  503    0  0.16353001548E+02 -0.62291659456E+02 -0.26149719060E+02  0.69508843354E+02  0.00000000000E+00 0. -1.
         -3    1    6    6    0  503  0.60175596003E+02 -0.25287500087E+03  0.71615345917E+02  0.26962126435E+03  0.00000000000E+00 0.  1.
<mgrwt>
<rscale>  0 0.18361437E+04</rscale>
<asrwt>0</asrwt>
<pdfrwt beam="1">  1        2 0.12502944E+00 0.18361437E+04</pdfrwt>
<pdfrwt beam="2">  1       -1 0.15955645E+00 0.18361437E+04</pdfrwt>
<totfact> 0.10673413E+01</totfact>
</mgrwt>
</event>
<event>
12    6  0.1530859E-007  0.2481313E+04  0.7818608E-02  0.8409673E-01
          2   -1    0    0  501    0  0.00000000000E+00  0.00000000000E+00  0.12971886336E+04  0.12971886336E+04  0.00000000000E+00 0. -1.
         -1   -1    0    0    0  501 -0.00000000000E+00 -0.00000000000E+00 -0.11865882641E+04  0.11865882641E+04  0.00000000000E+00 0.  1.
         24    2    1    2    0    0  0.30542906857E+03  0.34701929113E+03  0.10254721011E+04  0.11277365832E+04  0.80544811258E+02 0.  0.
        254    2    1    2    0    0 -0.30542906857E+03 -0.34701929113E+03 -0.91487173167E+03  0.13560403145E+04  0.88777572888E+03 0.  0.
         23    2    4    4    0    0 -0.23333767220E+03 -0.42413355509E+03 -0.66829379031E+02  0.49715408293E+03  0.91434536407E+02 0.  0.
         23    2    4    4    0    0 -0.72091396369E+02  0.77114263966E+02 -0.84804235264E+03  0.85888623157E+03  0.85825099872E+02 0.  0.
          4    1    3    3  502    0  0.16544389734E+03  0.16140145076E+03  0.59837980055E+03  0.64146745606E+03  0.00000000000E+00 0. -1.
         -3    1    3    3    0  502  0.13998517123E+03  0.18561784037E+03  0.42709230056E+03  0.48626912716E+03  0.00000000000E+00 0.  1.
         11    1    5    5    0    0 -0.18625981871E+03 -0.32041419434E+03 -0.12178954982E+02  0.37081842315E+03  0.00000000000E+00 0. -1.
        -11    1    5    5    0    0 -0.47077853499E+02 -0.10371936075E+03 -0.54650424049E+02  0.12633565979E+03  0.00000000000E+00 0.  1.
          3    1    6    6  503    0 -0.42542653088E+02  0.23546225061E+02 -0.64493476907E+03  0.64676514934E+03  0.00000000000E+00 0. -1.
         -3    1    6    6    0  503 -0.29548743281E+02  0.53568038904E+02 -0.20310758357E+03  0.21212108223E+03  0.00000000000E+00 0.  1.
<mgrwt>
<rscale>  0 0.24813132E+04</rscale>
<asrwt>0</asrwt>
<pdfrwt beam="1">  1        2 0.19956748E+00 0.24813132E+04</pdfrwt>
<pdfrwt beam="2">  1       -1 0.18255204E+00 0.24813132E+04</pdfrwt>
<totfact> 0.33701671E+00</totfact>
</mgrwt>
</event>
<event>
12    6  0.1530859E-007  0.1977443E+04  0.7818608E-02  0.8617240E-01
         -3   -1    0    0    0  501 -0.00000000000E+00  0.00000000000E+00  0.73136945130E+03  0.73136945130E+03  0.00000000000E+00 0.  1.
          2   -1    0    0  501    0  0.00000000000E+00 -0.00000000000E+00 -0.13366296730E+04  0.13366296730E+04  0.00000000000E+00 0. -1.
         24    2    1    2    0    0 -0.76118561355E+03 -0.55080693644E+01 -0.43010939963E+03  0.87790886735E+03  0.79347379440E+02 0.  0.
        254    2    1    2    0    0  0.76118561355E+03  0.55080693644E+01 -0.17515082209E+03  0.11900902570E+04  0.89788815124E+03 0.  0.
         23    2    4    4    0    0  0.44800749380E+03 -0.21611996867E+03 -0.47513767835E+03  0.69373302440E+03  0.89950766524E+02 0.  0.
         23    2    4    4    0    0  0.31317811975E+03  0.22162803804E+03  0.29998685626E+03  0.49635723256E+03  0.95806400890E+02 0.  0.
          2    1    3    3  502    0 -0.17003363515E+03 -0.14649482462E+02 -0.62659484084E+02  0.18180279251E+03  0.00000000000E+00 0. -1.
         -1    1    3    3    0  502 -0.59115197840E+03  0.91414130973E+01 -0.36744991555E+03  0.69610607485E+03  0.00000000000E+00 0.  1.
         11    1    5    5    0    0  0.43569333569E+03 -0.18892809292E+03 -0.43754724085E+03  0.64573221620E+03  0.00000000000E+00 0. -1.
        -11    1    5    5    0    0  0.12314158107E+02 -0.27191875749E+02 -0.37590437499E+02  0.48000808201E+02  0.00000000000E+00 0.  1.
          3    1    6    6  503    0  0.28011165623E+03  0.22680231202E+03  0.26113176987E+03  0.44507485879E+03  0.00000000000E+00 0. -1.
         -3    1    6    6    0  503  0.33066463520E+02 -0.51742739813E+01  0.38855086390E+02  0.51282373768E+02  0.00000000000E+00 0.  1.
<mgrwt>
<rscale>  0 0.19774429E+04</rscale>
<asrwt>0</asrwt>
<pdfrwt beam="1">  1        2 0.20563533E+00 0.19774429E+04</pdfrwt>
<pdfrwt beam="2">  1       -3 0.11251838E+00 0.19774429E+04</pdfrwt>
<totfact> 0.61440617E+00</totfact>
</mgrwt>
</event>
<event>
12    6  0.1530859E-007  0.1862979E+04  0.7818608E-02  0.8673507E-01
          2   -1    0    0  501    0  0.00000000000E+00  0.00000000000E+00  0.13692864422E+04  0.13692864422E+04  0.00000000000E+00 0. -1.
         -1   -1    0    0    0  501 -0.00000000000E+00 -0.00000000000E+00 -0.63366769603E+03  0.63366769603E+03  0.00000000000E+00 0.  1.
         24    2    1    2    0    0 -0.74432074422E+02 -0.41933098229E+02  0.10398666468E+04  0.10462803486E+04  0.77983372000E+02 0.  0.
        254    2    1    2    0    0  0.74432074422E+02  0.41933098229E+02 -0.30424790056E+03  0.95667378971E+03  0.90297255578E+03 0.  0.
         23    2    4    4    0    0 -0.18505331872E+03  0.19696689368E+03  0.20926897991E+03  0.35368450587E+03  0.90876486306E+02 0.  0.
         23    2    4    4    0    0  0.25948539314E+03 -0.15503379545E+03 -0.51351688047E+03  0.60298928384E+03  0.92349027717E+02 0.  0.
          2    1    3    3  502    0 -0.72947028464E+02 -0.32754210847E+02  0.50162649508E+03  0.50795988803E+03  0.00000000000E+00 0. -1.
         -1    1    3    3    0  502 -0.14850459584E+01 -0.91788873821E+01  0.53824015170E+03  0.53832046054E+03  0.00000000000E+00 0.  1.
         11    1    5    5    0    0 -0.33846575694E+01  0.15579237258E+02 -0.75644527239E+01  0.17646231479E+02  0.00000000000E+00 0. -1.
        -11    1    5    5    0    0 -0.18166866115E+03  0.18138765642E+03  0.21683343263E+03  0.33603827439E+03  0.00000000000E+00 0.  1.
          1    1    6    6  503    0 -0.52301312508E+01 -0.16435483104E+02 -0.29261001574E+02  0.33965947519E+02  0.00000000000E+00 0. -1.
         -1    1    6    6    0  503  0.26471552439E+03 -0.13859831235E+03 -0.48425587889E+03  0.56902333632E+03  0.00000000000E+00 0.  1.
<mgrwt>
<rscale>  0 0.18629789E+04</rscale>
<asrwt>0</asrwt>
<pdfrwt beam="1">  1        2 0.21065945E+00 0.18629789E+04</pdfrwt>
<pdfrwt beam="2">  1       -1 0.97487338E-01 0.18629789E+04</pdfrwt>
<totfact> 0.16297661E+01</totfact>
</mgrwt>
</event>
<event>
12    6  0.1530859E-007  0.1365755E+04  0.7818608E-02  0.8978987E-01
          2   -1    0    0  501    0  0.00000000000E+00  0.00000000000E+00  0.21809462214E+04  0.21809462214E+04  0.00000000000E+00 0. -1.
         -1   -1    0    0    0  501 -0.00000000000E+00 -0.00000000000E+00 -0.21381618522E+03  0.21381618522E+03  0.00000000000E+00 0.  1.
         24    2    1    2    0    0 -0.14547871623E+02  0.22973406275E+03  0.28527313897E+02  0.24551644381E+03  0.80468232143E+02 0.  0.
        254    2    1    2    0    0  0.14547871623E+02 -0.22973406275E+03  0.19386027223E+04  0.21492459628E+04  0.89893732466E+03 0.  0.
         23    2    4    4    0    0 -0.26827564519E+03  0.21311998461E+03  0.10969940738E+04  0.11528961635E+04  0.91551167065E+02 0.  0.
         23    2    4    4    0    0  0.28282351681E+03 -0.44285404736E+03  0.84160864846E+03  0.99634979930E+03  0.91098608631E+02 0.  0.
          4    1    3    3  502    0 -0.89490321322E+01  0.53322691843E+02  0.42055428360E+02  0.68498567110E+02  0.00000000000E+00 0. -1.
         -3    1    3    3    0  502 -0.55988394912E+01  0.17641137091E+03 -0.13528114463E+02  0.17701787670E+03  0.00000000000E+00 0.  1.
         11    1    5    5    0    0 -0.25724701415E+03  0.21927337048E+03  0.10117479718E+04  0.10667196425E+04  0.00000000000E+00 0. -1.
        -11    1    5    5    0    0 -0.11028631041E+02 -0.61533858704E+01  0.85246102028E+02  0.86176520998E+02  0.00000000000E+00 0.  1.
          3    1    6    6  503    0  0.17969725036E+03 -0.28731431780E+03  0.62052710888E+03  0.70703218587E+03  0.00000000000E+00 0. -1.
         -3    1    6    6    0  503  0.10312626645E+03 -0.15553972956E+03  0.22108153958E+03  0.28931761344E+03  0.00000000000E+00 0.  1.
<mgrwt>
<rscale>  0 0.13657549E+04</rscale>
<asrwt>0</asrwt>
<pdfrwt beam="1">  1        2 0.33553017E+00 0.13657549E+04</pdfrwt>
<pdfrwt beam="2">  1       -1 0.32894799E-01 0.13657549E+04</pdfrwt>
<totfact> 0.51079001E+01</totfact>
</mgrwt>
</event>
<event>
12    6  0.1530859E-007  0.1343314E+04  0.7818608E-02  0.8995905E-01
         -1   -1    0    0    0  501 -0.00000000000E+00  0.00000000000E+00  0.68756994994E+03  0.68756994994E+03  0.00000000000E+00 0.  1.
          2   -1    0    0  501    0  0.00000000000E+00 -0.00000000000E+00 -0.65611227136E+03  0.65611227136E+03  0.00000000000E+00 0. -1.
         24    2    1    2    0    0  0.17617225683E+03  0.29357315605E+03 -0.46826973686E+02  0.35587932961E+03  0.85061564485E+02 0.  0.
        254    2    1    2    0    0 -0.17617225683E+03 -0.29357315605E+03  0.78284652260E+02  0.98780289169E+03  0.92325738774E+03 0.  0.
         23    2    4    4    0    0 -0.30290928195E+02  0.11907332304E+03  0.40559948118E+03  0.43342054616E+03  0.90809878900E+02 0.  0.
         23    2    4    4    0    0 -0.14588132863E+03 -0.41264647909E+03 -0.32731482892E+03  0.55438234552E+03  0.92985531372E+02 0.  0.
          4    1    3    3  502    0  0.13783902629E+03  0.21425753816E+03  0.27752011602E+01  0.25478145845E+03  0.00000000000E+00 0. -1.
         -3    1    3    3    0  502  0.38333230534E+02  0.79315617885E+02 -0.49602174846E+02  0.10109787116E+03  0.00000000000E+00 0.  1.
         11    1    5    5    0    0 -0.48771346176E+02  0.47045810967E+02  0.11520733262E+03  0.13365882697E+03  0.00000000000E+00 0. -1.
        -11    1    5    5    0    0  0.18480417982E+02  0.72027512076E+02  0.29039214857E+03  0.29976171919E+03  0.00000000000E+00 0.  1.
          4    1    6    6  503    0 -0.99807229061E+02 -0.24268407879E+03 -0.14049887340E+03  0.29765244581E+03  0.00000000000E+00 0. -1.
         -4    1    6    6    0  503 -0.46074099572E+02 -0.16996240030E+03 -0.18681595552E+03  0.25672989971E+03  0.00000000000E+00 0.  1.
<mgrwt>
<rscale>  0 0.13433139E+04</rscale>
<asrwt>0</asrwt>
<pdfrwt beam="1">  1        2 0.10094035E+00 0.13433139E+04</pdfrwt>
<pdfrwt beam="2">  1       -1 0.10577999E+00 0.13433139E+04</pdfrwt>
<totfact> 0.41539307E+01</totfact>
</mgrwt>
</event>
<event>
12    6  0.1530859E-007  0.1376873E+04  0.7818608E-02  0.8970731E-01
         -1   -1    0    0    0  501 -0.00000000000E+00  0.00000000000E+00  0.58997065273E+03  0.58997065273E+03  0.00000000000E+00 0.  1.
          2   -1    0    0  501    0  0.00000000000E+00 -0.00000000000E+00 -0.80333680565E+03  0.80333680565E+03  0.00000000000E+00 0. -1.
         24    2    1    2    0    0  0.29889975013E+03  0.10112746599E+03 -0.31233403067E+03  0.45111787247E+03  0.79918478081E+02 0.  0.
        254    2    1    2    0    0 -0.29889975013E+03 -0.10112746599E+03  0.98967877751E+02  0.94218958591E+03  0.88224642247E+03 0.  0.
         23    2    4    4    0    0  0.15480696134E+03  0.36443483692E+02 -0.27564763031E+03  0.33080146753E+03  0.90303222771E+02 0.  0.
         23    2    4    4    0    0 -0.45370671147E+03 -0.13757094968E+03  0.37461550806E+03  0.61138811838E+03  0.93183186175E+02 0.  0.
          4    1    3    3  502    0  0.26598462999E+03  0.10275520276E+03 -0.30465790685E+03  0.41728035575E+03  0.00000000000E+00 0. -1.
         -3    1    3    3    0  502  0.32915120141E+02 -0.16277367734E+01 -0.76761238196E+01  0.33837516720E+02  0.00000000000E+00 0.  1.
         11    1    5    5    0    0  0.37427159858E+01  0.75491133367E+01 -0.86977713037E+02  0.87384893433E+02  0.00000000000E+00 0. -1.
        -11    1    5    5    0    0  0.15106424535E+03  0.28894370355E+02 -0.18866991728E+03  0.24341657410E+03  0.00000000000E+00 0.  1.
          4    1    6    6  503    0 -0.55169611304E+02  0.13721915502E+02  0.46548804887E+02  0.73476310556E+02  0.00000000000E+00 0. -1.
         -4    1    6    6    0  503 -0.39853710017E+03 -0.15129286518E+03  0.32806670318E+03  0.53791180782E+03  0.00000000000E+00 0.  1.
<mgrwt>
<rscale>  0 0.13768735E+04</rscale>
<asrwt>0</asrwt>
<pdfrwt beam="1">  1        2 0.12359028E+00 0.13768735E+04</pdfrwt>
<pdfrwt beam="2">  1       -1 0.90764716E-01 0.13768735E+04</pdfrwt>
<totfact> 0.45221708E+01</totfact>
</mgrwt>
</event>
<event>
12    6  0.1530859E-007  0.1895616E+04  0.7818608E-02  0.8657042E-01
         -1   -1    0    0    0  501 -0.00000000000E+00  0.00000000000E+00  0.63709736172E+03  0.63709736172E+03  0.00000000000E+00 0.  1.
          2   -1    0    0  501    0  0.00000000000E+00 -0.00000000000E+00 -0.14100517807E+04  0.14100517807E+04  0.00000000000E+00 0. -1.
         24    2    1    2    0    0  0.44334243542E+03  0.23615936838E+03  0.27693885768E+03  0.57912575351E+03  0.79798152634E+02 0.  0.
        254    2    1    2    0    0 -0.44334243542E+03 -0.23615936838E+03 -0.10498932767E+04  0.14680233889E+04  0.89470275270E+03 0.  0.
         23    2    4    4    0    0 -0.43584500447E+03  0.17803836125E+03 -0.20392482460E+03  0.52149856927E+03  0.93364327608E+02 0.  0.
         23    2    4    4    0    0 -0.74974309555E+01 -0.41419772964E+03 -0.84596845208E+03  0.94652481965E+03  0.92901246465E+02 0.  0.
          4    1    3    3  502    0  0.13157461876E+03  0.48650149643E+02  0.43538179897E+02  0.14688189293E+03  0.00000000000E+00 0. -1.
         -3    1    3    3    0  502  0.31176781666E+03  0.18750921874E+03  0.23340067779E+03  0.43224386058E+03  0.00000000000E+00 0.  1.
         11    1    5    5    0    0 -0.23219536304E+03  0.45154415788E+02 -0.91976632203E+02  0.25379777137E+03  0.00000000000E+00 0.  1.
        -11    1    5    5    0    0 -0.20364964143E+03  0.13288394547E+03 -0.11194819239E+03  0.26770079790E+03  0.00000000000E+00 0. -1.
          3    1    6    6  503    0  0.14648499619E+02 -0.10907310441E+03 -0.14781206713E+03  0.18428219620E+03  0.00000000000E+00 0. -1.
         -3    1    6    6    0  503 -0.22145930575E+02 -0.30512462522E+03 -0.69815638494E+03  0.76224262345E+03  0.00000000000E+00 0.  1.
<mgrwt>
<rscale>  0 0.18956163E+04</rscale>
<asrwt>0</asrwt>
<pdfrwt beam="1">  1        2 0.21693104E+00 0.18956163E+04</pdfrwt>
<pdfrwt beam="2">  1       -1 0.98014980E-01 0.18956163E+04</pdfrwt>
<totfact> 0.15213175E+01</totfact>
</mgrwt>
</event>
<event>
12    6  0.1530859E-007  0.1490765E+04  0.7818608E-02  0.8890617E-01
         -1   -1    0    0    0  501 -0.00000000000E+00  0.00000000000E+00  0.13062205354E+04  0.13062205354E+04  0.00000000000E+00 0.  1.
          2   -1    0    0  501    0  0.00000000000E+00 -0.00000000000E+00 -0.42534581051E+03  0.42534581051E+03  0.00000000000E+00 0. -1.
         24    2    1    2    0    0 -0.15050353033E+03 -0.33469057153E+02 -0.23560638285E+03  0.29399085075E+03  0.84550353399E+02 0.  0.
        254    2    1    2    0    0  0.15050353033E+03  0.33469057153E+02  0.11164811077E+04  0.14375754952E+04  0.89236861775E+03 0.  0.
         23    2    4    4    0    0  0.35126662968E+03  0.35864739570E+03  0.56562996304E+03  0.76185485063E+03  0.92029119111E+02 0.  0.
         23    2    4    4    0    0 -0.20076309935E+03 -0.32517833855E+03  0.55085114470E+03  0.67572064454E+03  0.84348277483E+02 0.  0.
          2    1    3    3  502    0 -0.51508334905E+02 -0.31899156504E+02 -0.15466443737E+03  0.16610765466E+03  0.00000000000E+00 0. -1.
         -1    1    3    3    0  502 -0.98995195423E+02 -0.15699006486E+01 -0.80941945479E+02  0.12788319609E+03  0.00000000000E+00 0.  1.
         11    1    5    5    0    0  0.20202516499E+03  0.26714210845E+03  0.35727452631E+03  0.48971845028E+03  0.00000000000E+00 0. -1.
        -11    1    5    5    0    0  0.14924146469E+03  0.91505287254E+02  0.20835543673E+03  0.27213640035E+03  0.00000000000E+00 0.  1.
          3    1    6    6  503    0 -0.10539909160E+03 -0.23452465183E+03  0.32591986104E+03  0.41513195088E+03  0.00000000000E+00 0. -1.
         -3    1    6    6    0  503 -0.95364007750E+02 -0.90653686720E+02  0.22493128366E+03  0.26058869365E+03  0.00000000000E+00 0.  1.
<mgrwt>
<rscale>  0 0.14907655E+04</rscale>
<asrwt>0</asrwt>
<pdfrwt beam="1">  1        2 0.65437817E-01 0.14907655E+04</pdfrwt>
<pdfrwt beam="2">  1       -1 0.20095700E+00 0.14907655E+04</pdfrwt>
<totfact> 0.12157313E+01</totfact>
</mgrwt>
</event>
<event>
12    6  0.1530859E-007  0.2572940E+04  0.7818608E-02  0.8377451E-01
         -1   -1    0    0    0  501 -0.00000000000E+00  0.00000000000E+00  0.86148798219E+03  0.86148798219E+03  0.00000000000E+00 0.  1.
          2   -1    0    0  501    0  0.00000000000E+00 -0.00000000000E+00 -0.19211001309E+04  0.19211001309E+04  0.00000000000E+00 0. -1.
         24    2    1    2    0    0  0.95190799907E+03 -0.52488428457E+03 -0.77578425638E+03  0.13371055059E+04  0.66163211779E+02 0.  0.
        254    2    1    2    0    0 -0.95190799907E+03  0.52488428457E+03 -0.28382789230E+03  0.14454826071E+04  0.90952149190E+03 0.  0.
         23    2    4    4    0    0 -0.52798591908E+03  0.48159335594E+03  0.24442160839E+03  0.76069970020E+03  0.90668737746E+02 0.  0.
         23    2    4    4    0    0 -0.42392207999E+03  0.43290928631E+02 -0.52824950069E+03  0.68478290695E+03  0.91082711120E+02 0.  0.
          2    1    3    3  502    0  0.87858732622E+03 -0.48844391299E+03 -0.69508749672E+03  0.12221455617E+04  0.00000000000E+00 0. -1.
         -1    1    3    3    0  502  0.73320672857E+02 -0.36440371578E+02 -0.80696759654E+02  0.11495994419E+03  0.00000000000E+00 0.  1.
         11    1    5    5    0    0 -0.67133051999E+02  0.66871601043E+02  0.66262200637E+02  0.11562584888E+03  0.00000000000E+00 0.  1.
        -11    1    5    5    0    0 -0.46085286709E+03  0.41472175490E+03  0.17815940775E+03  0.64507385132E+03  0.00000000000E+00 0. -1.
          4    1    6    6  503    0 -0.36748786456E+03  0.25391046733E+02 -0.49454060061E+03  0.61665423172E+03  0.00000000000E+00 0. -1.
         -4    1    6    6    0  503 -0.56434215434E+02  0.17899881898E+02 -0.33708900085E+02  0.68128675229E+02  0.00000000000E+00 0.  1.
<mgrwt>
<rscale>  0 0.25729397E+04</rscale>
<asrwt>0</asrwt>
<pdfrwt beam="1">  1        2 0.29555386E+00 0.25729397E+04</pdfrwt>
<pdfrwt beam="2">  1       -1 0.13253661E+00 0.25729397E+04</pdfrwt>
<totfact> 0.36004811E+00</totfact>
</mgrwt>
</event>
<event>
12    6  0.1530859E-007  0.2530780E+04  0.7818608E-02  0.8392101E-01
         -1   -1    0    0    0  501 -0.00000000000E+00  0.00000000000E+00  0.11507290888E+04  0.11507290888E+04  0.00000000000E+00 0.  1.
          2   -1    0    0  501    0  0.00000000000E+00 -0.00000000000E+00 -0.13914762425E+04  0.13914762425E+04  0.00000000000E+00 0. -1.
         24    2    1    2    0    0 -0.85944955913E+03 -0.38952405877E+03 -0.63726934725E+03  0.11415637948E+04  0.81689287138E+02 0.  0.
        254    2    1    2    0    0  0.85944955913E+03  0.38952405877E+03  0.39652219350E+03  0.14006415365E+04  0.95612986919E+03 0.  0.
         23    2    4    4    0    0  0.99399138046E+03  0.25953220293E+03  0.96485202737E+02  0.10361401153E+04  0.94345722889E+02 0.  0.
         23    2    4    4    0    0 -0.13454182132E+03  0.12999185585E+03  0.30003699076E+03  0.36450142118E+03  0.88542113982E+02 0.  0.
          4    1    3    3  502    0 -0.62172958765E+03 -0.29640627031E+03 -0.50470588062E+03  0.85389248923E+03  0.00000000000E+00 0. -1.
         -1    1    3    3    0  502 -0.23771997148E+03 -0.93117788464E+02 -0.13256346663E+03  0.28767130558E+03  0.00000000000E+00 0.  1.
         11    1    5    5    0    0  0.59864685214E+03  0.18925782485E+03  0.92133423060E+02  0.63457477534E+03  0.00000000000E+00 0. -1.
        -11    1    5    5    0    0  0.39534452831E+03  0.70274378076E+02  0.43517796773E+01  0.40156533997E+03  0.00000000000E+00 0.  1.
          2    1    6    6  503    0 -0.45897963986E+02  0.13391485305E+01  0.38824277120E+02  0.60131031179E+02  0.00000000000E+00 0. -1.
         -2    1    6    6    0  503 -0.88643857338E+02  0.12865270731E+03  0.26121271364E+03  0.30437039000E+03  0.00000000000E+00 0.  1.
<mgrwt>
<rscale>  0 0.25307803E+04</rscale>
<asrwt>0</asrwt>
<pdfrwt beam="1">  1        2 0.21407327E+00 0.25307803E+04</pdfrwt>
<pdfrwt beam="2">  1       -1 0.17703524E+00 0.25307803E+04</pdfrwt>
<totfact> 0.32426490E+00</totfact>
</mgrwt>
</event>
<event>
12    6  0.1530859E-007  0.1484835E+04  0.7818608E-02  0.8894601E-01
          2   -1    0    0  501    0  0.00000000000E+00  0.00000000000E+00  0.18353489427E+04  0.18353489427E+04  0.00000000000E+00 0. -1.
         -1   -1    0    0    0  501 -0.00000000000E+00 -0.00000000000E+00 -0.30031541903E+03  0.30031541903E+03  0.00000000000E+00 0.  1.
         24    2    1    2    0    0  0.37518676594E+03  0.10355789567E+03  0.12444704093E+03  0.41629744847E+03  0.79543400173E+02 0.  0.
        254    2    1    2    0    0 -0.37518676594E+03 -0.10355789567E+03  0.14105864827E+04  0.17193669133E+04  0.90276187894E+03 0.  0.
         23    2    4    4    0    0 -0.30704947042E+03 -0.43078577793E+03  0.11964075031E+04  0.13112797873E+04  0.90598032332E+02 0.  0.
         23    2    4    4    0    0 -0.68137295523E+02  0.32722788226E+03  0.21417897965E+03  0.40808712594E+03  0.94560504776E+02 0.  0.
          4    1    3    3  502    0  0.64620469963E+02  0.26079989581E+02 -0.74918263229E+01  0.70086364269E+02  0.00000000000E+00 0. -1.
         -3    1    3    3    0  502  0.31056629598E+03  0.77477906094E+02  0.13193886726E+03  0.34621108420E+03  0.00000000000E+00 0.  1.
         11    1    5    5    0    0 -0.14008305495E+03 -0.24558635190E+03  0.54928044637E+03  0.61777417175E+03  0.00000000000E+00 0. -1.
        -11    1    5    5    0    0 -0.16696641547E+03 -0.18519942603E+03  0.64712705673E+03  0.69350561558E+03  0.00000000000E+00 0.  1.
          2    1    6    6  503    0  0.10601999314E+02  0.97387637399E+02  0.98781523106E+02  0.13912060816E+03  0.00000000000E+00 0. -1.
         -2    1    6    6    0  503 -0.78739294836E+02  0.22984024486E+03  0.11539745654E+03  0.26896651778E+03  0.00000000000E+00 0.  1.
<mgrwt>
<rscale>  0 0.14848348E+04</rscale>
<asrwt>0</asrwt>
<pdfrwt beam="1">  1        2 0.28236137E+00 0.14848348E+04</pdfrwt>
<pdfrwt beam="2">  1       -1 0.46202373E-01 0.14848348E+04</pdfrwt>
<totfact> 0.42364620E+01</totfact>
</mgrwt>
</event>
<event>
12    6  0.1530859E-007  0.1474594E+04  0.7818608E-02  0.8901526E-01
          2   -1    0    0  501    0  0.00000000000E+00  0.00000000000E+00  0.67791706338E+03  0.67791706338E+03  0.00000000000E+00 0. -1.
         -1   -1    0    0    0  501 -0.00000000000E+00 -0.00000000000E+00 -0.80187823374E+03  0.80187823374E+03  0.00000000000E+00 0.  1.
         24    2    1    2    0    0  0.76215064903E+02  0.37132363390E+03  0.19917414142E+03  0.43541199098E+03  0.78887806819E+02 0.  0.
        254    2    1    2    0    0 -0.76215064903E+02 -0.37132363390E+03 -0.32313531178E+03  0.10443833061E+04  0.91794884565E+03 0.  0.
         23    2    4    4    0    0 -0.42561955315E+03 -0.39473520735E+03 -0.34552679205E+03  0.68155381214E+03  0.90326888999E+02 0.  0.
         23    2    4    4    0    0  0.34940448825E+03  0.23411573447E+02  0.22391480269E+02  0.36282949401E+03  0.92261937720E+02 0.  0.
          2    1    3    3  502    0  0.36541964513E+02  0.23936064127E+03  0.16631493570E+03  0.29375072697E+03  0.00000000000E+00 0. -1.
         -1    1    3    3    0  502  0.39673100390E+02  0.13196299263E+03  0.32859205715E+02  0.14166126400E+03  0.00000000000E+00 0.  1.
         11    1    5    5    0    0 -0.17397408648E+03 -0.22257712897E+03 -0.16081261179E+03  0.32506654275E+03  0.00000000000E+00 0.  1.
        -11    1    5    5    0    0 -0.25164546667E+03 -0.17215807838E+03 -0.18471418025E+03  0.35648726939E+03  0.00000000000E+00 0. -1.
          2    1    6    6  503    0  0.10315925345E+02 -0.13437530793E+02 -0.10867651774E+02  0.20126882635E+02  0.00000000000E+00 0. -1.
         -2    1    6    6    0  503  0.33908856290E+03  0.36849104239E+02  0.33259132043E+02  0.34270261137E+03  0.00000000000E+00 0.  1.
<mgrwt>
<rscale>  0 0.14745941E+04</rscale>
<asrwt>0</asrwt>
<pdfrwt beam="1">  1        2 0.10429493E+00 0.14745941E+04</pdfrwt>
<pdfrwt beam="2">  1       -1 0.12336588E+00 0.14745941E+04</pdfrwt>
<totfact> 0.27287666E+01</totfact>
</mgrwt>
</event>
<event>
12    6  0.1530859E-007  0.1213417E+04  0.7818608E-02  0.9101193E-01
         -1   -1    0    0    0  501 -0.00000000000E+00  0.00000000000E+00  0.30632574177E+03  0.30632574177E+03  0.00000000000E+00 0.  1.
          2   -1    0    0  501    0  0.00000000000E+00 -0.00000000000E+00 -0.12016460239E+04  0.12016460239E+04  0.00000000000E+00 0. -1.
         24    2    1    2    0    0 -0.70225581017E+02 -0.28897845298E+02  0.95454819472E+02  0.14612651625E+03  0.80465014136E+02 0.  0.
        254    2    1    2    0    0  0.70225581017E+02  0.28897845298E+02 -0.99077510159E+03  0.13618452494E+04  0.93124672547E+03 0.  0.
         23    2    4    4    0    0  0.12745615617E+03  0.29047817233E+03  0.15180686613E+01  0.32992303500E+03  0.90687728738E+02 0.  0.
         23    2    4    4    0    0 -0.57230575157E+02 -0.26158032703E+03 -0.99229317025E+03  0.10319222144E+04  0.92293632652E+02 0.  0.
          4    1    3    3  502    0 -0.25522444296E+02  0.66420706316E+00 -0.10328819589E+02  0.27541257197E+02  0.00000000000E+00 0. -1.
         -3    1    3    3    0  502 -0.44703136721E+02 -0.29562052361E+02  0.10578363906E+03  0.11858525906E+03  0.00000000000E+00 0.  1.
         11    1    5    5    0    0  0.71405020829E+02  0.13729951031E+03 -0.43422053899E+02  0.16073365327E+03  0.00000000000E+00 0. -1.
        -11    1    5    5    0    0  0.56051135345E+02  0.15317866202E+03  0.44940122560E+02  0.16918938172E+03  0.00000000000E+00 0.  1.
          4    1    6    6  503    0  0.99218078097E+01 -0.15209395553E+03 -0.60417554837E+03  0.62310441085E+03  0.00000000000E+00 0. -1.
         -4    1    6    6    0  503 -0.67152382967E+02 -0.10948637151E+03 -0.38811762188E+03  0.40881780355E+03  0.00000000000E+00 0.  1.
<mgrwt>
<rscale>  0 0.12134168E+04</rscale>
<asrwt>0</asrwt>
<pdfrwt beam="1">  1        2 0.18486862E+00 0.12134168E+04</pdfrwt>
<pdfrwt beam="2">  1       -1 0.47127036E-01 0.12134168E+04</pdfrwt>
<totfact> 0.95341501E+01</totfact>
</mgrwt>
</event>
<event>
12    6  0.1627175E-007  0.1643163E+04  0.7818608E-02  0.8794462E-01
          2   -1    0    0  501    0  0.00000000000E+00  0.00000000000E+00  0.16233983173E+04  0.16233983173E+04  0.00000000000E+00 0. -1.
         -1   -1    0    0    0  501 -0.00000000000E+00 -0.00000000000E+00 -0.41579199709E+03  0.41579199709E+03  0.00000000000E+00 0.  1.
         24    2    1    2    0    0  0.98241687840E+02  0.32099829448E+03 -0.14694523031E+03  0.37493875436E+03  0.79339993224E+02 0.  0.
        254    2    1    2    0    0 -0.98241687840E+02 -0.32099829448E+03  0.13545515505E+04  0.16642515600E+04  0.90677010194E+03 0.  0.
         23    2    4    4    0    0  0.17918591238E+02  0.30083749151E+03  0.57969351381E+03  0.65932455306E+03  0.88543910611E+02 0.  0.
         23    2    4    4    0    0 -0.11616027908E+03 -0.62183578599E+03  0.77485803672E+03  0.10049270070E+04  0.96438359174E+02 0.  0.
          2    1    3    3  502    0 -0.13331082010E+02  0.21225359700E+02 -0.97405568142E+01  0.26890743556E+02  0.00000000000E+00 0. -1.
         -1    1    3    3    0  502  0.11157276985E+03  0.29977293478E+03 -0.13720467349E+03  0.34804801081E+03  0.00000000000E+00 0.  1.
         11    1    5    5    0    0 -0.43076793016E+01  0.25514994696E+02  0.12221936444E+03  0.12492855598E+03  0.00000000000E+00 0. -1.
        -11    1    5    5    0    0  0.22226270540E+02  0.27532249681E+03  0.45747414937E+03  0.53439599708E+03  0.00000000000E+00 0.  1.
          1    1    6    6  503    0 -0.15376737570E+02 -0.20301230921E+03  0.18945596076E+03  0.27810789780E+03  0.00000000000E+00 0. -1.
         -1    1    6    6    0  503 -0.10078354151E+03 -0.41882347678E+03  0.58540207596E+03  0.72681910918E+03  0.00000000000E+00 0.  1.
<mgrwt>
<rscale>  0 0.16431628E+04</rscale>
<asrwt>0</asrwt>
<pdfrwt beam="1">  1        2 0.24975358E+00 0.16431628E+04</pdfrwt>
<pdfrwt beam="2">  1       -1 0.63968000E-01 0.16431628E+04</pdfrwt>
<totfact> 0.29200750E+01</totfact>
</mgrwt>
</event>
<event>
12    6  0.1530859E-007  0.1340135E+04  0.7818608E-02  0.8998329E-01
          2   -1    0    0  501    0  0.00000000000E+00  0.00000000000E+00  0.79165200917E+03  0.79165200917E+03  0.00000000000E+00 0. -1.
         -1   -1    0    0    0  501 -0.00000000000E+00 -0.00000000000E+00 -0.56715644949E+03  0.56715644949E+03  0.00000000000E+00 0.  1.
         24    2    1    2    0    0 -0.17461069789E+03  0.19415782534E+03 -0.19349786379E+03  0.33682440018E+03  0.88448269083E+02 0.  0.
        254    2    1    2    0    0  0.17461069789E+03 -0.19415782534E+03  0.41799342346E+03  0.10219840585E+04  0.89529143678E+03 0.  0.
         23    2    4    4    0    0 -0.17511432876E+03  0.26616698710E+03  0.62214067320E+02  0.33703765798E+03  0.90630566405E+02 0.  0.
         23    2    4    4    0    0  0.34972502665E+03 -0.46032481244E+03  0.35577935614E+03  0.68494640050E+03  0.91466354946E+02 0.  0.
          2    1    3    3  502    0 -0.49570974482E+02  0.20072570542E+02 -0.94477807366E+01  0.54308840533E+02  0.00000000000E+00 0. -1.
         -3    1    3    3    0  502 -0.12503972341E+03  0.17408525480E+03 -0.18405008305E+03  0.28251555964E+03  0.00000000000E+00 0.  1.
         11    1    5    5    0    0 -0.12092496117E+02  0.56975154186E+02 -0.16238408010E+02  0.60465548468E+02  0.00000000000E+00 0. -1.
        -11    1    5    5    0    0 -0.16302183264E+03  0.20919183292E+03  0.78452475329E+02  0.27657210951E+03  0.00000000000E+00 0.  1.
          4    1    6    6  503    0  0.58912374422E+02 -0.40139428731E+02  0.67799725694E+02  0.98380101662E+02  0.00000000000E+00 0. -1.
         -4    1    6    6    0  503  0.29081265223E+03 -0.42018538371E+03  0.28797963045E+03  0.58656629884E+03  0.00000000000E+00 0.  1.
<mgrwt>
<rscale>  0 0.13401351E+04</rscale>
<asrwt>0</asrwt>
<pdfrwt beam="1">  1        2 0.12179262E+00 0.13401351E+04</pdfrwt>
<pdfrwt beam="2">  1       -1 0.87254838E-01 0.13401351E+04</pdfrwt>
<totfact> 0.50430885E+01</totfact>
</mgrwt>
</event>
<event>
12    6  0.1530859E-007  0.2169204E+04  0.7818608E-02  0.8531357E-01
         -1   -1    0    0    0  501 -0.00000000000E+00  0.00000000000E+00  0.50850948195E+03  0.50850948195E+03  0.00000000000E+00 0.  1.
          2   -1    0    0  501    0  0.00000000000E+00 -0.00000000000E+00 -0.23133513670E+04  0.23133513670E+04  0.00000000000E+00 0. -1.
         24    2    1    2    0    0  0.39550324510E+03 -0.32007944777E+03  0.21079229551E+03  0.55647736676E+03  0.79749596253E+02 0.  0.
        254    2    1    2    0    0 -0.39550324510E+03  0.32007944777E+03 -0.20156341805E+04  0.22653834821E+04  0.90017081811E+03 0.  0.
         23    2    4    4    0    0 -0.58878696970E+03  0.20261518706E+02 -0.16119994921E+04  0.17190827156E+04  0.98093811056E+02 0.  0.
         23    2    4    4    0    0  0.19328372460E+03  0.29981792906E+03 -0.40363468840E+03  0.54630076652E+03  0.90962503485E+02 0.  0.
          2    1    3    3  502    0  0.77977723735E+02 -0.94942281681E+02  0.25924937110E+02  0.12556537984E+03  0.00000000000E+00 0. -1.
         -1    1    3    3    0  502  0.31752552136E+03 -0.22513716608E+03  0.18486735841E+03  0.43091198692E+03  0.00000000000E+00 0.  1.
         11    1    5    5    0    0 -0.56782852138E+03  0.35008747130E+02 -0.15018493552E+04  0.16059907620E+04  0.00000000000E+00 0. -1.
        -11    1    5    5    0    0 -0.20958448317E+02 -0.14747228423E+02 -0.11015013694E+03  0.11309195360E+03  0.00000000000E+00 0.  1.
          4    1    6    6  503    0  0.16400999251E+03  0.18966934068E+03 -0.24163236640E+03  0.34822397523E+03  0.00000000000E+00 0. -1.
         -4    1    6    6    0  503  0.29273732095E+02  0.11014858838E+03 -0.16200232200E+03  0.19807679129E+03  0.00000000000E+00 0.  1.
<mgrwt>
<rscale>  0 0.21692036E+04</rscale>
<asrwt>0</asrwt>
<pdfrwt beam="1">  1        2 0.35590021E+00 0.21692036E+04</pdfrwt>
<pdfrwt beam="2">  1       -1 0.78232228E-01 0.21692036E+04</pdfrwt>
<totfact> 0.76000322E+00</totfact>
</mgrwt>
</event>
<event>
12    6  0.1530859E-007  0.1943423E+04  0.7818608E-02  0.8633539E-01
         -1   -1    0    0    0  501 -0.00000000000E+00  0.00000000000E+00  0.47779848389E+03  0.47779848389E+03  0.00000000000E+00 0.  1.
          2   -1    0    0  501    0  0.00000000000E+00 -0.00000000000E+00 -0.19761962837E+04  0.19761962837E+04  0.00000000000E+00 0. -1.
         24    2    1    2    0    0  0.46659999873E+03 -0.25474449295E+03 -0.12032404355E+04  0.13178753480E+04  0.79984821856E+02 0.  0.
        254    2    1    2    0    0 -0.46659999873E+03  0.25474449295E+03 -0.29515736436E+03  0.11361194196E+04  0.95970784640E+03 0.  0.
         23    2    4    4    0    0 -0.51939625303E+03  0.24495003017E+03  0.21154088567E+03  0.61798021336E+03  0.85889538708E+02 0.  0.
         23    2    4    4    0    0  0.52796254301E+02  0.97944627811E+01 -0.50669825003E+03  0.51813920628E+03  0.94030551039E+02 0.  0.
          2    1    3    3  502    0  0.26976620577E+03 -0.14599887141E+03 -0.59535943808E+03  0.66973303393E+03  0.00000000000E+00 0. -1.
         -1    1    3    3    0  502  0.19683379295E+03 -0.10874562155E+03 -0.60788099740E+03  0.64814231404E+03  0.00000000000E+00 0.  1.
         11    1    5    5    0    0 -0.32520904925E+03  0.17612068149E+03  0.97387883814E+02  0.38244453203E+03  0.00000000000E+00 0. -1.
        -11    1    5    5    0    0 -0.19418720378E+03  0.68829348679E+02  0.11415300185E+03  0.23553568134E+03  0.00000000000E+00 0.  1.
          2    1    6    6  503    0  0.61186518638E+02  0.21332761939E+02 -0.49623327320E+03  0.50044613918E+03  0.00000000000E+00 0. -1.
         -2    1    6    6    0  503 -0.83902643366E+01 -0.11538299158E+02 -0.10464976832E+02  0.17693067094E+02  0.00000000000E+00 0.  1.
<mgrwt>
<rscale>  0 0.19434234E+04</rscale>
<asrwt>0</asrwt>
<pdfrwt beam="1">  1        2 0.30403020E+00 0.19434234E+04</pdfrwt>
<pdfrwt beam="2">  1       -1 0.73507458E-01 0.19434234E+04</pdfrwt>
<totfact> 0.13648465E+01</totfact>
</mgrwt>
</event>
<event>
12    6  0.1530859E-007  0.2350393E+04  0.7818608E-02  0.8458313E-01
         -1   -1    0    0    0  501 -0.00000000000E+00  0.00000000000E+00  0.92346160882E+03  0.92346160882E+03  0.00000000000E+00 0.  1.
          2   -1    0    0  501    0  0.00000000000E+00 -0.00000000000E+00 -0.14955546936E+04  0.14955546936E+04  0.00000000000E+00 0. -1.
         24    2    1    2    0    0  0.63043294743E+03  0.24768864664E+03  0.53005022413E+03  0.86365404096E+03  0.78419994188E+02 0.  0.
        254    2    1    2    0    0 -0.63043294743E+03 -0.24768864664E+03 -0.11021433089E+04  0.15553622615E+04  0.86350247491E+03 0.  0.
         23    2    4    4    0    0  0.14368619636E+03 -0.10384720513E+03 -0.56206158030E+03  0.59633076142E+03  0.90924099838E+02 0.  0.
         23    2    4    4    0    0 -0.77411914378E+03 -0.14384144151E+03 -0.54008172863E+03  0.95903150007E+03  0.90012973822E+02 0.  0.
          2    1    3    3  502    0  0.69474142741E+02  0.83836852495E+01  0.76094371222E+02  0.10337937908E+03  0.00000000000E+00 0. -1.
         -1    1    3    3    0  502  0.56095880469E+03  0.23930496139E+03  0.45395585291E+03  0.76027466187E+03  0.00000000000E+00 0.  1.
         11    1    5    5    0    0  0.14973392005E+03 -0.93841148786E+02 -0.55548765071E+03  0.58291760834E+03  0.00000000000E+00 0. -1.
        -11    1    5    5    0    0 -0.60477236916E+01 -0.10006056340E+02 -0.65739295859E+01  0.13413153080E+02  0.00000000000E+00 0.  1.
          1    1    6    6  503    0 -0.23343424336E+03 -0.99888021340E+01 -0.13027236393E+03  0.26751114172E+03  0.00000000000E+00 0. -1.
         -1    1    6    6    0  503 -0.54068490043E+03 -0.13385263938E+03 -0.40980936469E+03  0.69152035835E+03  0.00000000000E+00 0.  1.
<mgrwt>
<rscale>  0 0.23503935E+04</rscale>
<asrwt>0</asrwt>
<pdfrwt beam="1">  1        2 0.23008534E+00 0.23503935E+04</pdfrwt>
<pdfrwt beam="2">  1       -1 0.14207102E+00 0.23503935E+04</pdfrwt>
<totfact> 0.52960247E+00</totfact>
</mgrwt>
</event>
<event>
12    6  0.1530859E-007  0.1695541E+04  0.7818608E-02  0.8763912E-01
         -1   -1    0    0    0  501 -0.00000000000E+00  0.00000000000E+00  0.68846235180E+03  0.68846235180E+03  0.00000000000E+00 0.  1.
          2   -1    0    0  501    0  0.00000000000E+00 -0.00000000000E+00 -0.10439416083E+04  0.10439416083E+04  0.00000000000E+00 0. -1.
         24    2    1    2    0    0  0.27488669269E+02  0.18808192647E+03  0.45654755047E+03  0.50113779545E+03  0.81073955018E+02 0.  0.
        254    2    1    2    0    0 -0.27488669269E+02 -0.18808192647E+03 -0.81202680698E+03  0.12312661647E+04  0.90581366460E+03 0.  0.
         23    2    4    4    0    0  0.92557257352E+02  0.25820116154E+03 -0.68634578488E+03  0.74477688103E+03  0.91582642353E+02 0.  0.
         23    2    4    4    0    0 -0.12004592662E+03 -0.44628308801E+03 -0.12568102210E+03  0.48648928363E+03  0.85419462834E+02 0.  0.
          2    1    3    3  502    0 -0.28255325722E+02  0.64990278044E+02  0.17647050333E+03  0.19016818403E+03  0.00000000000E+00 0. -1.
         -1    1    3    3    0  502  0.55743994991E+02  0.12309164842E+03  0.28007704714E+03  0.31096961141E+03  0.00000000000E+00 0.  1.
         11    1    5    5    0    0  0.13185712131E+02  0.10082600305E+03 -0.15880794672E+03  0.18857282370E+03  0.00000000000E+00 0. -1.
        -11    1    5    5    0    0  0.79371545221E+02  0.15737515849E+03 -0.52753783816E+03  0.55620405733E+03  0.00000000000E+00 0.  1.
          2    1    6    6  503    0 -0.11934218932E+03 -0.41059845306E+03 -0.13707241613E+03  0.44902393597E+03  0.00000000000E+00 0. -1.
         -2    1    6    6    0  503 -0.70373729673E+00 -0.35684634946E+02  0.11391394031E+02  0.37465347661E+02  0.00000000000E+00 0.  1.
<mgrwt>
<rscale>  0 0.16955406E+04</rscale>
<asrwt>0</asrwt>
<pdfrwt beam="1">  1        2 0.16060640E+00 0.16955406E+04</pdfrwt>
<pdfrwt beam="2">  1       -1 0.10591728E+00 0.16955406E+04</pdfrwt>
<totfact> 0.21396198E+01</totfact>
</mgrwt>
</event>
<event>
12    6  0.1530859E-007  0.1980571E+04  0.7818608E-02  0.8615759E-01
          2   -1    0    0  501    0  0.00000000000E+00  0.00000000000E+00  0.15562794574E+04  0.15562794574E+04  0.00000000000E+00 0. -1.
         -1   -1    0    0    0  501 -0.00000000000E+00 -0.00000000000E+00 -0.63013421477E+03  0.63013421477E+03  0.00000000000E+00 0.  1.
         24    2    1    2    0    0 -0.16592086014E+02  0.50462797483E+03 -0.29343078699E+03  0.58934292781E+03  0.79364787572E+02 0.  0.
        254    2    1    2    0    0  0.16592086014E+02 -0.50462797483E+03  0.12195760296E+04  0.15970707444E+04  0.89907985195E+03 0.  0.
         23    2    4    4    0    0 -0.24976513224E+03  0.57480419257E+02  0.79183201236E+03  0.83734398172E+03  0.91980367667E+02 0.  0.
         23    2    4    4    0    0  0.26635721825E+03 -0.56210839409E+03  0.42774401725E+03  0.75972676264E+03  0.85485643054E+02 0.  0.
          4    1    3    3  502    0  0.17226268405E+02  0.10849530461E+03 -0.35574078293E+02  0.11547073435E+03  0.00000000000E+00 0. -1.
         -3    1    3    3    0  502 -0.33818354419E+02  0.39613267022E+03 -0.25785670870E+03  0.47387219345E+03  0.00000000000E+00 0.  1.
         11    1    5    5    0    0 -0.13602681823E+03  0.77348739164E+02  0.43424930729E+03  0.46158269423E+03  0.00000000000E+00 0. -1.
        -11    1    5    5    0    0 -0.11373831400E+03 -0.19868319907E+02  0.35758270507E+03  0.37576128749E+03  0.00000000000E+00 0.  1.
          3    1    6    6  503    0  0.92843584422E+01 -0.40959920889E+02  0.76834083774E+01  0.42696009125E+02  0.00000000000E+00 0.  1.
         -3    1    6    6    0  503  0.25707285981E+03 -0.52114847320E+03  0.42006060887E+03  0.71703075352E+03  0.00000000000E+00 0. -1.
<mgrwt>
<rscale>  0 0.19805706E+04</rscale>
<asrwt>0</asrwt>
<pdfrwt beam="1">  1        2 0.23942761E+00 0.19805706E+04</pdfrwt>
<pdfrwt beam="2">  1       -1 0.96943726E-01 0.19805706E+04</pdfrwt>
<totfact> 0.12795636E+01</totfact>
</mgrwt>
</event>
<event>
12    6  0.1530859E-007  0.1474915E+04  0.7818608E-02  0.8901308E-01
          2   -1    0    0  501    0  0.00000000000E+00  0.00000000000E+00  0.11608910627E+04  0.11608910627E+04  0.00000000000E+00 0. -1.
         -1   -1    0    0    0  501 -0.00000000000E+00 -0.00000000000E+00 -0.46847084298E+03  0.46847084298E+03  0.00000000000E+00 0.  1.
         24    2    1    2    0    0 -0.14128238064E+03  0.35810044710E+03 -0.67577653230E+02  0.39863612164E+03  0.78405210059E+02 0.  0.
        254    2    1    2    0    0  0.14128238064E+03 -0.35810044710E+03  0.75999787293E+03  0.12307257840E+04  0.88819623242E+03 0.  0.
         23    2    4    4    0    0  0.26987251363E+03 -0.57741025706E+03  0.33721177014E+03  0.72662698200E+03  0.89672818991E+02 0.  0.
         23    2    4    4    0    0 -0.12859013299E+03  0.21930980996E+03  0.42278610279E+03  0.50409880202E+03  0.10361128529E+03 0.  0.
          2    1    3    3  502    0 -0.89207892152E+01  0.11664666388E+03 -0.10753630292E+02  0.11748048876E+03  0.00000000000E+00 0. -1.
         -1    1    3    3    0  502 -0.13236159142E+03  0.24145378322E+03 -0.56824022938E+02  0.28115563288E+03  0.00000000000E+00 0.  1.
         11    1    5    5    0    0  0.12399451280E+02 -0.35331379528E+02  0.46792027600E+02  0.59929513750E+02  0.00000000000E+00 0. -1.
        -11    1    5    5    0    0  0.25747306235E+03 -0.54207887754E+03  0.29041974254E+03  0.66669746825E+03  0.00000000000E+00 0.  1.
          3    1    6    6  503    0 -0.73272591416E+02  0.59998248252E+02  0.88194503674E+02  0.12940994137E+03  0.00000000000E+00 0. -1.
         -3    1    6    6    0  503 -0.55317541579E+02  0.15931156171E+03  0.33459159912E+03  0.37468886066E+03  0.00000000000E+00 0.  1.
<mgrwt>
<rscale>  0 0.14749151E+04</rscale>
<asrwt>0</asrwt>
<pdfrwt beam="1">  1        2 0.17859862E+00 0.14749151E+04</pdfrwt>
<pdfrwt beam="2">  1       -1 0.72072438E-01 0.14749151E+04</pdfrwt>
<totfact> 0.42882980E+01</totfact>
</mgrwt>
</event>
<event>
12    6  0.1530859E-007  0.1456203E+04  0.7818608E-02  0.8914111E-01
         -1   -1    0    0    0  501 -0.00000000000E+00  0.00000000000E+00  0.45739797898E+03  0.45739797898E+03  0.00000000000E+00 0.  1.
          2   -1    0    0  501    0  0.00000000000E+00 -0.00000000000E+00 -0.11590166178E+04  0.11590166178E+04  0.00000000000E+00 0. -1.
         24    2    1    2    0    0  0.41986990977E+02 -0.41835448385E+03 -0.68329340905E+02  0.43374977522E+03  0.81771554345E+02 0.  0.
        254    2    1    2    0    0 -0.41986990977E+02  0.41835448385E+03 -0.63328929796E+03  0.11826648216E+04  0.90601179009E+03 0.  0.
         23    2    4    4    0    0  0.27858907497E+03  0.55337360273E+03 -0.49155544169E+03  0.79616541795E+03  0.91751858772E+02 0.  0.
         23    2    4    4    0    0 -0.32057606594E+03 -0.13501911888E+03 -0.14173385627E+03  0.38649940366E+03  0.91072095053E+02 0.  0.
          4    1    3    3  502    0  0.16513875284E+02 -0.19225750234E+02 -0.17025026932E+02  0.30531771828E+02  0.00000000000E+00 0. -1.
         -3    1    3    3    0  502  0.25473115693E+02 -0.39912873362E+03 -0.51304313973E+02  0.40321800339E+03  0.00000000000E+00 0.  1.
         11    1    5    5    0    0  0.52510502622E+02  0.50643073632E+02 -0.37583520562E+02  0.82064577074E+02  0.00000000000E+00 0. -1.
        -11    1    5    5    0    0  0.22607857234E+03  0.50273052910E+03 -0.45397192113E+03  0.71410084088E+03  0.00000000000E+00 0.  1.
          3    1    6    6  503    0 -0.16159510600E+03 -0.21592168899E+02 -0.48519229820E+02  0.17009795914E+03  0.00000000000E+00 0. -1.
         -3    1    6    6    0  503 -0.15898095994E+03 -0.11342694998E+03 -0.93214626448E+02  0.21640144452E+03  0.00000000000E+00 0.  1.
<mgrwt>
<rscale>  0 0.14562031E+04</rscale>
<asrwt>0</asrwt>
<pdfrwt beam="1">  1        2 0.17831025E+00 0.14562031E+04</pdfrwt>
<pdfrwt beam="2">  1       -1 0.70368921E-01 0.14562031E+04</pdfrwt>
<totfact> 0.45235935E+01</totfact>
</mgrwt>
</event>
<event>
12    6  0.1530859E-007  0.2708752E+04  0.7818608E-02  0.8332171E-01
          2   -1    0    0  501    0  0.00000000000E+00  0.00000000000E+00  0.34556033838E+04  0.34556033838E+04  0.00000000000E+00 0. -1.
         -1   -1    0    0    0  501 -0.00000000000E+00 -0.00000000000E+00 -0.53082906971E+03  0.53082906971E+03  0.00000000000E+00 0.  1.
         24    2    1    2    0    0 -0.94751881415E+03 -0.31687777021E+03  0.22869507836E+04  0.24969332505E+04  0.79550905286E+02 0.  0.
        254    2    1    2    0    0  0.94751881415E+03  0.31687777021E+03  0.63782353051E+03  0.14894992030E+04  0.90198979776E+03 0.  0.
         23    2    4    4    0    0  0.36546462330E+03 -0.13155130771E+03  0.63375528032E+03  0.74904663599E+03  0.92493081413E+02 0.  0.
         23    2    4    4    0    0  0.58205419085E+03  0.44842907791E+03  0.40682501942E+01  0.74045256702E+03  0.91529964176E+02 0.  0.
          4    1    3    3  502    0 -0.89798971578E+03 -0.30749165651E+03  0.21257861124E+04  0.23280685652E+04  0.00000000000E+00 0. -1.
         -3    1    3    3    0  502 -0.49529098376E+02 -0.93861136968E+01  0.16116467117E+03  0.16886468533E+03  0.00000000000E+00 0.  1.
         11    1    5    5    0    0  0.10660537760E+03 -0.71875985953E+02  0.15364807100E+03  0.20034618442E+03  0.00000000000E+00 0.  1.
        -11    1    5    5    0    0  0.25885924571E+03 -0.59675321755E+02  0.48010720931E+03  0.54870045157E+03  0.00000000000E+00 0. -1.
          4    1    6    6  503    0  0.17160222199E+03  0.83082419633E+02 -0.79472804413E+01  0.19082235275E+03  0.00000000000E+00 0.  1.
         -4    1    6    6    0  503  0.41045196886E+03  0.36534665828E+03  0.12015530635E+02  0.54963021427E+03  0.00000000000E+00 0. -1.
<mgrwt>
<rscale>  0 0.27087523E+04</rscale>
<asrwt>0</asrwt>
<pdfrwt beam="1">  1        2 0.53163128E+00 0.27087523E+04</pdfrwt>
<pdfrwt beam="2">  1       -1 0.81666013E-01 0.27087523E+04</pdfrwt>
<totfact> 0.12986579E+00</totfact>
</mgrwt>
</event>
<event>
12    6  0.1530859E-007  0.1772855E+04  0.7818608E-02  0.8720869E-01
          2   -1    0    0  501    0  0.00000000000E+00  0.00000000000E+00  0.37090049007E+04  0.37090049007E+04  0.00000000000E+00 0. -1.
         -1   -1    0    0    0  501 -0.00000000000E+00 -0.00000000000E+00 -0.21185032703E+03  0.21185032703E+03  0.00000000000E+00 0.  1.
         24    2    1    2    0    0  0.20438304189E+03  0.53815175093E+03  0.20099380512E+04  0.20922822209E+04  0.80088620797E+02 0.  0.
        254    2    1    2    0    0 -0.20438304189E+03 -0.53815175093E+03  0.14872165225E+04  0.18285730069E+04  0.89469912370E+03 0.  0.
         23    2    4    4    0    0  0.29615504961E+03  0.69943299891E+01  0.33758221367E+03  0.45821339291E+03  0.90780110109E+02 0.  0.
         23    2    4    4    0    0 -0.50053809149E+03 -0.54514608092E+03  0.11496343088E+04  0.13703596140E+04  0.92216034801E+02 0.  0.
          2    1    3    3  502    0  0.17655235732E+03  0.40922344766E+03  0.16422709243E+04  0.17016722228E+04  0.00000000000E+00 0. -1.
         -1    1    3    3    0  502  0.27830684563E+02  0.12892830327E+03  0.36766712697E+03  0.39060999814E+03  0.00000000000E+00 0.  1.
         11    1    5    5    0    0  0.16391496661E+03 -0.25009047501E+02  0.23596183470E+03  0.28839479221E+03  0.00000000000E+00 0. -1.
        -11    1    5    5    0    0  0.13224008300E+03  0.32003377490E+02  0.10162037897E+03  0.16981860070E+03  0.00000000000E+00 0.  1.
          2    1    6    6  503    0 -0.45460343290E+03 -0.52439251386E+03  0.10910613513E+04  0.12930841667E+04  0.00000000000E+00 0.  1.
         -2    1    6    6    0  503 -0.45934658595E+02 -0.20753567058E+02  0.58572957485E+02  0.77275447293E+02  0.00000000000E+00 0. -1.
<mgrwt>
<rscale>  0 0.17728552E+04</rscale>
<asrwt>0</asrwt>
<pdfrwt beam="1">  1        2 0.57061609E+00 0.17728552E+04</pdfrwt>
<pdfrwt beam="2">  1       -1 0.32592361E-01 0.17728552E+04</pdfrwt>
<totfact> 0.55180800E+00</totfact>
</mgrwt>
</event>
<event>
12    6  0.1530859E-007  0.1085551E+04  0.7818608E-02  0.9219390E-01
          2   -1    0    0  501    0  0.00000000000E+00  0.00000000000E+00  0.12148728764E+04  0.12148728764E+04  0.00000000000E+00 0. -1.
         -1   -1    0    0    0  501 -0.00000000000E+00 -0.00000000000E+00 -0.24249900550E+03  0.24249900550E+03  0.00000000000E+00 0.  1.
         24    2    1    2    0    0 -0.38515518581E+02  0.17650555569E+02 -0.39488282824E+02  0.99666272013E+02  0.81111367965E+02 0.  0.
        254    2    1    2    0    0  0.38515518581E+02 -0.17650555569E+02  0.10118621537E+04  0.13577056099E+04  0.90427015747E+03 0.  0.
         23    2    4    4    0    0 -0.32324254513E+02 -0.32271075298E+03  0.97179337846E+03  0.10288331353E+04  0.94488953483E+02 0.  0.
         23    2    4    4    0    0  0.70839773095E+02  0.30506019742E+03  0.40068775269E+02  0.32887247460E+03  0.92041296712E+02 0.  0.
          4    1    3    3  502    0 -0.56129653014E+02 -0.93067564816E+01 -0.35876103491E+02  0.67262533890E+02  0.00000000000E+00 0. -1.
         -3    1    3    3    0  502  0.17614134432E+02  0.26957312050E+02 -0.36121793331E+01  0.32403738123E+02  0.00000000000E+00 0.  1.
         11    1    5    5    0    0  0.25041919030E+00 -0.14991957116E+02  0.88915724601E+01  0.17432198621E+02  0.00000000000E+00 0. -1.
        -11    1    5    5    0    0 -0.32574673704E+02 -0.30771879587E+03  0.96290180600E+03  0.10114009367E+04  0.00000000000E+00 0.  1.
          4    1    6    6  503    0  0.71307489170E+02  0.30447254479E+03  0.24917243435E+02  0.31370233911E+03  0.00000000000E+00 0.  1.
         -4    1    6    6    0  503 -0.46771607577E+00  0.58765262565E+00  0.15151531835E+02  0.15170135493E+02  0.00000000000E+00 0. -1.
<mgrwt>
<rscale>  0 0.10855514E+04</rscale>
<asrwt>0</asrwt>
<pdfrwt beam="1">  1        2 0.18690352E+00 0.10855514E+04</pdfrwt>
<pdfrwt beam="2">  1       -1 0.37307540E-01 0.10855514E+04</pdfrwt>
<totfact> 0.14522097E+02</totfact>
</mgrwt>
</event>
<event>
12    6  0.1530859E-007  0.1089648E+04  0.7818608E-02  0.9215341E-01
         -1   -1    0    0    0  501 -0.00000000000E+00  0.00000000000E+00  0.34026525137E+03  0.34026525137E+03  0.00000000000E+00 0.  1.
          2   -1    0    0  501    0  0.00000000000E+00 -0.00000000000E+00 -0.87235743750E+03  0.87235743750E+03  0.00000000000E+00 0. -1.
         24    2    1    2    0    0  0.97367393492E+02 -0.12344870536E+03 -0.93708967014E+02  0.19978994128E+03  0.80091559918E+02 0.  0.
        254    2    1    2    0    0 -0.97367393492E+02  0.12344870536E+03 -0.43838321911E+03  0.10128327476E+04  0.89940554569E+03 0.  0.
         23    2    4    4    0    0 -0.27026519582E+03  0.43741065711E+03 -0.14745378717E+03  0.54261074758E+03  0.91172611062E+02 0.  0.
         23    2    4    4    0    0  0.17289780233E+03 -0.31396195175E+03 -0.29092943194E+03  0.47022200001E+03  0.89459698893E+02 0.  0.
          2    1    3    3  502    0  0.92986813010E+02 -0.85293011929E+02 -0.99833915979E+02  0.16089827860E+03  0.00000000000E+00 0. -1.
         -1    1    3    3    0  502  0.43805804825E+01 -0.38155693427E+02  0.61249489659E+01  0.38891662681E+02  0.00000000000E+00 0.  1.
         11    1    5    5    0    0 -0.37398359459E+02  0.13267320661E+03 -0.25664306563E+02  0.14021224509E+03  0.00000000000E+00 0.  1.
        -11    1    5    5    0    0 -0.23286683636E+03  0.30473745050E+03 -0.12178948061E+03  0.40239850248E+03  0.00000000000E+00 0. -1.
          2    1    6    6  503    0  0.15022023713E+03 -0.29468059794E+03 -0.23141183784E+03  0.40367587634E+03  0.00000000000E+00 0. -1.
         -2    1    6    6    0  503  0.22677565197E+02 -0.19281353814E+02 -0.59517594100E+02  0.66546123671E+02  0.00000000000E+00 0.  1.
<mgrwt>
<rscale>  0 0.10896475E+04</rscale>
<asrwt>0</asrwt>
<pdfrwt beam="1">  1        2 0.13420884E+00 0.10896475E+04</pdfrwt>
<pdfrwt beam="2">  1       -1 0.52348500E-01 0.10896475E+04</pdfrwt>
<totfact> 0.12759212E+02</totfact>
</mgrwt>
</event>
<event>
12    6  0.2831825E-007  0.1617980E+04  0.7818608E-02  0.8809578E-01
         -1   -1    0    0    0  501 -0.00000000000E+00  0.00000000000E+00  0.58472342973E+03  0.58472342973E+03  0.00000000000E+00 0.  1.
          2   -1    0    0  501    0  0.00000000000E+00 -0.00000000000E+00 -0.11192729115E+04  0.11192729115E+04  0.00000000000E+00 0. -1.
         24    2    1    2    0    0  0.48327579004E+03 -0.25295381509E+02 -0.46320042888E+03  0.67449678934E+03  0.78714267781E+02 0.  0.
        254    2    1    2    0    0 -0.48327579004E+03  0.25295381509E+02 -0.71349052882E+02  0.10294995519E+04  0.90586052704E+03 0.  0.
         23    2    4    4    0    0 -0.80518508409E+02 -0.58117721802E+02  0.38507287315E+03  0.40816293413E+03  0.91950874844E+02 0.  0.
         23    2    4    4    0    0 -0.40275728163E+03  0.83413103311E+02 -0.45642192603E+03  0.62133661776E+03  0.92558329179E+02 0.  0.
          2    1    3    3  502    0  0.39667026077E+03 -0.10311141118E+02 -0.33638186684E+03  0.52019840037E+03  0.00000000000E+00 0. -1.
         -1    1    3    3    0  502  0.86605529264E+02 -0.14984240390E+02 -0.12681856204E+03  0.15429838897E+03  0.00000000000E+00 0.  1.
         11    1    5    5    0    0 -0.15994553207E+02 -0.18779740550E+02  0.11850547525E+02  0.27366765685E+02  0.00000000000E+00 0. -1.
        -11    1    5    5    0    0 -0.64523955202E+02 -0.39337981252E+02  0.37322232562E+03  0.38079616845E+03  0.00000000000E+00 0.  1.
          1    1    6    6  503    0 -0.61473152729E+02  0.48924011460E+02 -0.85878061712E+02  0.11639393836E+03  0.00000000000E+00 0. -1.
         -1    1    6    6    0  503 -0.34128412890E+03  0.34489091851E+02 -0.37054386432E+03  0.50494267940E+03  0.00000000000E+00 0.  1.
<mgrwt>
<rscale>  0 0.16179803E+04</rscale>
<asrwt>0</asrwt>
<pdfrwt beam="1">  1        2 0.17219583E+00 0.16179803E+04</pdfrwt>
<pdfrwt beam="2">  1       -1 0.89957452E-01 0.16179803E+04</pdfrwt>
<totfact> 0.28001300E+01</totfact>
</mgrwt>
</event>
<event>
12    6  0.1530859E-007  0.4474457E+04  0.7818608E-02  0.7915124E-01
          2   -1    0    0  501    0  0.00000000000E+00  0.00000000000E+00  0.21205857556E+04  0.21205857556E+04  0.00000000000E+00 0. -1.
         -1   -1    0    0    0  501 -0.00000000000E+00 -0.00000000000E+00 -0.23602872381E+04  0.23602872381E+04  0.00000000000E+00 0.  1.
         24    2    1    2    0    0 -0.13271852013E+04  0.15690043982E+04 -0.73763631396E+03  0.21849661551E+04  0.82306785191E+02 0.  0.
        254    2    1    2    0    0  0.13271852013E+04 -0.15690043982E+04  0.49793483138E+03  0.22959068387E+04  0.89445724064E+03 0.  0.
         23    2    4    4    0    0 -0.20073446490E+02  0.43731188513E+02  0.12181012500E+03  0.15899721423E+03  0.90150138534E+02 0.  0.
         23    2    4    4    0    0  0.13472586478E+04 -0.16127355867E+04  0.37612470638E+03  0.21369096244E+04  0.94292160231E+02 0.  0.
          2    1    3    3  502    0 -0.12418653274E+04  0.14385547086E+04 -0.69267263887E+03  0.20227368899E+04  0.00000000000E+00 0. -1.
         -1    1    3    3    0  502 -0.85319873934E+02  0.13044968961E+03 -0.44963675094E+02  0.16222926520E+03  0.00000000000E+00 0.  1.
         11    1    5    5    0    0 -0.36704025752E+02  0.65290752084E+02  0.86907935075E+02  0.11473036648E+03  0.00000000000E+00 0.  1.
        -11    1    5    5    0    0  0.16630579263E+02 -0.21559563571E+02  0.34902189927E+02  0.44266847749E+02  0.00000000000E+00 0. -1.
          3    1    6    6  503    0  0.85731545048E+03 -0.97142310159E+03  0.20180939871E+03  0.13112511801E+04  0.00000000000E+00 0. -1.
         -3    1    6    6    0  503  0.48994319730E+03 -0.64131248515E+03  0.17431530767E+03  0.82565844432E+03  0.00000000000E+00 0.  1.
<mgrwt>
<rscale>  0 0.44744571E+04</rscale>
<asrwt>0</asrwt>
<pdfrwt beam="1">  1        2 0.32624396E+00 0.44744571E+04</pdfrwt>
<pdfrwt beam="2">  1       -1 0.36312112E+00 0.44744571E+04</pdfrwt>
<totfact> 0.62808551E-02</totfact>
</mgrwt>
</event>
<event>
12    6  0.1530859E-007  0.2672839E+04  0.7818608E-02  0.8343872E-01
         -1   -1    0    0    0  501 -0.00000000000E+00  0.00000000000E+00  0.73135214775E+03  0.73135214775E+03  0.00000000000E+00 0.  1.
          2   -1    0    0  501    0  0.00000000000E+00 -0.00000000000E+00 -0.24420762709E+04  0.24420762709E+04  0.00000000000E+00 0. -1.
         24    2    1    2    0    0  0.14854539452E+03 -0.11326162969E+04 -0.11275136237E+04  0.16070479642E+04  0.80192128088E+02 0.  0.
        254    2    1    2    0    0 -0.14854539452E+03  0.11326162969E+04 -0.58321049945E+03  0.15663804544E+04  0.89918175639E+03 0.  0.
         23    2    4    4    0    0 -0.21902064633E+03  0.33333480658E+03  0.18761557095E+03  0.44970008665E+03  0.89153960497E+02 0.  0.
         23    2    4    4    0    0  0.70475251808E+02  0.79928149034E+03 -0.77082607039E+03  0.11166803678E+04  0.94786871663E+02 0.  0.
          2    1    3    3  502    0  0.15096537837E+03 -0.10762251519E+04 -0.10904516654E+04  0.15395245881E+04  0.00000000000E+00 0. -1.
         -1    1    3    3    0  502 -0.24199838525E+01 -0.56391145069E+02 -0.37061958325E+02  0.67523376093E+02  0.00000000000E+00 0.  1.
         11    1    5    5    0    0 -0.10076036204E+03  0.86992271082E+02  0.39360980739E+02  0.13881495810E+03  0.00000000000E+00 0. -1.
        -11    1    5    5    0    0 -0.11826028429E+03  0.24634253550E+03  0.14825459021E+03  0.31088512855E+03  0.00000000000E+00 0.  1.
          4    1    6    6  503    0  0.34648533862E+02  0.48486857736E+03 -0.40273912551E+03  0.63126607816E+03  0.00000000000E+00 0. -1.
         -4    1    6    6    0  503  0.35826717946E+02  0.31441291298E+03 -0.36808694488E+03  0.48541428961E+03  0.00000000000E+00 0.  1.
<mgrwt>
<rscale>  0 0.26728395E+04</rscale>
<asrwt>0</asrwt>
<pdfrwt beam="1">  1        2 0.37570403E+00 0.26728395E+04</pdfrwt>
<pdfrwt beam="2">  1       -1 0.11251572E+00 0.26728395E+04</pdfrwt>
<totfact> 0.27183370E+00</totfact>
</mgrwt>
</event>
<event>
12    6  0.1530859E-007  0.1304316E+04  0.7818608E-02  0.9026150E-01
          2   -1    0    0  501    0  0.00000000000E+00  0.00000000000E+00  0.36255336024E+03  0.36255336024E+03  0.00000000000E+00 0. -1.
         -1   -1    0    0    0  501 -0.00000000000E+00 -0.00000000000E+00 -0.11730956844E+04  0.11730956844E+04  0.00000000000E+00 0.  1.
         24    2    1    2    0    0 -0.30445528224E+03  0.11845991152E+02 -0.37410541376E+03  0.48953940817E+03  0.82828890823E+02 0.  0.
        254    2    1    2    0    0  0.30445528224E+03 -0.11845991152E+02 -0.43643691037E+03  0.10461096365E+04  0.90057473224E+03 0.  0.
         23    2    4    4    0    0  0.56700337549E+03 -0.13332725280E+03 -0.45041736763E+03  0.74196346752E+03  0.91460362523E+02 0.  0.
         23    2    4    4    0    0 -0.26254809325E+03  0.12148126165E+03  0.13980457252E+02  0.30414616893E+03  0.92845251302E+02 0.  0.
          4    1    3    3  502    0 -0.94574110107E+02 -0.65628395297E+01 -0.63072402520E+02  0.11386597879E+03  0.00000000000E+00 0. -1.
         -3    1    3    3    0  502 -0.20988117213E+03  0.18408830682E+02 -0.31103301124E+03  0.37567342938E+03  0.00000000000E+00 0.  1.
         11    1    5    5    0    0  0.14719459544E+03 -0.75077551325E+02 -0.11227992697E+03  0.19977404647E+03  0.00000000000E+00 0. -1.
        -11    1    5    5    0    0  0.41980878005E+03 -0.58249701477E+02 -0.33813744065E+03  0.54218942105E+03  0.00000000000E+00 0.  1.
          1    1    6    6  503    0 -0.51696227979E+02  0.57677166801E+02 -0.22939398155E+02  0.80779771881E+02  0.00000000000E+00 0. -1.
         -1    1    6    6    0  503 -0.21085186527E+03  0.63804094849E+02  0.36919855407E+02  0.22336639705E+03  0.00000000000E+00 0.  1.
<mgrwt>
<rscale>  0 0.13043156E+04</rscale>
<asrwt>0</asrwt>
<pdfrwt beam="1">  1        2 0.55777440E-01 0.13043156E+04</pdfrwt>
<pdfrwt beam="2">  1       -1 0.18047626E+00 0.13043156E+04</pdfrwt>
<totfact> 0.20572488E+01</totfact>
</mgrwt>
</event>
<event>
12    6  0.1530859E-007  0.2413044E+04  0.7818608E-02  0.8434636E-01
         -1   -1    0    0    0  501 -0.00000000000E+00  0.00000000000E+00  0.79131722939E+03  0.79131722939E+03  0.00000000000E+00 0.  1.
          2   -1    0    0  501    0  0.00000000000E+00 -0.00000000000E+00 -0.18395849748E+04  0.18395849748E+04  0.00000000000E+00 0. -1.
         24    2    1    2    0    0  0.48275451350E+03 -0.58487212537E+02 -0.14422658741E+04  0.15241694183E+04  0.80553645294E+02 0.  0.
        254    2    1    2    0    0 -0.48275451350E+03  0.58487212537E+02  0.39399812866E+03  0.11067327859E+04  0.91277065011E+03 0.  0.
         23    2    4    4    0    0 -0.15834939541E+03 -0.41007597025E+03  0.10312903112E+03  0.46056702124E+03  0.90827042166E+02 0.  0.
         23    2    4    4    0    0 -0.32440511809E+03  0.46856318279E+03  0.29086909755E+03  0.64616576468E+03  0.90195491201E+02 0.  0.
          4    1    3    3  502    0  0.21429610934E+03  0.17068289021E+01 -0.72254276839E+03  0.75365362594E+03  0.00000000000E+00 0. -1.
         -3    1    3    3    0  502  0.26845840416E+03 -0.60194041439E+02 -0.71972310571E+03  0.77051579236E+03  0.00000000000E+00 0.  1.
         11    1    5    5    0    0 -0.10380263910E+03 -0.20023045051E+03  0.13464473357E+02  0.22593918040E+03  0.00000000000E+00 0. -1.
        -11    1    5    5    0    0 -0.54546756311E+02 -0.20984551974E+03  0.89664557761E+02  0.23462784084E+03  0.00000000000E+00 0.  1.
          3    1    6    6  503    0 -0.12515610284E+02  0.27703122013E+02 -0.43505103041E+01  0.30708800204E+02  0.00000000000E+00 0. -1.
         -3    1    6    6    0  503 -0.31188950780E+03  0.44086006077E+03  0.29521960785E+03  0.61545696448E+03  0.00000000000E+00 0.  1.
<mgrwt>
<rscale>  0 0.24130440E+04</rscale>
<asrwt>0</asrwt>
<pdfrwt beam="1">  1        2 0.28301307E+00 0.24130440E+04</pdfrwt>
<pdfrwt beam="2">  1       -1 0.12174111E+00 0.24130440E+04</pdfrwt>
<totfact> 0.50115778E+00</totfact>
</mgrwt>
</event>
<event>
12    6  0.1530859E-007  0.2118202E+04  0.7818608E-02  0.8553267E-01
          2   -1    0    0  501    0  0.00000000000E+00  0.00000000000E+00  0.19703498295E+04  0.19703498295E+04  0.00000000000E+00 0. -1.
         -1   -1    0    0    0  501 -0.00000000000E+00 -0.00000000000E+00 -0.56928723048E+03  0.56928723048E+03  0.00000000000E+00 0.  1.
         24    2    1    2    0    0 -0.23029491786E+03 -0.34246794919E+03  0.14829119739E+04  0.15413954014E+04  0.80943286400E+02 0.  0.
        254    2    1    2    0    0  0.23029491786E+03  0.34246794919E+03 -0.81849374938E+02  0.99824165855E+03  0.90524418986E+03 0.  0.
         23    2    4    4    0    0 -0.32056938529E+02  0.56651227017E+02 -0.44429183411E+03  0.45836121627E+03  0.91993270921E+02 0.  0.
         23    2    4    4    0    0  0.26235185639E+03  0.28581672217E+03  0.36244245917E+03  0.53988044228E+03  0.97911493306E+02 0.  0.
          2    1    3    3  502    0 -0.16523511211E+03 -0.17475145003E+03  0.86976220477E+03  0.90240068949E+03  0.00000000000E+00 0. -1.
         -1    1    3    3    0  502 -0.65059805754E+02 -0.16771649917E+03  0.61314976915E+03  0.63899471189E+03  0.00000000000E+00 0.  1.
         11    1    5    5    0    0  0.24078174319E+02 -0.26231656958E+01 -0.18346613241E+03  0.18505799420E+03  0.00000000000E+00 0. -1.
        -11    1    5    5    0    0 -0.56135112848E+02  0.59274392713E+02 -0.26082570170E+03  0.27330322207E+03  0.00000000000E+00 0.  1.
          2    1    6    6  503    0  0.23912764784E+03  0.21308533363E+03  0.26253707948E+03  0.41414141241E+03  0.00000000000E+00 0.  1.
         -2    1    6    6    0  503  0.23224208553E+02  0.72731388544E+02  0.99905379689E+02  0.12573902987E+03  0.00000000000E+00 0. -1.
<mgrwt>
<rscale>  0 0.21182021E+04</rscale>
<asrwt>0</asrwt>
<pdfrwt beam="1">  1        2 0.30313074E+00 0.21182021E+04</pdfrwt>
<pdfrwt beam="2">  1       -1 0.87582652E-01 0.21182021E+04</pdfrwt>
<totfact> 0.93232525E+00</totfact>
</mgrwt>
</event>
<event>
12    6  0.1530859E-007  0.1979638E+04  0.7818608E-02  0.8616200E-01
          2   -1    0    0  501    0  0.00000000000E+00  0.00000000000E+00  0.95603337565E+03  0.95603337565E+03  0.00000000000E+00 0. -1.
         -1   -1    0    0    0  501 -0.00000000000E+00 -0.00000000000E+00 -0.10247982500E+04  0.10247982500E+04  0.00000000000E+00 0.  1.
         24    2    1    2    0    0 -0.40188600993E+03 -0.14634743280E+03  0.62310789683E+03  0.76007478604E+03  0.80748332568E+02 0.  0.
        254    2    1    2    0    0  0.40188600993E+03  0.14634743280E+03 -0.69187277118E+03  0.12207568396E+04  0.91029082931E+03 0.  0.
         23    2    4    4    0    0  0.21067061405E+03 -0.22201642911E+03  0.89432458672E+02  0.33127203866E+03  0.89830932953E+02 0.  0.
         23    2    4    4    0    0  0.19121539588E+03  0.36836386191E+03 -0.78130522985E+03  0.88948480096E+03  0.92141665690E+02 0.  0.
          2    1    3    3  502    0 -0.24979051508E+03 -0.94962303561E+02  0.45464530859E+03  0.52736656810E+03  0.00000000000E+00 0. -1.
         -1    1    3    3    0  502 -0.15209549485E+03 -0.51385129238E+02  0.16846258824E+03  0.23270821794E+03  0.00000000000E+00 0.  1.
         11    1    5    5    0    0  0.17266233517E+03 -0.13808546033E+03  0.91098727189E+02  0.23912100375E+03  0.00000000000E+00 0.  1.
        -11    1    5    5    0    0  0.38008278885E+02 -0.83930968783E+02 -0.16662685163E+01  0.92151034912E+02  0.00000000000E+00 0. -1.
          4    1    6    6  503    0  0.10912201885E+03  0.28276116769E+03 -0.50785035871E+03  0.59141650281E+03  0.00000000000E+00 0. -1.
         -4    1    6    6    0  503  0.82093377026E+02  0.85602694218E+02 -0.27345487115E+03  0.29806829815E+03  0.00000000000E+00 0.  1.
<mgrwt>
<rscale>  0 0.19796377E+04</rscale>
<asrwt>0</asrwt>
<pdfrwt beam="1">  1        2 0.14708206E+00 0.19796377E+04</pdfrwt>
<pdfrwt beam="2">  1       -1 0.15766127E+00 0.19796377E+04</pdfrwt>
<totfact> 0.86963777E+00</totfact>
</mgrwt>
</event>
<event>
12    6  0.1530859E-007  0.1331692E+04  0.7818608E-02  0.9004804E-01
          2   -1    0    0  501    0  0.00000000000E+00  0.00000000000E+00  0.12348451736E+04  0.12348451736E+04  0.00000000000E+00 0. -1.
         -1   -1    0    0    0  501 -0.00000000000E+00 -0.00000000000E+00 -0.35903335538E+03  0.35903335538E+03  0.00000000000E+00 0.  1.
         24    2    1    2    0    0  0.79779826439E+02  0.24722935351E+03  0.52486877695E+03  0.59102712856E+03  0.79615700346E+02 0.  0.
        254    2    1    2    0    0 -0.79779826439E+02 -0.24722935351E+03  0.35094304122E+03  0.10028514004E+04  0.90280825157E+03 0.  0.
         23    2    4    4    0    0 -0.97880457262E+02 -0.22918205477E+03  0.64308524937E+03  0.69581227332E+03  0.92147075944E+02 0.  0.
         23    2    4    4    0    0  0.18100630822E+02 -0.18047298737E+02 -0.29214220815E+03  0.30703912705E+03  0.90953933004E+02 0.  0.
          2    1    3    3  502    0  0.69755994222E+02  0.13185996104E+03  0.35874071161E+03  0.38852007184E+03  0.00000000000E+00 0. -1.
         -1    1    3    3    0  502  0.10023832217E+02  0.11536939247E+03  0.16612806534E+03  0.20250705673E+03  0.00000000000E+00 0.  1.
         11    1    5    5    0    0 -0.37199396524E+02 -0.17205614974E+03  0.50177725385E+03  0.53175889861E+03  0.00000000000E+00 0. -1.
        -11    1    5    5    0    0 -0.60681060738E+02 -0.57125905029E+02  0.14130799552E+03  0.16405337472E+03  0.00000000000E+00 0.  1.
          4    1    6    6  503    0  0.29282558870E+02 -0.87323891769E+01 -0.24944973062E+02  0.39445843327E+02  0.00000000000E+00 0.  1.
         -4    1    6    6    0  503 -0.11181928048E+02 -0.93149095601E+01 -0.26719723509E+03  0.26759328372E+03  0.00000000000E+00 0. -1.
<mgrwt>
<rscale>  0 0.13316916E+04</rscale>
<asrwt>0</asrwt>
<pdfrwt beam="1">  1        2 0.18997618E+00 0.13316916E+04</pdfrwt>
<pdfrwt beam="2">  1       -1 0.55235902E-01 0.13316916E+04</pdfrwt>
<totfact> 0.66701676E+01</totfact>
</mgrwt>
</event>
<event>
12    6  0.1530859E-007  0.2980808E+04  0.7818608E-02  0.8249233E-01
          2   -1    0    0  501    0  0.00000000000E+00  0.00000000000E+00  0.12656089853E+04  0.12656089853E+04  0.00000000000E+00 0. -1.
         -1   -1    0    0    0  501 -0.00000000000E+00 -0.00000000000E+00 -0.17551267885E+04  0.17551267885E+04  0.00000000000E+00 0.  1.
         24    2    1    2    0    0 -0.43447768701E+03 -0.89509775073E+03 -0.11442781536E+04  0.15184961095E+04  0.80542522485E+02 0.  0.
        254    2    1    2    0    0  0.43447768701E+03  0.89509775073E+03  0.65476035050E+03  0.15022396643E+04  0.91544636574E+03 0.  0.
         23    2    4    4    0    0  0.43821215012E+03  0.50516720822E+03  0.82604279511E+03  0.10668131199E+04  0.92302419316E+02 0.  0.
         23    2    4    4    0    0 -0.37344631116E+01  0.38993054250E+03 -0.17128244462E+03  0.43542654442E+03  0.90547366379E+02 0.  0.
          4    1    3    3  502    0 -0.40058025945E+02 -0.50330274457E+02 -0.96623387060E+02  0.11607696109E+03  0.00000000000E+00 0. -1.
         -3    1    3    3    0  502 -0.39441966107E+03 -0.84476747627E+03 -0.10476547666E+04  0.14024191485E+04  0.00000000000E+00 0.  1.
         11    1    5    5    0    0  0.44286815078E+03  0.50195957408E+03  0.82006568967E+03  0.10585855414E+04  0.00000000000E+00 0. -1.
        -11    1    5    5    0    0 -0.46560006601E+01  0.32076341436E+01  0.59771054446E+01  0.82275785285E+01  0.00000000000E+00 0.  1.
          3    1    6    6  503    0 -0.86234343319E+01  0.35496400857E+03 -0.18136732736E+03  0.39870781085E+03  0.00000000000E+00 0. -1.
         -3    1    6    6    0  503  0.48889712203E+01  0.34966533930E+02  0.10084882742E+02  0.36718733565E+02  0.00000000000E+00 0.  1.
<mgrwt>
<rscale>  0 0.29808081E+04</rscale>
<asrwt>0</asrwt>
<pdfrwt beam="1">  1        2 0.19470908E+00 0.29808081E+04</pdfrwt>
<pdfrwt beam="2">  1       -1 0.27001951E+00 0.29808081E+04</pdfrwt>
<totfact> 0.87355906E-01</totfact>
</mgrwt>
</event>
<event>
12    6  0.1530859E-007  0.1847793E+04  0.7818608E-02  0.8681288E-01
         -1   -1    0    0    0  501 -0.00000000000E+00  0.00000000000E+00  0.67931623070E+03  0.67931623070E+03  0.00000000000E+00 0.  1.
          2   -1    0    0  501    0  0.00000000000E+00 -0.00000000000E+00 -0.12565356535E+04  0.12565356535E+04  0.00000000000E+00 0. -1.
         24    2    1    2    0    0 -0.46852416359E+03  0.52357372886E+03 -0.53955420184E+03  0.89049576771E+03  0.90662198121E+02 0.  0.
        254    2    1    2    0    0  0.46852416359E+03 -0.52357372886E+03 -0.37665220999E+02  0.10453561165E+04  0.77311473927E+03 0.  0.
         23    2    4    4    0    0  0.44355123653E+03 -0.13909073673E+03 -0.30933516792E+03  0.56600408159E+03  0.92673846316E+02 0.  0.
         23    2    4    4    0    0  0.24972927066E+02 -0.38448299213E+03  0.27166994692E+03  0.47935203494E+03  0.86735200585E+02 0.  0.
          4    1    3    3  502    0 -0.20991397737E+03  0.26530978056E+03 -0.31027485107E+03  0.45904644728E+03  0.00000000000E+00 0. -1.
         -1    1    3    3    0  502 -0.25861018622E+03  0.25826394830E+03 -0.22927935077E+03  0.43144932043E+03  0.00000000000E+00 0.  1.
         11    1    5    5    0    0  0.34465062152E+02 -0.20109999296E+02 -0.67952690440E+00  0.39908825310E+02  0.00000000000E+00 0. -1.
        -11    1    5    5    0    0  0.40908617437E+03 -0.11898073744E+03 -0.30865564102E+03  0.52609525628E+03  0.00000000000E+00 0.  1.
          2    1    6    6  503    0 -0.16317386058E+02 -0.30337125277E+03  0.21374533905E+03  0.37146661231E+03  0.00000000000E+00 0.  1.
         -2    1    6    6    0  503  0.41290313124E+02 -0.81111739362E+02  0.57924607873E+02  0.10788542264E+03  0.00000000000E+00 0. -1.
<mgrwt>
<rscale>  0 0.18477933E+04</rscale>
<asrwt>0</asrwt>
<pdfrwt beam="1">  1        2 0.19331318E+00 0.18477933E+04</pdfrwt>
<pdfrwt beam="2">  1       -1 0.10451019E+00 0.18477933E+04</pdfrwt>
<totfact> 0.16179964E+01</totfact>
</mgrwt>
</event>
<event>
12    6  0.1530859E-007  0.2259788E+04  0.7818608E-02  0.8493947E-01
         -1   -1    0    0    0  501 -0.00000000000E+00  0.00000000000E+00  0.73920166764E+03  0.73920166764E+03  0.00000000000E+00 0.  1.
          2   -1    0    0  501    0  0.00000000000E+00 -0.00000000000E+00 -0.17270799065E+04  0.17270799065E+04  0.00000000000E+00 0. -1.
         24    2    1    2    0    0 -0.91007192474E+03 -0.11607105883E+03 -0.13852037260E+03  0.93095431401E+03  0.76056835667E+02 0.  0.
        254    2    1    2    0    0  0.91007192474E+03  0.11607105883E+03 -0.84935786626E+03  0.15353272601E+04  0.89113276890E+03 0.  0.
         23    2    4    4    0    0  0.42189228943E+03  0.26079091554E+03  0.40813422032E+02  0.50565342178E+03  0.89524533105E+02 0.  0.
         23    2    4    4    0    0  0.48817963530E+03 -0.14471985671E+03 -0.89017128829E+03  0.10296738383E+04  0.92520795613E+02 0.  0.
          4    1    3    3  502    0 -0.81230913867E+02 -0.31455800847E+02 -0.20492406897E+02  0.89486689038E+02  0.00000000000E+00 0. -1.
         -3    1    3    3    0  502 -0.82884101087E+03 -0.84615257982E+02 -0.11802796570E+03  0.84146762497E+03  0.00000000000E+00 0.  1.
         11    1    5    5    0    0  0.14635310495E+03  0.48191829555E+02 -0.76437403438E+01  0.15427284444E+03  0.00000000000E+00 0.  1.
        -11    1    5    5    0    0  0.27553918448E+03  0.21259908598E+03  0.48457162376E+02  0.35138057734E+03  0.00000000000E+00 0. -1.
          3    1    6    6  503    0  0.42048551632E+03 -0.15586756276E+03 -0.75663696865E+03  0.87954662689E+03  0.00000000000E+00 0. -1.
         -3    1    6    6    0  503  0.67694118986E+02  0.11147706051E+02 -0.13353431965E+03  0.15012721146E+03  0.00000000000E+00 0.  1.
<mgrwt>
<rscale>  0 0.22597879E+04</rscale>
<asrwt>0</asrwt>
<pdfrwt beam="1">  1        2 0.26570460E+00 0.22597879E+04</pdfrwt>
<pdfrwt beam="2">  1       -1 0.11372333E+00 0.22597879E+04</pdfrwt>
<totfact> 0.69167013E+00</totfact>
</mgrwt>
</event>
<event>
12    6  0.1530859E-007  0.1341537E+04  0.7818608E-02  0.8997260E-01
          2   -1    0    0  501    0  0.00000000000E+00  0.00000000000E+00  0.16160963705E+04  0.16160963705E+04  0.00000000000E+00 0. -1.
         -1   -1    0    0    0  501 -0.00000000000E+00 -0.00000000000E+00 -0.27840554978E+03  0.27840554978E+03  0.00000000000E+00 0.  1.
         24    2    1    2    0    0 -0.18015943113E+03  0.26041747442E+03  0.57683203571E+03  0.66389869983E+03  0.88043197372E+02 0.  0.
        254    2    1    2    0    0  0.18015943113E+03 -0.26041747442E+03  0.76085878504E+03  0.12306032205E+04  0.91389469519E+03 0.  0.
         23    2    4    4    0    0  0.48925056937E+03 -0.27512972799E+03  0.69980943963E+03  0.90168956298E+03  0.90820313430E+02 0.  0.
         23    2    4    4    0    0 -0.30909113824E+03  0.14712253575E+02  0.61049345407E+02  0.32891365751E+03  0.93291957706E+02 0.  0.
          2    1    3    3  502    0 -0.13391468857E+03  0.20259282377E+03  0.50680817621E+03  0.56198889983E+03  0.00000000000E+00 0. -1.
         -1    1    3    3    0  502 -0.46244742557E+02  0.57824650644E+02  0.70023859508E+02  0.10190980000E+03  0.00000000000E+00 0.  1.
         11    1    5    5    0    0  0.32097365066E+03 -0.14709975406E+03  0.48867374677E+03  0.60288013141E+03  0.00000000000E+00 0.  1.
        -11    1    5    5    0    0  0.16827691871E+03 -0.12802997394E+03  0.21113569286E+03  0.29880943158E+03  0.00000000000E+00 0. -1.
          4    1    6    6  503    0 -0.19624104408E+03  0.50565855622E+02  0.56662944061E+02  0.21042372102E+03  0.00000000000E+00 0. -1.
         -4    1    6    6    0  503 -0.11285009416E+03 -0.35853602047E+02  0.43864013463E+01  0.11848993649E+03  0.00000000000E+00 0.  1.
<mgrwt>
<rscale>  0 0.13415367E+04</rscale>
<asrwt>0</asrwt>
<pdfrwt beam="1">  1        2 0.24863021E+00 0.13415367E+04</pdfrwt>
<pdfrwt beam="2">  1       -1 0.42831624E-01 0.13415367E+04</pdfrwt>
<totfact> 0.65296238E+01</totfact>
</mgrwt>
</event>
<event>
12    6  0.1530859E-007  0.1340172E+04  0.7818608E-02  0.8998301E-01
          2   -1    0    0  501    0  0.00000000000E+00  0.00000000000E+00  0.81693419659E+03  0.81693419659E+03  0.00000000000E+00 0. -1.
         -1   -1    0    0    0  501 -0.00000000000E+00 -0.00000000000E+00 -0.54963478402E+03  0.54963478402E+03  0.00000000000E+00 0.  1.
         24    2    1    2    0    0 -0.34725306000E+03  0.98204806660E+02  0.97102502028E+02  0.38199603924E+03  0.79140421820E+02 0.  0.
        254    2    1    2    0    0  0.34725306000E+03 -0.98204806660E+02  0.17019691054E+03  0.98457294137E+03  0.90010444772E+03 0.  0.
         23    2    4    4    0    0  0.29080039269E+03 -0.52538892051E+02  0.52549984315E+03  0.61012086420E+03  0.93659917829E+02 0.  0.
         23    2    4    4    0    0  0.56452667303E+02 -0.45665914609E+02 -0.35530293261E+03  0.37445207718E+03  0.93284000656E+02 0.  0.
          2    1    3    3  502    0 -0.71670674874E+02  0.22809215365E+02  0.55053302201E+02  0.93208433233E+02  0.00000000000E+00 0. -1.
         -1    1    3    3    0  502 -0.27558238512E+03  0.75395591295E+02  0.42049199827E+02  0.28878760600E+03  0.00000000000E+00 0.  1.
         11    1    5    5    0    0  0.30141785206E+02 -0.36039017910E+02  0.10621781303E+03  0.11614457298E+03  0.00000000000E+00 0. -1.
        -11    1    5    5    0    0  0.26065860749E+03 -0.16499874141E+02  0.41928203012E+03  0.49397629122E+03  0.00000000000E+00 0.  1.
          3    1    6    6  503    0  0.25227410326E+02  0.28302264790E+02 -0.11624309150E+03  0.12226977036E+03  0.00000000000E+00 0. -1.
         -3    1    6    6    0  503  0.31225256977E+02 -0.73968179399E+02 -0.23905984111E+03  0.25218230681E+03  0.00000000000E+00 0.  1.
<mgrwt>
<rscale>  0 0.13401723E+04</rscale>
<asrwt>0</asrwt>
<pdfrwt beam="1">  1        2 0.12568218E+00 0.13401723E+04</pdfrwt>
<pdfrwt beam="2">  1       -1 0.84559197E-01 0.13401723E+04</pdfrwt>
<totfact> 0.51771500E+01</totfact>
</mgrwt>
</event>
<event>
12    6  0.1530859E-007  0.1433048E+04  0.7818608E-02  0.8930238E-01
         -1   -1    0    0    0  501 -0.00000000000E+00  0.00000000000E+00  0.43530853189E+03  0.43530853189E+03  0.00000000000E+00 0.  1.
          2   -1    0    0  501    0  0.00000000000E+00 -0.00000000000E+00 -0.11794084782E+04  0.11794084782E+04  0.00000000000E+00 0. -1.
         24    2    1    2    0    0  0.15169860529E+03  0.41312312370E+02 -0.69001907504E+03  0.71223827668E+03  0.80236306257E+02 0.  0.
        254    2    1    2    0    0 -0.15169860529E+03 -0.41312312370E+02 -0.54080871244E+02  0.90247873339E+03  0.88703097443E+03 0.  0.
         23    2    4    4    0    0  0.96976708628E+02  0.26379700652E+03  0.25748316066E+03  0.39251068649E+03  0.93668128626E+02 0.  0.
         23    2    4    4    0    0 -0.24867531392E+03 -0.30510931889E+03 -0.31156403190E+03  0.50996804691E+03  0.89800638448E+02 0.  0.
          4    1    3    3  502    0  0.77901243934E+02  0.50003872065E+02 -0.26331531781E+03  0.27911278656E+03  0.00000000000E+00 0. -1.
         -3    1    3    3    0  502  0.73797361357E+02 -0.86915596957E+01 -0.42670375723E+03  0.43312549012E+03  0.00000000000E+00 0.  1.
         11    1    5    5    0    0  0.56203270260E+02  0.19419822043E+03  0.12588001163E+03  0.23815443253E+03  0.00000000000E+00 0.  1.
        -11    1    5    5    0    0  0.40773438368E+02  0.69598786088E+02  0.13160314903E+03  0.15435625396E+03  0.00000000000E+00 0. -1.
          2    1    6    6  503    0 -0.19659920997E+03 -0.19720273634E+03 -0.25456981294E+03  0.37728763330E+03  0.00000000000E+00 0. -1.
         -2    1    6    6    0  503 -0.52076103952E+02 -0.10790658255E+03 -0.56994218961E+02  0.13268041361E+03  0.00000000000E+00 0.  1.
<mgrwt>
<rscale>  0 0.14330479E+04</rscale>
<asrwt>0</asrwt>
<pdfrwt beam="1">  1        2 0.18144746E+00 0.14330479E+04</pdfrwt>
<pdfrwt beam="2">  1       -1 0.66970544E-01 0.14330479E+04</pdfrwt>
<totfact> 0.48738430E+01</totfact>
</mgrwt>
</event>
<event>
12    6  0.1530859E-007  0.2194487E+04  0.7818608E-02  0.8520726E-01
         -1   -1    0    0    0  501 -0.00000000000E+00  0.00000000000E+00  0.12961050516E+04  0.12961050516E+04  0.00000000000E+00 0.  1.
          2   -1    0    0  501    0  0.00000000000E+00 -0.00000000000E+00 -0.92889330048E+03  0.92889330048E+03  0.00000000000E+00 0. -1.
         24    2    1    2    0    0  0.43450302347E+03 -0.32715181503E+03  0.89127864535E+03  0.10470908247E+04  0.78742516735E+02 0.  0.
        254    2    1    2    0    0 -0.43450302347E+03  0.32715181503E+03 -0.52406689422E+03  0.11779075274E+04  0.90387988477E+03 0.  0.
         23    2    4    4    0    0 -0.41116533441E+03  0.17375474187E+02 -0.69392998937E+03  0.81183655903E+03  0.90448488654E+02 0.  0.
         23    2    4    4    0    0 -0.23337689060E+02  0.30977634084E+03  0.16986309515E+03  0.36607096841E+03  0.92997063065E+02 0.  0.
          2    1    3    3  502    0  0.14792695156E+03 -0.66628282505E+02  0.25824428123E+03  0.30497839238E+03  0.00000000000E+00 0. -1.
         -1    1    3    3    0  502  0.28657607191E+03 -0.26052353253E+03  0.63303436411E+03  0.74211243228E+03  0.00000000000E+00 0.  1.
         11    1    5    5    0    0 -0.17356563629E+03  0.51903247782E+02 -0.28972365640E+03  0.34169983071E+03  0.00000000000E+00 0. -1.
        -11    1    5    5    0    0 -0.23759969812E+03 -0.34527773594E+02 -0.40420633297E+03  0.47013672831E+03  0.00000000000E+00 0.  1.
          2    1    6    6  503    0 -0.55292569311E+02  0.17054585132E+03  0.73551911893E+02  0.19378606598E+03  0.00000000000E+00 0. -1.
         -2    1    6    6    0  503  0.31954880251E+02  0.13923048952E+03  0.96311183257E+02  0.17228490243E+03  0.00000000000E+00 0.  1.
<mgrwt>
<rscale>  0 0.21944870E+04</rscale>
<asrwt>0</asrwt>
<pdfrwt beam="1">  1        2 0.14290666E+00 0.21944870E+04</pdfrwt>
<pdfrwt beam="2">  1       -1 0.19940078E+00 0.21944870E+04</pdfrwt>
<totfact> 0.44436589E+00</totfact>
</mgrwt>
</event>
<event>
12    6  0.1530859E-007  0.1381560E+04  0.7818608E-02  0.8967276E-01
         -1   -1    0    0    0  501 -0.00000000000E+00  0.00000000000E+00  0.20800643034E+03  0.20800643034E+03  0.00000000000E+00 0.  1.
          2   -1    0    0  501    0  0.00000000000E+00 -0.00000000000E+00 -0.22940479194E+04  0.22940479194E+04  0.00000000000E+00 0. -1.
         24    2    1    2    0    0  0.26979817023E+03 -0.21935799728E+03 -0.90980395259E+03  0.97722935937E+03  0.79529900325E+02 0.  0.
        254    2    1    2    0    0 -0.26979817023E+03  0.21935799728E+03 -0.11762375364E+04  0.15248249903E+04  0.90589597933E+03 0.  0.
         23    2    4    4    0    0  0.16415880651E+03  0.41065817901E+03 -0.36665885873E+03  0.58164156314E+03  0.90994151194E+02 0.  0.
         23    2    4    4    0    0 -0.43395697675E+03 -0.19130018173E+03 -0.80957867772E+03  0.94318342719E+03  0.96244089253E+02 0.  0.
          4    1    3    3  502    0  0.19778313091E+03 -0.13394810402E+03 -0.69840311075E+03  0.73812408615E+03  0.00000000000E+00 0. -1.
         -3    1    3    3    0  502  0.72015039320E+02 -0.85409893263E+02 -0.21140084183E+03  0.23910527322E+03  0.00000000000E+00 0.  1.
         11    1    5    5    0    0  0.11124351453E+03  0.15827878330E+03 -0.14885532532E+03  0.24410080017E+03  0.00000000000E+00 0. -1.
        -11    1    5    5    0    0  0.52915291983E+02  0.25237939571E+03 -0.21780353341E+03  0.33754076298E+03  0.00000000000E+00 0.  1.
          1    1    6    6  503    0 -0.36634870137E+03 -0.12981556124E+03 -0.69841073622E+03  0.79927530139E+03  0.00000000000E+00 0. -1.
         -1    1    6    6    0  503 -0.67608275374E+02 -0.61484620491E+02 -0.11116794149E+03  0.14390812580E+03  0.00000000000E+00 0.  1.
<mgrwt>
<rscale>  0 0.13815596E+04</rscale>
<asrwt>0</asrwt>
<pdfrwt beam="1">  1        2 0.35293046E+00 0.13815596E+04</pdfrwt>
<pdfrwt beam="2">  1       -1 0.32000989E-01 0.13815596E+04</pdfrwt>
<totfact> 0.46279968E+01</totfact>
</mgrwt>
</event>
<event>
12    6  0.1530859E-007  0.2738998E+04  0.7818608E-02  0.8322461E-01
          2   -1    0    0  501    0  0.00000000000E+00  0.00000000000E+00  0.13019622302E+04  0.13019622302E+04  0.00000000000E+00 0. -1.
         -1   -1    0    0    0  501 -0.00000000000E+00 -0.00000000000E+00 -0.14405394361E+04  0.14405394361E+04  0.00000000000E+00 0.  1.
         24    2    1    2    0    0 -0.70901033347E+03  0.95575062153E+03  0.24038657236E+03  0.12167452001E+04  0.80797736618E+02 0.  0.
        254    2    1    2    0    0  0.70901033347E+03 -0.95575062153E+03 -0.37896377820E+03  0.15257564662E+04  0.87644985331E+03 0.  0.
         23    2    4    4    0    0  0.59723622109E+03 -0.13602879373E+03 -0.30290072952E+03  0.68962640979E+03  0.92955885416E+02 0.  0.
         23    2    4    4    0    0  0.11177411239E+03 -0.81972182781E+03 -0.76063048677E+02  0.83613005639E+03  0.94289748336E+02 0.  0.
          4    1    3    3  502    0 -0.60629055378E+03  0.83977020792E+03  0.18462659542E+03  0.10520880274E+04  0.00000000000E+00 0. -1.
         -3    1    3    3    0  502 -0.10271977970E+03  0.11598041361E+03  0.55759976945E+02  0.16465717267E+03  0.00000000000E+00 0.  1.
         11    1    5    5    0    0  0.33595782836E+03 -0.98327720464E+02 -0.21773844076E+03  0.41224511110E+03  0.00000000000E+00 0. -1.
        -11    1    5    5    0    0  0.26127839273E+03 -0.37701073263E+02 -0.85162288764E+02  0.27738129869E+03  0.00000000000E+00 0.  1.
          4    1    6    6  503    0  0.23688577429E+02 -0.16392483841E+03  0.22479778804E+02  0.16714616897E+03  0.00000000000E+00 0. -1.
         -4    1    6    6    0  503  0.88085534959E+02 -0.65579698940E+03 -0.98542827481E+02  0.66898388742E+03  0.00000000000E+00 0.  1.
<mgrwt>
<rscale>  0 0.27389983E+04</rscale>
<asrwt>0</asrwt>
<pdfrwt beam="1">  1        2 0.20030188E+00 0.27389983E+04</pdfrwt>
<pdfrwt beam="2">  1       -1 0.22162145E+00 0.27389983E+04</pdfrwt>
<totfact> 0.17631074E+00</totfact>
</mgrwt>
</event>
<event>
12    6  0.1530859E-007  0.1911069E+04  0.7818608E-02  0.8649366E-01
         -1   -1    0    0    0  501 -0.00000000000E+00  0.00000000000E+00  0.34512890139E+03  0.34512890139E+03  0.00000000000E+00 0.  1.
          2   -1    0    0  501    0  0.00000000000E+00 -0.00000000000E+00 -0.26455233260E+04  0.26455233260E+04  0.00000000000E+00 0. -1.
         24    2    1    2    0    0 -0.73965847031E+03  0.88227565021E+02 -0.95695881692E+03  0.12153194550E+04  0.79702224038E+02 0.  0.
        254    2    1    2    0    0  0.73965847031E+03 -0.88227565021E+02 -0.13434356077E+04  0.17753327724E+04  0.89000475545E+03 0.  0.
         23    2    4    4    0    0  0.57485033135E+03 -0.17885959518E+03 -0.14272840241E+04  0.15517291813E+04  0.90995100956E+02 0.  0.
         23    2    4    4    0    0  0.16480813896E+03  0.90632030156E+02  0.83848416404E+02  0.22360359109E+03  0.87132780602E+02 0.  0.
          4    1    3    3  502    0 -0.29266854180E+03  0.22243624866E+02 -0.43767650697E+03  0.52698233269E+03  0.00000000000E+00 0. -1.
         -3    1    3    3    0  502 -0.44698992851E+03  0.65983940155E+02 -0.51928230995E+03  0.68833712233E+03  0.00000000000E+00 0.  1.
         11    1    5    5    0    0  0.53507256477E+03 -0.17226149665E+03 -0.12608055632E+04  0.13804373730E+04  0.00000000000E+00 0.  1.
        -11    1    5    5    0    0  0.39777766577E+02 -0.65980985282E+01 -0.16647846093E+03  0.17129180824E+03  0.00000000000E+00 0. -1.
          4    1    6    6  503    0  0.89192167903E+02  0.89416858428E+02  0.76413786817E+02  0.14761329277E+03  0.00000000000E+00 0.  1.
         -4    1    6    6    0  503  0.75615971057E+02  0.12151717281E+01  0.74346295865E+01  0.75990298317E+02  0.00000000000E+00 0. -1.
<mgrwt>
<rscale>  0 0.19110694E+04</rscale>
<asrwt>0</asrwt>
<pdfrwt beam="1">  1        2 0.40700360E+00 0.19110694E+04</pdfrwt>
<pdfrwt beam="2">  1       -1 0.53096753E-01 0.19110694E+04</pdfrwt>
<totfact> 0.10914810E+01</totfact>
</mgrwt>
</event>
<event>
12    6  0.1530859E-007  0.1350656E+04  0.7818608E-02  0.8990332E-01
          2   -1    0    0  501    0  0.00000000000E+00  0.00000000000E+00  0.34033701316E+04  0.34033701316E+04  0.00000000000E+00 0. -1.
         -1   -1    0    0    0  501 -0.00000000000E+00 -0.00000000000E+00 -0.13400475443E+03  0.13400475443E+03  0.00000000000E+00 0.  1.
         24    2    1    2    0    0 -0.17522177691E+03  0.24958685089E+03  0.34709810642E+03  0.46623864818E+03  0.62490913998E+02 0.  0.
        254    2    1    2    0    0  0.17522177691E+03 -0.24958685089E+03  0.29222672708E+04  0.30711362379E+04  0.89399973299E+03 0.  0.
         23    2    4    4    0    0  0.22480938069E+03 -0.56189089049E+03  0.17657731581E+04  0.18687868946E+04  0.90271707051E+02 0.  0.
         23    2    4    4    0    0 -0.49587603772E+02  0.31230403960E+03  0.11564941127E+04  0.12023493433E+04  0.90402251422E+02 0.  0.
          4    1    3    3  502    0  0.36441477773E+01  0.13903020097E+01  0.49584559448E+00  0.39317445942E+01  0.00000000000E+00 0. -1.
         -3    1    3    3    0  502 -0.17886592469E+03  0.24819654888E+03  0.34660226083E+03  0.46230690358E+03  0.00000000000E+00 0.  1.
         11    1    5    5    0    0  0.88375960320E+02 -0.31724645500E+03  0.10368378475E+04  0.10878825055E+04  0.00000000000E+00 0. -1.
        -11    1    5    5    0    0  0.13643342037E+03 -0.24464443549E+03  0.72893531054E+03  0.78090438913E+03  0.00000000000E+00 0.  1.
          1    1    6    6  503    0 -0.14539382182E+02  0.26486329679E+03  0.85743882925E+03  0.89753289941E+03  0.00000000000E+00 0. -1.
         -1    1    6    6    0  503 -0.35048221590E+02  0.47440742814E+02  0.29905528344E+03  0.30481644390E+03  0.00000000000E+00 0.  1.
<mgrwt>
<rscale>  0 0.13506558E+04</rscale>
<asrwt>0</asrwt>
<pdfrwt beam="1">  1        2 0.52359534E+00 0.13506558E+04</pdfrwt>
<pdfrwt beam="2">  1       -1 0.20616119E-01 0.13506558E+04</pdfrwt>
<totfact> 0.20858255E+01</totfact>
</mgrwt>
</event>
<event>
12    6  0.1530859E-007  0.1064507E+04  0.7818608E-02  0.9240493E-01
         -1   -1    0    0    0  501 -0.00000000000E+00  0.00000000000E+00  0.16866270852E+03  0.16866270852E+03  0.00000000000E+00 0.  1.
          2   -1    0    0  501    0  0.00000000000E+00 -0.00000000000E+00 -0.16796478545E+04  0.16796478545E+04  0.00000000000E+00 0. -1.
         24    2    1    2    0    0 -0.33684042792E+02 -0.41658755956E+01  0.69438721253E+01  0.85668855461E+02  0.78351555043E+02 0.  0.
        254    2    1    2    0    0  0.33684042792E+02  0.41658755956E+01 -0.15179290181E+04  0.17626417075E+04  0.89534647815E+03 0.  0.
         23    2    4    4    0    0  0.13904334889E+03  0.38654683028E+03 -0.11074222061E+04  0.11845763230E+04  0.89920062806E+02 0.  0.
         23    2    4    4    0    0 -0.10535930610E+03 -0.38238095469E+03 -0.41050681198E+03  0.57806538448E+03  0.91257701929E+02 0.  0.
          2    1    3    3  502    0  0.21292868263E+02  0.27557585864E+01 -0.14871879753E+02  0.26118063704E+02  0.00000000000E+00 0. -1.
         -1    1    3    3    0  502 -0.54976911055E+02 -0.69216341819E+01  0.21815751879E+02  0.59550791757E+02  0.00000000000E+00 0.  1.
         11    1    5    5    0    0  0.43790077025E+02  0.20029647319E+03 -0.65042452046E+03  0.68197383002E+03  0.00000000000E+00 0.  1.
        -11    1    5    5    0    0  0.95253271862E+02  0.18625035709E+03 -0.45699768562E+03  0.50260249301E+03  0.00000000000E+00 0. -1.
          2    1    6    6  503    0 -0.96906322013E+02 -0.28073043490E+03 -0.25157692431E+03  0.38921891163E+03  0.00000000000E+00 0. -1.
         -2    1    6    6    0  503 -0.84529840819E+01 -0.10165051979E+03 -0.15892988766E+03  0.18884647284E+03  0.00000000000E+00 0.  1.
<mgrwt>
<rscale>  0 0.10645073E+04</rscale>
<asrwt>0</asrwt>
<pdfrwt beam="1">  1        2 0.25840737E+00 0.10645073E+04</pdfrwt>
<pdfrwt beam="2">  1       -1 0.25948108E-01 0.10645073E+04</pdfrwt>
<totfact> 0.14989325E+02</totfact>
</mgrwt>
</event>
<event>
12    6  0.1983914E-007  0.1714723E+04  0.7818608E-02  0.8753011E-01
          2   -1    0    0  501    0  0.00000000000E+00  0.00000000000E+00  0.17501198843E+04  0.17501198843E+04  0.00000000000E+00 0. -1.
         -1   -1    0    0    0  501 -0.00000000000E+00 -0.00000000000E+00 -0.42001067255E+03  0.42001067255E+03  0.00000000000E+00 0.  1.
         24    2    1    2    0    0 -0.26558744651E+03  0.76885106159E+02 -0.21446363969E+03  0.35885715307E+03  0.79597690091E+02 0.  0.
        254    2    1    2    0    0  0.26558744651E+03 -0.76885106159E+02  0.15445728514E+04  0.18112734038E+04  0.90474197345E+03 0.  0.
         23    2    4    4    0    0 -0.22511474862E+03 -0.11486731963E+03  0.10830251721E+03  0.28996278126E+03  0.92075122147E+02 0.  0.
         23    2    4    4    0    0  0.49070219513E+03  0.37982213470E+02  0.14362703342E+04  0.15213106225E+04  0.96344404746E+02 0.  0.
          4    1    3    3  502    0 -0.21975523538E+02  0.45776833294E+01  0.51063428942E+01  0.23020720171E+02  0.00000000000E+00 0. -1.
         -3    1    3    3    0  502 -0.24361192297E+03  0.72307422829E+02 -0.21956998259E+03  0.33583643290E+03  0.00000000000E+00 0.  1.
         11    1    5    5    0    0 -0.17844732386E+03 -0.93651774725E+02  0.12366495665E+03  0.23644687311E+03  0.00000000000E+00 0.  1.
        -11    1    5    5    0    0 -0.46667424762E+02 -0.21215544903E+02 -0.15362439442E+02  0.53515908150E+02  0.00000000000E+00 0. -1.
          1    1    6    6  503    0  0.30123609844E+03  0.51581478104E+02  0.76824949035E+03  0.82680778619E+03  0.00000000000E+00 0. -1.
         -1    1    6    6    0  503  0.18946609669E+03 -0.13599264634E+02  0.66802084387E+03  0.69450283630E+03  0.00000000000E+00 0.  1.
<mgrwt>
<rscale>  0 0.17147233E+04</rscale>
<asrwt>0</asrwt>
<pdfrwt beam="1">  1        2 0.26924921E+00 0.17147233E+04</pdfrwt>
<pdfrwt beam="2">  1       -1 0.64617027E-01 0.17147233E+04</pdfrwt>
<totfact> 0.24180611E+01</totfact>
</mgrwt>
</event>
<event>
12    6  0.1530859E-007  0.2127820E+04  0.7818608E-02  0.8549087E-01
          2   -1    0    0  501    0  0.00000000000E+00  0.00000000000E+00  0.17228771398E+04  0.17228771398E+04  0.00000000000E+00 0. -1.
         -1   -1    0    0    0  501 -0.00000000000E+00 -0.00000000000E+00 -0.65698479595E+03  0.65698479595E+03  0.00000000000E+00 0.  1.
         24    2    1    2    0    0  0.42157866967E+02  0.35793097590E+03 -0.44948564065E+03  0.58167709211E+03  0.80118843488E+02 0.  0.
        254    2    1    2    0    0 -0.42157866967E+02 -0.35793097590E+03  0.15153779845E+04  0.17981848436E+04  0.89844667438E+03 0.  0.
         23    2    4    4    0    0 -0.17759321149E+03  0.12485225805E+03  0.42425697045E+02  0.23955110542E+03  0.91963890909E+02 0.  0.
         23    2    4    4    0    0  0.13543534453E+03 -0.48278323395E+03  0.14729522875E+04  0.15586337382E+04  0.91259548739E+02 0.  0.
          4    1    3    3  502    0 -0.22646338036E+02  0.11803589425E+03 -0.13227597429E+03  0.17872398365E+03  0.00000000000E+00 0. -1.
         -3    1    3    3    0  502  0.64804205003E+02  0.23989508165E+03 -0.31720966636E+03  0.40295310846E+03  0.00000000000E+00 0.  1.
         11    1    5    5    0    0 -0.12683627753E+03  0.13094457800E+03  0.46889440790E+02  0.18823534063E+03  0.00000000000E+00 0. -1.
        -11    1    5    5    0    0 -0.50756933967E+02 -0.60923199510E+01 -0.44637437445E+01  0.51315764794E+02  0.00000000000E+00 0.  1.
          4    1    6    6  503    0  0.12893718663E+03 -0.29877162932E+03  0.92401361132E+03  0.97963791193E+03  0.00000000000E+00 0. -1.
         -4    1    6    6    0  503  0.64981578979E+01 -0.18401160463E+03  0.54893867613E+03  0.57899582627E+03  0.00000000000E+00 0.  1.
<mgrwt>
<rscale>  0 0.21278196E+04</rscale>
<asrwt>0</asrwt>
<pdfrwt beam="1">  1        2 0.26505802E+00 0.21278196E+04</pdfrwt>
<pdfrwt beam="2">  1       -1 0.10107458E+00 0.21278196E+04</pdfrwt>
<totfact> 0.92734512E+00</totfact>
</mgrwt>
</event>
<event>
12    6  0.1530859E-007  0.2717212E+04  0.7818608E-02  0.8329442E-01
          2   -1    0    0  501    0  0.00000000000E+00  0.00000000000E+00  0.14974027145E+04  0.14974027145E+04  0.00000000000E+00 0. -1.
         -1   -1    0    0    0  501 -0.00000000000E+00 -0.00000000000E+00 -0.12326748314E+04  0.12326748314E+04  0.00000000000E+00 0.  1.
         24    2    1    2    0    0 -0.52776131935E+03 -0.94740624965E+03  0.64766497891E+03  0.12656790833E+04  0.79768445807E+02 0.  0.
        254    2    1    2    0    0  0.52776131935E+03  0.94740624965E+03 -0.38293709586E+03  0.14643984626E+04  0.90648299810E+03 0.  0.
         23    2    4    4    0    0 -0.12616361795E+03  0.13258803757E+03  0.18140559802E+03  0.27349505981E+03  0.91622653001E+02 0.  0.
         23    2    4    4    0    0  0.65392493730E+03  0.81481821208E+03 -0.56434269388E+03  0.11909034028E+04  0.90673570114E+02 0.  0.
          2    1    3    3  502    0 -0.32401719237E+03 -0.55594116867E+03  0.42711492017E+03  0.77232433537E+03  0.00000000000E+00 0. -1.
         -1    1    3    3    0  502 -0.20374412698E+03 -0.39146508098E+03  0.22055005874E+03  0.49335474794E+03  0.00000000000E+00 0.  1.
         11    1    5    5    0    0 -0.42637494525E+02  0.98778725261E+02  0.62914046314E+02  0.12463293998E+03  0.00000000000E+00 0. -1.
        -11    1    5    5    0    0 -0.83526123429E+02  0.33809312307E+02  0.11849155171E+03  0.14886211983E+03  0.00000000000E+00 0.  1.
          3    1    6    6  503    0  0.52084845179E+03  0.58631739921E+03 -0.42512710782E+03  0.89206740785E+03  0.00000000000E+00 0. -1.
         -3    1    6    6    0  503  0.13307648551E+03  0.22850081287E+03 -0.13921558607E+03  0.29883599496E+03  0.00000000000E+00 0.  1.
<mgrwt>
<rscale>  0 0.27172123E+04</rscale>
<asrwt>0</asrwt>
<pdfrwt beam="1">  1        2 0.23036965E+00 0.27172123E+04</pdfrwt>
<pdfrwt beam="2">  1       -1 0.18964228E+00 0.27172123E+04</pdfrwt>
<totfact> 0.22585150E+00</totfact>
</mgrwt>
</event>
<event>
12    6  0.1530859E-007  0.1528221E+04  0.7818608E-02  0.8865900E-01
          2   -1    0    0  501    0  0.00000000000E+00  0.00000000000E+00  0.12092885619E+04  0.12092885619E+04  0.00000000000E+00 0. -1.
         -1   -1    0    0    0  501 -0.00000000000E+00 -0.00000000000E+00 -0.48281694728E+03  0.48281694728E+03  0.00000000000E+00 0.  1.
         24    2    1    2    0    0 -0.46685199821E+03 -0.14692664168E+03  0.18581595565E+03  0.52974226565E+03  0.81000446776E+02 0.  0.
        254    2    1    2    0    0  0.46685199821E+03  0.14692664168E+03  0.54065565895E+03  0.11623632435E+04  0.90511962856E+03 0.  0.
         23    2    4    4    0    0 -0.91587485508E+02  0.36270074451E+03  0.36706096522E+03  0.53240321081E+03  0.93698074261E+02 0.  0.
         23    2    4    4    0    0  0.55843948372E+03 -0.21577410283E+03  0.17359469372E+03  0.62996003269E+03  0.91112044586E+02 0.  0.
          4    1    3    3  502    0 -0.26069349003E+03 -0.10288242413E+03  0.68594651402E+02  0.28853269336E+03  0.00000000000E+00 0. -1.
         -3    1    3    3    0  502 -0.20615850818E+03 -0.44044217547E+02  0.11722130424E+03  0.24120957229E+03  0.00000000000E+00 0.  1.
         11    1    5    5    0    0 -0.37164671274E+02  0.79210041544E+02  0.14018847560E+03  0.16525208671E+03  0.00000000000E+00 0.  1.
        -11    1    5    5    0    0 -0.54422814234E+02  0.28349070297E+03  0.22687248963E+03  0.36715112410E+03  0.00000000000E+00 0. -1.
          1    1    6    6  503    0  0.31937388799E+03 -0.15909387460E+03  0.13378438600E+03  0.38106272870E+03  0.00000000000E+00 0. -1.
         -1    1    6    6    0  503  0.23906559572E+03 -0.56680228225E+02  0.39810307727E+02  0.24889730399E+03  0.00000000000E+00 0.  1.
<mgrwt>
<rscale>  0 0.15282212E+04</rscale>
<asrwt>0</asrwt>
<pdfrwt beam="1">  1        2 0.18604439E+00 0.15282212E+04</pdfrwt>
<pdfrwt beam="2">  1       -1 0.74279531E-01 0.15282212E+04</pdfrwt>
<totfact> 0.37509196E+01</totfact>
</mgrwt>
</event>
<event>
12    6  0.1530859E-007  0.2710859E+04  0.7818608E-02  0.8331490E-01
         -1   -1    0    0    0  501 -0.00000000000E+00  0.00000000000E+00  0.66901844200E+03  0.66901844200E+03  0.00000000000E+00 0.  1.
          2   -1    0    0  501    0  0.00000000000E+00 -0.00000000000E+00 -0.27460962204E+04  0.27460962204E+04  0.00000000000E+00 0. -1.
         24    2    1    2    0    0  0.89272006900E+03  0.45220967587E+03 -0.17668781281E+04  0.20321409913E+04  0.79347189226E+02 0.  0.
        254    2    1    2    0    0 -0.89272006900E+03 -0.45220967587E+03 -0.31019965029E+03  0.13829736711E+04  0.90274561166E+03 0.  0.
         23    2    4    4    0    0 -0.23339059112E+03  0.20843458148E+03 -0.30294247549E+03  0.44509459938E+03  0.91754651965E+02 0.  0.
         23    2    4    4    0    0 -0.65932947788E+03 -0.66064425735E+03 -0.72571748025E+01  0.93787907172E+03  0.91642192380E+02 0.  0.
          4    1    3    3  502    0  0.80375605104E+03  0.42587392445E+03 -0.16331886054E+04  0.18694109794E+04  0.00000000000E+00 0. -1.
         -3    1    3    3    0  502  0.88964017955E+02  0.26335751419E+02 -0.13368952276E+03  0.16273001195E+03  0.00000000000E+00 0.  1.
         11    1    5    5    0    0 -0.96457465222E+01  0.52473086232E+02 -0.49202063474E+02  0.72576223756E+02  0.00000000000E+00 0.  1.
        -11    1    5    5    0    0 -0.22374484460E+03  0.15596149525E+03 -0.25374041202E+03  0.37251837562E+03  0.00000000000E+00 0. -1.
          2    1    6    6  503    0 -0.27887716571E+03 -0.30349396817E+03  0.39008333074E+02  0.41400810658E+03  0.00000000000E+00 0. -1.
         -2    1    6    6    0  503 -0.38045231217E+03 -0.35715028918E+03 -0.46265507877E+02  0.52387096514E+03  0.00000000000E+00 0.  1.
<mgrwt>
<rscale>  0 0.27108589E+04</rscale>
<asrwt>0</asrwt>
<pdfrwt beam="1">  1        2 0.42247635E+00 0.27108589E+04</pdfrwt>
<pdfrwt beam="2">  1       -1 0.10292591E+00 0.27108589E+04</pdfrwt>
<totfact> 0.22138505E+00</totfact>
</mgrwt>
</event>
<event>
12    6  0.1530859E-007  0.1365205E+04  0.7818608E-02  0.8979397E-01
         -3   -1    0    0    0  501 -0.00000000000E+00  0.00000000000E+00  0.11024698818E+04  0.11024698818E+04  0.00000000000E+00 0.  1.
          4   -1    0    0  501    0  0.00000000000E+00 -0.00000000000E+00 -0.42263853485E+03  0.42263853485E+03  0.00000000000E+00 0. -1.
         24    2    1    2    0    0 -0.38518880055E+03 -0.27470039235E+02  0.19031773605E+03  0.43786543677E+03  0.79876685788E+02 0.  0.
        254    2    1    2    0    0  0.38518880055E+03  0.27470039235E+02  0.48951361089E+03  0.10872429799E+04  0.89070124447E+03 0.  0.
         23    2    4    4    0    0 -0.17660260589E+02 -0.26441607306E+03 -0.11165655901E+03  0.30162556695E+03  0.91011268370E+02 0.  0.
         23    2    4    4    0    0  0.40284906114E+03  0.29188611230E+03  0.60117016990E+03  0.78561741292E+03  0.91127809662E+02 0.  0.
          2    1    3    3  502    0 -0.34744827174E+03 -0.31554714486E+01  0.15373716663E+03  0.37995443798E+03  0.00000000000E+00 0. -1.
         -1    1    3    3    0  502 -0.37740528811E+02 -0.24314567786E+02  0.36580569417E+02  0.57910998786E+02  0.00000000000E+00 0.  1.
         11    1    5    5    0    0 -0.22743053754E+02 -0.25444770323E+02 -0.38952034187E+02  0.51787486888E+02  0.00000000000E+00 0. -1.
        -11    1    5    5    0    0  0.50827931651E+01 -0.23897130274E+03 -0.72704524819E+02  0.24983808006E+03  0.00000000000E+00 0.  1.
          1    1    6    6  503    0  0.87304482102E+02  0.68539781850E+02  0.80470179565E+02  0.13709567495E+03  0.00000000000E+00 0. -1.
         -1    1    6    6    0  503  0.31554457904E+03  0.22334633045E+03  0.52069999033E+03  0.64852173797E+03  0.00000000000E+00 0.  1.
<mgrwt>
<rscale>  0 0.13652051E+04</rscale>
<asrwt>0</asrwt>
<pdfrwt beam="1">  1        4 0.65021313E-01 0.13652051E+04</pdfrwt>
<pdfrwt beam="2">  1       -3 0.16961075E+00 0.13652051E+04</pdfrwt>
<totfact> 0.11447720E+00</totfact>
</mgrwt>
</event>
<event>
12    6  0.1530859E-007  0.1589654E+04  0.7818608E-02  0.8826929E-01
         -1   -1    0    0    0  501 -0.00000000000E+00  0.00000000000E+00  0.35658792325E+03  0.35658792325E+03  0.00000000000E+00 0.  1.
          2   -1    0    0  501    0  0.00000000000E+00 -0.00000000000E+00 -0.17716529069E+04  0.17716529069E+04  0.00000000000E+00 0. -1.
         24    2    1    2    0    0 -0.15980280415E+03  0.15694216869E+03 -0.11355970396E+04  0.11602511771E+04  0.80214567949E+02 0.  0.
        254    2    1    2    0    0  0.15980280415E+03 -0.15694216869E+03 -0.27946794398E+03  0.96798965306E+03  0.89929631167E+03 0.  0.
         23    2    4    4    0    0 -0.19330906477E+03 -0.30572273738E+03 -0.40863831386E+03  0.55346539317E+03  0.92216501825E+02 0.  0.
         23    2    4    4    0    0  0.35311186892E+03  0.14878056869E+03  0.12917036987E+03  0.41452425989E+03  0.91223505687E+02 0.  0.
          4    1    3    3  502    0 -0.13867306861E+03  0.85371989844E+02 -0.81080518124E+03  0.82699675848E+03  0.00000000000E+00 0. -1.
         -3    1    3    3    0  502 -0.21129735542E+02  0.71570178845E+02 -0.32479185839E+03  0.33325441857E+03  0.00000000000E+00 0.  1.
         11    1    5    5    0    0 -0.18756919698E+03 -0.27690781166E+03 -0.33143433592E+03  0.47085970187E+03  0.00000000000E+00 0.  1.
        -11    1    5    5    0    0 -0.57398677960E+01 -0.28814925717E+02 -0.77203977934E+02  0.82605691301E+02  0.00000000000E+00 0. -1.
          3    1    6    6  503    0  0.10885341310E+03  0.44906016517E+02 -0.34616725665E+01  0.11780322169E+03  0.00000000000E+00 0. -1.
         -3    1    6    6    0  503  0.24425845583E+03  0.10387455217E+03  0.13263204244E+03  0.29672103820E+03  0.00000000000E+00 0.  1.
<mgrwt>
<rscale>  0 0.15896541E+04</rscale>
<asrwt>0</asrwt>
<pdfrwt beam="1">  1        2 0.27256199E+00 0.15896541E+04</pdfrwt>
<pdfrwt beam="2">  1       -1 0.54859680E-01 0.15896541E+04</pdfrwt>
<totfact> 0.32843016E+01</totfact>
</mgrwt>
</event>
<event>
12    6  0.1530859E-007  0.2313171E+04  0.7818608E-02  0.8472746E-01
         -1   -1    0    0    0  501 -0.00000000000E+00  0.00000000000E+00  0.54569674923E+03  0.54569674923E+03  0.00000000000E+00 0.  1.
          2   -1    0    0  501    0  0.00000000000E+00 -0.00000000000E+00 -0.24513423868E+04  0.24513423868E+04  0.00000000000E+00 0. -1.
         24    2    1    2    0    0  0.61837656982E+02 -0.15910006692E+03 -0.20325785933E+04  0.20412375065E+04  0.78345983120E+02 0.  0.
        254    2    1    2    0    0 -0.61837656982E+02  0.15910006692E+03  0.12693295572E+03  0.95580162949E+03  0.93183048489E+03 0.  0.
         23    2    4    4    0    0 -0.39622459695E+03  0.25530240493E+03 -0.15026655042E+03  0.50315199147E+03  0.91698643119E+02 0.  0.
         23    2    4    4    0    0  0.33438693997E+03 -0.96202338015E+02  0.27719950615E+03  0.45264963802E+03  0.83562031605E+02 0.  0.
          4    1    3    3  502    0  0.79318528078E+02 -0.12407823455E+03 -0.14949200605E+04  0.15021560586E+04  0.00000000000E+00 0. -1.
         -3    1    3    3    0  502 -0.17480871095E+02 -0.35021832372E+02 -0.53765853279E+03  0.53908144790E+03  0.00000000000E+00 0.  1.
         11    1    5    5    0    0 -0.37099273935E+03  0.20891948400E+03 -0.12031229911E+03  0.44244549129E+03  0.00000000000E+00 0. -1.
        -11    1    5    5    0    0 -0.25231857599E+02  0.46382920933E+02 -0.29954251312E+02  0.60706500178E+02  0.00000000000E+00 0.  1.
          4    1    6    6  503    0  0.23469644537E+03 -0.56582662833E+02  0.23636821195E+03  0.33786676490E+03  0.00000000000E+00 0. -1.
         -4    1    6    6    0  503  0.99690494596E+02 -0.39619675182E+02  0.40831294193E+02  0.11478287311E+03  0.00000000000E+00 0.  1.
<mgrwt>
<rscale>  0 0.23131706E+04</rscale>
<asrwt>0</asrwt>
<pdfrwt beam="1">  1        2 0.37712959E+00 0.23131706E+04</pdfrwt>
<pdfrwt beam="2">  1       -1 0.83953347E-01 0.23131706E+04</pdfrwt>
<totfact> 0.53819198E+00</totfact>
</mgrwt>
</event>
<event>
12    6  0.1530859E-007  0.1986252E+04  0.7818608E-02  0.8613075E-01
         -1   -1    0    0    0  501 -0.00000000000E+00  0.00000000000E+00  0.15860177674E+04  0.15860177674E+04  0.00000000000E+00 0.  1.
          2   -1    0    0  501    0  0.00000000000E+00 -0.00000000000E+00 -0.62187172827E+03  0.62187172827E+03  0.00000000000E+00 0. -1.
         24    2    1    2    0    0  0.21576220728E+03 -0.72658831626E+02 -0.45439089949E+03  0.51416052625E+03  0.77828794860E+02 0.  0.
        254    2    1    2    0    0 -0.21576220728E+03  0.72658831626E+02  0.14185369386E+04  0.16937289694E+04  0.89701624271E+03 0.  0.
         23    2    4    4    0    0  0.26325952094E+03  0.23806525960E+03  0.85634193447E+03  0.93134279863E+03  0.89984757775E+02 0.  0.
         23    2    4    4    0    0 -0.47902172822E+03 -0.16540642797E+03  0.56219500411E+03  0.76238617075E+03  0.91369295630E+02 0.  0.
          2    1    3    3  502    0  0.14347800058E+03 -0.83816988915E+02 -0.33914552103E+03  0.37766507478E+03  0.00000000000E+00 0. -1.
         -1    1    3    3    0  502  0.72284206708E+02  0.11158157289E+02 -0.11524537846E+03  0.13649545146E+03  0.00000000000E+00 0.  1.
         11    1    5    5    0    0  0.19413818071E+03  0.22142214727E+03  0.66799181288E+03  0.73002086448E+03  0.00000000000E+00 0.  1.
        -11    1    5    5    0    0  0.69121340229E+02  0.16643112323E+02  0.18835012159E+03  0.20132193414E+03  0.00000000000E+00 0. -1.
          1    1    6    6  503    0 -0.14000836631E+03 -0.59543534262E+01  0.16188157820E+03  0.21411081785E+03  0.00000000000E+00 0. -1.
         -1    1    6    6    0  503 -0.33901336191E+03 -0.15945207454E+03  0.40031342591E+03  0.54827535290E+03  0.00000000000E+00 0.  1.
<mgrwt>
<rscale>  0 0.19862524E+04</rscale>
<asrwt>0</asrwt>
<pdfrwt beam="1">  1        2 0.95672574E-01 0.19862524E+04</pdfrwt>
<pdfrwt beam="2">  1       -1 0.24400273E+00 0.19862524E+04</pdfrwt>
<totfact> 0.38481133E+00</totfact>
</mgrwt>
</event>
<event>
12    6  0.1530859E-007  0.1501478E+04  0.7818608E-02  0.8883471E-01
          2   -1    0    0  501    0  0.00000000000E+00  0.00000000000E+00  0.79574301179E+03  0.79574301179E+03  0.00000000000E+00 0. -1.
         -1   -1    0    0    0  501 -0.00000000000E+00 -0.00000000000E+00 -0.70828026469E+03  0.70828026469E+03  0.00000000000E+00 0.  1.
         24    2    1    2    0    0  0.39249759673E+03  0.30050886428E+03  0.91259651234E+02  0.50955091642E+03  0.83389876707E+02 0.  0.
        254    2    1    2    0    0 -0.39249759673E+03 -0.30050886428E+03 -0.37969041304E+01  0.99447236006E+03  0.86290261182E+03 0.  0.
         23    2    4    4    0    0 -0.18614856330E+03  0.21422141872E+03 -0.24089682299E+03  0.38352029143E+03  0.92273673126E+02 0.  0.
         23    2    4    4    0    0 -0.20634903342E+03 -0.51473028300E+03  0.23709991886E+03  0.61095206863E+03  0.97564700576E+02 0.  0.
          4    1    3    3  502    0  0.34734547101E+03  0.26757192682E+03  0.10732228473E+03  0.45139969545E+03  0.00000000000E+00 0. -1.
         -3    1    3    3    0  502  0.45152125720E+02  0.32936937462E+02 -0.16062633492E+02  0.58151220977E+02  0.00000000000E+00 0.  1.
         11    1    5    5    0    0 -0.27090770284E+02  0.11588308739E+02 -0.65646920030E+02  0.71956353739E+02  0.00000000000E+00 0.  1.
        -11    1    5    5    0    0 -0.15905779302E+03  0.20263310998E+03 -0.17524990296E+03  0.31156393769E+03  0.00000000000E+00 0. -1.
          2    1    6    6  503    0 -0.18192416430E+03 -0.41677936549E+03  0.15375928326E+03  0.48004516271E+03  0.00000000000E+00 0. -1.
         -2    1    6    6    0  503 -0.24424869123E+02 -0.97950917516E+02  0.83340635604E+02  0.13090690592E+03  0.00000000000E+00 0.  1.
<mgrwt>
<rscale>  0 0.15014780E+04</rscale>
<asrwt>0</asrwt>
<pdfrwt beam="1">  1        2 0.12242200E+00 0.15014780E+04</pdfrwt>
<pdfrwt beam="2">  1       -1 0.10896619E+00 0.15014780E+04</pdfrwt>
<totfact> 0.29872862E+01</totfact>
</mgrwt>
</event>
<event>
12    6  0.1530859E-007  0.1020414E+04  0.7818608E-02  0.9286434E-01
          2   -1    0    0  501    0  0.00000000000E+00  0.00000000000E+00  0.14122223309E+04  0.14122223309E+04  0.00000000000E+00 0. -1.
         -1   -1    0    0    0  501 -0.00000000000E+00 -0.00000000000E+00 -0.18432724291E+03  0.18432724291E+03  0.00000000000E+00 0.  1.
         24    2    1    2    0    0 -0.43776252424E+02 -0.12605268003E+02  0.31188303924E+02  0.97801584390E+02  0.80729093577E+02 0.  0.
        254    2    1    2    0    0  0.43776252424E+02  0.12605268003E+02  0.11967067840E+04  0.14987479894E+04  0.90114546864E+03 0.  0.
         23    2    4    4    0    0  0.25382442919E+03 -0.29023998876E+03  0.22501707236E+03  0.45560413980E+03  0.90974487717E+02 0.  0.
         23    2    4    4    0    0 -0.21004817676E+03  0.30284525676E+03  0.97168971166E+03  0.10431438496E+04  0.90181533874E+02 0.  0.
          2    1    3    3  502    0 -0.35427518685E+02  0.94928427699E+01  0.53792410108E+02  0.65106424639E+02  0.00000000000E+00 0. -1.
         -1    1    3    3    0  502 -0.83487337393E+01 -0.22098110772E+02 -0.22604106184E+02  0.32695159751E+02  0.00000000000E+00 0.  1.
         11    1    5    5    0    0  0.30304851526E+01  0.66005043612E+01  0.66677050329E+01  0.98594517337E+01  0.00000000000E+00 0. -1.
        -11    1    5    5    0    0  0.25079394404E+03 -0.29684049312E+03  0.21834936733E+03  0.44574468806E+03  0.00000000000E+00 0.  1.
          1    1    6    6  503    0 -0.13852429312E+03  0.12807188884E+03  0.53818037721E+03  0.57028896790E+03  0.00000000000E+00 0. -1.
         -1    1    6    6    0  503 -0.71523883649E+02  0.17477336793E+03  0.43350933445E+03  0.47285488167E+03  0.00000000000E+00 0.  1.
<mgrwt>
<rscale>  0 0.10204137E+04</rscale>
<asrwt>0</asrwt>
<pdfrwt beam="1">  1        2 0.21726497E+00 0.10204137E+04</pdfrwt>
<pdfrwt beam="2">  1       -1 0.28358038E-01 0.10204137E+04</pdfrwt>
<totfact> 0.18202093E+02</totfact>
</mgrwt>
</event>
<event>
12    6  0.1530859E-007  0.1598258E+04  0.7818608E-02  0.8821619E-01
         -1   -1    0    0    0  501 -0.00000000000E+00  0.00000000000E+00  0.17467393128E+03  0.17467393128E+03  0.00000000000E+00 0.  1.
          2   -1    0    0  501    0  0.00000000000E+00 -0.00000000000E+00 -0.36559965511E+04  0.36559965511E+04  0.00000000000E+00 0. -1.
         24    2    1    2    0    0 -0.24928922427E+03  0.18458997858E+03 -0.22826704644E+04  0.23050195488E+04  0.79448685217E+02 0.  0.
        254    2    1    2    0    0  0.24928922427E+03 -0.18458997858E+03 -0.11986521554E+04  0.15256509336E+04  0.89141752508E+03 0.  0.
         23    2    4    4    0    0 -0.22231779583E+03 -0.11749272419E+03 -0.93282400127E+03  0.97040151152E+03  0.91042482586E+02 0.  0.
         23    2    4    4    0    0  0.47160702010E+03 -0.67097254397E+02 -0.26582815411E+03  0.55524942207E+03  0.10354752643E+03 0.  0.
          2    1    3    3  502    0 -0.23016072293E+03  0.18777694071E+03 -0.22071725883E+04  0.22270709401E+04  0.00000000000E+00 0. -1.
         -1    1    3    3    0  502 -0.19128501333E+02 -0.31869621297E+01 -0.75497876112E+02  0.77948608636E+02  0.00000000000E+00 0.  1.
         11    1    5    5    0    0 -0.46222782625E+02  0.97513585607E+01 -0.11783369693E+03  0.12695044214E+03  0.00000000000E+00 0.  1.
        -11    1    5    5    0    0 -0.17609501321E+03 -0.12724408275E+03 -0.81499030434E+03  0.84345106938E+03  0.00000000000E+00 0. -1.
          2    1    6    6  503    0  0.35833759162E+03 -0.93187090140E+02 -0.18694700816E+03  0.41477565888E+03  0.00000000000E+00 0. -1.
         -2    1    6    6    0  503  0.11326942848E+03  0.26089835743E+02 -0.78881145952E+02  0.14047376319E+03  0.00000000000E+00 0.  1.
<mgrwt>
<rscale>  0 0.15982582E+04</rscale>
<asrwt>0</asrwt>
<pdfrwt beam="1">  1        2 0.56246098E+00 0.15982582E+04</pdfrwt>
<pdfrwt beam="2">  1       -1 0.26872914E-01 0.15982582E+04</pdfrwt>
<totfact> 0.86130182E+00</totfact>
</mgrwt>
</event>
<event>
12    6  0.1530859E-007  0.2087294E+04  0.7818608E-02  0.8566861E-01
          2   -1    0    0  501    0  0.00000000000E+00  0.00000000000E+00  0.21505051370E+04  0.21505051370E+04  0.00000000000E+00 0. -1.
         -1   -1    0    0    0  501 -0.00000000000E+00 -0.00000000000E+00 -0.50648499155E+03  0.50648499155E+03  0.00000000000E+00 0.  1.
         24    2    1    2    0    0 -0.45613847707E+03  0.32834815741E+02 -0.23936106827E+03  0.52236486691E+03  0.80192878668E+02 0.  0.
        254    2    1    2    0    0  0.45613847707E+03 -0.32834815741E+02  0.18833812137E+04  0.21346252616E+04  0.89462828932E+03 0.  0.
         23    2    4    4    0    0 -0.26105703532E+03 -0.64721751392E+02  0.51024890639E+03  0.58244701756E+03  0.80937636507E+02 0.  0.
         23    2    4    4    0    0  0.71719551239E+03  0.31886935651E+02  0.13731323073E+04  0.15521782441E+04  0.91535721342E+02 0.  0.
          4    1    3    3  502    0 -0.23094991283E+03  0.43100846517E+02 -0.15604523998E+03  0.28203840541E+03  0.00000000000E+00 0. -1.
         -3    1    3    3    0  502 -0.22518856425E+03 -0.10266030776E+02 -0.83315828296E+02  0.24032646151E+03  0.00000000000E+00 0.  1.
         11    1    5    5    0    0 -0.53993618568E+02 -0.85592224759E+00  0.17605979172E+03  0.18415508059E+03  0.00000000000E+00 0.  1.
        -11    1    5    5    0    0 -0.20706341675E+03 -0.63865829145E+02  0.33418911467E+03  0.39829193697E+03  0.00000000000E+00 0. -1.
          4    1    6    6  503    0  0.71935234569E+03  0.29515884278E+02  0.13702048233E+04  0.15478372791E+04  0.00000000000E+00 0. -1.
         -4    1    6    6    0  503 -0.21568332953E+01  0.23710513729E+01  0.29274840420E+01  0.43409650186E+01  0.00000000000E+00 0.  1.
<mgrwt>
<rscale>  0 0.20872935E+04</rscale>
<asrwt>0</asrwt>
<pdfrwt beam="1">  1        2 0.33084694E+00 0.20872935E+04</pdfrwt>
<pdfrwt beam="2">  1       -1 0.77920769E-01 0.20872935E+04</pdfrwt>
<totfact> 0.95366835E+00</totfact>
</mgrwt>
</event>
<event>
12    6  0.1530859E-007  0.1889664E+04  0.7818608E-02  0.8660018E-01
         -1   -1    0    0    0  501 -0.00000000000E+00  0.00000000000E+00  0.54422996424E+03  0.54422996424E+03  0.00000000000E+00 0.  1.
          2   -1    0    0  501    0  0.00000000000E+00 -0.00000000000E+00 -0.16403136669E+04  0.16403136669E+04  0.00000000000E+00 0. -1.
         24    2    1    2    0    0 -0.27699372095E+03  0.51979743193E+03  0.68202353047E+02  0.59815197919E+03  0.78862776768E+02 0.  0.
        254    2    1    2    0    0  0.27699372095E+03 -0.51979743193E+03 -0.11642860557E+04  0.15863916520E+04  0.90230901701E+03 0.  0.
         23    2    4    4    0    0  0.26056840241E+03 -0.10743816484E+03 -0.11243913448E+04  0.11627457262E+04  0.91010306461E+02 0.  0.
         23    2    4    4    0    0  0.16425318544E+02 -0.41235926709E+03 -0.39894710868E+02  0.42364592573E+03  0.87030604932E+02 0.  0.
          4    1    3    3  502    0 -0.21652610684E+03  0.34137033527E+03  0.25974136991E+02  0.40508260458E+03  0.00000000000E+00 0. -1.
         -3    1    3    3    0  502 -0.60467614116E+02  0.17842709666E+03  0.42228216056E+02  0.19306937460E+03  0.00000000000E+00 0.  1.
         11    1    5    5    0    0  0.52148839937E+02 -0.21253726183E+02 -0.10991164555E+03  0.12349814659E+03  0.00000000000E+00 0. -1.
        -11    1    5    5    0    0  0.20841956247E+03 -0.86184438657E+02 -0.10144796993E+04  0.10392475796E+04  0.00000000000E+00 0.  1.
          4    1    6    6  503    0 -0.14550407550E+02 -0.13473215732E+02  0.65222431920E+01  0.20875381632E+02  0.00000000000E+00 0. -1.
         -4    1    6    6    0  503  0.30975726094E+02 -0.39888605135E+03 -0.46416954060E+02  0.40277054410E+03  0.00000000000E+00 0.  1.
<mgrwt>
<rscale>  0 0.18896644E+04</rscale>
<asrwt>0</asrwt>
<pdfrwt beam="1">  1        2 0.25235595E+00 0.18896644E+04</pdfrwt>
<pdfrwt beam="2">  1       -1 0.83727685E-01 0.18896644E+04</pdfrwt>
<totfact> 0.15991619E+01</totfact>
</mgrwt>
</event>
<event>
12    6  0.1530859E-007  0.1775217E+04  0.7818608E-02  0.8719591E-01
         -1   -1    0    0    0  501 -0.00000000000E+00  0.00000000000E+00  0.16566383524E+04  0.16566383524E+04  0.00000000000E+00 0.  1.
          2   -1    0    0  501    0  0.00000000000E+00 -0.00000000000E+00 -0.47557075425E+03  0.47557075425E+03  0.00000000000E+00 0. -1.
         24    2    1    2    0    0  0.69500436421E+02  0.55633443743E+03 -0.45336947604E+02  0.56791897561E+03  0.78346710899E+02 0.  0.
        254    2    1    2    0    0 -0.69500436421E+02 -0.55633443743E+03  0.12264045458E+04  0.15642901311E+04  0.79284121191E+03 0.  0.
         23    2    4    4    0    0 -0.36240833741E+03 -0.23065489181E+03  0.92839393055E+03  0.10270144296E+04  0.91114577082E+02 0.  0.
         23    2    4    4    0    0  0.29290790099E+03 -0.32567954562E+03  0.29801061522E+03  0.53727570147E+03  0.89401609110E+02 0.  0.
          4    1    3    3  502    0  0.83939911874E+02  0.49384476268E+03 -0.29168925410E+02  0.50177622965E+03  0.00000000000E+00 0. -1.
         -3    1    3    3    0  502 -0.14439475453E+02  0.62489674749E+02 -0.16168022195E+02  0.66142745961E+02  0.00000000000E+00 0.  1.
         11    1    5    5    0    0 -0.77080895391E+02 -0.26660290579E+02  0.25534010921E+03  0.26805000821E+03  0.00000000000E+00 0. -1.
        -11    1    5    5    0    0 -0.28532744202E+03 -0.20399460123E+03  0.67305382134E+03  0.75896442138E+03  0.00000000000E+00 0.  1.
          4    1    6    6  503    0  0.44441122506E+02 -0.99636986821E+02  0.95896828876E+02  0.14525406810E+03  0.00000000000E+00 0. -1.
         -4    1    6    6    0  503  0.24846677848E+03 -0.22604255880E+03  0.20211378634E+03  0.39202163336E+03  0.00000000000E+00 0.  1.
<mgrwt>
<rscale>  0 0.17752169E+04</rscale>
<asrwt>0</asrwt>
<pdfrwt beam="1">  1        2 0.73164733E-01 0.17752169E+04</pdfrwt>
<pdfrwt beam="2">  1       -1 0.25486743E+00 0.17752169E+04</pdfrwt>
<totfact> 0.45733289E+00</totfact>
</mgrwt>
</event>
<event>
12    6  0.1530859E-007  0.1239845E+04  0.7818608E-02  0.9078678E-01
          2   -1    0    0  501    0  0.00000000000E+00  0.00000000000E+00  0.13628477928E+04  0.13628477928E+04  0.00000000000E+00 0. -1.
         -1   -1    0    0    0  501 -0.00000000000E+00 -0.00000000000E+00 -0.28198570627E+03  0.28198570627E+03  0.00000000000E+00 0.  1.
         24    2    1    2    0    0  0.19857016899E+03 -0.70997295785E+02  0.49435333958E+03  0.54339790452E+03  0.80158157811E+02 0.  0.
        254    2    1    2    0    0 -0.19857016899E+03  0.70997295785E+02  0.58650874693E+03  0.11014355945E+04  0.90812836683E+03 0.  0.
         23    2    4    4    0    0 -0.82099520159E+02 -0.33073838603E+03 -0.26887257979E+02  0.35362071318E+03  0.90534374384E+02 0.  0.
         23    2    4    4    0    0 -0.11647064883E+03  0.40173568181E+03  0.61339600491E+03  0.74781488135E+03  0.89529145228E+02 0.  0.
          4    1    3    3  502    0  0.88396929572E+02 -0.39462638087E+02  0.32348062505E+03  0.33765519653E+03  0.00000000000E+00 0. -1.
         -3    1    3    3    0  502  0.11017323942E+03 -0.31534657698E+02  0.17087271453E+03  0.20574270799E+03  0.00000000000E+00 0.  1.
         11    1    5    5    0    0 -0.44983356429E+02 -0.96440220336E+02  0.28200577485E+02  0.11008855992E+03  0.00000000000E+00 0. -1.
        -11    1    5    5    0    0 -0.37116163731E+02 -0.23429816569E+03 -0.55087835464E+02  0.24353215326E+03  0.00000000000E+00 0.  1.
          3    1    6    6  503    0  0.97012378064E+01  0.36429861118E+02  0.30793986579E+02  0.48677699263E+02  0.00000000000E+00 0. -1.
         -3    1    6    6    0  503 -0.12617188664E+03  0.36530582070E+03  0.58260201833E+03  0.69913718209E+03  0.00000000000E+00 0.  1.
<mgrwt>
<rscale>  0 0.12398445E+04</rscale>
<asrwt>0</asrwt>
<pdfrwt beam="1">  1        2 0.20966889E+00 0.12398445E+04</pdfrwt>
<pdfrwt beam="2">  1       -1 0.43382417E-01 0.12398445E+04</pdfrwt>
<totfact> 0.89353818E+01</totfact>
</mgrwt>
</event>
<event>
12    6  0.1530859E-007  0.2306377E+04  0.7818608E-02  0.8475411E-01
         -1   -1    0    0    0  501 -0.00000000000E+00  0.00000000000E+00  0.78222419740E+03  0.78222419740E+03  0.00000000000E+00 0.  1.
          2   -1    0    0  501    0  0.00000000000E+00 -0.00000000000E+00 -0.17000793931E+04  0.17000793931E+04  0.00000000000E+00 0. -1.
         24    2    1    2    0    0 -0.69185814858E+03  0.17627083798E+03 -0.11003305477E+04  0.13141613008E+04  0.80953717126E+02 0.  0.
        254    2    1    2    0    0  0.69185814858E+03 -0.17627083798E+03  0.18247535199E+03  0.11681422897E+04  0.90637743177E+03 0.  0.
         23    2    4    4    0    0  0.85476564465E+03 -0.14451764101E+03  0.32546032814E+03  0.93109754857E+03  0.97511865528E+02 0.  0.
         23    2    4    4    0    0 -0.16290749608E+03 -0.31753196972E+02 -0.14298497616E+03  0.23704474113E+03  0.90544950678E+02 0.  0.
          2    1    3    3  502    0 -0.69213517866E+03  0.17831084292E+03 -0.11003486212E+04  0.13121024923E+04  0.00000000000E+00 0. -1.
         -1    1    3    3    0  502  0.27703008692E+00 -0.20400049413E+01  0.18073464750E-01  0.20588085098E+01  0.00000000000E+00 0.  1.
         11    1    5    5    0    0  0.83092651004E+03 -0.15124595412E+03  0.30191105348E+03  0.89691944339E+03  0.00000000000E+00 0. -1.
        -11    1    5    5    0    0  0.23839134612E+02  0.67283131065E+01  0.23549274665E+02  0.34178105178E+02  0.00000000000E+00 0.  1.
          2    1    6    6  503    0 -0.53828779359E+02 -0.22021976009E+02 -0.10697781220E+03  0.12176517243E+03  0.00000000000E+00 0. -1.
         -2    1    6    6    0  503 -0.10907871672E+03 -0.97312209631E+01 -0.36007163959E+02  0.11527956870E+03  0.00000000000E+00 0.  1.
<mgrwt>
<rscale>  0 0.23063766E+04</rscale>
<asrwt>0</asrwt>
<pdfrwt beam="1">  1        2 0.26155067E+00 0.23063766E+04</pdfrwt>
<pdfrwt beam="2">  1       -1 0.12034219E+00 0.23063766E+04</pdfrwt>
<totfact> 0.62200383E+00</totfact>
</mgrwt>
</event>
<event>
12    6  0.2070700E-007  0.1274176E+04  0.7818608E-02  0.9050298E-01
         -1   -1    0    0    0  501 -0.00000000000E+00  0.00000000000E+00  0.16808133166E+03  0.16808133166E+03  0.00000000000E+00 0.  1.
          2   -1    0    0  501    0  0.00000000000E+00 -0.00000000000E+00 -0.24147911889E+04  0.24147911889E+04  0.00000000000E+00 0. -1.
         24    2    1    2    0    0 -0.32520236797E+02  0.20526382300E+03 -0.10637799792E+04  0.10869922038E+04  0.82057321752E+02 0.  0.
        254    2    1    2    0    0  0.32520236797E+02 -0.20526382300E+03 -0.11829298780E+04  0.14958803168E+04  0.89170848542E+03 0.  0.
         23    2    4    4    0    0  0.17225978398E+02  0.57250233423E+02 -0.12100433238E+04  0.12150015342E+04  0.91921483365E+02 0.  0.
         23    2    4    4    0    0  0.15294258399E+02 -0.26251405642E+03  0.27113445814E+02  0.28087878253E+03  0.94922112141E+02 0.  0.
          4    1    3    3  502    0 -0.33253818547E+02  0.19032204344E+03 -0.10462820924E+04  0.10639711056E+04  0.00000000000E+00 0. -1.
         -3    1    3    3    0  502  0.73358174998E+00  0.14941779558E+02 -0.17497886839E+02  0.23021098201E+02  0.00000000000E+00 0.  1.
         11    1    5    5    0    0  0.85310782346E+01  0.55496746999E+02 -0.12010786761E+04  0.12023903919E+04  0.00000000000E+00 0. -1.
        -11    1    5    5    0    0  0.86949001634E+01  0.17534864235E+01 -0.89646477191E+01  0.12611142384E+02  0.00000000000E+00 0.  1.
          2    1    6    6  503    0  0.41186224714E+02 -0.18328563799E+03  0.50087247771E+02  0.19441878147E+03  0.00000000000E+00 0. -1.
         -2    1    6    6    0  503 -0.25891966314E+02 -0.79228418431E+02 -0.22973801957E+02  0.86460001058E+02  0.00000000000E+00 0.  1.
<mgrwt>
<rscale>  0 0.12741763E+04</rscale>
<asrwt>0</asrwt>
<pdfrwt beam="1">  1        2 0.37150633E+00 0.12741763E+04</pdfrwt>
<pdfrwt beam="2">  1       -1 0.25858667E-01 0.12741763E+04</pdfrwt>
<totfact> 0.57866114E+01</totfact>
</mgrwt>
</event>
<event>
12    6  0.1530859E-007  0.2310219E+04  0.7818608E-02  0.8473903E-01
          2   -1    0    0  501    0  0.00000000000E+00  0.00000000000E+00  0.31045095324E+04  0.31045095324E+04  0.00000000000E+00 0. -1.
         -1   -1    0    0    0  501 -0.00000000000E+00 -0.00000000000E+00 -0.42978702851E+03  0.42978702851E+03  0.00000000000E+00 0.  1.
         24    2    1    2    0    0  0.25631941081E+03  0.52930852724E+03  0.23273410630E+04  0.24017664486E+04  0.78092849598E+02 0.  0.
        254    2    1    2    0    0 -0.25631941081E+03 -0.52930852724E+03  0.34738144093E+03  0.11325301123E+04  0.90337336263E+03 0.  0.
         23    2    4    4    0    0 -0.58763423399E+03 -0.37305450401E+03  0.22644581712E+03  0.73728085540E+03  0.88440351259E+02 0.  0.
         23    2    4    4    0    0  0.33131482319E+03 -0.15625402323E+03  0.12093562380E+03  0.39524925686E+03  0.86091335826E+02 0.  0.
          2    1    3    3  502    0  0.15035063360E+03  0.22535481945E+03  0.11110705319E+04  0.11436204941E+04  0.00000000000E+00 0. -1.
         -1    1    3    3    0  502  0.10596877721E+03  0.30395370779E+03  0.12162705311E+04  0.12581459545E+04  0.00000000000E+00 0.  1.
         11    1    5    5    0    0 -0.56396981507E+03 -0.35982810953E+03  0.19728826244E+03  0.69746747538E+03  0.00000000000E+00 0. -1.
        -11    1    5    5    0    0 -0.23664418921E+02 -0.13226394480E+02  0.29157554679E+02  0.39813380021E+02  0.00000000000E+00 0.  1.
          3    1    6    6  503    0  0.23714297463E+03 -0.12880623735E+03  0.12426580764E+03  0.29710238664E+03  0.00000000000E+00 0. -1.
         -3    1    6    6    0  503  0.94171848553E+02 -0.27447785881E+02 -0.33301838364E+01  0.98146870220E+02  0.00000000000E+00 0.  1.
<mgrwt>
<rscale>  0 0.23102190E+04</rscale>
<asrwt>0</asrwt>
<pdfrwt beam="1">  1        2 0.47761684E+00 0.23102190E+04</pdfrwt>
<pdfrwt beam="2">  1       -1 0.66121083E-01 0.23102190E+04</pdfrwt>
<totfact> 0.35748539E+00</totfact>
</mgrwt>
</event>
<event>
12    6  0.1530859E-007  0.1727088E+04  0.7818608E-02  0.8746064E-01
          2   -1    0    0  501    0  0.00000000000E+00  0.00000000000E+00  0.10449842328E+04  0.10449842328E+04  0.00000000000E+00 0. -1.
         -1   -1    0    0    0  501 -0.00000000000E+00 -0.00000000000E+00 -0.71360721205E+03  0.71360721205E+03  0.00000000000E+00 0.  1.
         24    2    1    2    0    0  0.56572113945E+03  0.20158530157E+03  0.27970197300E+03  0.66767955489E+03  0.82980436714E+02 0.  0.
        254    2    1    2    0    0 -0.56572113945E+03 -0.20158530157E+03  0.51675047696E+02  0.10909118899E+04  0.90925320982E+03 0.  0.
         23    2    4    4    0    0 -0.33374198705E+03  0.27849788877E+03  0.25543795085E+03  0.51217779472E+03  0.90181809150E+02 0.  0.
         23    2    4    4    0    0 -0.23197915241E+03 -0.48008319034E+03 -0.20376290315E+03  0.57873409520E+03  0.95496782359E+02 0.  0.
          4    1    3    3  502    0  0.44435917080E+03  0.17962488496E+03  0.25105841575E+03  0.54106422917E+03  0.00000000000E+00 0. -1.
         -3    1    3    3    0  502  0.12136196865E+03  0.21960416608E+02  0.28643557250E+02  0.12661532571E+03  0.00000000000E+00 0.  1.
         11    1    5    5    0    0 -0.10781796607E+03  0.60817655214E+02  0.34651959597E+02  0.12854672029E+03  0.00000000000E+00 0.  1.
        -11    1    5    5    0    0 -0.22592402098E+03  0.21768023356E+03  0.22078599125E+03  0.38363107443E+03  0.00000000000E+00 0. -1.
          4    1    6    6  503    0 -0.12829575107E+03 -0.16132136220E+03 -0.87849007095E+02  0.22405764815E+03  0.00000000000E+00 0. -1.
         -4    1    6    6    0  503 -0.10368340133E+03 -0.31876182814E+03 -0.11591389606E+03  0.35467644705E+03  0.00000000000E+00 0.  1.
<mgrwt>
<rscale>  0 0.17270881E+04</rscale>
<asrwt>0</asrwt>
<pdfrwt beam="1">  1        2 0.16076681E+00 0.17270881E+04</pdfrwt>
<pdfrwt beam="2">  1       -1 0.10978572E+00 0.17270881E+04</pdfrwt>
<totfact> 0.19585660E+01</totfact>
</mgrwt>
</event>
<event>
12    6  0.1530859E-007  0.2146604E+04  0.7818608E-02  0.8540987E-01
          2   -1    0    0  501    0  0.00000000000E+00  0.00000000000E+00  0.20537244712E+04  0.20537244712E+04  0.00000000000E+00 0. -1.
         -1   -1    0    0    0  501 -0.00000000000E+00 -0.00000000000E+00 -0.56092101031E+03  0.56092101031E+03  0.00000000000E+00 0.  1.
         24    2    1    2    0    0  0.67622843994E+03  0.16287073750E+03  0.14058273712E+04  0.15704853176E+04  0.79131250917E+02 0.  0.
        254    2    1    2    0    0 -0.67622843994E+03 -0.16287073750E+03  0.86976089657E+02  0.10441601639E+04  0.77388230866E+03 0.  0.
         23    2    4    4    0    0 -0.81546328302E+02  0.23515519092E+03  0.17412758021E+03  0.31689606235E+03  0.90304665814E+02 0.  0.
         23    2    4    4    0    0 -0.59468211164E+03 -0.39802592842E+03 -0.87151490548E+02  0.72726410159E+03  0.96157358276E+02 0.  0.
          2    1    3    3  502    0  0.25794955784E+03  0.86840824681E+02  0.61772164478E+03  0.67502543185E+03  0.00000000000E+00 0. -1.
         -1    1    3    3    0  502  0.41827888210E+03  0.76029912820E+02  0.78810572646E+03  0.89545988572E+03  0.00000000000E+00 0.  1.
         11    1    5    5    0    0 -0.33941545534E-02 -0.78175330899E+01  0.94266104674E+01  0.12246420703E+02  0.00000000000E+00 0. -1.
        -11    1    5    5    0    0 -0.81542934148E+02  0.24297272401E+03  0.16470096974E+03  0.30464964165E+03  0.00000000000E+00 0.  1.
          1    1    6    6  503    0 -0.19438111724E+02 -0.18262066965E+02 -0.22591867741E+02  0.34953336970E+02  0.00000000000E+00 0. -1.
         -1    1    6    6    0  503 -0.57524399991E+03 -0.37976386146E+03 -0.64559622806E+02  0.69231076462E+03  0.00000000000E+00 0.  1.
<mgrwt>
<rscale>  0 0.21466040E+04</rscale>
<asrwt>0</asrwt>
<pdfrwt beam="1">  1        2 0.31595761E+00 0.21466040E+04</pdfrwt>
<pdfrwt beam="2">  1       -1 0.86295541E-01 0.21466040E+04</pdfrwt>
<totfact> 0.86324485E+00</totfact>
</mgrwt>
</event>
<event>
12    6  0.1530859E-007  0.2159841E+04  0.7818608E-02  0.8535332E-01
         -1   -1    0    0    0  501 -0.00000000000E+00  0.00000000000E+00  0.59601332501E+03  0.59601332501E+03  0.00000000000E+00 0.  1.
          2   -1    0    0  501    0  0.00000000000E+00 -0.00000000000E+00 -0.19567145541E+04  0.19567145541E+04  0.00000000000E+00 0. -1.
         24    2    1    2    0    0  0.49319165349E+03  0.48824324246E+03  0.99918744000E+02  0.70556577294E+03  0.78865922027E+02 0.  0.
        254    2    1    2    0    0 -0.49319165349E+03 -0.48824324246E+03 -0.14606199731E+04  0.18471621062E+04  0.89273605832E+03 0.  0.
         23    2    4    4    0    0 -0.30827072926E+03 -0.45763606346E+03 -0.15273066716E+04  0.16265916390E+04  0.93129382904E+02 0.  0.
         23    2    4    4    0    0 -0.18492092423E+03 -0.30607179004E+02  0.66686698480E+02  0.22057046717E+03  0.95245302290E+02 0.  0.
          2    1    3    3  502    0  0.19464502606E+03  0.24759160726E+03  0.49299672849E+02  0.31877695635E+03  0.00000000000E+00 0. -1.
         -1    1    3    3    0  502  0.29854662742E+03  0.24065163520E+03  0.50619071151E+02  0.38678881658E+03  0.00000000000E+00 0.  1.
         11    1    5    5    0    0 -0.93644066392E+02 -0.19790657644E+03 -0.69506872492E+03  0.72873641087E+03  0.00000000000E+00 0.  1.
        -11    1    5    5    0    0 -0.21462666287E+03 -0.25972948702E+03 -0.83223794667E+03  0.89785522816E+03  0.00000000000E+00 0. -1.
          2    1    6    6  503    0 -0.43112360782E+02 -0.51041083187E+02  0.25266210486E+02  0.71430030221E+02  0.00000000000E+00 0. -1.
         -2    1    6    6    0  503 -0.14180856344E+03  0.20433904183E+02  0.41420487994E+02  0.14914043695E+03  0.00000000000E+00 0.  1.
<mgrwt>
<rscale>  0 0.21598407E+04</rscale>
<asrwt>0</asrwt>
<pdfrwt beam="1">  1        2 0.30103301E+00 0.21598407E+04</pdfrwt>
<pdfrwt beam="2">  1       -1 0.91694358E-01 0.21598407E+04</pdfrwt>
<totfact> 0.85441584E+00</totfact>
</mgrwt>
</event>
<event>
12    6  0.1530859E-007  0.1800890E+04  0.7818608E-02  0.8705826E-01
          2   -1    0    0  501    0  0.00000000000E+00  0.00000000000E+00  0.33240016672E+04  0.33240016672E+04  0.00000000000E+00 0. -1.
         -1   -1    0    0    0  501 -0.00000000000E+00 -0.00000000000E+00 -0.24392314336E+03  0.24392314336E+03  0.00000000000E+00 0.  1.
         24    2    1    2    0    0 -0.20133289991E+03  0.59167900675E+02  0.24268387042E+04  0.24372559339E+04  0.81453137683E+02 0.  0.
        254    2    1    2    0    0  0.20133289991E+03 -0.59167900675E+02  0.65323981961E+03  0.11306688767E+04  0.89869576042E+03 0.  0.
         23    2    4    4    0    0  0.33855766971E+02 -0.54625712604E+02  0.84948078386E+03  0.85685353202E+03  0.91924924500E+02 0.  0.
         23    2    4    4    0    0  0.16747713294E+03 -0.45421880708E+01 -0.19624096425E+03  0.27381534470E+03  0.91624807853E+02 0.  0.
          2    1    3    3  502    0 -0.14739701325E+03  0.44527656942E+02  0.21030678985E+04  0.21086970331E+04  0.00000000000E+00 0. -1.
         -1    1    3    3    0  502 -0.53935886654E+02  0.14640243733E+02  0.32377080571E+03  0.32855890071E+03  0.00000000000E+00 0.  1.
         11    1    5    5    0    0  0.29503963674E+02  0.19053634252E+02  0.37831892623E+03  0.37994569980E+03  0.00000000000E+00 0. -1.
        -11    1    5    5    0    0  0.43518032971E+01 -0.73679346856E+02  0.47116185763E+03  0.47690783222E+03  0.00000000000E+00 0.  1.
          1    1    6    6  503    0  0.73816890475E+02 -0.46510192411E+02 -0.75795039194E+02  0.11557257150E+03  0.00000000000E+00 0. -1.
         -1    1    6    6    0  503  0.93660242462E+02  0.41968004340E+02 -0.12044592506E+03  0.15824277320E+03  0.00000000000E+00 0.  1.
<mgrwt>
<rscale>  0 0.18008897E+04</rscale>
<asrwt>0</asrwt>
<pdfrwt beam="1">  1        2 0.51138484E+00 0.18008897E+04</pdfrwt>
<pdfrwt beam="2">  1       -1 0.37526640E-01 0.18008897E+04</pdfrwt>
<totfact> 0.79448314E+00</totfact>
</mgrwt>
</event>
<event>
12    6  0.1530859E-007  0.1394770E+04  0.7818608E-02  0.8957613E-01
          2   -1    0    0  501    0  0.00000000000E+00  0.00000000000E+00  0.39028553596E+03  0.39028553596E+03  0.00000000000E+00 0. -1.
         -1   -1    0    0    0  501 -0.00000000000E+00 -0.00000000000E+00 -0.12461282207E+04  0.12461282207E+04  0.00000000000E+00 0.  1.
         24    2    1    2    0    0 -0.10388271687E+03 -0.17927895161E+03 -0.67108515404E+03  0.70683348093E+03  0.79534423009E+02 0.  0.
        254    2    1    2    0    0  0.10388271687E+03  0.17927895161E+03 -0.18475753068E+03  0.92958027570E+03  0.88715927683E+03 0.  0.
         23    2    4    4    0    0  0.12044106457E+03  0.16756584677E+03  0.33332765104E+03  0.40378605443E+03  0.96703111472E+02 0.  0.
         23    2    4    4    0    0 -0.16558347698E+02  0.11713104846E+02 -0.51808518173E+03  0.52579422127E+03  0.87383819364E+02 0.  0.
          4    1    3    3  502    0 -0.40093258238E+02 -0.11431042892E+02 -0.10592369361E+03  0.11383306622E+03  0.00000000000E+00 0. -1.
         -3    1    3    3    0  502 -0.63789458633E+02 -0.16784790872E+03 -0.56516146043E+03  0.59300041471E+03  0.00000000000E+00 0.  1.
         11    1    5    5    0    0  0.12690170546E+03  0.15836640715E+03  0.26111572346E+03  0.33070437373E+03  0.00000000000E+00 0. -1.
        -11    1    5    5    0    0 -0.64606408902E+01  0.91994396112E+01  0.72211927580E+02  0.73081680705E+02  0.00000000000E+00 0.  1.
          3    1    6    6  503    0 -0.38753133581E+02  0.93032538865E-01 -0.10455537789E+03  0.11150623778E+03  0.00000000000E+00 0. -1.
         -3    1    6    6    0  503  0.22194785884E+02  0.11620072307E+02 -0.41352980384E+03  0.41428798349E+03  0.00000000000E+00 0.  1.
<mgrwt>
<rscale>  0 0.13947700E+04</rscale>
<asrwt>0</asrwt>
<pdfrwt beam="1">  1        2 0.60043930E-01 0.13947700E+04</pdfrwt>
<pdfrwt beam="2">  1       -1 0.19171203E+00 0.13947700E+04</pdfrwt>
<totfact> 0.15655837E+01</totfact>
</mgrwt>
</event>
<event>
12    6  0.1530859E-007  0.1373459E+04  0.7818608E-02  0.8973258E-01
         -1   -1    0    0    0  501 -0.00000000000E+00  0.00000000000E+00  0.46321432661E+03  0.46321432661E+03  0.00000000000E+00 0.  1.
          4   -1    0    0  501    0  0.00000000000E+00 -0.00000000000E+00 -0.10180972278E+04  0.10180972278E+04  0.00000000000E+00 0. -1.
         24    2    1    2    0    0 -0.91181619160E+02 -0.30299231310E+03 -0.33385383290E+03  0.46701260627E+03  0.80771054274E+02 0.  0.
        254    2    1    2    0    0  0.91181619160E+02  0.30299231310E+03 -0.22102906831E+03  0.10142989482E+04  0.93799257871E+03 0.  0.
         23    2    4    4    0    0  0.59896836146E+02  0.40162421988E+03 -0.53046948665E+03  0.67489066216E+03  0.95863885971E+02 0.  0.
         23    2    4    4    0    0  0.31284783014E+02 -0.98631906785E+02  0.30944041834E+03  0.33940828599E+03  0.93475244931E+02 0.  0.
          4    1    3    3  502    0 -0.72750525477E+02 -0.29567901804E+03 -0.29807987498E+03  0.42611070455E+03  0.00000000000E+00 0. -1.
         -3    1    3    3    0  502 -0.18431093683E+02 -0.73132950514E+01 -0.35773957920E+02  0.40901901717E+02  0.00000000000E+00 0.  1.
         11    1    5    5    0    0  0.18302934165E+02  0.57650338692E+01 -0.24641498775E+02  0.31231978427E+02  0.00000000000E+00 0. -1.
        -11    1    5    5    0    0  0.41593901981E+02  0.39585918601E+03 -0.50582798787E+03  0.64365868373E+03  0.00000000000E+00 0.  1.
          2    1    6    6  503    0  0.40134745654E+02 -0.21177982345E+02  0.19973239505E+03  0.20482269009E+03  0.00000000000E+00 0. -1.
         -2    1    6    6    0  503 -0.88499626398E+01 -0.77453924440E+02  0.10970802329E+03  0.13458559590E+03  0.00000000000E+00 0.  1.
<mgrwt>
<rscale>  0 0.13734587E+04</rscale>
<asrwt>0</asrwt>
<pdfrwt beam="1">  1        4 0.15663034E+00 0.13734587E+04</pdfrwt>
<pdfrwt beam="2">  1       -1 0.71263742E-01 0.13734587E+04</pdfrwt>
<totfact> 0.21089413E+00</totfact>
</mgrwt>
</event>
<event>
12    6  0.1530859E-007  0.1698767E+04  0.7818608E-02  0.8762068E-01
          2   -1    0    0  501    0  0.00000000000E+00  0.00000000000E+00  0.16853398594E+04  0.16853398594E+04  0.00000000000E+00 0. -1.
         -1   -1    0    0    0  501 -0.00000000000E+00 -0.00000000000E+00 -0.42807538450E+03  0.42807538450E+03  0.00000000000E+00 0.  1.
         24    2    1    2    0    0  0.76102690920E+02  0.22979505995E+03 -0.23700736391E+03  0.34822299189E+03  0.80556640904E+02 0.  0.
        254    2    1    2    0    0 -0.76102690920E+02 -0.22979505995E+03  0.14942718388E+04  0.17651922520E+04  0.90799667902E+03 0.  0.
         23    2    4    4    0    0  0.13019379544E+03  0.28433360589E+03  0.28977392617E+03  0.43611377612E+03  0.91816521558E+02 0.  0.
         23    2    4    4    0    0 -0.20629648636E+03 -0.51412866584E+03  0.12044979126E+04  0.13290784759E+04  0.93529931914E+02 0.  0.
          2    1    3    3  502    0  0.87577503275E+02  0.14385928425E+03 -0.15719746392E+03  0.23038306232E+03  0.00000000000E+00 0. -1.
         -3    1    3    3    0  502 -0.11474812355E+02  0.85935775703E+02 -0.79809899991E+02  0.11783992957E+03  0.00000000000E+00 0.  1.
         11    1    5    5    0    0  0.23094006168E+02  0.76534956609E+02  0.26946507990E+02  0.84362592403E+02  0.00000000000E+00 0.  1.
        -11    1    5    5    0    0  0.10709978927E+03  0.20779864928E+03  0.26282741818E+03  0.35175118372E+03  0.00000000000E+00 0. -1.
          1    1    6    6  503    0 -0.15422545913E+03 -0.38902262060E+03  0.99684346354E+03  0.10811202442E+04  0.00000000000E+00 0. -1.
         -1    1    6    6    0  503 -0.52071027229E+02 -0.12510604524E+03  0.20765444907E+03  0.24795823167E+03  0.00000000000E+00 0.  1.
<mgrwt>
<rscale>  0 0.16987672E+04</rscale>
<asrwt>0</asrwt>
<pdfrwt beam="1">  1        2 0.25928305E+00 0.16987672E+04</pdfrwt>
<pdfrwt beam="2">  1       -1 0.65857752E-01 0.16987672E+04</pdfrwt>
<totfact> 0.25315291E+01</totfact>
</mgrwt>
</event>
<event>
12    6  0.1530859E-007  0.2039125E+04  0.7818608E-02  0.8588544E-01
          2   -1    0    0  501    0  0.00000000000E+00  0.00000000000E+00  0.15410557810E+04  0.15410557810E+04  0.00000000000E+00 0. -1.
         -1   -1    0    0    0  501 -0.00000000000E+00 -0.00000000000E+00 -0.67454264017E+03  0.67454264017E+03  0.00000000000E+00 0.  1.
         24    2    1    2    0    0  0.76978677177E+03  0.28000557734E+03  0.32032029299E+03  0.88298579587E+03  0.78000181188E+02 0.  0.
        254    2    1    2    0    0 -0.76978677177E+03 -0.28000557734E+03  0.54619284788E+03  0.13326126254E+04  0.89808406334E+03 0.  0.
         23    2    4    4    0    0 -0.10375968926E+03 -0.71921021949E+02  0.60607298281E+03  0.62624791597E+03  0.94463142295E+02 0.  0.
         23    2    4    4    0    0 -0.66602708251E+03 -0.20808455539E+03 -0.59880134927E+02  0.70636470938E+03  0.92055501063E+02 0.  0.
          2    1    3    3  502    0  0.47827194716E+03  0.17340366237E+03  0.23920539795E+03  0.56216733093E+03  0.00000000000E+00 0. -1.
         -1    1    3    3    0  502  0.29151482461E+03  0.10660191497E+03  0.81114895045E+02  0.32081846493E+03  0.00000000000E+00 0.  1.
         11    1    5    5    0    0 -0.24794586565E+02 -0.53136769020E+02  0.12133086164E+03  0.13475706189E+03  0.00000000000E+00 0. -1.
        -11    1    5    5    0    0 -0.78965102699E+02 -0.18784252929E+02  0.48474212117E+03  0.49149085408E+03  0.00000000000E+00 0.  1.
          2    1    6    6  503    0 -0.60992333039E+03 -0.17736128422E+03 -0.77805445083E+02  0.63993529468E+03  0.00000000000E+00 0.  1.
         -2    1    6    6    0  503 -0.56103752111E+02 -0.30723271174E+02  0.17925310157E+02  0.66429414695E+02  0.00000000000E+00 0. -1.
<mgrwt>
<rscale>  0 0.20391251E+04</rscale>
<asrwt>0</asrwt>
<pdfrwt beam="1">  1        2 0.23708551E+00 0.20391251E+04</pdfrwt>
<pdfrwt beam="2">  1       -1 0.10377579E+00 0.20391251E+04</pdfrwt>
<totfact> 0.11109660E+01</totfact>
</mgrwt>
</event>
<event>
12    6  0.1530859E-007  0.1374106E+04  0.7818608E-02  0.8972778E-01
          2   -1    0    0  501    0  0.00000000000E+00  0.00000000000E+00  0.24943023114E+04  0.24943023114E+04  0.00000000000E+00 0. -1.
         -1   -1    0    0    0  501 -0.00000000000E+00 -0.00000000000E+00 -0.18924798109E+03  0.18924798109E+03  0.00000000000E+00 0.  1.
         24    2    1    2    0    0 -0.40601016039E+02 -0.36366612108E+03  0.50177283574E+03  0.62620721458E+03  0.80361724638E+02 0.  0.
        254    2    1    2    0    0  0.40601016039E+02  0.36366612108E+03  0.18032814946E+04  0.20573430779E+04  0.92029066138E+03 0.  0.
         23    2    4    4    0    0 -0.14587131343E+03 -0.26063388776E+03  0.80000553914E+03  0.85771467675E+03  0.80356334696E+02 0.  0.
         23    2    4    4    0    0  0.18647232947E+03  0.62430000884E+03  0.10032759554E+04  0.11996284012E+04  0.89572470221E+02 0.  0.
          4    1    3    3  502    0  0.17648486267E+02 -0.12554532897E+03  0.20795976003E+03  0.24355771490E+03  0.00000000000E+00 0. -1.
         -1    1    3    3    0  502 -0.58249502305E+02 -0.23812079211E+03  0.29381307571E+03  0.38264949969E+03  0.00000000000E+00 0.  1.
         11    1    5    5    0    0 -0.63692683502E+02 -0.81002082744E+02  0.37750894629E+03  0.39131969011E+03  0.00000000000E+00 0. -1.
        -11    1    5    5    0    0 -0.82178629929E+02 -0.17963180502E+03  0.42249659285E+03  0.46639498663E+03  0.00000000000E+00 0.  1.
          2    1    6    6  503    0  0.18169863222E+03  0.54268590682E+03  0.83179058922E+03  0.10096524009E+04  0.00000000000E+00 0. -1.
         -2    1    6    6    0  503  0.47736972537E+01  0.81614102025E+02  0.17148536621E+03  0.18997600022E+03  0.00000000000E+00 0.  1.
<mgrwt>
<rscale>  0 0.13741058E+04</rscale>
<asrwt>0</asrwt>
<pdfrwt beam="1">  1        2 0.38373879E+00 0.13741058E+04</pdfrwt>
<pdfrwt beam="2">  1       -1 0.29115076E-01 0.13741058E+04</pdfrwt>
<totfact> 0.42057198E+01</totfact>
</mgrwt>
</event>
<event>
12    6  0.1530859E-007  0.2077116E+04  0.7818608E-02  0.8571392E-01
          2   -1    0    0  501    0  0.00000000000E+00  0.00000000000E+00  0.15206154851E+04  0.15206154851E+04  0.00000000000E+00 0. -1.
         -1   -1    0    0    0  501 -0.00000000000E+00 -0.00000000000E+00 -0.70931953764E+03  0.70931953764E+03  0.00000000000E+00 0.  1.
         24    2    1    2    0    0 -0.36154263185E+03 -0.39747752309E+03 -0.35894150133E+03  0.65111068172E+03  0.80029135106E+02 0.  0.
        254    2    1    2    0    0  0.36154263185E+03  0.39747752309E+03  0.11702374488E+04  0.15788243410E+04  0.91352567411E+03 0.  0.
         23    2    4    4    0    0  0.18344297602E+03  0.48215734458E+03  0.16428813642E+03  0.54913382781E+03  0.91816875833E+02 0.  0.
         23    2    4    4    0    0  0.17809965582E+03 -0.84679821486E+02  0.10059493123E+04  0.10296905132E+04  0.97151296464E+02 0.  0.
          2    1    3    3  502    0 -0.17543788101E+03 -0.13799620139E+03 -0.13139150552E+03  0.25900797172E+03  0.00000000000E+00 0. -1.
         -1    1    3    3    0  502 -0.18610475084E+03 -0.25948132170E+03 -0.22754999580E+03  0.39210271000E+03  0.00000000000E+00 0.  1.
         11    1    5    5    0    0  0.18455933618E+03  0.45256042415E+03  0.13402644544E+03  0.50679006912E+03  0.00000000000E+00 0.  1.
        -11    1    5    5    0    0 -0.11163601602E+01  0.29596920429E+02  0.30261690977E+02  0.42343758686E+02  0.00000000000E+00 0. -1.
          3    1    6    6  503    0  0.25161055990E+02 -0.12152179366E+02  0.38645277411E+02  0.47688695390E+02  0.00000000000E+00 0. -1.
         -3    1    6    6    0  503  0.15293859983E+03 -0.72527642120E+02  0.96730403493E+03  0.98200181781E+03  0.00000000000E+00 0.  1.
<mgrwt>
<rscale>  0 0.20771156E+04</rscale>
<asrwt>0</asrwt>
<pdfrwt beam="1">  1        2 0.23394084E+00 0.20771156E+04</pdfrwt>
<pdfrwt beam="2">  1       -1 0.10912608E+00 0.20771156E+04</pdfrwt>
<totfact> 0.10109611E+01</totfact>
</mgrwt>
</event>
<event>
12    6  0.1530859E-007  0.2140442E+04  0.7818608E-02  0.8543634E-01
          2   -1    0    0  501    0  0.00000000000E+00  0.00000000000E+00  0.81744169871E+03  0.81744169871E+03  0.00000000000E+00 0. -1.
         -1   -1    0    0    0  501 -0.00000000000E+00 -0.00000000000E+00 -0.14011682618E+04  0.14011682618E+04  0.00000000000E+00 0.  1.
         24    2    1    2    0    0 -0.38042777562E+03 -0.43527361825E+03  0.44818727537E+03  0.73569094654E+03  0.78618825957E+02 0.  0.
        254    2    1    2    0    0  0.38042777562E+03  0.43527361825E+03 -0.10319138384E+04  0.14829190139E+04  0.89443513837E+03 0.  0.
         23    2    4    4    0    0  0.46986391904E+03 -0.10592983962E+03 -0.62089689176E+03  0.79140478162E+03  0.93890067825E+02 0.  0.
         23    2    4    4    0    0 -0.89436143415E+02  0.54120345787E+03 -0.41101694665E+03  0.69151423231E+03  0.91416609502E+02 0.  0.
          4    1    3    3  502    0 -0.25218767891E+03 -0.30663186003E+03  0.34969366890E+03  0.52906274207E+03  0.00000000000E+00 0. -1.
         -3    1    3    3    0  502 -0.12824009672E+03 -0.12864175822E+03  0.98493606475E+02  0.20662820447E+03  0.00000000000E+00 0.  1.
         11    1    5    5    0    0  0.50605492467E+02 -0.14954723685E+01 -0.28242995306E+02  0.57972571871E+02  0.00000000000E+00 0. -1.
        -11    1    5    5    0    0  0.41925842657E+03 -0.10443436725E+03 -0.59265389645E+03  0.73343220975E+03  0.00000000000E+00 0.  1.
          4    1    6    6  503    0  0.50433089085E+00 -0.51868988364E+00  0.34472918394E+01  0.35223869562E+01  0.00000000000E+00 0. -1.
         -4    1    6    6    0  503 -0.89940474306E+02  0.54172214776E+03 -0.41446423849E+03  0.68799184536E+03  0.00000000000E+00 0.  1.
<mgrwt>
<rscale>  0 0.21404424E+04</rscale>
<asrwt>0</asrwt>
<pdfrwt beam="1">  1        2 0.12576026E+00 0.21404424E+04</pdfrwt>
<pdfrwt beam="2">  1       -1 0.21556435E+00 0.21404424E+04</pdfrwt>
<totfact> 0.41338188E+00</totfact>
</mgrwt>
</event>
<event>
12    6  0.1530859E-007  0.1707047E+04  0.7818608E-02  0.8757355E-01
         -1   -1    0    0    0  501 -0.00000000000E+00  0.00000000000E+00  0.34046281182E+03  0.34046281182E+03  0.00000000000E+00 0.  1.
          2   -1    0    0  501    0  0.00000000000E+00 -0.00000000000E+00 -0.21397412764E+04  0.21397412764E+04  0.00000000000E+00 0. -1.
         24    2    1    2    0    0 -0.11884138151E+03  0.49646324949E+03 -0.11411889680E+04  0.12529100903E+04  0.82899949165E+02 0.  0.
        254    2    1    2    0    0  0.11884138151E+03 -0.49646324949E+03 -0.65808949660E+03  0.12272939980E+04  0.90142650274E+03 0.  0.
         23    2    4    4    0    0 -0.97984066319E+02 -0.73321259654E+01  0.18286533654E+03  0.22625610446E+03  0.89985866539E+02 0.  0.
         23    2    4    4    0    0  0.21682544783E+03 -0.48913112352E+03 -0.84095483313E+03  0.10010378935E+04  0.92786324538E+02 0.  0.
          4    1    3    3  502    0 -0.10173085096E+03  0.34544473919E+03 -0.87813883608E+03  0.94910960869E+03  0.00000000000E+00 0. -1.
         -3    1    3    3    0  502 -0.17110530548E+02  0.15101851030E+03 -0.26305013193E+03  0.30380048160E+03  0.00000000000E+00 0.  1.
         11    1    5    5    0    0 -0.20003641457E+01  0.24936017022E+02  0.71430867405E+02  0.75684709287E+02  0.00000000000E+00 0. -1.
        -11    1    5    5    0    0 -0.95983702174E+02 -0.32268142987E+02  0.11143446913E+03  0.15057139518E+03  0.00000000000E+00 0.  1.
          3    1    6    6  503    0  0.20861239363E+02 -0.89320418355E+01 -0.53669851220E+02  0.58270280668E+02  0.00000000000E+00 0. -1.
         -3    1    6    6    0  503  0.19596420847E+03 -0.48019908169E+03 -0.78728498191E+03  0.94276761283E+03  0.00000000000E+00 0.  1.
<mgrwt>
<rscale>  0 0.17070470E+04</rscale>
<asrwt>0</asrwt>
<pdfrwt beam="1">  1        2 0.32919097E+00 0.17070470E+04</pdfrwt>
<pdfrwt beam="2">  1       -1 0.52378894E-01 0.17070470E+04</pdfrwt>
<totfact> 0.22209278E+01</totfact>
</mgrwt>
</event>
<event>
12    6  0.1530859E-007  0.2472777E+04  0.7818608E-02  0.8412748E-01
          2   -1    0    0  501    0  0.00000000000E+00  0.00000000000E+00  0.27976962509E+04  0.27976962509E+04  0.00000000000E+00 0. -1.
         -1   -1    0    0    0  501 -0.00000000000E+00 -0.00000000000E+00 -0.54639836572E+03  0.54639836572E+03  0.00000000000E+00 0.  1.
         24    2    1    2    0    0  0.82936546995E+03 -0.19866164617E+03  0.17984320116E+04  0.19920347217E+04  0.80815219149E+02 0.  0.
        254    2    1    2    0    0 -0.82936546995E+03  0.19866164617E+03  0.45286587361E+03  0.13520598950E+04  0.94639575636E+03 0.  0.
         23    2    4    4    0    0 -0.80559742529E+03  0.48409052256E+03  0.21274233884E+03  0.96731733588E+03  0.84336705477E+02 0.  0.
         23    2    4    4    0    0 -0.23768044666E+02 -0.28542887639E+03  0.24012353477E+03  0.38474255908E+03  0.91285055695E+02 0.  0.
          4    1    3    3  502    0  0.38192959234E+03 -0.10244886203E+03  0.74378677114E+03  0.84236853203E+03  0.00000000000E+00 0. -1.
         -3    1    3    3    0  502  0.44743587761E+03 -0.96212784141E+02  0.10546452404E+04  0.11496661896E+04  0.00000000000E+00 0.  1.
         11    1    5    5    0    0 -0.27910034731E+03  0.21522961099E+03  0.81677582186E+02  0.36179001748E+03  0.00000000000E+00 0. -1.
        -11    1    5    5    0    0 -0.52649707798E+03  0.26886091157E+03  0.13106475666E+03  0.60552731840E+03  0.00000000000E+00 0.  1.
          3    1    6    6  503    0  0.22283366072E+02 -0.16472018357E+02  0.23741377365E+02  0.36490119094E+02  0.00000000000E+00 0. -1.
         -3    1    6    6    0  503 -0.46051410738E+02 -0.26895685804E+03  0.21638215740E+03  0.34825243999E+03  0.00000000000E+00 0.  1.
<mgrwt>
<rscale>  0 0.24727771E+04</rscale>
<asrwt>0</asrwt>
<pdfrwt beam="1">  1        2 0.43041480E+00 0.24727771E+04</pdfrwt>
<pdfrwt beam="2">  1       -1 0.84061289E-01 0.24727771E+04</pdfrwt>
<totfact> 0.33075780E+00</totfact>
</mgrwt>
</event>
<event>
12    6  0.1530859E-007  0.2260019E+04  0.7818608E-02  0.8493854E-01
         -1   -1    0    0    0  501 -0.00000000000E+00  0.00000000000E+00  0.82709748677E+03  0.82709748677E+03  0.00000000000E+00 0.  1.
          2   -1    0    0  501    0  0.00000000000E+00 -0.00000000000E+00 -0.15438586327E+04  0.15438586327E+04  0.00000000000E+00 0. -1.
         24    2    1    2    0    0 -0.76908132772E+02 -0.75047083976E+03  0.30314474633E+03  0.81677486686E+03  0.78122363504E+02 0.  0.
        254    2    1    2    0    0  0.76908132772E+02  0.75047083976E+03 -0.10199058923E+04  0.15541812526E+04  0.89785856050E+03 0.  0.
         23    2    4    4    0    0 -0.28626945366E+03  0.15853674325E+03 -0.71025155667E+03  0.78790150285E+03  0.96163430596E+02 0.  0.
         23    2    4    4    0    0  0.36317758643E+03  0.59193409651E+03 -0.30965433561E+03  0.76627974977E+03  0.94946898044E+02 0.  0.
          4    1    3    3  502    0 -0.30505561397E+02 -0.81385984166E+02  0.22851928918E+02  0.89869229162E+02  0.00000000000E+00 0. -1.
         -3    1    3    3    0  502 -0.46402571375E+02 -0.66908485560E+03  0.28029281741E+03  0.72690563770E+03  0.00000000000E+00 0.  1.
         11    1    5    5    0    0 -0.23897882353E+03  0.87294862504E+02 -0.55838787906E+03  0.61361901421E+03  0.00000000000E+00 0.  1.
        -11    1    5    5    0    0 -0.47290630129E+02  0.71241880751E+02 -0.15186367761E+03  0.17428248864E+03  0.00000000000E+00 0. -1.
          2    1    6    6  503    0  0.21755193084E+03  0.27821470907E+03 -0.12838229270E+03  0.37578488532E+03  0.00000000000E+00 0. -1.
         -2    1    6    6    0  503  0.14562565559E+03  0.31371938744E+03 -0.18127204291E+03  0.39049486446E+03  0.00000000000E+00 0.  1.
<mgrwt>
<rscale>  0 0.22600191E+04</rscale>
<asrwt>0</asrwt>
<pdfrwt beam="1">  1        2 0.23751671E+00 0.22600191E+04</pdfrwt>
<pdfrwt beam="2">  1       -1 0.12724577E+00 0.22600191E+04</pdfrwt>
<totfact> 0.66499713E+00</totfact>
</mgrwt>
</event>
<event>
12    6  0.1530859E-007  0.2146375E+04  0.7818608E-02  0.8541086E-01
          2   -1    0    0  501    0  0.00000000000E+00  0.00000000000E+00  0.11771357148E+04  0.11771357148E+04  0.00000000000E+00 0. -1.
         -1   -1    0    0    0  501 -0.00000000000E+00 -0.00000000000E+00 -0.97841844860E+03  0.97841844860E+03  0.00000000000E+00 0.  1.
         24    2    1    2    0    0  0.11082036117E+03 -0.65841353314E+03 -0.49223780235E+03  0.83338921193E+03  0.80311838677E+02 0.  0.
        254    2    1    2    0    0 -0.11082036117E+03  0.65841353314E+03  0.69095506851E+03  0.13221649514E+04  0.90824650784E+03 0.  0.
         23    2    4    4    0    0  0.32092428678E+03  0.22700343892E+02  0.10113691033E+03  0.34923030146E+03  0.90694130842E+02 0.  0.
         23    2    4    4    0    0 -0.43174464794E+03  0.63571318925E+03  0.58981815818E+03  0.97293464997E+03  0.90452602912E+02 0.  0.
          4    1    3    3  502    0  0.10839094880E+02 -0.13686986094E+03 -0.14036935405E+03  0.19635274474E+03  0.00000000000E+00 0. -1.
         -3    1    3    3    0  502  0.99981266288E+02 -0.52154367221E+03 -0.35186844830E+03  0.63703646719E+03  0.00000000000E+00 0.  1.
         11    1    5    5    0    0  0.86031132168E+02  0.46334334469E+02  0.38100140950E+02  0.10488015538E+03  0.00000000000E+00 0. -1.
        -11    1    5    5    0    0  0.23489315461E+03 -0.23633990577E+02  0.63036769377E+02  0.24435014607E+03  0.00000000000E+00 0.  1.
          1    1    6    6  503    0 -0.55886044668E+02  0.37989738875E+02  0.46829504353E+02  0.82216012591E+02  0.00000000000E+00 0. -1.
         -1    1    6    6    0  503 -0.37585860328E+03  0.59772345038E+03  0.54298865383E+03  0.89071863738E+03  0.00000000000E+00 0.  1.
<mgrwt>
<rscale>  0 0.21463749E+04</rscale>
<asrwt>0</asrwt>
<pdfrwt beam="1">  1        2 0.18109780E+00 0.21463749E+04</pdfrwt>
<pdfrwt beam="2">  1       -1 0.15052592E+00 0.21463749E+04</pdfrwt>
<totfact> 0.70723986E+00</totfact>
</mgrwt>
</event>
<event>
12    6  0.1530859E-007  0.2167700E+04  0.7818608E-02  0.8531994E-01
          2   -1    0    0  501    0  0.00000000000E+00  0.00000000000E+00  0.37645078998E+03  0.37645078998E+03  0.00000000000E+00 0. -1.
         -1   -1    0    0    0  501 -0.00000000000E+00 -0.00000000000E+00 -0.31205435319E+04  0.31205435319E+04  0.00000000000E+00 0.  1.
         24    2    1    2    0    0 -0.27405147297E+03  0.76553652970E+03 -0.17794781189E+04  0.19581262785E+04  0.81029368959E+02 0.  0.
        254    2    1    2    0    0  0.27405147297E+03 -0.76553652970E+03 -0.96461462300E+03  0.15388680434E+04  0.88118278235E+03 0.  0.
         23    2    4    4    0    0 -0.16646307277E+03 -0.58951811867E+02  0.67477818252E+02  0.20989043951E+03  0.91189198487E+02 0.  0.
         23    2    4    4    0    0  0.44051454574E+03 -0.70658471783E+03 -0.10320924413E+04  0.13289776039E+04  0.87473629410E+02 0.  0.
          2    1    3    3  502    0 -0.45728535583E+02  0.79281154547E+02 -0.15658941274E+03  0.18137487317E+03  0.00000000000E+00 0. -1.
         -1    1    3    3    0  502 -0.22832293738E+03  0.68625537515E+03 -0.16228887062E+04  0.17767514053E+04  0.00000000000E+00 0.  1.
         11    1    5    5    0    0  0.55653593120E+01 -0.10899241406E+02  0.22638443919E+02  0.25734526041E+02  0.00000000000E+00 0.  1.
        -11    1    5    5    0    0 -0.17202843209E+03 -0.48052570462E+02  0.44839374333E+02  0.18415591347E+03  0.00000000000E+00 0. -1.
          1    1    6    6  503    0  0.43413634721E+03 -0.69872601602E+03 -0.10307559402E+04  0.13187684489E+04  0.00000000000E+00 0. -1.
         -1    1    6    6    0  503  0.63781985324E+01 -0.78587018171E+01 -0.13365010066E+01  0.10209154995E+02  0.00000000000E+00 0.  1.
<mgrwt>
<rscale>  0 0.21677002E+04</rscale>
<asrwt>0</asrwt>
<pdfrwt beam="1">  1        2 0.57915502E-01 0.21677002E+04</pdfrwt>
<pdfrwt beam="2">  1       -1 0.48008365E+00 0.21677002E+04</pdfrwt>
<totfact> 0.17945781E-01</totfact>
</mgrwt>
</event>
<event>
12    6  0.1530859E-007  0.2185484E+04  0.7818608E-02  0.8524494E-01
          2   -1    0    0  501    0  0.00000000000E+00  0.00000000000E+00  0.12295728964E+04  0.12295728964E+04  0.00000000000E+00 0. -1.
         -1   -1    0    0    0  501 -0.00000000000E+00 -0.00000000000E+00 -0.97113785123E+03  0.97113785123E+03  0.00000000000E+00 0.  1.
         24    2    1    2    0    0 -0.42890594284E+03  0.69411975930E+03  0.51939503354E+03  0.97050217067E+03  0.79628602659E+02 0.  0.
        254    2    1    2    0    0  0.42890594284E+03 -0.69411975930E+03 -0.26095998835E+03  0.12302085770E+04  0.88292155898E+03 0.  0.
         23    2    4    4    0    0 -0.17838351718E+03 -0.48121957255E+02  0.14012275939E+03  0.25304089372E+03  0.10128624894E+03 0.  0.
         23    2    4    4    0    0  0.60728946002E+03 -0.64599780204E+03 -0.40108274773E+03  0.97716768326E+03  0.88744927737E+02 0.  0.
          2    1    3    3  502    0 -0.34528419296E+03  0.58538136537E+03  0.46209331058E+03  0.82184107011E+03  0.00000000000E+00 0. -1.
         -1    1    3    3    0  502 -0.83621749883E+02  0.10873839392E+03  0.57301722957E+02  0.14866110056E+03  0.00000000000E+00 0.  1.
         11    1    5    5    0    0 -0.17731926097E+03 -0.15770144904E+02  0.11343476453E+03  0.21108828387E+03  0.00000000000E+00 0. -1.
        -11    1    5    5    0    0 -0.10642562037E+01 -0.32351812351E+02  0.26687994855E+02  0.41952609848E+02  0.00000000000E+00 0.  1.
          1    1    6    6  503    0  0.54049885378E+03 -0.58612959163E+03 -0.38740292040E+03  0.88643552042E+03  0.00000000000E+00 0. -1.
         -1    1    6    6    0  503  0.66790606236E+02 -0.59868210405E+02 -0.13679827333E+02  0.90732162844E+02  0.00000000000E+00 0.  1.
<mgrwt>
<rscale>  0 0.21854837E+04</rscale>
<asrwt>0</asrwt>
<pdfrwt beam="1">  1        2 0.18916506E+00 0.21854837E+04</pdfrwt>
<pdfrwt beam="2">  1       -1 0.14940582E+00 0.21854837E+04</pdfrwt>
<totfact> 0.66912487E+00</totfact>
</mgrwt>
</event>
<event>
12    6  0.1530859E-007  0.1271640E+04  0.7818608E-02  0.9052362E-01
         -1   -1    0    0    0  501 -0.00000000000E+00  0.00000000000E+00  0.24163853982E+03  0.24163853982E+03  0.00000000000E+00 0.  1.
          2   -1    0    0  501    0  0.00000000000E+00 -0.00000000000E+00 -0.16730250980E+04  0.16730250980E+04  0.00000000000E+00 0. -1.
         24    2    1    2    0    0 -0.20330563824E+03  0.40174522664E+02 -0.46747003410E+01  0.22134227289E+03  0.77610399660E+02 0.  0.
        254    2    1    2    0    0  0.20330563824E+03 -0.40174522664E+02 -0.14267118578E+04  0.16933213649E+04  0.88819105196E+03 0.  0.
         23    2    4    4    0    0 -0.16188928948E+03  0.30497160837E+03 -0.34228851683E+03  0.49447483796E+03  0.90156046201E+02 0.  0.
         23    2    4    4    0    0  0.36519492772E+03 -0.34514613104E+03 -0.10844233410E+04  0.11988465269E+04  0.93625988223E+02 0.  0.
          4    1    3    3  502    0 -0.84146151791E+02  0.23431169064E+02  0.35782984564E+02  0.94392883891E+02  0.00000000000E+00 0. -1.
         -3    1    3    3    0  502 -0.11915948645E+03  0.16743353600E+02 -0.40457684905E+02  0.12694938900E+03  0.00000000000E+00 0.  1.
         11    1    5    5    0    0 -0.23141785621E+02  0.14863212791E+02 -0.41129834989E+01  0.27809602109E+02  0.00000000000E+00 0. -1.
        -11    1    5    5    0    0 -0.13874750386E+03  0.29010839558E+03 -0.33817553333E+03  0.46666523585E+03  0.00000000000E+00 0.  1.
          3    1    6    6  503    0  0.20124454032E+03 -0.12768220651E+03 -0.53155861661E+03  0.58254328059E+03  0.00000000000E+00 0. -1.
         -3    1    6    6    0  503  0.16395038741E+03 -0.21746392452E+03 -0.55286472435E+03  0.61630324633E+03  0.00000000000E+00 0.  1.
<mgrwt>
<rscale>  0 0.12716404E+04</rscale>
<asrwt>0</asrwt>
<pdfrwt beam="1">  1        2 0.25738847E+00 0.12716404E+04</pdfrwt>
<pdfrwt beam="2">  1       -1 0.37175160E-01 0.12716404E+04</pdfrwt>
<totfact> 0.79048784E+01</totfact>
</mgrwt>
</event>
<event>
12    6  0.1530859E-007  0.3700693E+04  0.7818608E-02  0.8067808E-01
         -1   -1    0    0    0  501 -0.00000000000E+00  0.00000000000E+00  0.17297655083E+04  0.17297655083E+04  0.00000000000E+00 0.  1.
          2   -1    0    0  501    0  0.00000000000E+00 -0.00000000000E+00 -0.19793329890E+04  0.19793329890E+04  0.00000000000E+00 0. -1.
         24    2    1    2    0    0  0.58553982370E+03  0.13064663907E+04 -0.11104861416E+04  0.18136391715E+04  0.79976611967E+02 0.  0.
        254    2    1    2    0    0 -0.58553982370E+03 -0.13064663907E+04  0.86091866098E+03  0.18954593258E+04  0.89547406413E+03 0.  0.
         23    2    4    4    0    0  0.11491492805E+03 -0.73935873512E+03  0.21761955125E+03  0.78427581574E+03  0.88732779611E+02 0.  0.
         23    2    4    4    0    0 -0.70045475176E+03 -0.56710765561E+03  0.64329910973E+03  0.11111835100E+04  0.92989763156E+02 0.  0.
          4    1    3    3  502    0  0.34532277199E+03  0.83938982286E+03 -0.73646676708E+03  0.11688483180E+04  0.00000000000E+00 0. -1.
         -3    1    3    3    0  502  0.24021705172E+03  0.46707656787E+03 -0.37401937455E+03  0.64479085347E+03  0.00000000000E+00 0.  1.
         11    1    5    5    0    0  0.86926363267E+02 -0.68920698126E+03  0.21331651885E+03  0.72668176863E+03  0.00000000000E+00 0. -1.
        -11    1    5    5    0    0  0.27988564787E+02 -0.50151753859E+02  0.43030323966E+01  0.57594047104E+02  0.00000000000E+00 0.  1.
          3    1    6    6  503    0 -0.68293081571E+03 -0.55080007829E+03  0.60401436323E+03  0.10651800675E+04  0.00000000000E+00 0. -1.
         -3    1    6    6    0  503 -0.17523936044E+02 -0.16307577318E+02  0.39284746501E+02  0.46003442481E+02  0.00000000000E+00 0.  1.
<mgrwt>
<rscale>  0 0.37006929E+04</rscale>
<asrwt>0</asrwt>
<pdfrwt beam="1">  1        2 0.30451277E+00 0.37006929E+04</pdfrwt>
<pdfrwt beam="2">  1       -1 0.26611777E+00 0.37006929E+04</pdfrwt>
<totfact> 0.34544356E-01</totfact>
</mgrwt>
</event>
<event>
12    6  0.1530859E-007  0.1635003E+04  0.7818608E-02  0.8799328E-01
         -1   -1    0    0    0  501 -0.00000000000E+00  0.00000000000E+00  0.16214768238E+03  0.16214768238E+03  0.00000000000E+00 0.  1.
          2   -1    0    0  501    0  0.00000000000E+00 -0.00000000000E+00 -0.41216062965E+04  0.41216062965E+04  0.00000000000E+00 0. -1.
         24    2    1    2    0    0  0.14399040687E+03  0.14448660230E+03  0.56964304774E+00  0.21948120207E+03  0.81006530929E+02 0.  0.
        254    2    1    2    0    0 -0.14399040687E+03 -0.14448660230E+03 -0.39600282572E+04  0.40642727768E+04  0.89156031275E+03 0.  0.
         23    2    4    4    0    0  0.18025096975E+03  0.26942675609E+03 -0.21822945618E+04  0.22081580236E+04  0.92038654430E+02 0.  0.
         23    2    4    4    0    0 -0.32424137663E+03 -0.41391335839E+03 -0.17777336954E+04  0.18561147532E+04  0.91477575061E+02 0.  0.
          2    1    3    3  502    0  0.56660922267E+00  0.43645084379E+02 -0.58389448573E+01  0.44037571612E+02  0.00000000000E+00 0. -1.
         -1    1    3    3    0  502  0.14342379765E+03  0.10084151792E+03  0.64085879050E+01  0.17544363046E+03  0.00000000000E+00 0.  1.
         11    1    5    5    0    0  0.11483331532E+03  0.13737531527E+03 -0.91751941621E+03  0.93482647944E+03  0.00000000000E+00 0. -1.
        -11    1    5    5    0    0  0.65417654430E+02  0.13205144082E+03 -0.12647751456E+04  0.12733315442E+04  0.00000000000E+00 0.  1.
          1    1    6    6  503    0 -0.83278726576E+02 -0.65302113493E+02 -0.45531454091E+03  0.46745164829E+03  0.00000000000E+00 0. -1.
         -1    1    6    6    0  503 -0.24096265005E+03 -0.34861124490E+03 -0.13224191545E+04  0.13886631049E+04  0.00000000000E+00 0.  1.
<mgrwt>
<rscale>  0 0.16350033E+04</rscale>
<asrwt>0</asrwt>
<pdfrwt beam="1">  1        2 0.63409330E+00 0.16350033E+04</pdfrwt>
<pdfrwt beam="2">  1       -1 0.24945796E-01 0.16350033E+04</pdfrwt>
<totfact> 0.42448129E+00</totfact>
</mgrwt>
</event>
<event>
12    6  0.1530859E-007  0.1908517E+04  0.7818608E-02  0.8650628E-01
         -1   -1    0    0    0  501 -0.00000000000E+00  0.00000000000E+00  0.65396530216E+03  0.65396530216E+03  0.00000000000E+00 0.  1.
          2   -1    0    0  501    0  0.00000000000E+00 -0.00000000000E+00 -0.13924432319E+04  0.13924432319E+04  0.00000000000E+00 0. -1.
         24    2    1    2    0    0  0.35025247269E+03  0.60373994648E+03 -0.29370852836E+03  0.76217116609E+03  0.86379796259E+02 0.  0.
        254    2    1    2    0    0 -0.35025247269E+03 -0.60373994648E+03 -0.44476940142E+03  0.12842373680E+04  0.98197101757E+03 0.  0.
         23    2    4    4    0    0 -0.17954993272E+03  0.25055568010E+03 -0.18528836575E+03  0.37061697787E+03  0.89492114919E+02 0.  0.
         23    2    4    4    0    0 -0.17070253997E+03 -0.85429562657E+03 -0.25948103567E+03  0.91362039014E+03  0.91713873920E+02 0.  0.
          2    1    3    3  502    0  0.20427381089E+03  0.28382225988E+03 -0.17493370269E+03  0.39100468713E+03  0.00000000000E+00 0. -1.
         -1    1    3    3    0  502  0.14597866180E+03  0.31991768659E+03 -0.11877482567E+03  0.37116647896E+03  0.00000000000E+00 0.  1.
         11    1    5    5    0    0 -0.16179184708E+03  0.22330076942E+03 -0.12640310022E+03  0.30334399474E+03  0.00000000000E+00 0. -1.
        -11    1    5    5    0    0 -0.17758085645E+02  0.27254910683E+02 -0.58885265528E+02  0.67272983124E+02  0.00000000000E+00 0.  1.
          4    1    6    6  503    0 -0.76510092884E+02 -0.55367632166E+03 -0.13593237092E+03  0.57522940897E+03  0.00000000000E+00 0. -1.
         -4    1    6    6    0  503 -0.94192447081E+02 -0.30061930491E+03 -0.12354866475E+03  0.33839098116E+03  0.00000000000E+00 0.  1.
<mgrwt>
<rscale>  0 0.19085173E+04</rscale>
<asrwt>0</asrwt>
<pdfrwt beam="1">  1        2 0.21422203E+00 0.19085173E+04</pdfrwt>
<pdfrwt beam="2">  1       -1 0.10061005E+00 0.19085173E+04</pdfrwt>
<totfact> 0.14653760E+01</totfact>
</mgrwt>
</event>
<event>
12    6  0.1530859E-007  0.3305887E+04  0.7818608E-02  0.8161399E-01
         -1   -1    0    0    0  501 -0.00000000000E+00  0.00000000000E+00  0.17148894545E+04  0.17148894545E+04  0.00000000000E+00 0.  1.
          2   -1    0    0  501    0  0.00000000000E+00 -0.00000000000E+00 -0.15932351755E+04  0.15932351755E+04  0.00000000000E+00 0. -1.
         24    2    1    2    0    0 -0.38570673974E+03  0.13400340237E+03 -0.14268632956E+04  0.14864565730E+04  0.82992036840E+02 0.  0.
        254    2    1    2    0    0  0.38570673974E+03 -0.13400340237E+03  0.15485175746E+04  0.18216680570E+04  0.86824030652E+03 0.  0.
         23    2    4    4    0    0  0.62912050107E+03 -0.16973918357E+03  0.13148238379E+04  0.14702309496E+04  0.90627396840E+02 0.  0.
         23    2    4    4    0    0 -0.24341376133E+03  0.35735781197E+02  0.23369373668E+03  0.35143710734E+03  0.91476623203E+02 0.  0.
          2    1    3    3  502    0 -0.34213240180E+03  0.96800220137E+02 -0.12894981598E+04  0.13376211598E+04  0.00000000000E+00 0. -1.
         -1    1    3    3    0  502 -0.43574337936E+02  0.37203182235E+02 -0.13736513579E+03  0.14883541321E+03  0.00000000000E+00 0.  1.
         11    1    5    5    0    0  0.16535993139E+02 -0.20316915983E+02  0.37402032361E+02  0.45663203664E+02  0.00000000000E+00 0. -1.
        -11    1    5    5    0    0  0.61258450793E+03 -0.14942226759E+03  0.12774218056E+04  0.14245677459E+04  0.00000000000E+00 0.  1.
          2    1    6    6  503    0 -0.11477703618E+03 -0.29013748813E+02  0.10117452388E+03  0.15573005470E+03  0.00000000000E+00 0. -1.
         -2    1    6    6    0  503 -0.12863672515E+03  0.64749530010E+02  0.13251921280E+03  0.19570705264E+03  0.00000000000E+00 0.  1.
<mgrwt>
<rscale>  0 0.33058870E+04</rscale>
<asrwt>0</asrwt>
<pdfrwt beam="1">  1        2 0.24511310E+00 0.33058870E+04</pdfrwt>
<pdfrwt beam="2">  1       -1 0.26382915E+00 0.33058870E+04</pdfrwt>
<totfact> 0.60571486E-01</totfact>
</mgrwt>
</event>
<event>
12    6  0.1530859E-007  0.1217705E+04  0.7818608E-02  0.9097499E-01
         -1   -1    0    0    0  501 -0.00000000000E+00  0.00000000000E+00  0.22362497991E+03  0.22362497991E+03  0.00000000000E+00 0.  1.
          2   -1    0    0  501    0  0.00000000000E+00 -0.00000000000E+00 -0.16576929236E+04  0.16576929236E+04  0.00000000000E+00 0. -1.
         24    2    1    2    0    0 -0.15600116948E+03  0.12330905536E+03 -0.88303277309E+02  0.23392067978E+03  0.85906505176E+02 0.  0.
        254    2    1    2    0    0  0.15600116948E+03 -0.12330905536E+03 -0.13457646664E+04  0.16473972237E+04  0.92913593593E+03 0.  0.
         23    2    4    4    0    0 -0.13058094279E+03 -0.29774911457E+03 -0.10156662488E+03  0.35566817898E+03  0.10236286632E+03 0.  0.
         23    2    4    4    0    0  0.28658211228E+03  0.17444005921E+03 -0.12441980415E+04  0.12917290447E+04  0.89311349966E+02 0.  0.
          4    1    3    3  502    0 -0.55304707378E+01  0.48057914064E+02 -0.19749224192E+02  0.52251134599E+02  0.00000000000E+00 0. -1.
         -3    1    3    3    0  502 -0.15047069875E+03  0.75251141293E+02 -0.68554053117E+02  0.18166954518E+03  0.00000000000E+00 0.  1.
         11    1    5    5    0    0 -0.12408014693E+03 -0.26849360729E+03 -0.55851065620E+02  0.30100505236E+03  0.00000000000E+00 0. -1.
        -11    1    5    5    0    0 -0.65007958665E+01 -0.29255507280E+02 -0.45715559260E+02  0.54663126617E+02  0.00000000000E+00 0.  1.
          3    1    6    6  503    0  0.11847304973E+03  0.12380321099E+03 -0.58979210542E+03  0.61418061365E+03  0.00000000000E+00 0. -1.
         -3    1    6    6    0  503  0.16810906255E+03  0.50636848224E+02 -0.65440593608E+03  0.67754843110E+03  0.00000000000E+00 0.  1.
<mgrwt>
<rscale>  0 0.12177053E+04</rscale>
<asrwt>0</asrwt>
<pdfrwt beam="1">  1        2 0.25502967E+00 0.12177053E+04</pdfrwt>
<pdfrwt beam="2">  1       -1 0.34403844E-01 0.12177053E+04</pdfrwt>
<totfact> 0.93021299E+01</totfact>
</mgrwt>
</event>
<event>
12    6  0.1530859E-007  0.1391857E+04  0.7818608E-02  0.8959734E-01
          2   -1    0    0  501    0  0.00000000000E+00  0.00000000000E+00  0.63409576003E+03  0.63409576003E+03  0.00000000000E+00 0. -1.
         -1   -1    0    0    0  501 -0.00000000000E+00 -0.00000000000E+00 -0.76379072533E+03  0.76379072533E+03  0.00000000000E+00 0.  1.
         24    2    1    2    0    0 -0.64837833570E+02 -0.15481911180E+03 -0.40494833156E+03  0.44504217499E+03  0.76853654685E+02 0.  0.
        254    2    1    2    0    0  0.64837833570E+02  0.15481911180E+03  0.27525336627E+03  0.95284431037E+03  0.89664650901E+03 0.  0.
         23    2    4    4    0    0  0.36055152454E+03  0.19324471595E+03  0.43363664909E+03  0.60322253613E+03  0.92172461008E+02 0.  0.
         23    2    4    4    0    0 -0.29571369097E+03 -0.38425604143E+02 -0.15838328282E+03  0.34962177424E+03  0.90702848171E+02 0.  0.
          4    1    3    3  502    0 -0.98212089518E+01 -0.88837664815E+02 -0.13629703815E+03  0.16298916971E+03  0.00000000000E+00 0. -1.
         -3    1    3    3    0  502 -0.55016624618E+02 -0.65981446990E+02 -0.26865129341E+03  0.28205300527E+03  0.00000000000E+00 0.  1.
         11    1    5    5    0    0  0.52054660120E+02  0.69096922669E+02  0.98584400050E+02  0.13116004077E+03  0.00000000000E+00 0. -1.
        -11    1    5    5    0    0  0.30849686442E+03  0.12414779328E+03  0.33505224904E+03  0.47206249535E+03  0.00000000000E+00 0.  1.
          3    1    6    6  503    0  0.30044991285E+01  0.32220778130E+01 -0.15062842866E+02  0.15693885295E+02  0.00000000000E+00 0. -1.
         -3    1    6    6    0  503 -0.29871819010E+03 -0.41647681956E+02 -0.14332043996E+03  0.33392788895E+03  0.00000000000E+00 0.  1.
<mgrwt>
<rscale>  0 0.13918570E+04</rscale>
<asrwt>0</asrwt>
<pdfrwt beam="1">  1        2 0.97553193E-01 0.13918570E+04</pdfrwt>
<pdfrwt beam="2">  1       -1 0.11750627E+00 0.13918570E+04</pdfrwt>
<totfact> 0.33626829E+01</totfact>
</mgrwt>
</event>
<event>
12    6  0.1530859E-007  0.1654515E+04  0.7818608E-02  0.8787740E-01
          2   -1    0    0  501    0  0.00000000000E+00  0.00000000000E+00  0.67257246499E+03  0.67257246499E+03  0.00000000000E+00 0. -1.
         -1   -1    0    0    0  501 -0.00000000000E+00 -0.00000000000E+00 -0.10175181430E+04  0.10175181430E+04  0.00000000000E+00 0.  1.
         24    2    1    2    0    0 -0.22448710858E+03 -0.47798827686E+03  0.20018087411E+02  0.53445708409E+03  0.79852339848E+02 0.  0.
        254    2    1    2    0    0  0.22448710858E+03  0.47798827686E+03 -0.36496376546E+03  0.11556335239E+04  0.96094902926E+03 0.  0.
         23    2    4    4    0    0  0.30704137084E+02  0.72480124177E+03 -0.38914928232E+03  0.82779456395E+03  0.86758815474E+02 0.  0.
         23    2    4    4    0    0  0.19378297150E+03 -0.24681296491E+03  0.24185516861E+02  0.32783896000E+03  0.91787606883E+02 0.  0.
          2    1    3    3  502    0 -0.22945906779E+03 -0.44966066271E+03  0.24154857590E+02  0.50540046747E+03  0.00000000000E+00 0. -1.
         -1    1    3    3    0  502  0.49719592068E+01 -0.28327614149E+02 -0.41367701789E+01  0.29056616618E+02  0.00000000000E+00 0.  1.
         11    1    5    5    0    0  0.24722825033E+02  0.70363559721E+03 -0.35854561991E+03  0.79010710242E+03  0.00000000000E+00 0. -1.
        -11    1    5    5    0    0  0.59813120514E+01  0.21165644565E+02 -0.30603662407E+02  0.37687461528E+02  0.00000000000E+00 0.  1.
          4    1    6    6  503    0  0.15586707975E+03 -0.23795933347E+03  0.51752031623E+01  0.28451005898E+03  0.00000000000E+00 0. -1.
         -4    1    6    6    0  503  0.37915891741E+02 -0.88536314452E+01  0.19010313699E+02  0.43328901015E+02  0.00000000000E+00 0.  1.
<mgrwt>
<rscale>  0 0.16545147E+04</rscale>
<asrwt>0</asrwt>
<pdfrwt beam="1">  1        2 0.10347269E+00 0.16545147E+04</pdfrwt>
<pdfrwt beam="2">  1       -1 0.15654125E+00 0.16545147E+04</pdfrwt>
<totfact> 0.14594637E+01</totfact>
</mgrwt>
</event>
<event>
12    6  0.1530859E-007  0.2516436E+04  0.7818608E-02  0.8397153E-01
          2   -1    0    0  501    0  0.00000000000E+00  0.00000000000E+00  0.78892309112E+03  0.78892309112E+03  0.00000000000E+00 0. -1.
         -1   -1    0    0    0  501 -0.00000000000E+00 -0.00000000000E+00 -0.20066752545E+04  0.20066752545E+04  0.00000000000E+00 0.  1.
         24    2    1    2    0    0 -0.77150755342E+03 -0.61108173502E+03  0.35390889933E+01  0.98750452753E+03  0.80671400659E+02 0.  0.
        254    2    1    2    0    0  0.77150755342E+03  0.61108173502E+03 -0.12212912523E+04  0.18080938181E+04  0.89944768608E+03 0.  0.
         23    2    4    4    0    0  0.40378411747E+03 -0.16988790533E+03 -0.28004426480E+03  0.52770002950E+03  0.90216500661E+02 0.  0.
         23    2    4    4    0    0  0.36772343595E+03  0.78096964035E+03 -0.94124698754E+03  0.12803937886E+04  0.91259288462E+02 0.  0.
          2    1    3    3  502    0 -0.69704401479E+03 -0.55792911273E+03 -0.19917146056E+02  0.89305763873E+03  0.00000000000E+00 0. -1.
         -1    1    3    3    0  502 -0.74463538632E+02 -0.53152622290E+02  0.23456235049E+02  0.94446888803E+02  0.00000000000E+00 0.  1.
         11    1    5    5    0    0  0.36913021567E+03 -0.16018662405E+03 -0.22243894616E+03  0.45977815891E+03  0.00000000000E+00 0.  1.
        -11    1    5    5    0    0  0.34653901800E+02 -0.97012812790E+01 -0.57605318646E+02  0.67921870592E+02  0.00000000000E+00 0. -1.
          4    1    6    6  503    0  0.11701513418E+03  0.26330449504E+03 -0.37867367323E+03  0.47583142974E+03  0.00000000000E+00 0. -1.
         -4    1    6    6    0  503  0.25070830177E+03  0.51766514531E+03 -0.56257331431E+03  0.80456235882E+03  0.00000000000E+00 0.  1.
<mgrwt>
<rscale>  0 0.25164359E+04</rscale>
<asrwt>0</asrwt>
<pdfrwt beam="1">  1        2 0.12137278E+00 0.25164359E+04</pdfrwt>
<pdfrwt beam="2">  1       -1 0.30871927E+00 0.25164359E+04</pdfrwt>
<totfact> 0.10334510E+00</totfact>
</mgrwt>
</event>
<event>
12    6  0.1530859E-007  0.1944933E+04  0.7818608E-02  0.8632808E-01
         -1   -1    0    0    0  501 -0.00000000000E+00  0.00000000000E+00  0.95641925766E+03  0.95641925766E+03  0.00000000000E+00 0.  1.
          2   -1    0    0  501    0  0.00000000000E+00 -0.00000000000E+00 -0.98878326606E+03  0.98878326606E+03  0.00000000000E+00 0. -1.
         24    2    1    2    0    0 -0.65144267445E+03  0.33552318855E+03  0.17443558638E+03  0.75765883562E+03  0.81644162320E+02 0.  0.
        254    2    1    2    0    0  0.65144267445E+03 -0.33552318855E+03 -0.20679959478E+03  0.11875436881E+04  0.91133998628E+03 0.  0.
         23    2    4    4    0    0  0.17050401603E+03 -0.58741359475E+03 -0.12954179967E+03  0.63184560555E+03  0.91221930538E+02 0.  0.
         23    2    4    4    0    0  0.48093865842E+03  0.25189040620E+03 -0.77257795115E+02  0.55569808255E+03  0.89893393182E+02 0.  0.
          4    1    3    3  502    0 -0.34377892836E+03  0.18574332644E+03  0.51828724717E+02  0.39417096749E+03  0.00000000000E+00 0. -1.
         -3    1    3    3    0  502 -0.30766374609E+03  0.14977986211E+03  0.12260686166E+03  0.36348786813E+03  0.00000000000E+00 0.  1.
         11    1    5    5    0    0  0.29398242214E+02 -0.17518913139E+03 -0.74683431903E+02  0.19269951583E+03  0.00000000000E+00 0. -1.
        -11    1    5    5    0    0  0.14110577382E+03 -0.41222446337E+03 -0.54858367765E+02  0.43914608972E+03  0.00000000000E+00 0.  1.
          3    1    6    6  503    0  0.13414735723E+03  0.41193761000E+02  0.98460816482E+01  0.14067474799E+03  0.00000000000E+00 0. -1.
         -3    1    6    6    0  503  0.34679130119E+03  0.21069664520E+03 -0.87103876764E+02  0.41502333456E+03  0.00000000000E+00 0.  1.
<mgrwt>
<rscale>  0 0.19449333E+04</rscale>
<asrwt>0</asrwt>
<pdfrwt beam="1">  1        2 0.15212050E+00 0.19449333E+04</pdfrwt>
<pdfrwt beam="2">  1       -1 0.14714142E+00 0.19449333E+04</pdfrwt>
<totfact> 0.10018678E+01</totfact>
</mgrwt>
</event>
<event>
12    6  0.1530859E-007  0.1374441E+04  0.7818608E-02  0.8972530E-01
          2   -1    0    0  501    0  0.00000000000E+00  0.00000000000E+00  0.13995415663E+04  0.13995415663E+04  0.00000000000E+00 0. -1.
         -1   -1    0    0    0  501 -0.00000000000E+00 -0.00000000000E+00 -0.33744781697E+03  0.33744781697E+03  0.00000000000E+00 0.  1.
         24    2    1    2    0    0 -0.22748019891E+03 -0.16692427069E+03  0.62626062804E+03  0.69149548357E+03  0.79703679511E+02 0.  0.
        254    2    1    2    0    0  0.22748019891E+03  0.16692427069E+03  0.43583312124E+03  0.10454938997E+04  0.90746682121E+03 0.  0.
         23    2    4    4    0    0 -0.33470923871E+03  0.15472894690E+03  0.20256604697E+03  0.43013533730E+03  0.89510242558E+02 0.  0.
         23    2    4    4    0    0  0.56218943762E+03  0.12195323795E+02  0.23326707427E+03  0.61535856236E+03  0.89704752577E+02 0.  0.
          4    1    3    3  502    0 -0.20181415655E+03 -0.11217086349E+03  0.52540973142E+03  0.57390473275E+03  0.00000000000E+00 0. -1.
         -3    1    3    3    0  502 -0.25666042356E+02 -0.54753407199E+02  0.10085089662E+03  0.11759075082E+03  0.00000000000E+00 0.  1.
         11    1    5    5    0    0 -0.49497064121E+02  0.49677352809E+02  0.68181778432E+02  0.97808760594E+02  0.00000000000E+00 0.  1.
        -11    1    5    5    0    0 -0.28521217459E+03  0.10505159409E+03  0.13438426854E+03  0.33232657670E+03  0.00000000000E+00 0. -1.
          4    1    6    6  503    0  0.23216273258E+03  0.48685552758E+02  0.89560900429E+02  0.25355664521E+03  0.00000000000E+00 0.  1.
         -4    1    6    6    0  503  0.33002670504E+03 -0.36490228963E+02  0.14370617384E+03  0.36180191715E+03  0.00000000000E+00 0. -1.
<mgrwt>
<rscale>  0 0.13744413E+04</rscale>
<asrwt>0</asrwt>
<pdfrwt beam="1">  1        2 0.21531408E+00 0.13744413E+04</pdfrwt>
<pdfrwt beam="2">  1       -1 0.51915049E-01 0.13744413E+04</pdfrwt>
<totfact> 0.60094225E+01</totfact>
</mgrwt>
</event>
<event>
12    6  0.1530859E-007  0.1945243E+04  0.7818608E-02  0.8632658E-01
          2   -1    0    0  501    0  0.00000000000E+00  0.00000000000E+00  0.13287312551E+04  0.13287312551E+04  0.00000000000E+00 0. -1.
         -1   -1    0    0    0  501 -0.00000000000E+00 -0.00000000000E+00 -0.71195173906E+03  0.71195173906E+03  0.00000000000E+00 0.  1.
         24    2    1    2    0    0  0.58205223262E+03  0.46349156913E+03  0.41917959547E+03  0.85745620889E+03  0.76879000782E+02 0.  0.
        254    2    1    2    0    0 -0.58205223262E+03 -0.46349156913E+03  0.19759992053E+03  0.11832267852E+04  0.89853806849E+03 0.  0.
         23    2    4    4    0    0  0.17024514852E+03  0.10080887461E+03  0.31174162125E+00  0.21796543606E+03  0.91449408626E+02 0.  0.
         23    2    4    4    0    0 -0.75229738115E+03 -0.56430044374E+03  0.19728817891E+03  0.96526134916E+03  0.91763316013E+02 0.  0.
          2    1    3    3  502    0  0.50343238577E+03  0.39256061370E+03  0.38807362301E+03  0.74709379555E+03  0.00000000000E+00 0. -1.
         -1    1    3    3    0  502  0.78619846850E+02  0.70930955434E+02  0.31105972460E+02  0.11036241335E+03  0.00000000000E+00 0.  1.
         11    1    5    5    0    0  0.13649268484E+03  0.87546249991E+02  0.37059180870E+02  0.16633695257E+03  0.00000000000E+00 0.  1.
        -11    1    5    5    0    0  0.33752463682E+02  0.13262624620E+02 -0.36747439249E+02  0.51628483493E+02  0.00000000000E+00 0. -1.
          2    1    6    6  503    0 -0.27562065854E+03 -0.16608172512E+03  0.96972505326E+02  0.33608563436E+03  0.00000000000E+00 0. -1.
         -2    1    6    6    0  503 -0.47667672261E+03 -0.39821871862E+03  0.10031567358E+03  0.62917571481E+03  0.00000000000E+00 0.  1.
<mgrwt>
<rscale>  0 0.19452429E+04</rscale>
<asrwt>0</asrwt>
<pdfrwt beam="1">  1        2 0.20442019E+00 0.19452429E+04</pdfrwt>
<pdfrwt beam="2">  1       -1 0.10953104E+00 0.19452429E+04</pdfrwt>
<totfact> 0.13044703E+01</totfact>
</mgrwt>
</event>
<event>
12    6  0.1530859E-007  0.1774557E+04  0.7818608E-02  0.8719948E-01
          2   -1    0    0  501    0  0.00000000000E+00  0.00000000000E+00  0.36480034322E+04  0.36480034322E+04  0.00000000000E+00 0. -1.
         -1   -1    0    0    0  501 -0.00000000000E+00 -0.00000000000E+00 -0.21580662334E+03  0.21580662334E+03  0.00000000000E+00 0.  1.
         24    2    1    2    0    0 -0.19644699287E+03 -0.52833852485E+03  0.51882355851E+03  0.77036161717E+03  0.80908086719E+02 0.  0.
        254    2    1    2    0    0  0.19644699287E+03  0.52833852485E+03  0.29133732504E+04  0.30934484384E+04  0.87404034637E+03 0.  0.
         23    2    4    4    0    0 -0.49557619292E+02  0.19052485491E+03  0.83609487641E+02  0.23152841169E+03  0.88652022119E+02 0.  0.
         23    2    4    4    0    0  0.24600461216E+03  0.33781366994E+03  0.28297637627E+04  0.28619200267E+04  0.91580246330E+02 0.  0.
          4    1    3    3  502    0 -0.12433031859E+02 -0.33013598846E+02  0.64419743134E+02  0.73446451891E+02  0.00000000000E+00 0. -1.
         -3    1    3    3    0  502 -0.18401396101E+03 -0.49532492601E+03  0.45440381538E+03  0.69691516528E+03  0.00000000000E+00 0.  1.
         11    1    5    5    0    0 -0.41372094638E+02  0.16488307866E+03  0.31514823202E+02  0.17289090180E+03  0.00000000000E+00 0. -1.
        -11    1    5    5    0    0 -0.81855246542E+01  0.25641776255E+02  0.52094664439E+02  0.58637509892E+02  0.00000000000E+00 0.  1.
          1    1    6    6  503    0  0.23637397706E+03  0.29276210324E+03  0.23479860373E+04  0.23779446456E+04  0.00000000000E+00 0. -1.
         -1    1    6    6    0  503  0.96306351045E+01  0.45051566698E+02  0.48177772541E+03  0.48397538109E+03  0.00000000000E+00 0.  1.
<mgrwt>
<rscale>  0 0.17745572E+04</rscale>
<asrwt>0</asrwt>
<pdfrwt beam="1">  1        2 0.56123125E+00 0.17745572E+04</pdfrwt>
<pdfrwt beam="2">  1       -1 0.33201022E-01 0.17745572E+04</pdfrwt>
<totfact> 0.59143144E+00</totfact>
</mgrwt>
</event>
<event>
12    6  0.1530859E-007  0.1119095E+04  0.7818608E-02  0.9186778E-01
         -1   -1    0    0    0  501 -0.00000000000E+00  0.00000000000E+00  0.18264757791E+03  0.18264757791E+03  0.00000000000E+00 0.  1.
          2   -1    0    0  501    0  0.00000000000E+00 -0.00000000000E+00 -0.17141946224E+04  0.17141946224E+04  0.00000000000E+00 0. -1.
         24    2    1    2    0    0 -0.54871396644E+02 -0.87280090623E+02 -0.48410178609E+03  0.50112202768E+03  0.78358553696E+02 0.  0.
        254    2    1    2    0    0  0.54871396644E+02  0.87280090623E+02 -0.10474452584E+04  0.13957201726E+04  0.91665944960E+03 0.  0.
         23    2    4    4    0    0 -0.37017416836E+03 -0.16749179500E+03 -0.48760554963E+03  0.64288727061E+03  0.10228613967E+03 0.  0.
         23    2    4    4    0    0  0.42504556500E+03  0.25477188562E+03 -0.55983970877E+03  0.75283290202E+03  0.88116019049E+02 0.  0.
          2    1    3    3  502    0 -0.75239993775E+02 -0.68277433476E+02 -0.37498248409E+03  0.38850318912E+03  0.00000000000E+00 0. -1.
         -1    1    3    3    0  502  0.20368597130E+02 -0.19002657147E+02 -0.10911930200E+03  0.11261883855E+03  0.00000000000E+00 0.  1.
         11    1    5    5    0    0 -0.35825246484E+03 -0.13748199828E+03 -0.46763232438E+03  0.60491827483E+03  0.00000000000E+00 0. -1.
        -11    1    5    5    0    0 -0.11921703518E+02 -0.30009796718E+02 -0.19973225255E+02  0.37968995785E+02  0.00000000000E+00 0.  1.
          4    1    6    6  503    0  0.42414781224E+03  0.25813499027E+03 -0.56099390346E+03  0.74916566896E+03  0.00000000000E+00 0. -1.
         -4    1    6    6    0  503  0.89775276525E+00 -0.33631046462E+01  0.11541946952E+01  0.36672330555E+01  0.00000000000E+00 0.  1.
<mgrwt>
<rscale>  0 0.11190952E+04</rscale>
<asrwt>0</asrwt>
<pdfrwt beam="1">  1        2 0.26372225E+00 0.11190952E+04</pdfrwt>
<pdfrwt beam="2">  1       -1 0.28099628E-01 0.11190952E+04</pdfrwt>
<totfact> 0.12450371E+02</totfact>
</mgrwt>
</event>
<event>
12    6  0.1530859E-007  0.1218080E+04  0.7818608E-02  0.9097177E-01
         -1   -1    0    0    0  501 -0.00000000000E+00  0.00000000000E+00  0.14101118651E+03  0.14101118651E+03  0.00000000000E+00 0.  1.
          2   -1    0    0  501    0  0.00000000000E+00 -0.00000000000E+00 -0.26304993863E+04  0.26304993863E+04  0.00000000000E+00 0. -1.
         24    2    1    2    0    0  0.23900889554E+03 -0.62670137288E+02 -0.32356108986E+03  0.41469253633E+03  0.78900713325E+02 0.  0.
        254    2    1    2    0    0 -0.23900889554E+03  0.62670137288E+02 -0.21659271099E+04  0.23568180364E+04  0.89571100994E+03 0.  0.
         23    2    4    4    0    0 -0.56636965336E+03  0.44266144098E+01 -0.11748039692E+04  0.13074610774E+04  0.92173334879E+02 0.  0.
         23    2    4    4    0    0  0.32736075782E+03  0.58243522878E+02 -0.99112314072E+03  0.10493569591E+04  0.90926199782E+02 0.  0.
          2    1    3    3  502    0  0.45910863872E+02  0.18919008671E+02 -0.66496979389E+02  0.82991472926E+02  0.00000000000E+00 0. -1.
         -1    1    3    3    0  502  0.19309803167E+03 -0.81589145959E+02 -0.25706411047E+03  0.33170106341E+03  0.00000000000E+00 0.  1.
         11    1    5    5    0    0 -0.47793397159E+03 -0.23819649611E+02 -0.93560921310E+03  0.10508819422E+04  0.00000000000E+00 0.  1.
        -11    1    5    5    0    0 -0.88435681771E+02  0.28246264020E+02 -0.23919475607E+03  0.25657913511E+03  0.00000000000E+00 0. -1.
          3    1    6    6  503    0  0.20795734774E+03 -0.21971708214E+01 -0.66770570186E+03  0.69934397140E+03  0.00000000000E+00 0. -1.
         -3    1    6    6    0  503  0.11940341008E+03  0.60440693699E+02 -0.32341743885E+03  0.35001298769E+03  0.00000000000E+00 0.  1.
<mgrwt>
<rscale>  0 0.12180802E+04</rscale>
<asrwt>0</asrwt>
<pdfrwt beam="1">  1        2 0.40469220E+00 0.12180802E+04</pdfrwt>
<pdfrwt beam="2">  1       -1 0.21694030E-01 0.12180802E+04</pdfrwt>
<totfact> 0.58928119E+01</totfact>
</mgrwt>
</event>
<event>
12    6  0.1530859E-007  0.2238897E+04  0.7818608E-02  0.8502410E-01
          2   -1    0    0  501    0  0.00000000000E+00  0.00000000000E+00  0.18372815258E+04  0.18372815258E+04  0.00000000000E+00 0. -1.
         -1   -1    0    0    0  501 -0.00000000000E+00 -0.00000000000E+00 -0.68207581309E+03  0.68207581309E+03  0.00000000000E+00 0.  1.
         24    2    1    2    0    0  0.35226666284E+03 -0.53018206807E+03  0.12687963963E+04  0.14217157183E+04  0.79034557580E+02 0.  0.
        254    2    1    2    0    0 -0.35226666284E+03  0.53018206807E+03 -0.11359068359E+03  0.10976416206E+04  0.88697770934E+03 0.  0.
         23    2    4    4    0    0 -0.54791113791E+03  0.29656200844E+03  0.18980705470E+03  0.65784798760E+03  0.92637016756E+02 0.  0.
         23    2    4    4    0    0  0.19564447506E+03  0.23362005963E+03 -0.30339773829E+03  0.43979363303E+03  0.92266782583E+02 0.  0.
          4    1    3    3  502    0  0.23314460150E+03 -0.41300850524E+03  0.94718131187E+03  0.10592850741E+04  0.00000000000E+00 0. -1.
         -3    1    3    3    0  502  0.11912206134E+03 -0.11717356283E+03  0.32161508443E+03  0.36243064421E+03  0.00000000000E+00 0.  1.
         11    1    5    5    0    0 -0.16356882293E+03  0.43863136053E+02  0.38968882749E+02  0.17377372748E+03  0.00000000000E+00 0. -1.
        -11    1    5    5    0    0 -0.38434231498E+03  0.25269887239E+03  0.15083817195E+03  0.48407426012E+03  0.00000000000E+00 0.  1.
          4    1    6    6  503    0 -0.19074767927E+01  0.19181256859E+02 -0.49693005126E+02  0.53300598879E+02  0.00000000000E+00 0. -1.
         -4    1    6    6    0  503  0.19755195186E+03  0.21443880277E+03 -0.25370473316E+03  0.38649303415E+03  0.00000000000E+00 0.  1.
<mgrwt>
<rscale>  0 0.22388973E+04</rscale>
<asrwt>0</asrwt>
<pdfrwt beam="1">  1        2 0.28265870E+00 0.22388973E+04</pdfrwt>
<pdfrwt beam="2">  1       -1 0.10493474E+00 0.22388973E+04</pdfrwt>
<totfact> 0.72756942E+00</totfact>
</mgrwt>
</event>
<event>
12    6  0.1530859E-007  0.2672974E+04  0.7818608E-02  0.8343828E-01
         -1   -1    0    0    0  501 -0.00000000000E+00  0.00000000000E+00  0.12842346205E+04  0.12842346205E+04  0.00000000000E+00 0.  1.
          2   -1    0    0  501    0  0.00000000000E+00 -0.00000000000E+00 -0.13908651202E+04  0.13908651202E+04  0.00000000000E+00 0. -1.
         24    2    1    2    0    0 -0.29009552552E+03 -0.60190527075E+03 -0.10242939887E+04  0.12250950678E+04  0.72349021968E+02 0.  0.
        254    2    1    2    0    0  0.29009552552E+03  0.60190527075E+03  0.91766348897E+03  0.14500046729E+04  0.90219837268E+03 0.  0.
         23    2    4    4    0    0  0.30584961223E+03  0.22731743681E+03 -0.62220501595E+02  0.39618223741E+03  0.88723007390E+02 0.  0.
         23    2    4    4    0    0 -0.15754086711E+02  0.37458783394E+03  0.97988399057E+03  0.10538224355E+04  0.99019463081E+02 0.  0.
          2    1    3    3  502    0 -0.16719277751E+03 -0.29835322317E+03 -0.57673964273E+03  0.67051971345E+03  0.00000000000E+00 0. -1.
         -3    1    3    3    0  502 -0.12290274801E+03 -0.30355204758E+03 -0.44755434598E+03  0.55457535436E+03  0.00000000000E+00 0.  1.
         11    1    5    5    0    0  0.66042840934E+02  0.63890394729E+02 -0.52479600070E+02  0.10581941127E+03  0.00000000000E+00 0.  1.
        -11    1    5    5    0    0  0.23980677130E+03  0.16342704208E+03 -0.97409015252E+01  0.29036282614E+03  0.00000000000E+00 0. -1.
          2    1    6    6  503    0  0.16286807615E+01  0.23584497084E+03  0.73399311683E+03  0.77095486147E+03  0.00000000000E+00 0. -1.
         -2    1    6    6    0  503 -0.17382767472E+02  0.13874286310E+03  0.24589087374E+03  0.28286757406E+03  0.00000000000E+00 0.  1.
<mgrwt>
<rscale>  0 0.26729737E+04</rscale>
<asrwt>0</asrwt>
<pdfrwt beam="1">  1        2 0.21397925E+00 0.26729737E+04</pdfrwt>
<pdfrwt beam="2">  1       -1 0.19757456E+00 0.26729737E+04</pdfrwt>
<totfact> 0.22948120E+00</totfact>
</mgrwt>
</event>
<event>
12    6  0.1530859E-007  0.1800510E+04  0.7818608E-02  0.8706028E-01
         -1   -1    0    0    0  501 -0.00000000000E+00  0.00000000000E+00  0.14135622394E+04  0.14135622394E+04  0.00000000000E+00 0.  1.
          2   -1    0    0  501    0  0.00000000000E+00 -0.00000000000E+00 -0.57334519425E+03  0.57334519425E+03  0.00000000000E+00 0. -1.
         24    2    1    2    0    0  0.15052498699E+02 -0.15197554767E+03 -0.40574291984E+03  0.44027196731E+03  0.76739451343E+02 0.  0.
        254    2    1    2    0    0 -0.15052498699E+02  0.15197554767E+03  0.12459599650E+04  0.15466354664E+04  0.90351640085E+03 0.  0.
         23    2    4    4    0    0 -0.27189426791E+03  0.11208250276E+03  0.40966709015E+02  0.31053752190E+03  0.90919199941E+02 0.  0.
         23    2    4    4    0    0  0.25684176921E+03  0.39893044916E+02  0.12049932560E+04  0.12360979445E+04  0.91488971316E+02 0.  0.
          4    1    3    3  502    0  0.91092005645E+01 -0.15965307600E+03 -0.39270802236E+03  0.42401848196E+03  0.00000000000E+00 0. -1.
         -1    1    3    3    0  502  0.59432981346E+01  0.76775283288E+01 -0.13034897473E+02  0.16253485352E+02  0.00000000000E+00 0.  1.
         11    1    5    5    0    0 -0.30357108587E+02 -0.12260668724E+02  0.19313665334E+02  0.38011783804E+02  0.00000000000E+00 0. -1.
        -11    1    5    5    0    0 -0.24153715932E+03  0.12434317148E+03  0.21653043680E+02  0.27252573810E+03  0.00000000000E+00 0.  1.
          2    1    6    6  503    0  0.79146731203E+02 -0.15235874253E+02  0.23540767630E+03  0.24882345344E+03  0.00000000000E+00 0. -1.
         -2    1    6    6    0  503  0.17769503800E+03  0.55128919169E+02  0.96958557969E+03  0.98727449101E+03  0.00000000000E+00 0.  1.
<mgrwt>
<rscale>  0 0.18005101E+04</rscale>
<asrwt>0</asrwt>
<pdfrwt beam="1">  1        2 0.88206953E-01 0.18005101E+04</pdfrwt>
<pdfrwt beam="2">  1       -1 0.21747111E+00 0.18005101E+04</pdfrwt>
<totfact> 0.64646310E+00</totfact>
</mgrwt>
</event>
<event>
12    6  0.1530859E-007  0.1762088E+04  0.7818608E-02  0.8726725E-01
          2   -1    0    0  501    0  0.00000000000E+00  0.00000000000E+00  0.19289476082E+04  0.19289476082E+04  0.00000000000E+00 0. -1.
         -1   -1    0    0    0  501 -0.00000000000E+00 -0.00000000000E+00 -0.40241542634E+03  0.40241542634E+03  0.00000000000E+00 0.  1.
         24    2    1    2    0    0 -0.46909382934E+03  0.37479968912E+03  0.25313886396E+03  0.65683001054E+03  0.82598732524E+02 0.  0.
        254    2    1    2    0    0  0.46909382934E+03 -0.37479968912E+03  0.12733933179E+04  0.16745330240E+04  0.90664572943E+03 0.  0.
         23    2    4    4    0    0 -0.18840198510E+03 -0.55597956253E+02  0.15108291589E+02  0.21655413152E+03  0.89894330603E+02 0.  0.
         23    2    4    4    0    0  0.65749581443E+03 -0.31920173287E+03  0.12582850263E+04  0.14579788925E+04  0.90723487668E+02 0.  0.
          4    1    3    3  502    0 -0.31311149101E+03  0.22706187078E+03  0.20039958318E+03  0.43560979317E+03  0.00000000000E+00 0. -1.
         -3    1    3    3    0  502 -0.15598233833E+03  0.14773781834E+03  0.52739280778E+02  0.22122021738E+03  0.00000000000E+00 0.  1.
         11    1    5    5    0    0 -0.41361141195E+02  0.21610680329E+02 -0.12224579512E+02  0.48241121976E+02  0.00000000000E+00 0. -1.
        -11    1    5    5    0    0 -0.14704084390E+03 -0.77208636582E+02  0.27332871101E+02  0.16831300954E+03  0.00000000000E+00 0.  1.
          4    1    6    6  503    0  0.33674249247E+03 -0.18270338552E+03  0.57553063677E+03  0.69138379152E+03  0.00000000000E+00 0. -1.
         -4    1    6    6    0  503  0.32075332197E+03 -0.13649834736E+03  0.68275438954E+03  0.76659510096E+03  0.00000000000E+00 0.  1.
<mgrwt>
<rscale>  0 0.17620877E+04</rscale>
<asrwt>0</asrwt>
<pdfrwt beam="1">  1        2 0.29676117E+00 0.17620877E+04</pdfrwt>
<pdfrwt beam="2">  1       -1 0.61910067E-01 0.17620877E+04</pdfrwt>
<totfact> 0.20883338E+01</totfact>
</mgrwt>
</event>
<event>
12    6  0.1530859E-007  0.2428230E+04  0.7818608E-02  0.8429010E-01
         -1   -1    0    0    0  501 -0.00000000000E+00  0.00000000000E+00  0.12744372607E+04  0.12744372607E+04  0.00000000000E+00 0.  1.
          2   -1    0    0  501    0  0.00000000000E+00 -0.00000000000E+00 -0.11566477811E+04  0.11566477811E+04  0.00000000000E+00 0. -1.
         24    2    1    2    0    0 -0.22095933498E+03  0.11089625156E+03  0.10710650862E+04  0.11019847363E+04  0.77903361799E+02 0.  0.
        254    2    1    2    0    0  0.22095933498E+03 -0.11089625156E+03 -0.95327560662E+03  0.13291003055E+04  0.89255377072E+03 0.  0.
         23    2    4    4    0    0 -0.22559353942E+03  0.11522011587E+03 -0.23593734494E+02  0.26944527519E+03  0.88746672545E+02 0.  0.
         23    2    4    4    0    0  0.44655287440E+03 -0.22611636743E+03 -0.92968187212E+03  0.10596550303E+04  0.89567397441E+02 0.  0.
          2    1    3    3  502    0 -0.23997139173E+02 -0.71615162121E+01  0.18323405580E+03  0.18493747378E+03  0.00000000000E+00 0. -1.
         -1    1    3    3    0  502 -0.19696219581E+03  0.11805776777E+03  0.88783103044E+03  0.91704726253E+03  0.00000000000E+00 0.  1.
         11    1    5    5    0    0 -0.90782621298E+02  0.87575079321E+02  0.13659774637E+02  0.12687579868E+03  0.00000000000E+00 0. -1.
        -11    1    5    5    0    0 -0.13481091812E+03  0.27645036549E+02 -0.37253509130E+02  0.14256947651E+03  0.00000000000E+00 0.  1.
          2    1    6    6  503    0  0.34192358024E+02 -0.48878058680E+02 -0.10970093912E+03  0.12486984429E+03  0.00000000000E+00 0. -1.
         -2    1    6    6    0  503  0.41236051638E+03 -0.17723830875E+03 -0.81998093300E+03  0.93478518604E+03  0.00000000000E+00 0.  1.
<mgrwt>
<rscale>  0 0.24282298E+04</rscale>
<asrwt>0</asrwt>
<pdfrwt beam="1">  1        2 0.17794581E+00 0.24282298E+04</pdfrwt>
<pdfrwt beam="2">  1       -1 0.19606727E+00 0.24282298E+04</pdfrwt>
<totfact> 0.32963507E+00</totfact>
</mgrwt>
</event>
<event>
12    6  0.1530859E-007  0.1631282E+04  0.7818608E-02  0.8801557E-01
          2   -1    0    0  501    0  0.00000000000E+00  0.00000000000E+00  0.43853949364E+03  0.43853949364E+03  0.00000000000E+00 0. -1.
         -1   -1    0    0    0  501 -0.00000000000E+00 -0.00000000000E+00 -0.15170141058E+04  0.15170141058E+04  0.00000000000E+00 0.  1.
         24    2    1    2    0    0 -0.49702285744E+03 -0.71188321146E+02 -0.72080265749E+02  0.51350060885E+03  0.79923793034E+02 0.  0.
        254    2    1    2    0    0  0.49702285744E+03  0.71188321146E+02 -0.10063943464E+04  0.14420529906E+04  0.90254515085E+03 0.  0.
         23    2    4    4    0    0  0.63670200159E+03 -0.21376702761E+03 -0.82039827930E+03  0.10643003543E+04  0.92715298595E+02 0.  0.
         23    2    4    4    0    0 -0.13967914415E+03  0.28495534875E+03 -0.18599606715E+03  0.37775263631E+03  0.85980830144E+02 0.  0.
          2    1    3    3  502    0 -0.43286689434E+03 -0.35967141609E+02 -0.72163379987E+02  0.44031231746E+03  0.00000000000E+00 0. -1.
         -1    1    3    3    0  502 -0.64155963095E+02 -0.35221179537E+02  0.83114238445E-01  0.73188291390E+02  0.00000000000E+00 0.  1.
         11    1    5    5    0    0  0.34743273694E+02 -0.71613271638E+01 -0.16915081759E+02  0.39300122960E+02  0.00000000000E+00 0. -1.
        -11    1    5    5    0    0  0.60195872789E+03 -0.20660570044E+03 -0.80348319754E+03  0.10250002314E+04  0.00000000000E+00 0.  1.
          3    1    6    6  503    0 -0.84339686064E+02  0.13475787527E+03 -0.13834644431E+03  0.21074298623E+03  0.00000000000E+00 0. -1.
         -3    1    6    6    0  503 -0.55339458083E+02  0.15019747349E+03 -0.47649622831E+02  0.16700965008E+03  0.00000000000E+00 0.  1.
<mgrwt>
<rscale>  0 0.16312824E+04</rscale>
<asrwt>0</asrwt>
<pdfrwt beam="1">  1        2 0.67467614E-01 0.16312824E+04</pdfrwt>
<pdfrwt beam="2">  1       -1 0.23338679E+00 0.16312824E+04</pdfrwt>
<totfact> 0.70241488E+00</totfact>
</mgrwt>
</event>
<event>
12    6  0.1530859E-007  0.2329140E+04  0.7818608E-02  0.8466519E-01
         -1   -1    0    0    0  501 -0.00000000000E+00  0.00000000000E+00  0.34292557990E+03  0.34292557990E+03  0.00000000000E+00 0.  1.
          2   -1    0    0  501    0  0.00000000000E+00 -0.00000000000E+00 -0.39548620832E+04  0.39548620832E+04  0.00000000000E+00 0. -1.
         24    2    1    2    0    0 -0.27055245134E+03 -0.62607448727E+03 -0.19958105627E+03  0.71512662484E+03  0.80034986127E+02 0.  0.
        254    2    1    2    0    0  0.27055245134E+03  0.62607448727E+03 -0.34123554471E+04  0.35826610383E+04  0.85212823305E+03 0.  0.
         23    2    4    4    0    0  0.17666460328E+03  0.62517969867E+03 -0.12118355846E+04  0.13782272525E+04  0.94365446508E+02 0.  0.
         23    2    4    4    0    0  0.93887848068E+02  0.89478859425E+00 -0.22005198624E+04  0.22044337858E+04  0.91787376905E+02 0.  0.
          4    1    3    3  502    0 -0.37457361605E+02 -0.34854860642E+02 -0.12964128520E+02  0.52782420151E+02  0.00000000000E+00 0. -1.
         -3    1    3    3    0  502 -0.23309508974E+03 -0.59121962662E+03 -0.18661692775E+03  0.66234420469E+03  0.00000000000E+00 0.  1.
         11    1    5    5    0    0  0.17096684135E+03  0.50261889711E+03 -0.10315740732E+04  0.11601726100E+04  0.00000000000E+00 0. -1.
        -11    1    5    5    0    0  0.56977619273E+01  0.12256080156E+03 -0.18026151147E+03  0.21805464244E+03  0.00000000000E+00 0.  1.
          3    1    6    6  503    0  0.93900168942E+02  0.32527143949E+02 -0.16031522317E+04  0.16062292286E+04  0.00000000000E+00 0. -1.
         -3    1    6    6    0  503 -0.12320873792E-01 -0.31632355355E+02 -0.59736763069E+03  0.59820455720E+03  0.00000000000E+00 0.  1.
<mgrwt>
<rscale>  0 0.23291401E+04</rscale>
<asrwt>0</asrwt>
<pdfrwt beam="1">  1        2 0.60844035E+00 0.23291401E+04</pdfrwt>
<pdfrwt beam="2">  1       -1 0.52757779E-01 0.23291401E+04</pdfrwt>
<totfact> 0.13930864E+00</totfact>
</mgrwt>
</event>
<event>
12    6  0.1530859E-007  0.1553370E+04  0.7818608E-02  0.8849718E-01
          2   -1    0    0  501    0  0.00000000000E+00  0.00000000000E+00  0.18132274376E+04  0.18132274376E+04  0.00000000000E+00 0. -1.
         -1   -1    0    0    0  501 -0.00000000000E+00 -0.00000000000E+00 -0.33268818404E+03  0.33268818404E+03  0.00000000000E+00 0.  1.
         24    2    1    2    0    0 -0.20598882213E+03  0.39067557637E+03  0.81657360186E+03  0.93129646503E+03  0.73904382221E+02 0.  0.
        254    2    1    2    0    0  0.20598882213E+03 -0.39067557637E+03  0.66396565168E+03  0.12146191566E+04  0.91618257356E+03 0.  0.
         23    2    4    4    0    0  0.48892473025E+03  0.20550483302E+02  0.23692176770E+03  0.55130993446E+03  0.91329106046E+02 0.  0.
         23    2    4    4    0    0 -0.28293590812E+03 -0.41122605967E+03  0.42704388398E+03  0.66330922212E+03  0.91940442942E+02 0.  0.
          4    1    3    3  502    0 -0.15778176631E+03  0.22207670923E+03  0.50098041971E+03  0.57025830244E+03  0.00000000000E+00 0. -1.
         -1    1    3    3    0  502 -0.48207055816E+02  0.16859886714E+03  0.31559318215E+03  0.36103816260E+03  0.00000000000E+00 0.  1.
         11    1    5    5    0    0  0.48806712325E+03  0.29049863358E+02  0.23005938644E+03  0.54035241523E+03  0.00000000000E+00 0.  1.
        -11    1    5    5    0    0  0.85760700162E+00 -0.84993800558E+01  0.68623812621E+01  0.10957519231E+02  0.00000000000E+00 0. -1.
          2    1    6    6  503    0 -0.31648493230E+02 -0.78336648836E+02  0.11359892789E+03  0.14157321107E+03  0.00000000000E+00 0. -1.
         -2    1    6    6    0  503 -0.25128741489E+03 -0.33288941084E+03  0.31344495608E+03  0.52173601105E+03  0.00000000000E+00 0.  1.
<mgrwt>
<rscale>  0 0.15533697E+04</rscale>
<asrwt>0</asrwt>
<pdfrwt beam="1">  1        2 0.27895806E+00 0.15533697E+04</pdfrwt>
<pdfrwt beam="2">  1       -1 0.51182799E-01 0.15533697E+04</pdfrwt>
<totfact> 0.35700722E+01</totfact>
</mgrwt>
</event>
<event>
12    6  0.1530859E-007  0.1433641E+04  0.7818608E-02  0.8929821E-01
          2   -1    0    0  501    0  0.00000000000E+00  0.00000000000E+00  0.10761066235E+04  0.10761066235E+04  0.00000000000E+00 0. -1.
         -1   -1    0    0    0  501 -0.00000000000E+00 -0.00000000000E+00 -0.47749142299E+03  0.47749142299E+03  0.00000000000E+00 0.  1.
         24    2    1    2    0    0 -0.24646323306E+03  0.27414686098E+03 -0.59843032257E+02  0.38184892575E+03  0.79541102298E+02 0.  0.
        254    2    1    2    0    0  0.24646323306E+03 -0.27414686098E+03  0.65845823275E+03  0.11717491207E+04  0.89639730644E+03 0.  0.
         23    2    4    4    0    0 -0.26112299502E+03 -0.32892465584E+03  0.17822745236E+03  0.46517056484E+03  0.90785361533E+02 0.  0.
         23    2    4    4    0    0  0.50758622807E+03  0.54777794863E+02  0.48023078039E+03  0.70657855588E+03  0.89371513681E+02 0.  0.
          2    1    3    3  502    0 -0.48694130335E+02  0.14645530208E+02 -0.71495789433E+01  0.51349063898E+02  0.00000000000E+00 0. -1.
         -3    1    3    3    0  502 -0.19776910272E+03  0.25950133077E+03 -0.52693453314E+02  0.33049986185E+03  0.00000000000E+00 0.  1.
         11    1    5    5    0    0 -0.25189243880E+03 -0.33379474050E+03  0.16831097513E+03  0.45077412732E+03  0.00000000000E+00 0. -1.
        -11    1    5    5    0    0 -0.92305562192E+01  0.48700846562E+01  0.99164772288E+01  0.14396437521E+02  0.00000000000E+00 0.  1.
          3    1    6    6  503    0  0.35254078688E+03  0.17946422428E+02  0.27932549984E+03  0.45014421617E+03  0.00000000000E+00 0. -1.
         -3    1    6    6    0  503  0.15504544120E+03  0.36831372435E+02  0.20090528054E+03  0.25643433971E+03  0.00000000000E+00 0.  1.
<mgrwt>
<rscale>  0 0.14336411E+04</rscale>
<asrwt>0</asrwt>
<pdfrwt beam="1">  1        2 0.16555486E+00 0.14336411E+04</pdfrwt>
<pdfrwt beam="2">  1       -1 0.73460219E-01 0.14336411E+04</pdfrwt>
<totfact> 0.46621129E+01</totfact>
</mgrwt>
</event>
<event>
12    6  0.1530859E-007  0.1290064E+04  0.7818608E-02  0.9037482E-01
         -3   -1    0    0    0  501 -0.00000000000E+00  0.00000000000E+00  0.10924546209E+04  0.10924546209E+04  0.00000000000E+00 0.  1.
          4   -1    0    0  501    0  0.00000000000E+00 -0.00000000000E+00 -0.38085457378E+03  0.38085457378E+03  0.00000000000E+00 0. -1.
         24    2    1    2    0    0 -0.38503989245E+03  0.16221055488E+01  0.37092510530E+03  0.54114893590E+03  0.83656363079E+02 0.  0.
        254    2    1    2    0    0  0.38503989245E+03 -0.16221055488E+01  0.34067494183E+03  0.93216025878E+03  0.77756349069E+03 0.  0.
         23    2    4    4    0    0  0.52419762476E+03  0.21026566007E+03  0.33364975585E+03  0.66241788330E+03  0.92089602732E+02 0.  0.
         23    2    4    4    0    0 -0.13915773231E+03 -0.21188776562E+03  0.70251859806E+01  0.26974237548E+03  0.91925492720E+02 0.  0.
          4    1    3    3  502    0 -0.16779328052E+02  0.48062509869E+01 -0.13341640250E+01  0.17505024766E+02  0.00000000000E+00 0. -1.
         -3    1    3    3    0  502 -0.36826056440E+03 -0.31841454381E+01  0.37225926933E+03  0.52364391114E+03  0.00000000000E+00 0.  1.
         11    1    5    5    0    0  0.16380593614E+03  0.11288361143E+03  0.11498979794E+03  0.22977760569E+03  0.00000000000E+00 0.  1.
        -11    1    5    5    0    0  0.36039168861E+03  0.97382048640E+02  0.21865995792E+03  0.43264027761E+03  0.00000000000E+00 0. -1.
          4    1    6    6  503    0 -0.21196572448E+02  0.39078755588E+01  0.10072958090E+02  0.23791398857E+02  0.00000000000E+00 0. -1.
         -4    1    6    6    0  503 -0.11796115986E+03 -0.21579564118E+03 -0.30477721094E+01  0.24595097662E+03  0.00000000000E+00 0.  1.
<mgrwt>
<rscale>  0 0.12900641E+04</rscale>
<asrwt>0</asrwt>
<pdfrwt beam="1">  1        4 0.58593012E-01 0.12900641E+04</pdfrwt>
<pdfrwt beam="2">  1       -3 0.16806994E+00 0.12900641E+04</pdfrwt>
<totfact> 0.14775476E+00</totfact>
</mgrwt>
</event>
<event>
12    6  0.1530859E-007  0.2105163E+04  0.7818608E-02  0.8558972E-01
          2   -1    0    0  501    0  0.00000000000E+00  0.00000000000E+00  0.86646764753E+03  0.86646764753E+03  0.00000000000E+00 0. -1.
         -3   -1    0    0    0  501 -0.00000000000E+00 -0.00000000000E+00 -0.12786724786E+04  0.12786724786E+04  0.00000000000E+00 0.  1.
         24    2    1    2    0    0  0.58610007469E+03 -0.53690876949E+02 -0.80548820161E+03  0.10005332164E+04  0.76547151664E+02 0.  0.
        254    2    1    2    0    0 -0.58610007469E+03  0.53690876949E+02  0.39328337059E+03  0.11446069097E+04  0.89947604762E+03 0.  0.
         23    2    4    4    0    0 -0.77338726615E+03 -0.60912958985E+02  0.13189539132E+03  0.79212397666E+03  0.90695910269E+02 0.  0.
         23    2    4    4    0    0  0.18728719146E+03  0.11460383593E+03  0.26138797927E+03  0.35248293300E+03  0.87806668606E+02 0.  0.
          2    1    3    3  502    0 -0.79447802674E+00  0.37075532337E+01 -0.44500731167E+01  0.58463917983E+01  0.00000000000E+00 0. -1.
         -1    1    3    3    0  502  0.58689455271E+03 -0.57398430183E+02 -0.80103812850E+03  0.99468682463E+03  0.00000000000E+00 0.  1.
         11    1    5    5    0    0 -0.63876404565E+03 -0.70191782743E+02  0.13713902011E+03  0.65707952579E+03  0.00000000000E+00 0. -1.
        -11    1    5    5    0    0 -0.13462322050E+03  0.92788237583E+01 -0.52436287897E+01  0.13504445087E+03  0.00000000000E+00 0.  1.
          4    1    6    6  503    0  0.19666593539E+03  0.10530588387E+03  0.24980036103E+03  0.33491348091E+03  0.00000000000E+00 0. -1.
         -4    1    6    6    0  503 -0.93787439324E+01  0.92979520623E+01  0.11587618237E+02  0.17569452089E+02  0.00000000000E+00 0.  1.
<mgrwt>
<rscale>  0 0.21051635E+04</rscale>
<asrwt>0</asrwt>
<pdfrwt beam="1">  1        2 0.13330271E+00 0.21051635E+04</pdfrwt>
<pdfrwt beam="2">  1       -3 0.19671884E+00 0.21051635E+04</pdfrwt>
<totfact> 0.27509515E+00</totfact>
</mgrwt>
</event>
<event>
12    6  0.1530859E-007  0.2788158E+04  0.7818608E-02  0.8306954E-01
          2   -1    0    0  501    0  0.00000000000E+00  0.00000000000E+00  0.20990929180E+04  0.20990929180E+04  0.00000000000E+00 0. -1.
         -1   -1    0    0    0  501 -0.00000000000E+00 -0.00000000000E+00 -0.92585560160E+03  0.92585560160E+03  0.00000000000E+00 0.  1.
         24    2    1    2    0    0 -0.12212779972E+04 -0.25330167951E+03  0.56879085117E+03  0.13730358829E+04  0.77606803094E+02 0.  0.
        254    2    1    2    0    0  0.12212779972E+04  0.25330167951E+03  0.60444646523E+03  0.16519126367E+04  0.89876478724E+03 0.  0.
         23    2    4    4    0    0 -0.13126432905E+03  0.21802814992E+02  0.66091839644E+02  0.17496303605E+03  0.92402629253E+02 0.  0.
         23    2    4    4    0    0  0.13525423263E+04  0.23149886452E+03  0.53835462559E+03  0.14769496007E+04  0.92692780118E+02 0.  0.
          4    1    3    3  502    0 -0.13175878684E+03 -0.51870194556E+02  0.59054840755E+02  0.15342219269E+03  0.00000000000E+00 0. -1.
         -3    1    3    3    0  502 -0.10895192104E+04 -0.20143148495E+03  0.50973601042E+03  0.12196136902E+04  0.00000000000E+00 0.  1.
         11    1    5    5    0    0 -0.34061304557E+01  0.21088653125E+02 -0.12625739783E+02  0.24814155645E+02  0.00000000000E+00 0.  1.
        -11    1    5    5    0    0 -0.12785819860E+03  0.71416186719E+00  0.78717579428E+02  0.15014888040E+03  0.00000000000E+00 0. -1.
          4    1    6    6  503    0  0.12341862699E+04  0.23062027344E+03  0.47257577714E+03  0.13415399079E+04  0.00000000000E+00 0. -1.
         -4    1    6    6    0  503  0.11835605633E+03  0.87859107217E+00  0.65778848446E+02  0.13540969277E+03  0.00000000000E+00 0.  1.
<mgrwt>
<rscale>  0 0.27881585E+04</rscale>
<asrwt>0</asrwt>
<pdfrwt beam="1">  1        2 0.32293737E+00 0.27881585E+04</pdfrwt>
<pdfrwt beam="2">  1       -1 0.14243932E+00 0.27881585E+04</pdfrwt>
<totfact> 0.23343120E+00</totfact>
</mgrwt>
</event>
<event>
12    6  0.1530859E-007  0.1455060E+04  0.7818608E-02  0.8914900E-01
         -1   -1    0    0    0  501 -0.00000000000E+00  0.00000000000E+00  0.95485100752E+03  0.95485100752E+03  0.00000000000E+00 0.  1.
          2   -1    0    0  501    0  0.00000000000E+00 -0.00000000000E+00 -0.55432747746E+03  0.55432747746E+03  0.00000000000E+00 0. -1.
         24    2    1    2    0    0 -0.15138210731E+03 -0.36805185632E+03 -0.78053930906E+02  0.41324251330E+03  0.79361497707E+02 0.  0.
        254    2    1    2    0    0  0.15138210731E+03  0.36805185632E+03  0.47857746097E+03  0.10959359717E+04  0.90203135008E+03 0.  0.
         23    2    4    4    0    0  0.26852691262E+02  0.54339228319E+03  0.61480197269E+03  0.82585323743E+03  0.89754463360E+02 0.  0.
         23    2    4    4    0    0  0.12452941605E+03 -0.17534042688E+03 -0.13622451172E+03  0.27008273425E+03  0.90198253786E+02 0.  0.
          4    1    3    3  502    0 -0.89200749598E+02 -0.30124677448E+03 -0.53148389247E+02  0.31863952069E+03  0.00000000000E+00 0. -1.
         -1    1    3    3    0  502 -0.62181357716E+02 -0.66805081832E+02 -0.24905541658E+02  0.94602992612E+02  0.00000000000E+00 0.  1.
         11    1    5    5    0    0  0.28992438373E+02  0.54540593981E+03  0.61544112937E+03  0.82284627020E+03  0.00000000000E+00 0.  1.
        -11    1    5    5    0    0 -0.21397471107E+01 -0.20136566141E+01 -0.63915668493E+00  0.30069672305E+01  0.00000000000E+00 0. -1.
          1    1    6    6  503    0  0.18912366836E+02 -0.85551152756E+02 -0.21686797237E+02  0.90260703141E+02  0.00000000000E+00 0. -1.
         -1    1    6    6    0  503  0.10561704922E+03 -0.89789274121E+02 -0.11453771448E+03  0.17982203111E+03  0.00000000000E+00 0.  1.
<mgrwt>
<rscale>  0 0.14550603E+04</rscale>
<asrwt>0</asrwt>
<pdfrwt beam="1">  1        2 0.85281150E-01 0.14550603E+04</pdfrwt>
<pdfrwt beam="2">  1       -1 0.14690015E+00 0.14550603E+04</pdfrwt>
<totfact> 0.22304869E+01</totfact>
</mgrwt>
</event>
<event>
12    6  0.1530859E-007  0.1960952E+04  0.7818608E-02  0.8625097E-01
          2   -1    0    0  501    0  0.00000000000E+00  0.00000000000E+00  0.10793520176E+04  0.10793520176E+04  0.00000000000E+00 0. -1.
         -1   -1    0    0    0  501 -0.00000000000E+00 -0.00000000000E+00 -0.89065798726E+03  0.89065798726E+03  0.00000000000E+00 0.  1.
         24    2    1    2    0    0 -0.11405018208E+03  0.22861763738E+03  0.79574122830E+03  0.83973673504E+03  0.81732573751E+02 0.  0.
        254    2    1    2    0    0  0.11405018208E+03 -0.22861763738E+03 -0.60704719795E+03  0.11302732698E+04  0.91855206482E+03 0.  0.
         23    2    4    4    0    0 -0.15541246700E+03  0.26219317957E+03 -0.25994421265E+02  0.31820774662E+03  0.87647942133E+02 0.  0.
         23    2    4    4    0    0  0.26946264908E+03 -0.49081081695E+03 -0.58105277668E+03  0.81206552320E+03  0.91228873724E+02 0.  0.
          2    1    3    3  502    0 -0.11461621042E+03  0.14657016229E+03  0.54008693298E+03  0.57123863957E+03  0.00000000000E+00 0. -1.
         -1    1    3    3    0  502  0.56602833506E+00  0.82047475089E+02  0.25565429532E+03  0.26849809547E+03  0.00000000000E+00 0.  1.
         11    1    5    5    0    0 -0.96045020124E+01  0.91751655301E+02 -0.16428247224E+02  0.93704322292E+02  0.00000000000E+00 0. -1.
        -11    1    5    5    0    0 -0.14580796499E+03  0.17044152427E+03 -0.95661740412E+01  0.22450342433E+03  0.00000000000E+00 0.  1.
          4    1    6    6  503    0  0.23013556265E+02 -0.53658915794E+02 -0.26383421370E+02  0.64070179798E+02  0.00000000000E+00 0. -1.
         -4    1    6    6    0  503  0.24644909282E+03 -0.43715190115E+03 -0.55466935531E+03  0.74799534340E+03  0.00000000000E+00 0.  1.
<mgrwt>
<rscale>  0 0.19609523E+04</rscale>
<asrwt>0</asrwt>
<pdfrwt beam="1">  1        2 0.16605416E+00 0.19609523E+04</pdfrwt>
<pdfrwt beam="2">  1       -1 0.13702431E+00 0.19609523E+04</pdfrwt>
<totfact> 0.10574185E+01</totfact>
</mgrwt>
</event>
<event>
12    6  0.1530859E-007  0.1134902E+04  0.7818608E-02  0.9171826E-01
         -1   -1    0    0    0  501 -0.00000000000E+00  0.00000000000E+00  0.25152097493E+03  0.25152097493E+03  0.00000000000E+00 0.  1.
          2   -1    0    0  501    0  0.00000000000E+00 -0.00000000000E+00 -0.12802131738E+04  0.12802131738E+04  0.00000000000E+00 0. -1.
         24    2    1    2    0    0 -0.29574454353E+01 -0.95407440387E+02 -0.41238700903E+03  0.43106962754E+03  0.81527004125E+02 0.  0.
        254    2    1    2    0    0  0.29574454353E+01  0.95407440387E+02 -0.61630518983E+03  0.11006645212E+04  0.90692831858E+03 0.  0.
         23    2    4    4    0    0  0.40853210207E+02  0.59781625256E+02 -0.84263106054E+03  0.85052931544E+03  0.90167537077E+02 0.  0.
         23    2    4    4    0    0 -0.37895764772E+02  0.35625815130E+02  0.22632587071E+03  0.25013520575E+03  0.92945864417E+02 0.  0.
          4    1    3    3  502    0  0.19747172253E+01 -0.10907564960E+03 -0.38377113453E+03  0.39897578942E+03  0.00000000000E+00 0. -1.
         -3    1    3    3    0  502 -0.49321626606E+01  0.13668209214E+02 -0.28615874503E+02  0.32093838119E+02  0.00000000000E+00 0.  1.
         11    1    5    5    0    0  0.24130529693E+02  0.81730839224E+02 -0.70718280084E+03  0.71229890239E+03  0.00000000000E+00 0. -1.
        -11    1    5    5    0    0  0.16722680514E+02 -0.21949213968E+02 -0.13544825970E+03  0.13823041305E+03  0.00000000000E+00 0.  1.
          3    1    6    6  503    0  0.13959664393E+01 -0.22941952557E+02  0.15237193585E+02  0.27576330027E+02  0.00000000000E+00 0. -1.
         -3    1    6    6    0  503 -0.39291731211E+02  0.58567767687E+02  0.21108867712E+03  0.22255887572E+03  0.00000000000E+00 0.  1.
<mgrwt>
<rscale>  0 0.11349017E+04</rscale>
<asrwt>0</asrwt>
<pdfrwt beam="1">  1        2 0.19695587E+00 0.11349017E+04</pdfrwt>
<pdfrwt beam="2">  1       -1 0.38695535E-01 0.11349017E+04</pdfrwt>
<totfact> 0.12397885E+02</totfact>
</mgrwt>
</event>
<event>
12    6  0.1530859E-007  0.1454701E+04  0.7818608E-02  0.8915148E-01
          2   -1    0    0  501    0  0.00000000000E+00  0.00000000000E+00  0.17484939447E+04  0.17484939447E+04  0.00000000000E+00 0. -1.
         -1   -1    0    0    0  501 -0.00000000000E+00 -0.00000000000E+00 -0.30256829675E+03  0.30256829675E+03  0.00000000000E+00 0.  1.
         24    2    1    2    0    0  0.26226659265E+03 -0.18487316140E+03  0.86803964239E+03  0.92878570992E+03  0.78665257675E+02 0.  0.
        254    2    1    2    0    0 -0.26226659265E+03  0.18487316140E+03  0.57788600553E+03  0.11222765315E+04  0.90696776478E+03 0.  0.
         23    2    4    4    0    0 -0.52418924984E+03  0.25179793951E+03  0.14874498237E+03  0.60716162980E+03  0.91343324527E+02 0.  0.
         23    2    4    4    0    0  0.26192265719E+03 -0.66924778116E+02  0.42914102316E+03  0.51511490170E+03  0.89994110481E+02 0.  0.
          4    1    3    3  502    0  0.23611689839E+03 -0.13253496570E+03  0.68291479376E+03  0.73463550307E+03  0.00000000000E+00 0. -1.
         -3    1    3    3    0  502  0.26149694262E+02 -0.52338195695E+02  0.18512484863E+03  0.19415020684E+03  0.00000000000E+00 0.  1.
         11    1    5    5    0    0 -0.20835456435E+02  0.29494977165E+02  0.22694058856E+02  0.42650794016E+02  0.00000000000E+00 0. -1.
        -11    1    5    5    0    0 -0.50335379340E+03  0.22230296235E+03  0.12605092351E+03  0.56451083579E+03  0.00000000000E+00 0.  1.
          4    1    6    6  503    0  0.45487018145E+02  0.17901039909E+02  0.10916249947E+03  0.11960755553E+03  0.00000000000E+00 0. -1.
         -4    1    6    6    0  503  0.21643563904E+03 -0.84825818025E+02  0.31997852369E+03  0.39550734617E+03  0.00000000000E+00 0.  1.
<mgrwt>
<rscale>  0 0.14547011E+04</rscale>
<asrwt>0</asrwt>
<pdfrwt beam="1">  1        2 0.26899906E+00 0.14547011E+04</pdfrwt>
<pdfrwt beam="2">  1       -1 0.46548970E-01 0.14547011E+04</pdfrwt>
<totfact> 0.46782781E+01</totfact>
</mgrwt>
</event>
<event>
12    6  0.1530859E-007  0.1897519E+04  0.7818608E-02  0.8656092E-01
          2   -1    0    0  501    0  0.00000000000E+00  0.00000000000E+00  0.31374997169E+04  0.31374997169E+04  0.00000000000E+00 0. -1.
         -1   -1    0    0    0  501 -0.00000000000E+00 -0.00000000000E+00 -0.28689877064E+03  0.28689877064E+03  0.00000000000E+00 0.  1.
         24    2    1    2    0    0 -0.24561508354E+03 -0.66909724184E+03  0.12891468189E+04  0.14752357115E+04  0.80018719676E+02 0.  0.
        254    2    1    2    0    0  0.24561508354E+03  0.66909724184E+03  0.15614541274E+04  0.19491627761E+04  0.92362256762E+03 0.  0.
         23    2    4    4    0    0  0.33701726271E+03  0.81762042120E+03  0.14930017736E+04  0.17376551068E+04  0.91143762487E+02 0.  0.
         23    2    4    4    0    0 -0.91402179170E+02 -0.14852317937E+03  0.68452353729E+02  0.21150766930E+03  0.98164536747E+02 0.  0.
          4    1    3    3  502    0 -0.11465313900E+03 -0.25149455830E+03  0.56788614919E+03  0.63157702110E+03  0.00000000000E+00 0. -1.
         -3    1    3    3    0  502 -0.13096194454E+03 -0.41760268354E+03  0.72126066973E+03  0.84365869042E+03  0.00000000000E+00 0.  1.
         11    1    5    5    0    0  0.33766954382E+03  0.81271619855E+03  0.14925390427E+04  0.17326861038E+04  0.00000000000E+00 0. -1.
        -11    1    5    5    0    0 -0.65228110987E+00  0.49042226581E+01  0.46273089430E+00  0.49690029591E+01  0.00000000000E+00 0.  1.
          2    1    6    6  503    0 -0.10035831231E+03 -0.83939365941E+02  0.65312146003E+02  0.14623024455E+03  0.00000000000E+00 0. -1.
         -2    1    6    6    0  503  0.89561331444E+01 -0.64583813424E+02  0.31402077262E+01  0.65277424749E+02  0.00000000000E+00 0.  1.
<mgrwt>
<rscale>  0 0.18975192E+04</rscale>
<asrwt>0</asrwt>
<pdfrwt beam="1">  1        2 0.48269224E+00 0.18975192E+04</pdfrwt>
<pdfrwt beam="2">  1       -1 0.44138275E-01 0.18975192E+04</pdfrwt>
<totfact> 0.77389016E+00</totfact>
</mgrwt>
</event>
<event>
12    6  0.1530859E-007  0.1629049E+04  0.7818608E-02  0.8802898E-01
          2   -1    0    0  501    0  0.00000000000E+00  0.00000000000E+00  0.14938132773E+04  0.14938132773E+04  0.00000000000E+00 0. -1.
         -1   -1    0    0    0  501 -0.00000000000E+00 -0.00000000000E+00 -0.44413173640E+03  0.44413173640E+03  0.00000000000E+00 0.  1.
         24    2    1    2    0    0 -0.13891322617E+03 -0.22226850358E+03  0.81396356613E+03  0.85907441013E+03  0.82292059523E+02 0.  0.
        254    2    1    2    0    0  0.13891322617E+03  0.22226850358E+03  0.23571797475E+03  0.10788706035E+04  0.10196561398E+04 0.  0.
         23    2    4    4    0    0 -0.13210475348E+03  0.30566031747E+03 -0.30568864547E+03  0.46089644564E+03  0.90000500397E+02 0.  0.
         23    2    4    4    0    0  0.27101797966E+03 -0.83391813886E+02  0.54140662021E+03  0.61797415790E+03  0.91465794164E+02 0.  0.
          4    1    3    3  502    0 -0.14687646534E+03 -0.18791564343E+03  0.73107145810E+03  0.76899314819E+03  0.00000000000E+00 0. -1.
         -3    1    3    3    0  502  0.79632391686E+01 -0.34352860148E+02  0.82892108034E+02  0.90081261940E+02  0.00000000000E+00 0.  1.
         11    1    5    5    0    0 -0.11334341412E+03  0.30455336796E+03 -0.27927354199E+03  0.42847776455E+03  0.00000000000E+00 0.  1.
        -11    1    5    5    0    0 -0.18761339366E+02  0.11069495072E+01 -0.26415103473E+02  0.32418681089E+02  0.00000000000E+00 0. -1.
          2    1    6    6  503    0  0.23961660822E+03 -0.46898633443E+02  0.40037635539E+03  0.46895290457E+03  0.00000000000E+00 0.  1.
         -2    1    6    6    0  503  0.31401371439E+02 -0.36493180442E+02  0.14103026482E+03  0.14902125333E+03  0.00000000000E+00 0. -1.
<mgrwt>
<rscale>  0 0.16290487E+04</rscale>
<asrwt>0</asrwt>
<pdfrwt beam="1">  1        2 0.22981743E+00 0.16290487E+04</pdfrwt>
<pdfrwt beam="2">  1       -1 0.68327960E-01 0.16290487E+04</pdfrwt>
<totfact> 0.30248979E+01</totfact>
</mgrwt>
</event>
<event>
12    6  0.1530859E-007  0.1331307E+04  0.7818608E-02  0.9005101E-01
         -1   -1    0    0    0  501 -0.00000000000E+00  0.00000000000E+00  0.86499907441E+03  0.86499907441E+03  0.00000000000E+00 0.  1.
          2   -1    0    0  501    0  0.00000000000E+00 -0.00000000000E+00 -0.51224835312E+03  0.51224835312E+03  0.00000000000E+00 0. -1.
         24    2    1    2    0    0  0.24639517380E+03 -0.12071914465E+03 -0.13858040225E+03  0.31781259102E+03  0.80725594248E+02 0.  0.
        254    2    1    2    0    0 -0.24639517380E+03  0.12071914465E+03  0.49133112354E+03  0.10594348365E+04  0.89761473155E+03 0.  0.
         23    2    4    4    0    0 -0.25405732823E+03  0.30451511503E+03  0.67226671040E+03  0.78577814816E+03  0.90720377547E+02 0.  0.
         23    2    4    4    0    0  0.76621544309E+01 -0.18379597039E+03 -0.18093558685E+03  0.27365668836E+03  0.91162652175E+02 0.  0.
          2    1    3    3  502    0  0.79130157287E+02 -0.42357269037E+02 -0.50599082538E+01  0.89896177360E+02  0.00000000000E+00 0. -1.
         -1    1    3    3    0  502  0.16726501651E+03 -0.78361875610E+02 -0.13352049400E+03  0.22791641366E+03  0.00000000000E+00 0.  1.
         11    1    5    5    0    0 -0.23712695289E+03  0.30864753772E+03  0.63851388431E+03  0.74779173223E+03  0.00000000000E+00 0.  1.
        -11    1    5    5    0    0 -0.16930375340E+02 -0.41324226895E+01  0.33752826082E+02  0.37986415927E+02  0.00000000000E+00 0. -1.
          1    1    6    6  503    0  0.59243884918E+01  0.95909950859E+01 -0.15438329524E+02  0.19116160290E+02  0.00000000000E+00 0. -1.
         -1    1    6    6    0  503  0.17377659391E+01 -0.19338696547E+03 -0.16549725733E+03  0.25454052807E+03  0.00000000000E+00 0.  1.
<mgrwt>
<rscale>  0 0.13313067E+04</rscale>
<asrwt>0</asrwt>
<pdfrwt beam="1">  1        2 0.78807439E-01 0.13313067E+04</pdfrwt>
<pdfrwt beam="2">  1       -1 0.13307678E+00 0.13313067E+04</pdfrwt>
<totfact> 0.32000538E+01</totfact>
</mgrwt>
</event>
<event>
12    6  0.1530859E-007  0.1772089E+04  0.7818608E-02  0.8721284E-01
         -1   -1    0    0    0  501 -0.00000000000E+00  0.00000000000E+00  0.12573345197E+04  0.12573345197E+04  0.00000000000E+00 0.  1.
          2   -1    0    0  501    0  0.00000000000E+00 -0.00000000000E+00 -0.62439634837E+03  0.62439634837E+03  0.00000000000E+00 0. -1.
         24    2    1    2    0    0 -0.25402494950E+03 -0.60448738913E+03  0.33317725325E+03  0.73946066114E+03  0.76559184321E+02 0.  0.
        254    2    1    2    0    0  0.25402494950E+03  0.60448738913E+03  0.29976091809E+03  0.11422702069E+04  0.88599714392E+03 0.  0.
         23    2    4    4    0    0 -0.21078788402E+03  0.16827964317E+02 -0.14028218192E+03  0.26856364000E+03  0.87935349739E+02 0.  0.
         23    2    4    4    0    0  0.46481283353E+03  0.58765942482E+03  0.44004310001E+03  0.87370656693E+03  0.91272479081E+02 0.  0.
          2    1    3    3  502    0 -0.17340506053E+03 -0.36485808579E+03  0.16831540317E+03  0.43763090925E+03  0.00000000000E+00 0. -1.
         -1    1    3    3    0  502 -0.80619888976E+02 -0.23962930334E+03  0.16486185007E+03  0.30182975189E+03  0.00000000000E+00 0.  1.
         11    1    5    5    0    0 -0.18253486922E+03  0.45359409287E+02 -0.10687337030E+03  0.21632931325E+03  0.00000000000E+00 0. -1.
        -11    1    5    5    0    0 -0.28253014804E+02 -0.28531444970E+02 -0.33408811617E+02  0.52234326752E+02  0.00000000000E+00 0.  1.
          4    1    6    6  503    0  0.20345172385E+03  0.20164737505E+03  0.20000757674E+03  0.34936699695E+03  0.00000000000E+00 0. -1.
         -4    1    6    6    0  503  0.26136110968E+03  0.38601204976E+03  0.24003552327E+03  0.52433956998E+03  0.00000000000E+00 0.  1.
<mgrwt>
<rscale>  0 0.17720893E+04</rscale>
<asrwt>0</asrwt>
<pdfrwt beam="1">  1        2 0.96060977E-01 0.17720893E+04</pdfrwt>
<pdfrwt beam="2">  1       -1 0.19343608E+00 0.17720893E+04</pdfrwt>
<totfact> 0.85339090E+00</totfact>
</mgrwt>
</event>
<event>
12    6  0.1530859E-007  0.1600402E+04  0.7818608E-02  0.8820301E-01
          2   -1    0    0  501    0  0.00000000000E+00  0.00000000000E+00  0.20850436648E+04  0.20850436648E+04  0.00000000000E+00 0. -1.
         -1   -1    0    0    0  501 -0.00000000000E+00 -0.00000000000E+00 -0.30710215996E+03  0.30710215996E+03  0.00000000000E+00 0.  1.
         24    2    1    2    0    0 -0.43754512670E+03 -0.30204912358E+03  0.47382331286E+03  0.71658993733E+03  0.79455619889E+02 0.  0.
        254    2    1    2    0    0  0.43754512670E+03  0.30204912358E+03  0.13041181920E+04  0.16755558874E+04  0.90779064892E+03 0.  0.
         23    2    4    4    0    0 -0.22598238061E+03  0.20492656306E+03  0.69879366158E+03  0.76780277091E+03  0.90252872304E+02 0.  0.
         23    2    4    4    0    0  0.66352750731E+03  0.97122560519E+02  0.60532453043E+03  0.90775311654E+03  0.88861626834E+02 0.  0.
          4    1    3    3  502    0 -0.13402608355E+03 -0.11603760818E+03  0.20153495484E+03  0.26841023752E+03  0.00000000000E+00 0. -1.
         -3    1    3    3    0  502 -0.30351904315E+03 -0.18601151539E+03  0.27228835802E+03  0.44817969981E+03  0.00000000000E+00 0.  1.
         11    1    5    5    0    0 -0.14818113846E+03  0.16435889917E+03  0.57460077284E+03  0.61574146010E+03  0.00000000000E+00 0. -1.
        -11    1    5    5    0    0 -0.77801242146E+02  0.40567663891E+02  0.12419288874E+03  0.15206131082E+03  0.00000000000E+00 0.  1.
          4    1    6    6  503    0  0.63289503334E+03  0.93798993303E+02  0.59869377983E+03  0.87623547998E+03  0.00000000000E+00 0. -1.
         -4    1    6    6    0  503  0.30632473972E+02  0.33235672160E+01  0.66307506024E+01  0.31517636559E+02  0.00000000000E+00 0.  1.
<mgrwt>
<rscale>  0 0.16004017E+04</rscale>
<asrwt>0</asrwt>
<pdfrwt beam="1">  1        2 0.32077594E+00 0.16004017E+04</pdfrwt>
<pdfrwt beam="2">  1       -1 0.47246487E-01 0.16004017E+04</pdfrwt>
<totfact> 0.29250337E+01</totfact>
</mgrwt>
</event>
<event>
12    6  0.1530859E-007  0.2641285E+04  0.7818608E-02  0.8354311E-01
          2   -1    0    0  501    0  0.00000000000E+00  0.00000000000E+00  0.10573693455E+04  0.10573693455E+04  0.00000000000E+00 0. -1.
         -1   -1    0    0    0  501 -0.00000000000E+00 -0.00000000000E+00 -0.16494672626E+04  0.16494672626E+04  0.00000000000E+00 0.  1.
         24    2    1    2    0    0  0.86333485514E+03 -0.42150593557E+03  0.41262037982E+03  0.10487298821E+04  0.81021367013E+02 0.  0.
        254    2    1    2    0    0 -0.86333485514E+03  0.42150593557E+03 -0.10047182969E+04  0.16581067260E+04  0.90379462982E+03 0.  0.
         23    2    4    4    0    0 -0.45957556921E+03  0.52170351882E+02 -0.99758615315E+03  0.11031061943E+04  0.87941421151E+02 0.  0.
         23    2    4    4    0    0 -0.40375928593E+03  0.36933558368E+03 -0.71321437394E+01  0.55500053168E+03  0.92435860707E+02 0.  0.
          2    1    3    3  502    0  0.86542508278E+02 -0.68219676709E+02  0.35676758488E+02  0.11582901677E+03  0.00000000000E+00 0. -1.
         -1    1    3    3    0  502  0.77679234686E+03 -0.35328625886E+03  0.37694362133E+03  0.93290086531E+03  0.00000000000E+00 0.  1.
         11    1    5    5    0    0 -0.19464019877E+03  0.65045947629E+02 -0.41433954868E+03  0.46237759881E+03  0.00000000000E+00 0. -1.
        -11    1    5    5    0    0 -0.26493537044E+03 -0.12875595747E+02 -0.58324660447E+03  0.64072859551E+03  0.00000000000E+00 0.  1.
          2    1    6    6  503    0 -0.17044537707E+03  0.11480730348E+03  0.30173962718E+02  0.20770847725E+03  0.00000000000E+00 0. -1.
         -2    1    6    6    0  503 -0.23331390886E+03  0.25452828020E+03 -0.37306106458E+02  0.34729205443E+03  0.00000000000E+00 0.  1.
<mgrwt>
<rscale>  0 0.26412846E+04</rscale>
<asrwt>0</asrwt>
<pdfrwt beam="1">  1        2 0.16267221E+00 0.26412846E+04</pdfrwt>
<pdfrwt beam="2">  1       -1 0.25376419E+00 0.26412846E+04</pdfrwt>
<totfact> 0.15331229E+00</totfact>
</mgrwt>
</event>
<event>
12    6  0.1530859E-007  0.1990780E+04  0.7818608E-02  0.8610943E-01
         -1   -1    0    0    0  501 -0.00000000000E+00  0.00000000000E+00  0.29902413843E+03  0.29902413843E+03  0.00000000000E+00 0.  1.
          2   -1    0    0  501    0  0.00000000000E+00 -0.00000000000E+00 -0.33134488860E+04  0.33134488860E+04  0.00000000000E+00 0. -1.
         24    2    1    2    0    0 -0.31739177832E+03 -0.69978531946E+03 -0.15801666258E+04  0.17588378601E+04  0.78402924532E+02 0.  0.
        254    2    1    2    0    0  0.31739177832E+03  0.69978531946E+03 -0.14342581217E+04  0.18536351643E+04  0.88793576810E+03 0.  0.
         23    2    4    4    0    0 -0.30069136050E+03  0.18806446946E+03 -0.43167307178E+03  0.56625595543E+03  0.92307243496E+02 0.  0.
         23    2    4    4    0    0  0.61808313882E+03  0.51172084999E+03 -0.10025850500E+04  0.12873792089E+04  0.91013461733E+02 0.  0.
          2    1    3    3  502    0 -0.31205157381E+03 -0.64008095054E+03 -0.14426804103E+04  0.16088525645E+04  0.00000000000E+00 0. -1.
         -1    1    3    3    0  502 -0.53402045011E+01 -0.59704368921E+02 -0.13748621546E+03  0.14998529559E+03  0.00000000000E+00 0.  1.
         11    1    5    5    0    0 -0.18716035115E+03  0.11839209102E+03 -0.33533410068E+03  0.40186396123E+03  0.00000000000E+00 0. -1.
        -11    1    5    5    0    0 -0.11353100936E+03  0.69672378442E+02 -0.96338971098E+02  0.16439199420E+03  0.00000000000E+00 0.  1.
          1    1    6    6  503    0  0.61886179866E+03  0.51001073027E+03 -0.10040497070E+04  0.12849967646E+04  0.00000000000E+00 0. -1.
         -1    1    6    6    0  503 -0.77865984179E+00  0.17101197189E+01  0.14646570369E+01  0.23824442990E+01  0.00000000000E+00 0.  1.
<mgrwt>
<rscale>  0 0.19907799E+04</rscale>
<asrwt>0</asrwt>
<pdfrwt beam="1">  1        2 0.50976140E+00 0.19907799E+04</pdfrwt>
<pdfrwt beam="2">  1       -1 0.46003711E-01 0.19907799E+04</pdfrwt>
<totfact> 0.54490635E+00</totfact>
</mgrwt>
</event>
<event>
12    6  0.1530859E-007  0.3054821E+04  0.7818608E-02  0.8228247E-01
          2   -1    0    0  501    0  0.00000000000E+00  0.00000000000E+00  0.37636021477E+04  0.37636021477E+04  0.00000000000E+00 0. -1.
         -1   -1    0    0    0  501 -0.00000000000E+00 -0.00000000000E+00 -0.61988022144E+03  0.61988022144E+03  0.00000000000E+00 0.  1.
         24    2    1    2    0    0  0.47774598191E+03 -0.10719631363E+04  0.35655924346E+03  0.12292410212E+04  0.80949399462E+02 0.  0.
        254    2    1    2    0    0 -0.47774598191E+03  0.10719631363E+04  0.27871626828E+04  0.31542413479E+04  0.89644658044E+03 0.  0.
         23    2    4    4    0    0 -0.77904896786E+02  0.11377943369E+03 -0.13005011782E+02  0.16640424880E+03  0.92229665576E+02 0.  0.
         23    2    4    4    0    0 -0.39984108513E+03  0.95818370264E+03  0.28001676945E+04  0.29878370991E+04  0.90788279453E+02 0.  0.
          4    1    3    3  502    0  0.39718860441E+03 -0.93136871349E+03  0.28329463968E+03  0.10514096827E+04  0.00000000000E+00 0. -1.
         -3    1    3    3    0  502  0.80557377505E+02 -0.14059442284E+03  0.73264603782E+02  0.17783133855E+03  0.00000000000E+00 0.  1.
         11    1    5    5    0    0 -0.24464755967E+01  0.84644415329E+02 -0.14243738144E+01  0.84691741805E+02  0.00000000000E+00 0.  1.
        -11    1    5    5    0    0 -0.75458421190E+02  0.29135018363E+02 -0.11580637968E+02  0.81712506993E+02  0.00000000000E+00 0. -1.
          2    1    6    6  503    0 -0.33574792932E+03  0.79254038501E+03  0.22169536481E+04  0.23781779605E+04  0.00000000000E+00 0. -1.
         -2    1    6    6    0  503 -0.64093155807E+02  0.16564331763E+03  0.58321404647E+03  0.60965913862E+03  0.00000000000E+00 0.  1.
<mgrwt>
<rscale>  0 0.30548208E+04</rscale>
<asrwt>0</asrwt>
<pdfrwt beam="1">  1        2 0.57901570E+00 0.30548208E+04</pdfrwt>
<pdfrwt beam="2">  1       -1 0.95366191E-01 0.30548208E+04</pdfrwt>
<totfact> 0.53718306E-01</totfact>
</mgrwt>
</event>
<event>
12    6  0.1530859E-007  0.1201953E+04  0.7818608E-02  0.9111148E-01
         -1   -1    0    0    0  501 -0.00000000000E+00  0.00000000000E+00  0.35308889751E+03  0.35308889751E+03  0.00000000000E+00 0.  1.
          2   -1    0    0  501    0  0.00000000000E+00 -0.00000000000E+00 -0.10228952938E+04  0.10228952938E+04  0.00000000000E+00 0. -1.
         24    2    1    2    0    0  0.23968579762E+03 -0.43316958387E+02 -0.11159728777E+03  0.27949996203E+03  0.79628096000E+02 0.  0.
        254    2    1    2    0    0 -0.23968579762E+03  0.43316958387E+02 -0.55820910852E+03  0.10964842293E+04  0.91178649681E+03 0.  0.
         23    2    4    4    0    0 -0.16985913774E+03  0.25375908811E+03  0.14700632437E+03  0.35098337095E+03  0.91283436662E+02 0.  0.
         23    2    4    4    0    0 -0.69826659879E+02 -0.21044212972E+03 -0.70521543289E+03  0.74550085833E+03  0.96338313186E+02 0.  0.
          4    1    3    3  502    0  0.16297059123E+03 -0.53920225003E+02 -0.45253543336E+02  0.17752376589E+03  0.00000000000E+00 0. -1.
         -3    1    3    3    0  502  0.76715206391E+02  0.10603266616E+02 -0.66343744432E+02  0.10197619614E+03  0.00000000000E+00 0.  1.
         11    1    5    5    0    0 -0.13349413882E+02  0.50610536539E+02  0.61273868951E+02  0.80586104733E+02  0.00000000000E+00 0.  1.
        -11    1    5    5    0    0 -0.15650972386E+03  0.20314855157E+03  0.85732455422E+02  0.27039726622E+03  0.00000000000E+00 0. -1.
          3    1    6    6  503    0 -0.42381142259E+02 -0.19383483236E+03 -0.50234444709E+03  0.54010929170E+03  0.00000000000E+00 0. -1.
         -3    1    6    6    0  503 -0.27445517620E+02 -0.16607297361E+02 -0.20287098580E+03  0.20539156663E+03  0.00000000000E+00 0.  1.
<mgrwt>
<rscale>  0 0.12019534E+04</rscale>
<asrwt>0</asrwt>
<pdfrwt beam="1">  1        2 0.15736851E+00 0.12019534E+04</pdfrwt>
<pdfrwt beam="2">  1       -1 0.54321369E-01 0.12019534E+04</pdfrwt>
<totfact> 0.93779839E+01</totfact>
</mgrwt>
</event>
<event>
12    6  0.1530859E-007  0.1330119E+04  0.7818608E-02  0.9006016E-01
          2   -1    0    0  501    0  0.00000000000E+00  0.00000000000E+00  0.30529203265E+03  0.30529203265E+03  0.00000000000E+00 0. -1.
         -1   -1    0    0    0  501 -0.00000000000E+00 -0.00000000000E+00 -0.14487905002E+04  0.14487905002E+04  0.00000000000E+00 0.  1.
         24    2    1    2    0    0  0.50719129102E+02  0.22990595489E+03  0.32186313639E+02  0.25129758329E+03  0.81763918893E+02 0.  0.
        254    2    1    2    0    0 -0.50719129102E+02 -0.22990595489E+03 -0.11756847812E+04  0.15027849496E+04  0.90592423621E+03 0.  0.
         23    2    4    4    0    0  0.98369169763E+01 -0.53290547391E+03 -0.99716838677E+03  0.11344035049E+04  0.91877697075E+02 0.  0.
         23    2    4    4    0    0 -0.60556046079E+02  0.30299951903E+03 -0.17851639440E+03  0.36838144468E+03  0.91438736131E+02 0.  0.
          4    1    3    3  502    0  0.45742868018E+02  0.22692489034E+03  0.46268002098E+02  0.23606787975E+03  0.00000000000E+00 0. -1.
         -1    1    3    3    0  502  0.49762610844E+01  0.29810645489E+01 -0.14081688459E+02  0.15229703545E+02  0.00000000000E+00 0.  1.
         11    1    5    5    0    0  0.21774783804E+02 -0.36451452447E+02 -0.10644414308E+03  0.11460019717E+03  0.00000000000E+00 0. -1.
        -11    1    5    5    0    0 -0.11937866828E+02 -0.49645402147E+03 -0.89072424369E+03  0.10198033077E+04  0.00000000000E+00 0.  1.
          1    1    6    6  503    0 -0.15428552434E+02  0.73013523478E+02 -0.92209270616E+02  0.11862362509E+03  0.00000000000E+00 0. -1.
         -1    1    6    6    0  503 -0.45127493645E+02  0.22998599555E+03 -0.86307123788E+02  0.24975781959E+03  0.00000000000E+00 0.  1.
<mgrwt>
<rscale>  0 0.13301191E+04</rscale>
<asrwt>0</asrwt>
<pdfrwt beam="1">  1        2 0.46968004E-01 0.13301191E+04</pdfrwt>
<pdfrwt beam="2">  1       -1 0.22289085E+00 0.13301191E+04</pdfrwt>
<totfact> 0.12702615E+01</totfact>
</mgrwt>
</event>
<event>
12    6  0.1530859E-007  0.1116359E+04  0.7818608E-02  0.9189392E-01
         -1   -1    0    0    0  501 -0.00000000000E+00  0.00000000000E+00  0.27640050135E+03  0.27640050135E+03  0.00000000000E+00 0.  1.
          2   -1    0    0  501    0  0.00000000000E+00 -0.00000000000E+00 -0.11272216514E+04  0.11272216514E+04  0.00000000000E+00 0. -1.
         24    2    1    2    0    0  0.11358230329E+03 -0.10383091891E+03 -0.25268644073E+03  0.30598119433E+03  0.78052896213E+02 0.  0.
        254    2    1    2    0    0 -0.11358230329E+03  0.10383091891E+03 -0.59813470934E+03  0.10976409584E+04  0.90739668492E+03 0.  0.
         23    2    4    4    0    0  0.34523678216E+03  0.23350971617E+03 -0.21336148862E+03  0.47791452637E+03  0.95728503497E+02 0.  0.
         23    2    4    4    0    0 -0.45881908546E+03 -0.12967879726E+03 -0.38477322071E+03  0.61972643208E+03  0.93160483037E+02 0.  0.
          2    1    3    3  502    0  0.89431214881E+01 -0.50369286401E+02 -0.10867349326E+03  0.12011233314E+03  0.00000000000E+00 0. -1.
         -1    1    3    3    0  502  0.10463918180E+03 -0.53461632508E+02 -0.14401294748E+03  0.18586886119E+03  0.00000000000E+00 0.  1.
         11    1    5    5    0    0  0.24386628339E+03  0.16108900498E+03 -0.19653222095E+03  0.35220071773E+03  0.00000000000E+00 0. -1.
        -11    1    5    5    0    0  0.10137049878E+03  0.72420711188E+02 -0.16829267670E+02  0.12571380864E+03  0.00000000000E+00 0.  1.
          2    1    6    6  503    0 -0.45541382113E+03 -0.13727284697E+03 -0.36940915454E+03  0.60225302527E+03  0.00000000000E+00 0. -1.
         -2    1    6    6    0  503 -0.34052643271E+01  0.75940497038E+01 -0.15364066177E+02  0.17473406810E+02  0.00000000000E+00 0.  1.
<mgrwt>
<rscale>  0 0.11163595E+04</rscale>
<asrwt>0</asrwt>
<pdfrwt beam="1">  1        2 0.17341872E+00 0.11163595E+04</pdfrwt>
<pdfrwt beam="2">  1       -1 0.42523153E-01 0.11163595E+04</pdfrwt>
<totfact> 0.12890788E+02</totfact>
</mgrwt>
</event>
<event>
12    6  0.1530859E-007  0.4346240E+04  0.7818608E-02  0.7938123E-01
          2   -1    0    0  501    0  0.00000000000E+00  0.00000000000E+00  0.27201892526E+04  0.27201892526E+04  0.00000000000E+00 0. -1.
         -1   -1    0    0    0  501 -0.00000000000E+00 -0.00000000000E+00 -0.17360741643E+04  0.17360741643E+04  0.00000000000E+00 0.  1.
         24    2    1    2    0    0  0.84893907637E+03  0.15895725621E+04  0.14709241696E+04  0.23276961999E+04  0.84339792222E+02 0.  0.
        254    2    1    2    0    0 -0.84893907637E+03 -0.15895725621E+04 -0.48680908132E+03  0.21285672171E+04  0.10229256232E+04 0.  0.
         23    2    4    4    0    0 -0.93543559437E+03 -0.12788607080E+04 -0.62907532121E+02  0.15884564906E+04  0.93339184849E+02 0.  0.
         23    2    4    4    0    0  0.86496517996E+02 -0.31071185414E+03 -0.42390154919E+03  0.54011072649E+03  0.89462671176E+02 0.  0.
          4    1    3    3  502    0  0.73616187664E+03  0.13771651674E+04  0.13104929415E+04  0.20386049045E+04  0.00000000000E+00 0. -1.
         -3    1    3    3    0  502  0.11277719973E+03  0.21240739469E+03  0.16043122806E+03  0.28909129533E+03  0.00000000000E+00 0.  1.
         11    1    5    5    0    0 -0.79471131344E+03 -0.11269052693E+04 -0.34182239873E+02  0.13793657902E+04  0.00000000000E+00 0. -1.
        -11    1    5    5    0    0 -0.14072428093E+03 -0.15195543861E+03 -0.28725292249E+02  0.20909070037E+03  0.00000000000E+00 0.  1.
          3    1    6    6  503    0  0.56926265096E+02 -0.20060276283E+03 -0.33884918534E+03  0.39787037904E+03  0.00000000000E+00 0. -1.
         -3    1    6    6    0  503  0.29570252901E+02 -0.11010909131E+03 -0.85052363854E+02  0.14224034745E+03  0.00000000000E+00 0.  1.
<mgrwt>
<rscale>  0 0.43462399E+04</rscale>
<asrwt>0</asrwt>
<pdfrwt beam="1">  1        2 0.41849065E+00 0.43462399E+04</pdfrwt>
<pdfrwt beam="2">  1       -1 0.26708833E+00 0.43462399E+04</pdfrwt>
<totfact> 0.12150718E-01</totfact>
</mgrwt>
</event>
<event>
12    6  0.1530859E-007  0.1876666E+04  0.7818608E-02  0.8666559E-01
         -1   -1    0    0    0  501 -0.00000000000E+00  0.00000000000E+00  0.60845706911E+03  0.60845706911E+03  0.00000000000E+00 0.  1.
          2   -1    0    0  501    0  0.00000000000E+00 -0.00000000000E+00 -0.14470520925E+04  0.14470520925E+04  0.00000000000E+00 0. -1.
         24    2    1    2    0    0  0.25244033197E+03 -0.26488688422E+03 -0.99970106975E+03  0.10675781111E+04  0.80184860576E+02 0.  0.
        254    2    1    2    0    0 -0.25244033197E+03  0.26488688422E+03  0.16110604638E+03  0.98793105047E+03  0.90341652612E+03 0.  0.
         23    2    4    4    0    0 -0.12939747803E+03 -0.90505052495E+02  0.46340690470E+03  0.49805809812E+03  0.91548008860E+02 0.  0.
         23    2    4    4    0    0 -0.12304285394E+03  0.35539193671E+03 -0.30230085832E+03  0.48987295235E+03  0.84538322199E+02 0.  0.
          4    1    3    3  502    0  0.22048257808E+03 -0.18331731344E+03 -0.78194320023E+03  0.83285831510E+03  0.00000000000E+00 0. -1.
         -3    1    3    3    0  502  0.31957753891E+02 -0.81569570773E+02 -0.21775786952E+03  0.23471979603E+03  0.00000000000E+00 0.  1.
         11    1    5    5    0    0  0.13033734596E+02 -0.16795122110E+02  0.71902706178E+02  0.74979687382E+02  0.00000000000E+00 0. -1.
        -11    1    5    5    0    0 -0.14243121263E+03 -0.73709930386E+02  0.39150419852E+03  0.42307841074E+03  0.00000000000E+00 0.  1.
          1    1    6    6  503    0 -0.55069702433E+02  0.21460189256E+03 -0.12858674393E+03  0.25616634270E+03  0.00000000000E+00 0. -1.
         -1    1    6    6    0  503 -0.67973151503E+02  0.14079004415E+03 -0.17371411439E+03  0.23370660965E+03  0.00000000000E+00 0.  1.
<mgrwt>
<rscale>  0 0.18766663E+04</rscale>
<asrwt>0</asrwt>
<pdfrwt beam="1">  1        2 0.22262340E+00 0.18766663E+04</pdfrwt>
<pdfrwt beam="2">  1       -1 0.93608781E-01 0.18766663E+04</pdfrwt>
<totfact> 0.16098409E+01</totfact>
</mgrwt>
</event>
<event>
12    6  0.2181628E-007  0.1694584E+04  0.7818608E-02  0.8764459E-01
         -1   -1    0    0    0  501 -0.00000000000E+00  0.00000000000E+00  0.49308721745E+03  0.49308721745E+03  0.00000000000E+00 0.  1.
          2   -1    0    0  501    0  0.00000000000E+00 -0.00000000000E+00 -0.14559371905E+04  0.14559371905E+04  0.00000000000E+00 0. -1.
         24    2    1    2    0    0  0.76183767148E+02  0.32064505259E+02 -0.97366446500E+03  0.98011445678E+03  0.75958930410E+02 0.  0.
        254    2    1    2    0    0 -0.76183767148E+02 -0.32064505259E+02  0.10814491954E+02  0.96890995116E+03  0.96531727497E+03 0.  0.
         23    2    4    4    0    0  0.24507730110E+03 -0.27240801823E+03  0.28482947692E+03  0.47330237322E+03  0.92834765354E+02 0.  0.
         23    2    4    4    0    0 -0.32126106825E+03  0.24034351297E+03 -0.27401498497E+03  0.49560757794E+03  0.97821169121E+02 0.  0.
          2    1    3    3  502    0  0.75526939446E+02 -0.90165832117E+00 -0.78150567493E+03  0.78514728014E+03  0.00000000000E+00 0. -1.
         -3    1    3    3    0  502  0.65682770233E+00  0.32966163580E+02 -0.19215879007E+03  0.19496717664E+03  0.00000000000E+00 0.  1.
         11    1    5    5    0    0  0.30030138700E+01 -0.21955337710E+02  0.45728182629E+02  0.50814580907E+02  0.00000000000E+00 0. -1.
        -11    1    5    5    0    0  0.24207428723E+03 -0.25045268052E+03  0.23910129430E+03  0.42248779231E+03  0.00000000000E+00 0.  1.
          1    1    6    6  503    0 -0.33804878088E+02  0.68768847872E+02 -0.34828350756E+02  0.84172075159E+02  0.00000000000E+00 0. -1.
         -1    1    6    6    0  503 -0.28745619016E+03  0.17157466510E+03 -0.23918663421E+03  0.41143550279E+03  0.00000000000E+00 0.  1.
<mgrwt>
<rscale>  0 0.16945843E+04</rscale>
<asrwt>0</asrwt>
<pdfrwt beam="1">  1        2 0.22399033E+00 0.16945843E+04</pdfrwt>
<pdfrwt beam="2">  1       -1 0.75859574E-01 0.16945843E+04</pdfrwt>
<totfact> 0.25462148E+01</totfact>
</mgrwt>
</event>
<event>
12    6  0.1530859E-007  0.1401999E+04  0.7818608E-02  0.8952373E-01
          2   -1    0    0  501    0  0.00000000000E+00  0.00000000000E+00  0.16221086540E+04  0.16221086540E+04  0.00000000000E+00 0. -1.
         -1   -1    0    0    0  501 -0.00000000000E+00 -0.00000000000E+00 -0.30293917107E+03  0.30293917107E+03  0.00000000000E+00 0.  1.
         24    2    1    2    0    0 -0.21923552394E+03  0.30561701991E+03  0.16886819491E+03  0.42040516610E+03  0.82207412180E+02 0.  0.
        254    2    1    2    0    0  0.21923552394E+03 -0.30561701991E+03  0.11503012880E+04  0.15046426590E+04  0.89403048056E+03 0.  0.
         23    2    4    4    0    0 -0.27510644514E+02 -0.18489750370E+03  0.11937835432E+04  0.12116639891E+04  0.89813985707E+02 0.  0.
         23    2    4    4    0    0  0.24674616845E+03 -0.12071951620E+03 -0.43482255122E+02  0.29297866993E+03  0.92135342224E+02 0.  0.
          4    1    3    3  502    0 -0.59272301105E+01  0.46465474423E+01  0.22164985362E+02  0.23409592820E+02  0.00000000000E+00 0. -1.
         -3    1    3    3    0  502 -0.21330829383E+03  0.30097047247E+03  0.14670320955E+03  0.39699557328E+03  0.00000000000E+00 0.  1.
         11    1    5    5    0    0 -0.11403528842E+02 -0.39706750647E+02  0.10043232194E+03  0.10859704327E+03  0.00000000000E+00 0.  1.
        -11    1    5    5    0    0 -0.16107115672E+02 -0.14519075306E+03  0.10933512212E+04  0.11030669458E+04  0.00000000000E+00 0. -1.
          1    1    6    6  503    0  0.10703109814E+03 -0.72872591824E+02  0.22159917890E+02  0.13136640578E+03  0.00000000000E+00 0. -1.
         -1    1    6    6    0  503  0.13971507031E+03 -0.47846924380E+02 -0.65642173011E+02  0.16161226415E+03  0.00000000000E+00 0.  1.
<mgrwt>
<rscale>  0 0.14019989E+04</rscale>
<asrwt>0</asrwt>
<pdfrwt beam="1">  1        2 0.24955517E+00 0.14019989E+04</pdfrwt>
<pdfrwt beam="2">  1       -1 0.46606027E-01 0.14019989E+04</pdfrwt>
<totfact> 0.55101991E+01</totfact>
</mgrwt>
</event>
<event>
12    6  0.1530859E-007  0.3269093E+04  0.7818608E-02  0.8170805E-01
          2   -1    0    0  501    0  0.00000000000E+00  0.00000000000E+00  0.28558899952E+04  0.28558899952E+04  0.00000000000E+00 0. -1.
         -1   -1    0    0    0  501 -0.00000000000E+00 -0.00000000000E+00 -0.93551979683E+03  0.93551979683E+03  0.00000000000E+00 0.  1.
         24    2    1    2    0    0  0.91984106505E+03  0.92440851983E+03  0.17343098942E+04  0.21713280972E+04  0.78715945991E+02 0.  0.
        254    2    1    2    0    0 -0.91984106505E+03 -0.92440851983E+03  0.18606030411E+03  0.16200816948E+04  0.94308407072E+03 0.  0.
         23    2    4    4    0    0  0.13376583192E+03 -0.50025250891E+02  0.18098575483E+03  0.24784110063E+03  0.90959024791E+02 0.  0.
         23    2    4    4    0    0 -0.10536068970E+04 -0.87438326894E+03  0.50745492766E+01  0.13722405941E+04  0.91569114839E+02 0.  0.
          2    1    3    3  502    0  0.86929913734E+03  0.86715709171E+03  0.16002005821E+04  0.20169988386E+04  0.00000000000E+00 0. -1.
         -1    1    3    3    0  502  0.50541927704E+02  0.57251428121E+02  0.13410931212E+03  0.15432925865E+03  0.00000000000E+00 0.  1.
         11    1    5    5    0    0  0.81890091948E+02 -0.75540393216E+02  0.12313359041E+03  0.16605486820E+03  0.00000000000E+00 0. -1.
        -11    1    5    5    0    0  0.51875739976E+02  0.25515142325E+02  0.57852164425E+02  0.81786232427E+02  0.00000000000E+00 0.  1.
          2    1    6    6  503    0 -0.83445019560E+03 -0.72287182233E+03 -0.23624939055E+02  0.11042685082E+04  0.00000000000E+00 0.  1.
         -2    1    6    6    0  503 -0.21915670137E+03 -0.15151144661E+03  0.28699488331E+02  0.26797208593E+03  0.00000000000E+00 0. -1.
<mgrwt>
<rscale>  0 0.32690926E+04</rscale>
<asrwt>0</asrwt>
<pdfrwt beam="1">  1        2 0.43936769E+00 0.32690926E+04</pdfrwt>
<pdfrwt beam="2">  1       -1 0.14392612E+00 0.32690926E+04</pdfrwt>
<totfact> 0.79212187E-01</totfact>
</mgrwt>
</event>
<event>
12    6  0.1530859E-007  0.2173160E+04  0.7818608E-02  0.8529683E-01
         -1   -1    0    0    0  501 -0.00000000000E+00  0.00000000000E+00  0.12126955684E+04  0.12126955684E+04  0.00000000000E+00 0.  1.
          2   -1    0    0  501    0  0.00000000000E+00 -0.00000000000E+00 -0.97358006539E+03  0.97358006539E+03  0.00000000000E+00 0. -1.
         24    2    1    2    0    0 -0.34452802672E+03  0.82714485934E+03  0.18482781887E+03  0.91814437070E+03  0.77198337411E+02 0.  0.
        254    2    1    2    0    0  0.34452802672E+03 -0.82714485934E+03  0.54287684180E+02  0.12681312631E+04  0.89573521106E+03 0.  0.
         23    2    4    4    0    0  0.58208091552E+03 -0.46224206644E+03  0.24035827610E+03  0.78601927873E+03  0.86995893317E+02 0.  0.
         23    2    4    4    0    0 -0.23755288879E+03 -0.36490279290E+03 -0.18607059192E+03  0.48211198439E+03  0.90687800042E+02 0.  0.
          2    1    3    3  502    0 -0.15434182574E+01  0.79712374408E+00 -0.34368154506E+01  0.38508760850E+01  0.00000000000E+00 0. -1.
         -1    1    3    3    0  502 -0.34298460846E+03  0.82634773560E+03  0.18826463432E+03  0.91429349462E+03  0.00000000000E+00 0.  1.
         11    1    5    5    0    0  0.10941145799E+03 -0.13230344438E+03  0.63761213717E+02  0.18314082262E+03  0.00000000000E+00 0. -1.
        -11    1    5    5    0    0  0.47266945753E+03 -0.32993862206E+03  0.17659706238E+03  0.60287845611E+03  0.00000000000E+00 0.  1.
          3    1    6    6  503    0 -0.12915452124E+03 -0.19392639450E+03 -0.14825794740E+03  0.27616798477E+03  0.00000000000E+00 0. -1.
         -3    1    6    6    0  503 -0.10839836755E+03 -0.17097639840E+03 -0.37812644522E+02  0.20594399963E+03  0.00000000000E+00 0.  1.
<mgrwt>
<rscale>  0 0.21731601E+04</rscale>
<asrwt>0</asrwt>
<pdfrwt beam="1">  1        2 0.14978155E+00 0.21731601E+04</pdfrwt>
<pdfrwt beam="2">  1       -1 0.18656855E+00 0.21731601E+04</pdfrwt>
<totfact> 0.51141826E+00</totfact>
</mgrwt>
</event>
<event>
12    6  0.1530859E-007  0.1538834E+04  0.7818608E-02  0.8859032E-01
          2   -1    0    0  501    0  0.00000000000E+00  0.00000000000E+00  0.20401123737E+04  0.20401123737E+04  0.00000000000E+00 0. -1.
         -1   -1    0    0    0  501 -0.00000000000E+00 -0.00000000000E+00 -0.29018120613E+03  0.29018120613E+03  0.00000000000E+00 0.  1.
         24    2    1    2    0    0  0.13562177643E+01 -0.47790956525E+03  0.78886163309E+03  0.92581636189E+03  0.80211394944E+02 0.  0.
        254    2    1    2    0    0 -0.13562177643E+01  0.47790956525E+03  0.96106953442E+03  0.14044772179E+04  0.90581577250E+03 0.  0.
         23    2    4    4    0    0 -0.34177822725E+03  0.51831036756E+01  0.64486183650E+03  0.73551063825E+03  0.91048830985E+02 0.  0.
         23    2    4    4    0    0  0.34042200949E+03  0.47272646158E+03  0.31620769792E+03  0.66896657965E+03  0.90396484664E+02 0.  0.
          4    1    3    3  502    0  0.56149199646E+01 -0.27080136169E+03  0.52097007915E+03  0.58717521081E+03  0.00000000000E+00 0. -1.
         -3    1    3    3    0  502 -0.42587022004E+01 -0.20710820356E+03  0.26789155394E+03  0.33864115107E+03  0.00000000000E+00 0.  1.
         11    1    5    5    0    0 -0.26134756032E+03 -0.34133168248E+02  0.46148500697E+03  0.53144711130E+03  0.00000000000E+00 0.  1.
        -11    1    5    5    0    0 -0.80430666933E+02  0.39316271924E+02  0.18337682953E+03  0.20406352695E+03  0.00000000000E+00 0. -1.
          3    1    6    6  503    0  0.74066597766E+02  0.70493002295E+02  0.89660945956E+02  0.13599341715E+03  0.00000000000E+00 0. -1.
         -3    1    6    6    0  503  0.26635541172E+03  0.40223345928E+03  0.22654675197E+03  0.53297316250E+03  0.00000000000E+00 0.  1.
<mgrwt>
<rscale>  0 0.15388337E+04</rscale>
<asrwt>0</asrwt>
<pdfrwt beam="1">  1        2 0.31386343E+00 0.15388337E+04</pdfrwt>
<pdfrwt beam="2">  1       -1 0.44643264E-01 0.15388337E+04</pdfrwt>
<totfact> 0.34630244E+01</totfact>
</mgrwt>
</event>
<event>
12    6  0.1530859E-007  0.1104748E+04  0.7818608E-02  0.9200577E-01
          2   -1    0    0  501    0  0.00000000000E+00  0.00000000000E+00  0.78610227051E+03  0.78610227051E+03  0.00000000000E+00 0. -1.
         -3   -1    0    0    0  501 -0.00000000000E+00 -0.00000000000E+00 -0.38813903751E+03  0.38813903751E+03  0.00000000000E+00 0.  1.
         24    2    1    2    0    0 -0.31581195479E+02 -0.14614828570E+03  0.11053027902E+02  0.16973424111E+03  0.79566637854E+02 0.  0.
        254    2    1    2    0    0  0.31581195479E+02  0.14614828570E+03  0.38691020511E+03  0.10045070669E+04  0.91486515254E+03 0.  0.
         23    2    4    4    0    0 -0.20573769007E+03 -0.23678601642E+03 -0.92881764630E+02  0.33982244414E+03  0.91960081841E+02 0.  0.
         23    2    4    4    0    0  0.23731888555E+03  0.38293430212E+03  0.47979196974E+03  0.66468462277E+03  0.92985914788E+02 0.  0.
          2    1    3    3  502    0 -0.18011606442E+02 -0.12825894580E+03 -0.20373987255E+02  0.13111016170E+03  0.00000000000E+00 0. -1.
         -1    1    3    3    0  502 -0.13569589037E+02 -0.17889339895E+02  0.31427015156E+02  0.38624079409E+02  0.00000000000E+00 0.  1.
         11    1    5    5    0    0 -0.17760952969E+03 -0.14069197476E+03 -0.59278158740E+02  0.23420776439E+03  0.00000000000E+00 0. -1.
        -11    1    5    5    0    0 -0.28128160381E+02 -0.96094041664E+02 -0.33603605889E+02  0.10561467975E+03  0.00000000000E+00 0.  1.
          2    1    6    6  503    0  0.21171603810E+02  0.89338747423E+02  0.65287175717E+02  0.11265906050E+03  0.00000000000E+00 0.  1.
         -2    1    6    6    0  503  0.21614728174E+03  0.29359555470E+03  0.41450479402E+03  0.55202556227E+03  0.00000000000E+00 0. -1.
<mgrwt>
<rscale>  0 0.11047479E+04</rscale>
<asrwt>0</asrwt>
<pdfrwt beam="1">  1        2 0.12093881E+00 0.11047479E+04</pdfrwt>
<pdfrwt beam="2">  1       -3 0.59713698E-01 0.11047479E+04</pdfrwt>
<totfact> 0.60947462E+01</totfact>
</mgrwt>
</event>
<event>
12    6  0.1530859E-007  0.1130996E+04  0.7818608E-02  0.9175497E-01
          2   -1    0    0  501    0  0.00000000000E+00  0.00000000000E+00  0.25895817321E+04  0.25895817321E+04  0.00000000000E+00 0. -1.
         -1   -1    0    0    0  501 -0.00000000000E+00 -0.00000000000E+00 -0.12349019562E+03  0.12349019562E+03  0.00000000000E+00 0.  1.
         24    2    1    2    0    0  0.21503563059E+02  0.10768088185E+02  0.86609137868E+03  0.87004483909E+03  0.79280456995E+02 0.  0.
        254    2    1    2    0    0 -0.21503563059E+02 -0.10768088185E+02  0.16000001578E+04  0.18430270886E+04  0.91442330979E+03 0.  0.
         23    2    4    4    0    0  0.24755630664E+03 -0.10081928559E+03  0.15021539900E+04  0.15291343467E+04  0.10166900842E+03 0.  0.
         23    2    4    4    0    0 -0.26905986970E+03  0.90051197402E+02  0.97846167846E+02  0.31389274197E+03  0.91936658983E+02 0.  0.
          2    1    3    3  502    0  0.21585334802E+02 -0.16256360001E+02  0.76274415125E+03  0.76322266488E+03  0.00000000000E+00 0. -1.
         -1    1    3    3    0  502 -0.81771742775E-01  0.27024448185E+02  0.10334722743E+03  0.10682217421E+03  0.00000000000E+00 0.  1.
         11    1    5    5    0    0  0.35627359929E+02  0.20513627194E+02  0.25565471599E+03  0.25893908837E+03  0.00000000000E+00 0.  1.
        -11    1    5    5    0    0  0.21192894671E+03 -0.12133291278E+03  0.12464992740E+04  0.12701952583E+04  0.00000000000E+00 0. -1.
          1    1    6    6  503    0 -0.15736298692E+03  0.27417844400E+02  0.12969201853E+02  0.16025931499E+03  0.00000000000E+00 0. -1.
         -1    1    6    6    0  503 -0.11169688278E+03  0.62633353002E+02  0.84876965993E+02  0.15363342699E+03  0.00000000000E+00 0.  1.
<mgrwt>
<rscale>  0 0.11309959E+04</rscale>
<asrwt>0</asrwt>
<pdfrwt beam="1">  1        2 0.39839715E+00 0.11309959E+04</pdfrwt>
<pdfrwt beam="2">  1       -1 0.18998494E-01 0.11309959E+04</pdfrwt>
<totfact> 0.78390643E+01</totfact>
</mgrwt>
</event>
<event>
12    6  0.1530859E-007  0.1696956E+04  0.7818608E-02  0.8763102E-01
         -1   -1    0    0    0  501 -0.00000000000E+00  0.00000000000E+00  0.74844252280E+03  0.74844252280E+03  0.00000000000E+00 0.  1.
          2   -1    0    0  501    0  0.00000000000E+00 -0.00000000000E+00 -0.96188430316E+03  0.96188430316E+03  0.00000000000E+00 0. -1.
         24    2    1    2    0    0 -0.71696386290E+02  0.58432666684E+03  0.10167872980E+03  0.60219481210E+03  0.75643917381E+02 0.  0.
        254    2    1    2    0    0  0.71696386290E+02 -0.58432666684E+03 -0.31512051016E+03  0.11081320139E+04  0.88435151315E+03 0.  0.
         23    2    4    4    0    0 -0.75060564062E+02  0.10927790130E+03 -0.35692945126E+03  0.39209058143E+03  0.93598305961E+02 0.  0.
         23    2    4    4    0    0  0.14675695035E+03 -0.69360456814E+03  0.41808941109E+02  0.71604143242E+03  0.91336991186E+02 0.  0.
          4    1    3    3  502    0 -0.74386974382E+02  0.35270223023E+03  0.41332630150E+02  0.36282319590E+03  0.00000000000E+00 0. -1.
         -3    1    3    3    0  502  0.26905880917E+01  0.23162443661E+03  0.60346099646E+02  0.23937161620E+03  0.00000000000E+00 0.  1.
         11    1    5    5    0    0 -0.70704909457E+02  0.12625741470E+03 -0.31529954131E+03  0.34692062455E+03  0.00000000000E+00 0. -1.
        -11    1    5    5    0    0 -0.43556546051E+01 -0.16979513395E+02 -0.41629909955E+02  0.45169956886E+02  0.00000000000E+00 0.  1.
          1    1    6    6  503    0  0.97454829547E+02 -0.60949639085E+03  0.39966779388E+02  0.61853103214E+03  0.00000000000E+00 0. -1.
         -1    1    6    6    0  503  0.49302120805E+02 -0.84108177291E+02  0.18421617205E+01  0.97510400280E+02  0.00000000000E+00 0.  1.
<mgrwt>
<rscale>  0 0.16969562E+04</rscale>
<asrwt>0</asrwt>
<pdfrwt beam="1">  1        2 0.14798220E+00 0.16969562E+04</pdfrwt>
<pdfrwt beam="2">  1       -1 0.11514500E+00 0.16969562E+04</pdfrwt>
<totfact> 0.19821413E+01</totfact>
</mgrwt>
</event>
<event>
12    6  0.1530859E-007  0.2367254E+04  0.7818608E-02  0.8451866E-01
          4   -1    0    0  501    0  0.00000000000E+00  0.00000000000E+00  0.20330129820E+04  0.20330129820E+04  0.00000000000E+00 0. -1.
         -3   -1    0    0    0  501 -0.00000000000E+00 -0.00000000000E+00 -0.68911169583E+03  0.68911169583E+03  0.00000000000E+00 0.  1.
         24    2    1    2    0    0 -0.28672642845E+03  0.67419151350E+03 -0.22120500803E+03  0.76953596908E+03  0.80670381747E+02 0.  0.
        254    2    1    2    0    0  0.28672642845E+03 -0.67419151350E+03  0.15651062942E+04  0.19525887087E+04  0.90900974240E+03 0.  0.
         23    2    4    4    0    0  0.60641840445E+03 -0.40628765888E+03  0.10766759120E+04  0.13037265655E+04  0.87515685131E+02 0.  0.
         23    2    4    4    0    0 -0.31969197600E+03 -0.26790385461E+03  0.48843038219E+03  0.64886214323E+03  0.92099988213E+02 0.  0.
          4    1    3    3  502    0 -0.16611864357E+03  0.46935781919E+03 -0.12687247947E+03  0.51379839648E+03  0.00000000000E+00 0. -1.
         -3    1    3    3    0  502 -0.12060778488E+03  0.20483369430E+03 -0.94332528556E+02  0.25573757260E+03  0.00000000000E+00 0.  1.
         11    1    5    5    0    0  0.24912492633E+03 -0.13531080921E+03  0.47767978125E+03  0.55547296732E+03  0.00000000000E+00 0. -1.
        -11    1    5    5    0    0  0.35729347812E+03 -0.27097684967E+03  0.59899613075E+03  0.74825359820E+03  0.00000000000E+00 0.  1.
          4    1    6    6  503    0 -0.12469744232E+03 -0.86337214914E+02  0.24395072223E+03  0.28725515083E+03  0.00000000000E+00 0. -1.
         -4    1    6    6    0  503 -0.19499453368E+03 -0.18156663970E+03  0.24447965996E+03  0.36160699240E+03  0.00000000000E+00 0.  1.
<mgrwt>
<rscale>  0 0.23672541E+04</rscale>
<asrwt>0</asrwt>
<pdfrwt beam="1">  1        4 0.31277123E+00 0.23672541E+04</pdfrwt>
<pdfrwt beam="2">  1       -3 0.10601718E+00 0.23672541E+04</pdfrwt>
<totfact> 0.40131998E-02</totfact>
</mgrwt>
</event>
<event>
12    6  0.1530859E-007  0.1489620E+04  0.7818608E-02  0.8891385E-01
         -1   -1    0    0    0  501 -0.00000000000E+00  0.00000000000E+00  0.18645064053E+04  0.18645064053E+04  0.00000000000E+00 0.  1.
          2   -1    0    0  501    0  0.00000000000E+00 -0.00000000000E+00 -0.29752767165E+03  0.29752767165E+03  0.00000000000E+00 0. -1.
         24    2    1    2    0    0 -0.21302673024E+03  0.68452697287E+02 -0.91178877647E+02  0.25569086265E+03  0.83654467610E+02 0.  0.
        254    2    1    2    0    0  0.21302673024E+03 -0.68452697287E+02  0.16581576113E+04  0.19063432143E+04  0.91355986517E+03 0.  0.
         23    2    4    4    0    0  0.22491864743E+02  0.39233544697E+03  0.98020833093E+03  0.10599077211E+04  0.90349423075E+02 0.  0.
         23    2    4    4    0    0  0.19053486550E+03 -0.46078814426E+03  0.67794928039E+03  0.84643549324E+03  0.90601151080E+02 0.  0.
          2    1    3    3  502    0 -0.14011870560E+03  0.26435452305E+02 -0.95193243489E+02  0.17144631347E+03  0.00000000000E+00 0. -1.
         -1    1    3    3    0  502 -0.72908024641E+02  0.42017244982E+02  0.40143658428E+01  0.84244549177E+02  0.00000000000E+00 0.  1.
         11    1    5    5    0    0  0.80102731312E+00  0.32556721855E+03  0.71621274957E+03  0.78673715947E+03  0.00000000000E+00 0. -1.
        -11    1    5    5    0    0  0.21690837430E+02  0.66768228426E+02  0.26399558135E+03  0.27317056161E+03  0.00000000000E+00 0.  1.
          3    1    6    6  503    0  0.16618907471E+03 -0.45068737242E+03  0.63920560178E+03  0.79957596110E+03  0.00000000000E+00 0. -1.
         -3    1    6    6    0  503  0.24345790784E+02 -0.10100771835E+02  0.38743678610E+02  0.46859532144E+02  0.00000000000E+00 0.  1.
<mgrwt>
<rscale>  0 0.14896204E+04</rscale>
<asrwt>0</asrwt>
<pdfrwt beam="1">  1        2 0.45773489E-01 0.14896204E+04</pdfrwt>
<pdfrwt beam="2">  1       -1 0.28684713E+00 0.14896204E+04</pdfrwt>
<totfact> 0.49409034E+00</totfact>
</mgrwt>
</event>
<event>
12    6  0.1530859E-007  0.1532307E+04  0.7818608E-02  0.8863249E-01
          2   -1    0    0  501    0  0.00000000000E+00  0.00000000000E+00  0.15533416749E+04  0.15533416749E+04  0.00000000000E+00 0. -1.
         -1   -1    0    0    0  501 -0.00000000000E+00 -0.00000000000E+00 -0.37788915569E+03  0.37788915569E+03  0.00000000000E+00 0.  1.
         24    2    1    2    0    0  0.12531216175E+03  0.81466619289E+02  0.92135451489E+03  0.93661035706E+03  0.77491102002E+02 0.  0.
        254    2    1    2    0    0 -0.12531216175E+03 -0.81466619289E+02  0.25409800431E+03  0.99462047353E+03  0.94992849343E+03 0.  0.
         23    2    4    4    0    0 -0.28356325053E+03  0.90734379406E+02  0.53427260602E+03  0.61838228983E+03  0.91151490258E+02 0.  0.
         23    2    4    4    0    0  0.15825108879E+03 -0.17220099870E+03 -0.28017460171E+03  0.37623818370E+03  0.91437259229E+02 0.  0.
          2    1    3    3  502    0  0.87187692021E+02  0.91720818679E+02  0.76209909069E+03  0.77253441752E+03  0.00000000000E+00 0. -1.
         -1    1    3    3    0  502  0.38124469725E+02 -0.10254199391E+02  0.15925542420E+03  0.16407593954E+03  0.00000000000E+00 0.  1.
         11    1    5    5    0    0 -0.63928106800E+02 -0.15882295071E+02  0.91264324994E+02  0.11255321920E+03  0.00000000000E+00 0.  1.
        -11    1    5    5    0    0 -0.21963514373E+03  0.10661667448E+03  0.44300828103E+03  0.50582907063E+03  0.00000000000E+00 0. -1.
          3    1    6    6  503    0  0.15810836872E+03 -0.13540072379E+03 -0.20309892362E+03  0.29082775836E+03  0.00000000000E+00 0. -1.
         -3    1    6    6    0  503  0.14272006998E+00 -0.36800274908E+02 -0.77075678095E+02  0.85410425336E+02  0.00000000000E+00 0.  1.
<mgrwt>
<rscale>  0 0.15323067E+04</rscale>
<asrwt>0</asrwt>
<pdfrwt beam="1">  1        2 0.23897564E+00 0.15323067E+04</pdfrwt>
<pdfrwt beam="2">  1       -1 0.58136794E-01 0.15323067E+04</pdfrwt>
<totfact> 0.38991771E+01</totfact>
</mgrwt>
</event>
<event>
12    6  0.1530859E-007  0.2052834E+04  0.7818608E-02  0.8582310E-01
          2   -1    0    0  501    0  0.00000000000E+00  0.00000000000E+00  0.55221099241E+03  0.55221099241E+03  0.00000000000E+00 0. -1.
         -1   -1    0    0    0  501 -0.00000000000E+00 -0.00000000000E+00 -0.19078422130E+04  0.19078422130E+04  0.00000000000E+00 0.  1.
         24    2    1    2    0    0 -0.42131934221E+03 -0.20530406589E+03 -0.13708702106E+04  0.14508463076E+04  0.77525004627E+02 0.  0.
        254    2    1    2    0    0  0.42131934221E+03  0.20530406589E+03  0.15238990074E+02  0.10092068978E+04  0.89364791059E+03 0.  0.
         23    2    4    4    0    0 -0.15968371540E+01  0.48407254814E+03 -0.14796376486E+02  0.49343200597E+03  0.94485078235E+02 0.  0.
         23    2    4    4    0    0  0.42291617936E+03 -0.27876848225E+03  0.30035366559E+02  0.51577489180E+03  0.92475155061E+02 0.  0.
          4    1    3    3  502    0 -0.10259410175E+02 -0.25416668943E+01 -0.88933048162E+01  0.13813270370E+02  0.00000000000E+00 0. -1.
         -3    1    3    3    0  502 -0.41105993203E+03 -0.20276239899E+03 -0.13619769058E+04  0.14370330373E+04  0.00000000000E+00 0.  1.
         11    1    5    5    0    0  0.42528561542E+02  0.23383074809E+03 -0.25987359537E+02  0.23908333308E+03  0.00000000000E+00 0.  1.
        -11    1    5    5    0    0 -0.44125398696E+02  0.25024180005E+03  0.11190983051E+02  0.25434867289E+03  0.00000000000E+00 0. -1.
          2    1    6    6  503    0  0.10838061158E+02 -0.33430113603E+02 -0.13267567706E+01  0.35168115512E+02  0.00000000000E+00 0. -1.
         -2    1    6    6    0  503  0.41207811820E+03 -0.24533836865E+03  0.31362123330E+02  0.48060677629E+03  0.00000000000E+00 0.  1.
<mgrwt>
<rscale>  0 0.20528336E+04</rscale>
<asrwt>0</asrwt>
<pdfrwt beam="1">  1        2 0.84955537E-01 0.20528336E+04</pdfrwt>
<pdfrwt beam="2">  1       -1 0.29351419E+00 0.20528336E+04</pdfrwt>
<totfact> 0.21070225E+00</totfact>
</mgrwt>
</event>
<event>
12    6  0.1530859E-007  0.1419854E+04  0.7818608E-02  0.8939571E-01
          2   -1    0    0  501    0  0.00000000000E+00  0.00000000000E+00  0.15687665179E+04  0.15687665179E+04  0.00000000000E+00 0. -1.
         -1   -1    0    0    0  501 -0.00000000000E+00 -0.00000000000E+00 -0.32126908274E+03  0.32126908274E+03  0.00000000000E+00 0.  1.
         24    2    1    2    0    0 -0.39064540664E+03 -0.18866607954E+03  0.38935060452E+03  0.58836568459E+03  0.79884681046E+02 0.  0.
        254    2    1    2    0    0  0.39064540664E+03  0.18866607954E+03  0.85814683068E+03  0.13016699161E+04  0.87734250104E+03 0.  0.
         23    2    4    4    0    0  0.26372854421E+03  0.21451450982E+03  0.10176540238E+04  0.10775767179E+04  0.99913216605E+02 0.  0.
         23    2    4    4    0    0  0.12691686244E+03 -0.25848430280E+02 -0.15950719316E+03  0.22409319815E+03  0.89438165595E+02 0.  0.
          2    1    3    3  502    0 -0.70637235509E+01 -0.20948652051E+02  0.14612583300E+02  0.26500373655E+02  0.00000000000E+00 0. -1.
         -1    1    3    3    0  502 -0.38358168309E+03 -0.16771742749E+03  0.37473802122E+03  0.56186531094E+03  0.00000000000E+00 0.  1.
         11    1    5    5    0    0  0.18169880468E+03  0.20017054004E+03  0.80607210685E+03  0.85019700197E+03  0.00000000000E+00 0. -1.
        -11    1    5    5    0    0  0.82029739528E+02  0.14343969787E+02  0.21158191699E+03  0.22737971597E+03  0.00000000000E+00 0.  1.
          1    1    6    6  503    0 -0.12014474139E+02 -0.53323121345E+01 -0.23909061636E+01  0.13360298418E+02  0.00000000000E+00 0. -1.
         -1    1    6    6    0  503  0.13893133658E+03 -0.20516118146E+02 -0.15711628700E+03  0.21073289973E+03  0.00000000000E+00 0.  1.
<mgrwt>
<rscale>  0 0.14198538E+04</rscale>
<asrwt>0</asrwt>
<pdfrwt beam="1">  1        2 0.24134869E+00 0.14198538E+04</pdfrwt>
<pdfrwt beam="2">  1       -1 0.49426013E-01 0.14198538E+04</pdfrwt>
<totfact> 0.52750959E+01</totfact>
</mgrwt>
</event>
<event>
12    6  0.1530859E-007  0.1204956E+04  0.7818608E-02  0.9108530E-01
          2   -1    0    0  501    0  0.00000000000E+00  0.00000000000E+00  0.11176375015E+04  0.11176375015E+04  0.00000000000E+00 0. -1.
         -1   -1    0    0    0  501 -0.00000000000E+00 -0.00000000000E+00 -0.32477402880E+03  0.32477402880E+03  0.00000000000E+00 0.  1.
         24    2    1    2    0    0  0.13105782226E+02  0.25347632046E+03  0.21769852913E+03  0.34389070319E+03  0.80287979136E+02 0.  0.
        254    2    1    2    0    0 -0.13105782226E+02 -0.25347632046E+03  0.57516494361E+03  0.10985208271E+04  0.90083921360E+03 0.  0.
         23    2    4    4    0    0 -0.31540611862E+03  0.84705285775E+02  0.53538367054E+03  0.63409674753E+03  0.93739028401E+02 0.  0.
         23    2    4    4    0    0  0.30230033640E+03 -0.33818160624E+03  0.39781273067E+02  0.46442407961E+03  0.91405053759E+02 0.  0.
          2    1    3    3  502    0 -0.12446150097E+02  0.18272121544E+03  0.18953780715E+03  0.26356503858E+03  0.00000000000E+00 0. -1.
         -1    1    3    3    0  502  0.25551932323E+02  0.70755105027E+02  0.28160721976E+02  0.80325664610E+02  0.00000000000E+00 0.  1.
         11    1    5    5    0    0 -0.49722109498E+02  0.11271353168E+02  0.32028822734E+02  0.60209443287E+02  0.00000000000E+00 0.  1.
        -11    1    5    5    0    0 -0.26568400913E+03  0.73433932606E+02  0.50335484781E+03  0.57388730425E+03  0.00000000000E+00 0. -1.
          2    1    6    6  503    0  0.28233750051E+03 -0.33524960316E+03  0.24265270126E+02  0.43897102859E+03  0.00000000000E+00 0. -1.
         -2    1    6    6    0  503  0.19962835891E+02 -0.29320030796E+01  0.15516002941E+02  0.25453051018E+02  0.00000000000E+00 0.  1.
<mgrwt>
<rscale>  0 0.12049558E+04</rscale>
<asrwt>0</asrwt>
<pdfrwt beam="1">  1        2 0.17194423E+00 0.12049558E+04</pdfrwt>
<pdfrwt beam="2">  1       -1 0.49965235E-01 0.12049558E+04</pdfrwt>
<totfact> 0.96026961E+01</totfact>
</mgrwt>
</event>
<event>
12    6  0.1530859E-007  0.1825197E+04  0.7818608E-02  0.8693014E-01
          2   -1    0    0  501    0  0.00000000000E+00  0.00000000000E+00  0.73631550452E+03  0.73631550452E+03  0.00000000000E+00 0. -1.
         -1   -1    0    0    0  501 -0.00000000000E+00 -0.00000000000E+00 -0.11310855631E+04  0.11310855631E+04  0.00000000000E+00 0.  1.
         24    2    1    2    0    0  0.19667053822E+03 -0.57750697298E+03 -0.47556821630E+03  0.77766724863E+03  0.80047590767E+02 0.  0.
        254    2    1    2    0    0 -0.19667053822E+03  0.57750697298E+03  0.80798157760E+02  0.10897338189E+04  0.89933189058E+03 0.  0.
         23    2    4    4    0    0 -0.10419534958E+03  0.77726860565E+03  0.21360170053E+03  0.81802320426E+03  0.92374888534E+02 0.  0.
         23    2    4    4    0    0 -0.92475188641E+02 -0.19976163267E+03 -0.13280354277E+03  0.27171061469E+03  0.87940359109E+02 0.  0.
          2    1    3    3  502    0  0.47835617232E+02 -0.20657054172E+03 -0.20561858346E+03  0.29536187440E+03  0.00000000000E+00 0. -1.
         -1    1    3    3    0  502  0.14883492099E+03 -0.37093643126E+03 -0.26994963284E+03  0.48230537423E+03  0.00000000000E+00 0.  1.
         11    1    5    5    0    0  0.10154484976E+02  0.24482149056E+03  0.69199609492E+02  0.25461591026E+03  0.00000000000E+00 0. -1.
        -11    1    5    5    0    0 -0.11434983455E+03  0.53244711509E+03  0.14440209104E+03  0.56340729400E+03  0.00000000000E+00 0.  1.
          3    1    6    6  503    0 -0.75472017932E+01 -0.94829128375E+02 -0.87683336469E+02  0.12937500275E+03  0.00000000000E+00 0. -1.
         -3    1    6    6    0  503 -0.84927986848E+02 -0.10493250430E+03 -0.45120206301E+02  0.14233561193E+03  0.00000000000E+00 0.  1.
<mgrwt>
<rscale>  0 0.18251968E+04</rscale>
<asrwt>0</asrwt>
<pdfrwt beam="1">  1        2 0.11327931E+00 0.18251968E+04</pdfrwt>
<pdfrwt beam="2">  1       -1 0.17401316E+00 0.18251968E+04</pdfrwt>
<totfact> 0.94995250E+00</totfact>
</mgrwt>
</event>
<event>
12    6  0.1530859E-007  0.1349632E+04  0.7818608E-02  0.8991107E-01
         -1   -1    0    0    0  501 -0.00000000000E+00  0.00000000000E+00  0.17739885255E+03  0.17739885255E+03  0.00000000000E+00 0.  1.
          2   -1    0    0  501    0  0.00000000000E+00 -0.00000000000E+00 -0.25669658477E+04  0.25669658477E+04  0.00000000000E+00 0. -1.
         24    2    1    2    0    0 -0.18941749194E+02  0.35448909471E+03 -0.88326734632E+03  0.95528018778E+03  0.79860653368E+02 0.  0.
        254    2    1    2    0    0  0.18941749194E+02 -0.35448909471E+03 -0.15062996489E+04  0.17890845125E+04  0.89769897661E+03 0.  0.
         23    2    4    4    0    0 -0.86349419286E+02  0.28147243866E+03 -0.58612107594E+03  0.66221359798E+03  0.91137137069E+02 0.  0.
         23    2    4    4    0    0  0.10529116848E+03 -0.63596153336E+03 -0.92017857291E+03  0.11268709145E+04  0.87041081530E+02 0.  0.
          4    1    3    3  502    0  0.20485256235E+02  0.20401427481E+03 -0.43783647298E+03  0.48346897224E+03  0.00000000000E+00 0. -1.
         -3    1    3    3    0  502 -0.39427005429E+02  0.15047481989E+03 -0.44543087334E+03  0.47181121553E+03  0.00000000000E+00 0.  1.
         11    1    5    5    0    0 -0.71530585833E+02  0.10793173011E+03 -0.30726290070E+03  0.33343121213E+03  0.00000000000E+00 0.  1.
        -11    1    5    5    0    0 -0.14818833452E+02  0.17354070855E+03 -0.27885817524E+03  0.32878238586E+03  0.00000000000E+00 0. -1.
          1    1    6    6  503    0  0.23792082927E+02 -0.34229748750E+03 -0.53717947508E+03  0.63741306984E+03  0.00000000000E+00 0. -1.
         -1    1    6    6    0  503  0.81499085552E+02 -0.29366404587E+03 -0.38299909783E+03  0.48945784468E+03  0.00000000000E+00 0.  1.
<mgrwt>
<rscale>  0 0.13496322E+04</rscale>
<asrwt>0</asrwt>
<pdfrwt beam="1">  1        2 0.39491782E+00 0.13496322E+04</pdfrwt>
<pdfrwt beam="2">  1       -1 0.27292131E-01 0.13496322E+04</pdfrwt>
<totfact> 0.42822260E+01</totfact>
</mgrwt>
</event>
<event>
12    6  0.1530859E-007  0.1904430E+04  0.7818608E-02  0.8652654E-01
          2   -1    0    0  501    0  0.00000000000E+00  0.00000000000E+00  0.28661665494E+04  0.28661665494E+04  0.00000000000E+00 0. -1.
         -1   -1    0    0    0  501 -0.00000000000E+00 -0.00000000000E+00 -0.31635065527E+03  0.31635065527E+03  0.00000000000E+00 0.  1.
         24    2    1    2    0    0 -0.68349375561E+02 -0.71523514167E+03  0.70691973387E+03  0.10110522857E+04  0.79109223995E+02 0.  0.
        254    2    1    2    0    0  0.68349375561E+02  0.71523514167E+03  0.18428961603E+04  0.21714649189E+04  0.89596913546E+03 0.  0.
         23    2    4    4    0    0  0.34001302603E+03  0.77038062707E+03  0.14844441184E+04  0.17091290982E+04  0.91938921824E+02 0.  0.
         23    2    4    4    0    0 -0.27166365047E+03 -0.55145485400E+02  0.35845204188E+03  0.46233582073E+03  0.91784428192E+02 0.  0.
          4    1    3    3  502    0 -0.54443293298E+02 -0.61716415560E+03  0.56863700517E+03  0.84095404796E+03  0.00000000000E+00 0. -1.
         -3    1    3    3    0  502 -0.13906082263E+02 -0.98070986071E+02  0.13828272870E+03  0.17009823776E+03  0.00000000000E+00 0.  1.
         11    1    5    5    0    0  0.67116012695E+02  0.25730718713E+03  0.45922402456E+03  0.53065831987E+03  0.00000000000E+00 0.  1.
        -11    1    5    5    0    0  0.27289701333E+03  0.51307343994E+03  0.10252200938E+04  0.11784707784E+04  0.00000000000E+00 0. -1.
          4    1    6    6  503    0 -0.19805761727E+03 -0.63548904815E+02  0.20554948689E+03  0.29243097412E+03  0.00000000000E+00 0. -1.
         -4    1    6    6    0  503 -0.73606033192E+02  0.84034194151E+01  0.15290255498E+03  0.16990484661E+03  0.00000000000E+00 0.  1.
<mgrwt>
<rscale>  0 0.19044303E+04</rscale>
<asrwt>0</asrwt>
<pdfrwt beam="1">  1        2 0.44094868E+00 0.19044303E+04</pdfrwt>
<pdfrwt beam="2">  1       -1 0.48669333E-01 0.19044303E+04</pdfrwt>
<totfact> 0.95123417E+00</totfact>
</mgrwt>
</event>
<event>
12    6  0.1530859E-007  0.2029556E+04  0.7818608E-02  0.8592926E-01
         -1   -1    0    0    0  501 -0.00000000000E+00  0.00000000000E+00  0.16094099602E+04  0.16094099602E+04  0.00000000000E+00 0.  1.
          2   -1    0    0  501    0  0.00000000000E+00 -0.00000000000E+00 -0.63984589407E+03  0.63984589407E+03  0.00000000000E+00 0. -1.
         24    2    1    2    0    0  0.65092212043E+03 -0.46170603719E+03  0.22769986509E+03  0.83365051858E+03  0.79081520774E+02 0.  0.
        254    2    1    2    0    0 -0.65092212043E+03  0.46170603719E+03  0.74186420107E+03  0.14156053357E+04  0.90371671560E+03 0.  0.
         23    2    4    4    0    0 -0.70983815882E+03  0.18601496170E+03  0.82583310440E+03  0.11077900886E+04  0.82016988631E+02 0.  0.
         23    2    4    4    0    0  0.58916038388E+02  0.27569107549E+03 -0.83968903328E+02  0.30781524711E+03  0.90679550846E+02 0.  0.
          2    1    3    3  502    0  0.41767048447E+02 -0.84509034240E+01  0.14310497725E+02  0.44952135098E+02  0.00000000000E+00 0. -1.
         -1    1    3    3    0  502  0.60915507198E+03 -0.45325513376E+03  0.21338936737E+03  0.78869838348E+03  0.00000000000E+00 0.  1.
         11    1    5    5    0    0 -0.67227428308E+03  0.15758035159E+03  0.78472648714E+03  0.10452654871E+04  0.00000000000E+00 0. -1.
        -11    1    5    5    0    0 -0.37563875739E+02  0.28434610111E+02  0.41106617263E+02  0.62524601522E+02  0.00000000000E+00 0.  1.
          3    1    6    6  503    0  0.10953297511E+02  0.21567381678E+03 -0.81897355631E+02  0.23095962164E+03  0.00000000000E+00 0. -1.
         -3    1    6    6    0  503  0.47962740877E+02  0.60017258712E+02 -0.20715476972E+01  0.76855625465E+02  0.00000000000E+00 0.  1.
<mgrwt>
<rscale>  0 0.20295560E+04</rscale>
<asrwt>0</asrwt>
<pdfrwt beam="1">  1        2 0.98437830E-01 0.20295560E+04</pdfrwt>
<pdfrwt beam="2">  1       -1 0.24760153E+00 0.20295560E+04</pdfrwt>
<totfact> 0.35068096E+00</totfact>
</mgrwt>
</event>
<event>
12    6  0.1530859E-007  0.3947932E+04  0.7818608E-02  0.8015133E-01
         -1   -1    0    0    0  501 -0.00000000000E+00  0.00000000000E+00  0.86510043112E+03  0.86510043112E+03  0.00000000000E+00 0.  1.
          2   -1    0    0  501    0  0.00000000000E+00 -0.00000000000E+00 -0.45041493954E+04  0.45041493954E+04  0.00000000000E+00 0. -1.
         24    2    1    2    0    0 -0.88866278973E+03  0.25162459135E+03  0.48717138669E+03  0.10472877279E+04  0.80244227854E+02 0.  0.
        254    2    1    2    0    0  0.88866278973E+03 -0.25162459135E+03 -0.41262203510E+04  0.43219620987E+04  0.89477679268E+03 0.  0.
         23    2    4    4    0    0  0.10601676253E+04 -0.19499237398E+03 -0.33796251041E+04  0.35486280619E+04  0.94434409813E+02 0.  0.
         23    2    4    4    0    0 -0.17150483562E+03 -0.56632217374E+02 -0.74659524691E+03  0.77333403679E+03  0.89554190690E+02 0.  0.
          4    1    3    3  502    0 -0.22756878310E+03  0.36691456740E+02  0.14671903708E+03  0.27324035185E+03  0.00000000000E+00 0. -1.
         -3    1    3    3    0  502 -0.66109400663E+03  0.21493313461E+03  0.34045234961E+03  0.77404737601E+03  0.00000000000E+00 0.  1.
         11    1    5    5    0    0  0.54383479812E+03 -0.12952457848E+03 -0.16278750294E+04  0.17211943573E+04  0.00000000000E+00 0.  1.
        -11    1    5    5    0    0  0.51633282723E+03 -0.65467795497E+02 -0.17517500747E+04  0.18274337046E+04  0.00000000000E+00 0. -1.
          3    1    6    6  503    0 -0.17212338929E+03 -0.36249554800E+02 -0.59759489658E+03  0.62294474216E+03  0.00000000000E+00 0. -1.
         -3    1    6    6    0  503  0.61855367527E+00 -0.20382662574E+02 -0.14900035033E+03  0.15038929464E+03  0.00000000000E+00 0.  1.
<mgrwt>
<rscale>  0 0.39479319E+04</rscale>
<asrwt>0</asrwt>
<pdfrwt beam="1">  1        2 0.69294608E+00 0.39479319E+04</pdfrwt>
<pdfrwt beam="2">  1       -1 0.13309237E+00 0.39479319E+04</pdfrwt>
<totfact> 0.51967719E-02</totfact>
</mgrwt>
</event>
<event>
12    6  0.1530859E-007  0.2032413E+04  0.7818608E-02  0.8591615E-01
          2   -1    0    0  501    0  0.00000000000E+00  0.00000000000E+00  0.19329411822E+04  0.19329411822E+04  0.00000000000E+00 0. -1.
         -1   -1    0    0    0  501 -0.00000000000E+00 -0.00000000000E+00 -0.53425116670E+03  0.53425116670E+03  0.00000000000E+00 0.  1.
         24    2    1    2    0    0  0.36928027558E+03 -0.10782477136E+03 -0.30716683899E+03  0.49793416182E+03  0.74785421590E+02 0.  0.
        254    2    1    2    0    0 -0.36928027558E+03  0.10782477136E+03  0.17058568545E+04  0.19692581871E+04  0.90555844431E+03 0.  0.
         23    2    4    4    0    0  0.22946148430E+02  0.14301916730E+03  0.15101904731E+04  0.15198215308E+04  0.90560544851E+02 0.  0.
         23    2    4    4    0    0 -0.39222642401E+03 -0.35194395938E+02  0.19566638135E+03  0.44943665630E+03  0.92885747218E+02 0.  0.
          4    1    3    3  502    0  0.13946694030E+03 -0.30374020821E+02 -0.15931685533E+03  0.21390528037E+03  0.00000000000E+00 0. -1.
         -3    1    3    3    0  502  0.22981333528E+03 -0.77450750539E+02 -0.14784998367E+03  0.28402888146E+03  0.00000000000E+00 0.  1.
         11    1    5    5    0    0 -0.30024012305E+02  0.43079121261E+02  0.32128916416E+03  0.32555180696E+03  0.00000000000E+00 0.  1.
        -11    1    5    5    0    0  0.52970160734E+02  0.99940046036E+02  0.11889013090E+04  0.11942697238E+04  0.00000000000E+00 0. -1.
          3    1    6    6  503    0 -0.22406224463E+03 -0.52148453015E+02  0.14902766224E+03  0.27410325560E+03  0.00000000000E+00 0. -1.
         -3    1    6    6    0  503 -0.16816417939E+03  0.16954057077E+02  0.46638719111E+02  0.17533340070E+03  0.00000000000E+00 0.  1.
<mgrwt>
<rscale>  0 0.20324134E+04</rscale>
<asrwt>0</asrwt>
<pdfrwt beam="1">  1        2 0.29737556E+00 0.20324134E+04</pdfrwt>
<pdfrwt beam="2">  1       -1 0.82192488E-01 0.20324134E+04</pdfrwt>
<totfact> 0.11306740E+01</totfact>
</mgrwt>
</event>
<event>
12    6  0.1530859E-007  0.1787284E+04  0.7818608E-02  0.8713091E-01
          2   -1    0    0  501    0  0.00000000000E+00  0.00000000000E+00  0.14586937240E+04  0.14586937240E+04  0.00000000000E+00 0. -1.
         -1   -1    0    0    0  501 -0.00000000000E+00 -0.00000000000E+00 -0.54747346295E+03  0.54747346295E+03  0.00000000000E+00 0.  1.
         24    2    1    2    0    0  0.65209845728E+03 -0.86969113272E+02  0.24946985819E+03  0.70814794939E+03  0.80263836366E+02 0.  0.
        254    2    1    2    0    0 -0.65209845728E+03  0.86969113272E+02  0.66175040288E+03  0.12980192376E+04  0.90229946291E+03 0.  0.
         23    2    4    4    0    0 -0.56236573829E+03 -0.93649476408E+02 -0.23734585337E+02  0.57790832660E+03  0.91592878393E+02 0.  0.
         23    2    4    4    0    0 -0.89732718981E+02  0.18061858968E+03  0.68548498821E+03  0.72011091098E+03  0.89414871535E+02 0.  0.
          4    1    3    3  502    0  0.62905540928E+03 -0.67653965167E+02  0.23810698249E+03  0.67600495713E+03  0.00000000000E+00 0. -1.
         -3    1    3    3    0  502  0.23043047996E+02 -0.19315148105E+02  0.11362875698E+02  0.32142992259E+02  0.00000000000E+00 0.  1.
         11    1    5    5    0    0 -0.48414423500E+03 -0.67561431346E+02 -0.49957964354E+02  0.49138171057E+03  0.00000000000E+00 0.  1.
        -11    1    5    5    0    0 -0.78221503300E+02 -0.26088045062E+02  0.26223379017E+02  0.86526616025E+02  0.00000000000E+00 0. -1.
          4    1    6    6  503    0  0.90053533631E+01 -0.43620390700E+01  0.47818082722E+02  0.48853790122E+02  0.00000000000E+00 0. -1.
         -4    1    6    6    0  503 -0.98738072344E+02  0.18498062875E+03  0.63766690549E+03  0.67125712086E+03  0.00000000000E+00 0.  1.
<mgrwt>
<rscale>  0 0.17872841E+04</rscale>
<asrwt>0</asrwt>
<pdfrwt beam="1">  1        2 0.22441442E+00 0.17872841E+04</pdfrwt>
<pdfrwt beam="2">  1       -1 0.84226687E-01 0.17872841E+04</pdfrwt>
<totfact> 0.20147862E+01</totfact>
</mgrwt>
</event>
<event>
12    6  0.1530859E-007  0.1377503E+04  0.7818608E-02  0.8970266E-01
          2   -1    0    0  501    0  0.00000000000E+00  0.00000000000E+00  0.18270636761E+04  0.18270636761E+04  0.00000000000E+00 0. -1.
         -1   -1    0    0    0  501 -0.00000000000E+00 -0.00000000000E+00 -0.25963982852E+03  0.25963982852E+03  0.00000000000E+00 0.  1.
         24    2    1    2    0    0 -0.33470987788E+03 -0.11952279365E+03  0.20495035478E+03  0.41793856636E+03  0.79696905677E+02 0.  0.
        254    2    1    2    0    0  0.33470987788E+03  0.11952279365E+03  0.13624734928E+04  0.16687649383E+04  0.89561487262E+03 0.  0.
         23    2    4    4    0    0 -0.23658178959E+03  0.86417522871E+02  0.10666737080E+03  0.28620586581E+03  0.84243327354E+02 0.  0.
         23    2    4    4    0    0  0.57129166747E+03  0.33105270779E+02  0.12558061220E+04  0.13825590725E+04  0.83369325915E+02 0.  0.
          2    1    3    3  502    0 -0.18850401330E+03 -0.31197810231E+02  0.13181882419E+03  0.23212769935E+03  0.00000000000E+00 0. -1.
         -1    1    3    3    0  502 -0.14620586458E+03 -0.88324983419E+02  0.73131530588E+02  0.18581086701E+03  0.00000000000E+00 0.  1.
         11    1    5    5    0    0 -0.77323417217E+02  0.40320427007E+02  0.79880174353E+02  0.11826026357E+03  0.00000000000E+00 0. -1.
        -11    1    5    5    0    0 -0.15925837237E+03  0.46097095865E+02  0.26787196445E+02  0.16794560224E+03  0.00000000000E+00 0.  1.
          1    1    6    6  503    0  0.36281129820E+02 -0.17334555105E+02  0.71379699337E+02  0.81925995014E+02  0.00000000000E+00 0. -1.
         -1    1    6    6    0  503  0.53501053765E+03  0.50439825884E+02  0.11844264227E+04  0.13006330775E+04  0.00000000000E+00 0.  1.
<mgrwt>
<rscale>  0 0.13775028E+04</rscale>
<asrwt>0</asrwt>
<pdfrwt beam="1">  1        2 0.28108671E+00 0.13775028E+04</pdfrwt>
<pdfrwt beam="2">  1       -1 0.39944590E-01 0.13775028E+04</pdfrwt>
<totfact> 0.56536231E+01</totfact>
</mgrwt>
</event>
<event>
12    6  0.1530859E-007  0.1916470E+04  0.7818608E-02  0.8646702E-01
         -3   -1    0    0    0  501 -0.00000000000E+00  0.00000000000E+00  0.14719714719E+04  0.14719714719E+04  0.00000000000E+00 0.  1.
          4   -1    0    0  501    0  0.00000000000E+00 -0.00000000000E+00 -0.62379872109E+03  0.62379872109E+03  0.00000000000E+00 0. -1.
         24    2    1    2    0    0 -0.31617689653E+03  0.39817349609E+03  0.91492070536E+03  0.10498687597E+04  0.81452763310E+02 0.  0.
        254    2    1    2    0    0  0.31617689653E+03 -0.39817349609E+03 -0.66747954598E+02  0.10459014332E+04  0.91156160279E+03 0.  0.
         23    2    4    4    0    0  0.61194796460E+02 -0.42577076840E+03 -0.41421386843E+03  0.60454545245E+03  0.94215311628E+02 0.  0.
         23    2    4    4    0    0  0.25498210007E+03  0.27597272304E+02  0.34746591383E+03  0.44135598077E+03  0.91022303273E+02 0.  0.
          2    1    3    3  502    0 -0.19013884267E+02  0.15132773374E+02  0.17747986862E+02  0.30091853758E+02  0.00000000000E+00 0. -1.
         -1    1    3    3    0  502 -0.29716301226E+03  0.38304072272E+03  0.89717271850E+03  0.10197769060E+04  0.00000000000E+00 0.  1.
         11    1    5    5    0    0  0.61564007011E+02 -0.30241959498E+03 -0.23938117114E+03  0.39057788402E+03  0.00000000000E+00 0.  1.
        -11    1    5    5    0    0 -0.36921055183E+00 -0.12335117341E+03 -0.17483269729E+03  0.21396756843E+03  0.00000000000E+00 0. -1.
          4    1    6    6  503    0  0.18070144809E+03  0.57870861364E+02  0.26866568966E+03  0.32891230251E+03  0.00000000000E+00 0.  1.
         -4    1    6    6    0  503  0.74280651978E+02 -0.30273589060E+02  0.78800224169E+02  0.11244367827E+03  0.00000000000E+00 0. -1.
<mgrwt>
<rscale>  0 0.19164696E+04</rscale>
<asrwt>0</asrwt>
<pdfrwt beam="1">  1        4 0.95969034E-01 0.19164696E+04</pdfrwt>
<pdfrwt beam="2">  1       -3 0.22645715E+00 0.19164696E+04</pdfrwt>
<totfact> 0.19619154E-01</totfact>
</mgrwt>
</event>
<event>
12    6  0.1530859E-007  0.1617483E+04  0.7818608E-02  0.8809879E-01
         -1   -1    0    0    0  501 -0.00000000000E+00  0.00000000000E+00  0.66688763567E+03  0.66688763567E+03  0.00000000000E+00 0.  1.
          2   -1    0    0  501    0  0.00000000000E+00 -0.00000000000E+00 -0.98076969392E+03  0.98076969392E+03  0.00000000000E+00 0. -1.
         24    2    1    2    0    0 -0.11516370236E+03 -0.40628861360E+03 -0.47724659710E+03  0.64224640696E+03  0.79893785301E+02 0.  0.
        254    2    1    2    0    0  0.11516370236E+03  0.40628861360E+03  0.16336453885E+03  0.10054109226E+04  0.89768036345E+03 0.  0.
         23    2    4    4    0    0  0.38502780836E+03  0.54308451997E+03  0.69250294676E+02  0.67547845787E+03  0.91040291562E+02 0.  0.
         23    2    4    4    0    0 -0.26986410600E+03 -0.13679590637E+03  0.94114244170E+02  0.32993246477E+03  0.91968389378E+02 0.  0.
          4    1    3    3  502    0 -0.12560499320E+03 -0.36850447753E+03 -0.41817653668E+03  0.57135258825E+03  0.00000000000E+00 0. -1.
         -3    1    3    3    0  502  0.10441290836E+02 -0.37784136071E+02 -0.59070060421E+02  0.70893818709E+02  0.00000000000E+00 0.  1.
         11    1    5    5    0    0  0.34281674847E+03  0.51482248153E+03  0.79649610483E+02  0.62362614679E+03  0.00000000000E+00 0. -1.
        -11    1    5    5    0    0  0.42211059895E+02  0.28262038443E+02 -0.10399315807E+02  0.51852311074E+02  0.00000000000E+00 0.  1.
          2    1    6    6  503    0  0.23791157539E+01 -0.87365511684E+00  0.15428590510E+02  0.15635372403E+02  0.00000000000E+00 0.  1.
         -2    1    6    6    0  503 -0.27224322176E+03 -0.13592225126E+03  0.78685653659E+02  0.31429709237E+03  0.00000000000E+00 0. -1.
<mgrwt>
<rscale>  0 0.16174835E+04</rscale>
<asrwt>0</asrwt>
<pdfrwt beam="1">  1        2 0.15088764E+00 0.16174835E+04</pdfrwt>
<pdfrwt beam="2">  1       -1 0.10259810E+00 0.16174835E+04</pdfrwt>
<totfact> 0.25450241E+01</totfact>
</mgrwt>
</event>
<event>
12    6  0.1530859E-007  0.1333033E+04  0.7818608E-02  0.9003772E-01
         -1   -1    0    0    0  501 -0.00000000000E+00  0.00000000000E+00  0.23173581250E+03  0.23173581250E+03  0.00000000000E+00 0.  1.
          2   -1    0    0  501    0  0.00000000000E+00 -0.00000000000E+00 -0.19170279602E+04  0.19170279602E+04  0.00000000000E+00 0. -1.
         24    2    1    2    0    0  0.32320846089E+03 -0.84097334202E+02 -0.65482879087E+03  0.73932550158E+03  0.79154160570E+02 0.  0.
        254    2    1    2    0    0 -0.32320846089E+03  0.84097334202E+02 -0.10304633569E+04  0.14094382711E+04  0.90173468356E+03 0.  0.
         23    2    4    4    0    0  0.21892919095E+03 -0.13479909198E+03 -0.70520654582E+02  0.28175244658E+03  0.91161903119E+02 0.  0.
         23    2    4    4    0    0 -0.54213765184E+03  0.21889642618E+03 -0.95994270228E+03  0.11276858246E+04  0.91413611385E+02 0.  0.
          2    1    3    3  502    0  0.29477908908E+03 -0.66404363882E+02 -0.62611327961E+03  0.69521370082E+03  0.00000000000E+00 0. -1.
         -1    1    3    3    0  502  0.28429371802E+02 -0.17692970320E+02 -0.28715511254E+02  0.44111800761E+02  0.00000000000E+00 0.  1.
         11    1    5    5    0    0  0.48471392666E+02  0.20746043527E+01 -0.36046306649E+02  0.60441013502E+02  0.00000000000E+00 0.  1.
        -11    1    5    5    0    0  0.17045779829E+03 -0.13687369633E+03 -0.34474347933E+02  0.22131143307E+03  0.00000000000E+00 0. -1.
          1    1    6    6  503    0 -0.51437531315E+03  0.18753241713E+03 -0.91468133244E+03  0.10660170309E+04  0.00000000000E+00 0. -1.
         -1    1    6    6    0  503 -0.27762338683E+02  0.31364009056E+02 -0.45261369841E+02  0.61668793673E+02  0.00000000000E+00 0.  1.
<mgrwt>
<rscale>  0 0.13330327E+04</rscale>
<asrwt>0</asrwt>
<pdfrwt beam="1">  1        2 0.29492738E+00 0.13330327E+04</pdfrwt>
<pdfrwt beam="2">  1       -1 0.35651663E-01 0.13330327E+04</pdfrwt>
<totfact> 0.62162421E+01</totfact>
</mgrwt>
</event>
<event>
12    6  0.1530859E-007  0.1327321E+04  0.7818608E-02  0.9008176E-01
          2   -1    0    0  501    0  0.00000000000E+00  0.00000000000E+00  0.14934896561E+04  0.14934896561E+04  0.00000000000E+00 0. -1.
         -1   -1    0    0    0  501 -0.00000000000E+00 -0.00000000000E+00 -0.29491006509E+03  0.29491006509E+03  0.00000000000E+00 0.  1.
         24    2    1    2    0    0  0.30792196136E+03  0.13305166084E+02  0.10328687540E+03  0.33495443551E+03  0.80829038788E+02 0.  0.
        254    2    1    2    0    0 -0.30792196136E+03 -0.13305166084E+02  0.10952927157E+04  0.14534452857E+04  0.90434733586E+03 0.  0.
         23    2    4    4    0    0 -0.23039121848E+03 -0.41312462490E+03  0.82870487706E+03  0.95855314810E+03  0.91215652313E+02 0.  0.
         23    2    4    4    0    0 -0.77530742879E+02  0.39981945881E+03  0.26658783859E+03  0.49489213761E+03  0.89345041554E+02 0.  0.
          2    1    3    3  502    0  0.16579575238E+03 -0.28381650917E+02  0.74970041785E+02  0.18415823843E+03  0.00000000000E+00 0. -1.
         -1    1    3    3    0  502  0.14212620898E+03  0.41686817001E+02  0.28316833615E+02  0.15079619709E+03  0.00000000000E+00 0.  1.
         11    1    5    5    0    0 -0.23892773977E+03 -0.39403498956E+03  0.79127770022E+03  0.91568031359E+03  0.00000000000E+00 0.  1.
        -11    1    5    5    0    0  0.85365212913E+01 -0.19089635336E+02  0.37427176840E+02  0.42872834514E+02  0.00000000000E+00 0. -1.
          1    1    6    6  503    0  0.46466494303E+01  0.74223651791E+02  0.16461208832E+02  0.76168978150E+02  0.00000000000E+00 0. -1.
         -1    1    6    6    0  503 -0.82177392309E+02  0.32559580702E+03  0.25012662976E+03  0.41872315946E+03  0.00000000000E+00 0.  1.
<mgrwt>
<rscale>  0 0.13273208E+04</rscale>
<asrwt>0</asrwt>
<pdfrwt beam="1">  1        2 0.22976764E+00 0.13273208E+04</pdfrwt>
<pdfrwt beam="2">  1       -1 0.45370780E-01 0.13273208E+04</pdfrwt>
<totfact> 0.68811395E+01</totfact>
</mgrwt>
</event>
<event>
12    6  0.1530859E-007  0.2244654E+04  0.7818608E-02  0.8500069E-01
         -1   -1    0    0    0  501 -0.00000000000E+00  0.00000000000E+00  0.46344618255E+03  0.46344618255E+03  0.00000000000E+00 0.  1.
          2   -1    0    0  501    0  0.00000000000E+00 -0.00000000000E+00 -0.27179384764E+04  0.27179384764E+04  0.00000000000E+00 0. -1.
         24    2    1    2    0    0 -0.29650335172E+03 -0.12122216517E+03 -0.22119460636E+04  0.22364662996E+04  0.80418096006E+02 0.  0.
        254    2    1    2    0    0  0.29650335172E+03  0.12122216517E+03 -0.42546230242E+02  0.94491835931E+03  0.88794790002E+03 0.  0.
         23    2    4    4    0    0  0.32782484418E+03 -0.26031154520E+03  0.21016144014E+03  0.47742609757E+03  0.92393823916E+02 0.  0.
         23    2    4    4    0    0 -0.31321492456E+02  0.38153371036E+03 -0.25270767038E+03  0.46749226174E+03  0.90215520224E+02 0.  0.
          4    1    3    3  502    0 -0.25160994611E+03 -0.68044209572E+02 -0.17346170910E+04  0.17540906567E+04  0.00000000000E+00 0. -1.
         -3    1    3    3    0  502 -0.44893405615E+02 -0.53177955594E+02 -0.47732897259E+03  0.48237564294E+03  0.00000000000E+00 0.  1.
         11    1    5    5    0    0  0.12381763192E+02  0.96074606877E+00  0.25018809667E+02  0.27931557957E+02  0.00000000000E+00 0. -1.
        -11    1    5    5    0    0  0.31544308098E+03 -0.26127229127E+03  0.18514263047E+03  0.44949453961E+03  0.00000000000E+00 0.  1.
          2    1    6    6  503    0 -0.24276548822E+02  0.15081232963E+03 -0.15251118873E+03  0.21585497974E+03  0.00000000000E+00 0. -1.
         -2    1    6    6    0  503 -0.70449436340E+01  0.23072138074E+03 -0.10019648165E+03  0.25163728200E+03  0.00000000000E+00 0.  1.
<mgrwt>
<rscale>  0 0.22446543E+04</rscale>
<asrwt>0</asrwt>
<pdfrwt beam="1">  1        2 0.41814438E+00 0.22446543E+04</pdfrwt>
<pdfrwt beam="2">  1       -1 0.71299413E-01 0.22446543E+04</pdfrwt>
<totfact> 0.53348040E+00</totfact>
</mgrwt>
</event>
<event>
12    6  0.1530859E-007  0.1065398E+04  0.7818608E-02  0.9239589E-01
          2   -1    0    0  501    0  0.00000000000E+00  0.00000000000E+00  0.37961747665E+03  0.37961747665E+03  0.00000000000E+00 0. -1.
         -1   -1    0    0    0  501 -0.00000000000E+00 -0.00000000000E+00 -0.74751110186E+03  0.74751110186E+03  0.00000000000E+00 0.  1.
         24    2    1    2    0    0  0.11722668228E+03  0.10542534865E+02  0.62774333054E+01  0.14243789360E+03  0.79974416448E+02 0.  0.
        254    2    1    2    0    0 -0.11722668228E+03 -0.10542534865E+02 -0.37417105851E+03  0.98469068491E+03  0.90319351406E+03 0.  0.
         23    2    4    4    0    0  0.16652967134E+03 -0.22999872354E+03  0.15648543776E+03  0.33681363442E+03  0.91236987221E+02 0.  0.
         23    2    4    4    0    0 -0.28375635362E+03  0.21945618868E+03 -0.53065649627E+03  0.64787705048E+03  0.97312221949E+02 0.  0.
          4    1    3    3  502    0  0.61964945129E+02  0.52070676841E+01  0.43240820223E+02  0.75739926804E+02  0.00000000000E+00 0. -1.
         -3    1    3    3    0  502  0.55261737147E+02  0.53354671814E+01 -0.36963386918E+02  0.66697966798E+02  0.00000000000E+00 0.  1.
         11    1    5    5    0    0  0.87150100651E+02 -0.18083869553E+03  0.13211331169E+03  0.24031583587E+03  0.00000000000E+00 0. -1.
        -11    1    5    5    0    0  0.79379570689E+02 -0.49160028013E+02  0.24372126067E+02  0.96497798555E+02  0.00000000000E+00 0.  1.
          1    1    6    6  503    0 -0.73283814012E+02  0.92429866996E+02 -0.23832819369E+03  0.26592127710E+03  0.00000000000E+00 0. -1.
         -1    1    6    6    0  503 -0.21047253960E+03  0.12702632168E+03 -0.29232830258E+03  0.38195577338E+03  0.00000000000E+00 0.  1.
<mgrwt>
<rscale>  0 0.10653981E+04</rscale>
<asrwt>0</asrwt>
<pdfrwt beam="1">  1        2 0.58402690E-01 0.10653981E+04</pdfrwt>
<pdfrwt beam="2">  1       -1 0.11500171E+00 0.10653981E+04</pdfrwt>
<totfact> 0.65973060E+01</totfact>
</mgrwt>
</event>
<event>
12    6  0.1530859E-007  0.1259535E+04  0.7818608E-02  0.9062285E-01
         -1   -1    0    0    0  501 -0.00000000000E+00  0.00000000000E+00  0.42020403055E+03  0.42020403055E+03  0.00000000000E+00 0.  1.
          2   -1    0    0  501    0  0.00000000000E+00 -0.00000000000E+00 -0.94384377432E+03  0.94384377432E+03  0.00000000000E+00 0. -1.
         24    2    1    2    0    0  0.22184902831E+03  0.21429245274E+01  0.10084826853E+03  0.25590732568E+03  0.78080744006E+02 0.  0.
        254    2    1    2    0    0 -0.22184902831E+03 -0.21429245274E+01 -0.62448801230E+03  0.11081404792E+04  0.88812637649E+03 0.  0.
         23    2    4    4    0    0 -0.33794135147E+03 -0.30193206205E+03 -0.78175541084E+02  0.46791979536E+03  0.86430275592E+02 0.  0.
         23    2    4    4    0    0  0.11609232316E+03  0.29978913752E+03 -0.54631247121E+03  0.64022068382E+03  0.89856849005E+02 0.  0.
          4    1    3    3  502    0  0.11875363240E+03  0.33568552947E+02  0.30235052885E+02  0.12705680375E+03  0.00000000000E+00 0. -1.
         -3    1    3    3    0  502  0.10309539591E+03 -0.31425628419E+02  0.70613215645E+02  0.12885052193E+03  0.00000000000E+00 0.  1.
         11    1    5    5    0    0 -0.16135055637E+03 -0.10491191601E+03 -0.64535309836E+02  0.20299093176E+03  0.00000000000E+00 0. -1.
        -11    1    5    5    0    0 -0.17659079511E+03 -0.19702014604E+03 -0.13640231247E+02  0.26492886360E+03  0.00000000000E+00 0.  1.
          4    1    6    6  503    0  0.35392160842E+02  0.16149716505E+02 -0.64817864906E+02  0.75596124261E+02  0.00000000000E+00 0. -1.
         -4    1    6    6    0  503  0.80700162323E+02  0.28363942102E+03 -0.48149460631E+03  0.56462455956E+03  0.00000000000E+00 0.  1.
<mgrwt>
<rscale>  0 0.12595348E+04</rscale>
<asrwt>0</asrwt>
<pdfrwt beam="1">  1        2 0.14520673E+00 0.12595348E+04</pdfrwt>
<pdfrwt beam="2">  1       -1 0.64646775E-01 0.12595348E+04</pdfrwt>
<totfact> 0.74577150E+01</totfact>
</mgrwt>
</event>
<event>
12    6  0.1530859E-007  0.2890132E+04  0.7818608E-02  0.8275820E-01
         -1   -1    0    0    0  501 -0.00000000000E+00  0.00000000000E+00  0.79723860797E+03  0.79723860797E+03  0.00000000000E+00 0.  1.
          2   -1    0    0  501    0  0.00000000000E+00 -0.00000000000E+00 -0.26193110934E+04  0.26193110934E+04  0.00000000000E+00 0. -1.
         24    2    1    2    0    0  0.11349913814E+04  0.37647279293E+03 -0.21150914049E+03  0.12182150487E+04  0.96822459494E+02 0.  0.
        254    2    1    2    0    0 -0.11349913814E+04 -0.37647279293E+03 -0.16105633449E+04  0.21983346527E+04  0.89934629448E+03 0.  0.
         23    2    4    4    0    0 -0.43317258951E+03  0.28341755164E+03 -0.50387528969E+03  0.72835983368E+03  0.93025474302E+02 0.  0.
         23    2    4    4    0    0 -0.70181879191E+03 -0.65989034458E+03 -0.11066880553E+04  0.14699748190E+04  0.89792167462E+02 0.  0.
          2    1    3    3  502    0  0.18424723665E+03  0.39393053831E+02 -0.45139208206E+01  0.18846546735E+03  0.00000000000E+00 0. -1.
         -1    1    3    3    0  502  0.95074414477E+03  0.33707973910E+03 -0.20699521967E+03  0.10297495813E+04  0.00000000000E+00 0.  1.
         11    1    5    5    0    0 -0.29146139245E+03  0.16051246797E+03 -0.26967490529E+03  0.42829726850E+03  0.00000000000E+00 0. -1.
        -11    1    5    5    0    0 -0.14171119706E+03  0.12290508367E+03 -0.23420038441E+03  0.30006256518E+03  0.00000000000E+00 0.  1.
          4    1    6    6  503    0 -0.17862462416E+03 -0.18367744248E+03 -0.35404575907E+03  0.43702695425E+03  0.00000000000E+00 0. -1.
         -4    1    6    6    0  503 -0.52319416775E+03 -0.47621290210E+03 -0.75264229619E+03  0.10329478648E+04  0.00000000000E+00 0.  1.
<mgrwt>
<rscale>  0 0.28901321E+04</rscale>
<asrwt>0</asrwt>
<pdfrwt beam="1">  1        2 0.40297094E+00 0.28901321E+04</pdfrwt>
<pdfrwt beam="2">  1       -1 0.12265209E+00 0.28901321E+04</pdfrwt>
<totfact> 0.17068572E+00</totfact>
</mgrwt>
</event>
<event>
12    6  0.1530859E-007  0.1067247E+04  0.7818608E-02  0.9237717E-01
          2   -1    0    0  501    0  0.00000000000E+00  0.00000000000E+00  0.10723106961E+04  0.10723106961E+04  0.00000000000E+00 0. -1.
         -1   -1    0    0    0  501 -0.00000000000E+00 -0.00000000000E+00 -0.26555162019E+03  0.26555162019E+03  0.00000000000E+00 0.  1.
         24    2    1    2    0    0 -0.60308714529E+02 -0.11655769420E+03  0.14247422150E+03  0.20937389871E+03  0.79471306410E+02 0.  0.
        254    2    1    2    0    0  0.60308714529E+02  0.11655769420E+03  0.66428485439E+03  0.11284884176E+04  0.90276735857E+03 0.  0.
         23    2    4    4    0    0 -0.23246773796E+02 -0.97670836577E+02  0.82358287697E+03  0.83470857282E+03  0.91485744778E+02 0.  0.
         23    2    4    4    0    0  0.83555488325E+02  0.21422853078E+03 -0.15929802257E+03  0.29377984475E+03  0.89751624817E+02 0.  0.
          4    1    3    3  502    0 -0.69347518390E+00 -0.11338469816E+02 -0.97420304204E+01  0.14964924400E+02  0.00000000000E+00 0. -1.
         -3    1    3    3    0  502 -0.59615239345E+02 -0.10521922439E+03  0.15221625192E+03  0.19440897431E+03  0.00000000000E+00 0.  1.
         11    1    5    5    0    0 -0.57870946985E+02 -0.68417298482E+02  0.50002651970E+03  0.50799261180E+03  0.00000000000E+00 0. -1.
        -11    1    5    5    0    0  0.34624173189E+02 -0.29253538095E+02  0.32355635726E+03  0.32671596102E+03  0.00000000000E+00 0.  1.
          2    1    6    6  503    0  0.55517496301E+02  0.13633290679E+03 -0.47522951839E+02  0.15468446859E+03  0.00000000000E+00 0. -1.
         -2    1    6    6    0  503  0.28037992024E+02  0.77895623986E+02 -0.11177507073E+03  0.13909537617E+03  0.00000000000E+00 0.  1.
<mgrwt>
<rscale>  0 0.10672466E+04</rscale>
<asrwt>0</asrwt>
<pdfrwt beam="1">  1        2 0.16497087E+00 0.10672466E+04</pdfrwt>
<pdfrwt beam="2">  1       -1 0.40854096E-01 0.10672466E+04</pdfrwt>
<totfact> 0.15049599E+02</totfact>
</mgrwt>
</event>
<event>
12    6  0.1530859E-007  0.1808535E+04  0.7818608E-02  0.8701774E-01
          2   -1    0    0  501    0  0.00000000000E+00  0.00000000000E+00  0.18274161727E+04  0.18274161727E+04  0.00000000000E+00 0. -1.
         -1   -1    0    0    0  501 -0.00000000000E+00 -0.00000000000E+00 -0.44746214663E+03  0.44746214663E+03  0.00000000000E+00 0.  1.
         24    2    1    2    0    0  0.53148574440E+02 -0.55766604780E+03  0.41595752437E+02  0.56759876071E+03  0.81375393678E+02 0.  0.
        254    2    1    2    0    0 -0.53148574440E+02  0.55766604780E+03  0.13383582736E+04  0.17072795586E+04  0.89988023137E+03 0.  0.
         23    2    4    4    0    0 -0.40759982441E+03  0.39233392879E+03  0.10998880439E+04  0.12401664175E+04  0.90529031490E+02 0.  0.
         23    2    4    4    0    0  0.35445124997E+03  0.16533211902E+03  0.23847022973E+03  0.46711314108E+03  0.91412460394E+02 0.  0.
          4    1    3    3  502    0  0.19853165781E+02 -0.31826140611E+02  0.13815401430E+02  0.39973950697E+02  0.00000000000E+00 0. -1.
         -3    1    3    3    0  502  0.33295408659E+02 -0.52583990719E+03  0.27780351007E+02  0.52762481001E+03  0.00000000000E+00 0.  1.
         11    1    5    5    0    0 -0.19141270643E+03  0.16938029276E+03  0.59254415519E+03  0.64531936559E+03  0.00000000000E+00 0. -1.
        -11    1    5    5    0    0 -0.21618711798E+03  0.22295363603E+03  0.50734388868E+03  0.59484705192E+03  0.00000000000E+00 0.  1.
          1    1    6    6  503    0  0.15510756407E+03  0.12263774092E+03  0.11346945555E+03  0.22797738763E+03  0.00000000000E+00 0. -1.
         -1    1    6    6    0  503  0.19934368590E+03  0.42694378098E+02  0.12500077418E+03  0.23913575344E+03  0.00000000000E+00 0.  1.
<mgrwt>
<rscale>  0 0.18085348E+04</rscale>
<asrwt>0</asrwt>
<pdfrwt beam="1">  1        2 0.28114095E+00 0.18085348E+04</pdfrwt>
<pdfrwt beam="2">  1       -1 0.68840331E-01 0.18085348E+04</pdfrwt>
<totfact> 0.19114421E+01</totfact>
</mgrwt>
</event>
<event>
12    6  0.1530859E-007  0.1824019E+04  0.7818608E-02  0.8693630E-01
         -1   -1    0    0    0  501 -0.00000000000E+00  0.00000000000E+00  0.79371615088E+03  0.79371615088E+03  0.00000000000E+00 0.  1.
          2   -1    0    0  501    0  0.00000000000E+00 -0.00000000000E+00 -0.10479328499E+04  0.10479328499E+04  0.00000000000E+00 0. -1.
         24    2    1    2    0    0  0.31269423379E+03  0.45701573590E+03  0.26055491326E+03  0.61730831648E+03  0.80867966831E+02 0.  0.
        254    2    1    2    0    0 -0.31269423379E+03 -0.45701573590E+03 -0.51477161229E+03  0.12243406843E+04  0.96300531241E+03 0.  0.
         23    2    4    4    0    0 -0.27133446665E+03 -0.74571957711E+03 -0.30991785418E+03  0.85682489910E+03  0.91540979408E+02 0.  0.
         23    2    4    4    0    0 -0.41359767139E+02  0.28870384121E+03 -0.20485375812E+03  0.36751578521E+03  0.89678603339E+02 0.  0.
          2    1    3    3  502    0  0.71072751205E+02  0.59895933954E+02  0.62622799304E+02  0.11207351989E+03  0.00000000000E+00 0. -1.
         -1    1    3    3    0  502  0.24162148259E+03  0.39711980195E+03  0.19793211396E+03  0.50523479658E+03  0.00000000000E+00 0.  1.
         11    1    5    5    0    0 -0.12619350672E+03 -0.44004374038E+03 -0.14358857290E+03  0.47977179247E+03  0.00000000000E+00 0. -1.
        -11    1    5    5    0    0 -0.14514095993E+03 -0.30567583673E+03 -0.16632928128E+03  0.37705310663E+03  0.00000000000E+00 0.  1.
          3    1    6    6  503    0 -0.69250411016E+01  0.51325594047E+02 -0.84606800700E+02  0.99199715338E+02  0.00000000000E+00 0. -1.
         -3    1    6    6    0  503 -0.34434726038E+02  0.23737824716E+03 -0.12024695742E+03  0.26831606987E+03  0.00000000000E+00 0.  1.
<mgrwt>
<rscale>  0 0.18240189E+04</rscale>
<asrwt>0</asrwt>
<pdfrwt beam="1">  1        2 0.16122044E+00 0.18240189E+04</pdfrwt>
<pdfrwt beam="2">  1       -1 0.12211018E+00 0.18240189E+04</pdfrwt>
<totfact> 0.14968461E+01</totfact>
</mgrwt>
</event>
<event>
12    6  0.1530859E-007  0.3239457E+04  0.7818608E-02  0.8178474E-01
          2   -1    0    0  501    0  0.00000000000E+00  0.00000000000E+00  0.38401387426E+04  0.38401387426E+04  0.00000000000E+00 0. -1.
         -1   -1    0    0    0  501 -0.00000000000E+00 -0.00000000000E+00 -0.68318362039E+03  0.68318362039E+03  0.00000000000E+00 0.  1.
         24    2    1    2    0    0  0.20029786341E+03 -0.12940825297E+03  0.35378210618E+04  0.35469571403E+04  0.88664310117E+02 0.  0.
        254    2    1    2    0    0 -0.20029786341E+03  0.12940825297E+03 -0.38086593957E+03  0.97636522269E+03  0.86681281378E+03 0.  0.
         23    2    4    4    0    0 -0.73769403463E+02  0.92347048629E+01 -0.64067273236E+03  0.65131624445E+03  0.90686799660E+02 0.  0.
         23    2    4    4    0    0 -0.12652845994E+03  0.12017354811E+03  0.25980679279E+03  0.32504897825E+03  0.87784599118E+02 0.  0.
          4    1    3    3  502    0  0.51058824496E+02 -0.78124397206E+02  0.16010327439E+04  0.16037506889E+04  0.00000000000E+00 0. -1.
         -3    1    3    3    0  502  0.14923903891E+03 -0.51283855769E+02  0.19367883179E+04  0.19432064515E+04  0.00000000000E+00 0.  1.
         11    1    5    5    0    0  0.10458233866E+02 -0.22930625170E+02 -0.97128717730E+02  0.10034528407E+03  0.00000000000E+00 0.  1.
        -11    1    5    5    0    0 -0.84227637329E+02  0.32165330033E+02 -0.54354401463E+03  0.55097096038E+03  0.00000000000E+00 0. -1.
          1    1    6    6  503    0 -0.34751269588E+02  0.24521543238E+02  0.14018289032E+03  0.14649300174E+03  0.00000000000E+00 0. -1.
         -1    1    6    6    0  503 -0.91777190356E+02  0.95652004874E+02  0.11962390247E+03  0.17855597651E+03  0.00000000000E+00 0.  1.
<mgrwt>
<rscale>  0 0.32394567E+04</rscale>
<asrwt>0</asrwt>
<pdfrwt beam="1">  1        2 0.59079056E+00 0.32394567E+04</pdfrwt>
<pdfrwt beam="2">  1       -1 0.10510517E+00 0.32394567E+04</pdfrwt>
<totfact> 0.36976123E-01</totfact>
</mgrwt>
</event>
<event>
12    6  0.1530859E-007  0.2060695E+04  0.7818608E-02  0.8578758E-01
          2   -1    0    0  501    0  0.00000000000E+00  0.00000000000E+00  0.16571884419E+04  0.16571884419E+04  0.00000000000E+00 0. -1.
         -1   -1    0    0    0  501 -0.00000000000E+00 -0.00000000000E+00 -0.64061291264E+03  0.64061291264E+03  0.00000000000E+00 0.  1.
         24    2    1    2    0    0 -0.64178863465E+03 -0.51996235247E+03  0.31024648818E+03  0.88596067897E+03  0.80124538653E+02 0.  0.
        254    2    1    2    0    0  0.64178863465E+03  0.51996235247E+03  0.70632904104E+03  0.14118406755E+04  0.90118803773E+03 0.  0.
         23    2    4    4    0    0  0.82894714200E+03  0.55586286759E+03  0.64491415407E+03  0.11916184776E+04  0.88901283440E+02 0.  0.
         23    2    4    4    0    0 -0.18715850735E+03 -0.35900515118E+02  0.61414886969E+02  0.22022219796E+03  0.91699914262E+02 0.  0.
          2    1    3    3  502    0 -0.44003120995E+03 -0.36745042646E+03  0.25313638131E+03  0.62667799481E+03  0.00000000000E+00 0. -1.
         -3    1    3    3    0  502 -0.20175742470E+03 -0.15251192601E+03  0.57110106869E+02  0.25928268416E+03  0.00000000000E+00 0.  1.
         11    1    5    5    0    0  0.30917027410E+02  0.17486805919E+02  0.45024184304E+02  0.57348305445E+02  0.00000000000E+00 0.  1.
        -11    1    5    5    0    0  0.79803011459E+03  0.53837606167E+03  0.59988996977E+03  0.11342701721E+04  0.00000000000E+00 0. -1.
          3    1    6    6  503    0 -0.17471976499E+03 -0.40785868784E+02  0.80723249078E+02  0.19674025087E+03  0.00000000000E+00 0. -1.
         -3    1    6    6    0  503 -0.12438742356E+02  0.48853536656E+01 -0.19308362109E+02  0.23481947091E+02  0.00000000000E+00 0.  1.
<mgrwt>
<rscale>  0 0.20606953E+04</rscale>
<asrwt>0</asrwt>
<pdfrwt beam="1">  1        2 0.25495207E+00 0.20606953E+04</pdfrwt>
<pdfrwt beam="2">  1       -1 0.98555833E-01 0.20606953E+04</pdfrwt>
<totfact> 0.10749316E+01</totfact>
</mgrwt>
</event>
<event>
12    6  0.1530859E-007  0.1413809E+04  0.7818608E-02  0.8943883E-01
          2   -1    0    0  501    0  0.00000000000E+00  0.00000000000E+00  0.19456767232E+04  0.19456767232E+04  0.00000000000E+00 0. -1.
         -1   -1    0    0    0  501 -0.00000000000E+00 -0.00000000000E+00 -0.25683309498E+03  0.25683309498E+03  0.00000000000E+00 0.  1.
         24    2    1    2    0    0  0.69557932557E+02 -0.71185480720E+01 -0.13388339109E+03  0.17137638801E+03  0.80969897191E+02 0.  0.
        254    2    1    2    0    0 -0.69557932557E+02  0.71185480720E+01  0.18227270193E+04  0.20311334302E+04  0.89346530123E+03 0.  0.
         23    2    4    4    0    0 -0.44671884662E+03 -0.14381371630E+03  0.10305449741E+04  0.11360020753E+04  0.90761547068E+02 0.  0.
         23    2    4    4    0    0  0.37716091406E+03  0.15093226437E+03  0.79218204517E+03  0.89513135487E+03  0.93149590783E+02 0.  0.
          4    1    3    3  502    0  0.11892377247E+02  0.63609715372E+01  0.93316973627E+01  0.16400340580E+02  0.00000000000E+00 0. -1.
         -3    1    3    3    0  502  0.57665555310E+02 -0.13479519609E+02 -0.14321508845E+03  0.15497604743E+03  0.00000000000E+00 0.  1.
         11    1    5    5    0    0 -0.29755010789E+03 -0.74226469630E+02  0.57562373549E+03  0.65221800064E+03  0.00000000000E+00 0.  1.
        -11    1    5    5    0    0 -0.14916873872E+03 -0.69587246668E+02  0.45492123866E+03  0.48378407466E+03  0.00000000000E+00 0. -1.
          3    1    6    6  503    0  0.43328445902E+01 -0.75515006360E+01  0.55906492716E+01  0.10346693355E+02  0.00000000000E+00 0. -1.
         -3    1    6    6    0  503  0.37282806947E+03  0.15848376501E+03  0.78659139590E+03  0.88478466152E+03  0.00000000000E+00 0.  1.
<mgrwt>
<rscale>  0 0.14138093E+04</rscale>
<asrwt>0</asrwt>
<pdfrwt beam="1">  1        2 0.29933487E+00 0.14138093E+04</pdfrwt>
<pdfrwt beam="2">  1       -1 0.39512785E-01 0.14138093E+04</pdfrwt>
<totfact> 0.49438967E+01</totfact>
</mgrwt>
</event>
<event>
12    6  0.1530859E-007  0.1640977E+04  0.7818608E-02  0.8795762E-01
          2   -1    0    0  501    0  0.00000000000E+00  0.00000000000E+00  0.15127204561E+04  0.15127204561E+04  0.00000000000E+00 0. -1.
         -1   -1    0    0    0  501 -0.00000000000E+00 -0.00000000000E+00 -0.44502709378E+03  0.44502709378E+03  0.00000000000E+00 0.  1.
         24    2    1    2    0    0 -0.23508668249E+03  0.89864269132E+02 -0.23631950834E+03  0.35427358241E+03  0.79508024878E+02 0.  0.
        254    2    1    2    0    0  0.23508668249E+03 -0.89864269132E+02  0.13040128706E+04  0.16034739674E+04  0.89851981743E+03 0.  0.
         23    2    4    4    0    0  0.40608466272E+03 -0.32067196864E+03  0.11505796636E+04  0.12649675512E+04  0.92596319114E+02 0.  0.
         23    2    4    4    0    0 -0.17099798023E+03  0.23080769951E+03  0.15343320698E+03  0.33850641627E+03  0.92370674243E+02 0.  0.
          4    1    3    3  502    0  0.57035464492E+01 -0.10937778032E+01 -0.98271154822E+01  0.11414858329E+02  0.00000000000E+00 0. -1.
         -1    1    3    3    0  502 -0.24079022894E+03  0.90958046935E+02 -0.22649239286E+03  0.34285872408E+03  0.00000000000E+00 0.  1.
         11    1    5    5    0    0  0.25274043410E+03 -0.17097659197E+03  0.57803124768E+03  0.65362898140E+03  0.00000000000E+00 0.  1.
        -11    1    5    5    0    0  0.15334422863E+03 -0.14969537666E+03  0.57254841596E+03  0.61133856976E+03  0.00000000000E+00 0. -1.
          3    1    6    6  503    0 -0.10047458910E+02  0.74287529667E+02  0.21002471096E+02  0.77850448212E+02  0.00000000000E+00 0. -1.
         -3    1    6    6    0  503 -0.16095052132E+03  0.15652016984E+03  0.13243073588E+03  0.26065596806E+03  0.00000000000E+00 0.  1.
<mgrwt>
<rscale>  0 0.16409773E+04</rscale>
<asrwt>0</asrwt>
<pdfrwt beam="1">  1        2 0.23272622E+00 0.16409773E+04</pdfrwt>
<pdfrwt beam="2">  1       -1 0.68465707E-01 0.16409773E+04</pdfrwt>
<totfact> 0.29364548E+01</totfact>
</mgrwt>
</event>
<event>
12    6  0.1530859E-007  0.2847152E+04  0.7818608E-02  0.8288777E-01
         -1   -1    0    0    0  501 -0.00000000000E+00  0.00000000000E+00  0.11425715563E+04  0.11425715563E+04  0.00000000000E+00 0.  1.
          2   -1    0    0  501    0  0.00000000000E+00 -0.00000000000E+00 -0.17736903591E+04  0.17736903591E+04  0.00000000000E+00 0. -1.
         24    2    1    2    0    0  0.88433978639E+03 -0.92832828522E+01 -0.12258532013E+04  0.15135285579E+04  0.76873840053E+02 0.  0.
        254    2    1    2    0    0 -0.88433978639E+03  0.92832828522E+01  0.59473439848E+03  0.14027333576E+04  0.91203554241E+03 0.  0.
         23    2    4    4    0    0 -0.73107664918E+03 -0.21888161573E+03  0.75010361220E+03  0.10739183407E+04  0.90900741824E+02 0.  0.
         23    2    4    4    0    0 -0.15326313721E+03  0.22816489858E+03 -0.15536921371E+03  0.32881501685E+03  0.91820000881E+02 0.  0.
          2    1    3    3  502    0  0.40707679158E+03  0.34039083429E+02 -0.56498564116E+03  0.69719362315E+03  0.00000000000E+00 0. -1.
         -1    1    3    3    0  502  0.47726299481E+03 -0.43322366282E+02 -0.66086756011E+03  0.81633493472E+03  0.00000000000E+00 0.  1.
         11    1    5    5    0    0 -0.15172683302E+02 -0.16031726538E+01  0.11410633060E+01  0.15299755116E+02  0.00000000000E+00 0.  1.
        -11    1    5    5    0    0 -0.71590396587E+03 -0.21727844308E+03  0.74896254889E+03  0.10586185856E+04  0.00000000000E+00 0. -1.
          3    1    6    6  503    0 -0.16323558732E+03  0.20083109161E+03 -0.12742053893E+03  0.28847006442E+03  0.00000000000E+00 0. -1.
         -3    1    6    6    0  503  0.99724501027E+01  0.27333806977E+02 -0.27948674778E+02  0.40344952432E+02  0.00000000000E+00 0.  1.
<mgrwt>
<rscale>  0 0.28471517E+04</rscale>
<asrwt>0</asrwt>
<pdfrwt beam="1">  1        2 0.27287544E+00 0.28471517E+04</pdfrwt>
<pdfrwt beam="2">  1       -1 0.17578024E+00 0.28471517E+04</pdfrwt>
<totfact> 0.19655264E+00</totfact>
</mgrwt>
</event>
<event>
12    6  0.1530859E-007  0.4659114E+04  0.7818608E-02  0.7883358E-01
          2   -1    0    0  501    0  0.00000000000E+00  0.00000000000E+00  0.31792974385E+04  0.31792974385E+04  0.00000000000E+00 0. -1.
         -1   -1    0    0    0  501 -0.00000000000E+00 -0.00000000000E+00 -0.17069290173E+04  0.17069290173E+04  0.00000000000E+00 0.  1.
         24    2    1    2    0    0  0.14811983883E+04 -0.94495760972E+03 -0.75275340771E+03  0.19131053701E+04  0.80255309670E+02 0.  0.
        254    2    1    2    0    0 -0.14811983883E+04  0.94495760972E+03  0.22251218289E+04  0.29731210856E+04  0.89520293040E+03 0.  0.
         23    2    4    4    0    0 -0.14568998799E+04  0.63895068095E+03  0.15363610611E+04  0.22135484750E+04  0.92608361354E+02 0.  0.
         23    2    4    4    0    0 -0.24298508408E+02  0.30600692877E+03  0.68876076779E+03  0.75957261056E+03  0.91260602159E+02 0.  0.
          4    1    3    3  502    0  0.91630793768E+03 -0.58815149257E+03 -0.50856369044E+03  0.12017401725E+04  0.00000000000E+00 0. -1.
         -3    1    3    3    0  502  0.56489045060E+03 -0.35680611715E+03 -0.24418971727E+03  0.71136519766E+03  0.00000000000E+00 0.  1.
         11    1    5    5    0    0 -0.44045756329E+03  0.14848784689E+03  0.46187011697E+03  0.65526751079E+03  0.00000000000E+00 0. -1.
        -11    1    5    5    0    0 -0.10164423166E+04  0.49046283406E+03  0.10744909441E+04  0.15582809643E+04  0.00000000000E+00 0.  1.
          3    1    6    6  503    0 -0.19098991223E+01  0.82833677988E+02  0.10204926158E+03  0.13145005787E+03  0.00000000000E+00 0. -1.
         -3    1    6    6    0  503 -0.22388609286E+02  0.22317325078E+03  0.58671150621E+03  0.62812255269E+03  0.00000000000E+00 0.  1.
<mgrwt>
<rscale>  0 0.46591137E+04</rscale>
<asrwt>0</asrwt>
<pdfrwt beam="1">  1        2 0.48912268E+00 0.46591137E+04</pdfrwt>
<pdfrwt beam="2">  1       -1 0.26260446E+00 0.46591137E+04</pdfrwt>
<totfact> 0.65531730E-02</totfact>
</mgrwt>
</event>
<event>
12    6  0.1530859E-007  0.1512951E+04  0.7818608E-02  0.8875886E-01
          2   -1    0    0  501    0  0.00000000000E+00  0.00000000000E+00  0.68399444090E+03  0.68399444090E+03  0.00000000000E+00 0. -1.
         -1   -1    0    0    0  501 -0.00000000000E+00 -0.00000000000E+00 -0.83663663260E+03  0.83663663260E+03  0.00000000000E+00 0.  1.
         24    2    1    2    0    0  0.22245103302E+03  0.21503226218E+03  0.32369766997E+03  0.45530590046E+03  0.82461782508E+02 0.  0.
        254    2    1    2    0    0 -0.22245103302E+03 -0.21503226218E+03 -0.47633986167E+03  0.10653251730E+04  0.90127394538E+03 0.  0.
         23    2    4    4    0    0  0.15372931751E+03  0.27500213237E+03 -0.17816451096E+03  0.37371923078E+03  0.93083804299E+02 0.  0.
         23    2    4    4    0    0 -0.37618035053E+03 -0.49003439455E+03 -0.29817535072E+03  0.69160594226E+03  0.88118531676E+02 0.  0.
          2    1    3    3  502    0  0.16101407202E+03  0.14173131110E+03  0.16752068452E+03  0.27216993896E+03  0.00000000000E+00 0. -1.
         -1    1    3    3    0  502  0.61436961007E+02  0.73300951078E+02  0.15617698545E+03  0.18313596149E+03  0.00000000000E+00 0.  1.
         11    1    5    5    0    0  0.13766227910E+03  0.23794130876E+03 -0.18687213660E+03  0.33239760068E+03  0.00000000000E+00 0.  1.
        -11    1    5    5    0    0  0.16067038404E+02  0.37060823616E+02  0.87076256419E+01  0.41321630104E+02  0.00000000000E+00 0. -1.
          4    1    6    6  503    0 -0.65740010373E+02 -0.11541396416E+03 -0.10000859439E+03  0.16626440100E+03  0.00000000000E+00 0. -1.
         -4    1    6    6    0  503 -0.31044034016E+03 -0.37462043039E+03 -0.19816675633E+03  0.52534154126E+03  0.00000000000E+00 0.  1.
<mgrwt>
<rscale>  0 0.15129505E+04</rscale>
<asrwt>0</asrwt>
<pdfrwt beam="1">  1        2 0.10522992E+00 0.15129505E+04</pdfrwt>
<pdfrwt beam="2">  1       -1 0.12871333E+00 0.15129505E+04</pdfrwt>
<totfact> 0.24195543E+01</totfact>
</mgrwt>
</event>
<event>
12    6  0.1530859E-007  0.1392630E+04  0.7818608E-02  0.8959170E-01
          4   -1    0    0  501    0  0.00000000000E+00  0.00000000000E+00  0.71014743732E+03  0.71014743732E+03  0.00000000000E+00 0. -1.
         -3   -1    0    0    0  501 -0.00000000000E+00 -0.00000000000E+00 -0.68275226911E+03  0.68275226911E+03  0.00000000000E+00 0.  1.
         24    2    1    2    0    0  0.83713844608E+02 -0.63957589789E+02 -0.40440065851E+03  0.42498879657E+03  0.77311082872E+02 0.  0.
        254    2    1    2    0    0 -0.83713844608E+02  0.63957589789E+02  0.43179582672E+03  0.96791090987E+03  0.85982865292E+03 0.  0.
         23    2    4    4    0    0 -0.38452720791E+03 -0.56306051780E+02 -0.24194290413E+02  0.40116988330E+03  0.96542045164E+02 0.  0.
         23    2    4    4    0    0  0.30081336330E+03  0.12026364157E+03  0.45599011714E+03  0.56674102657E+03  0.91194195234E+02 0.  0.
          4    1    3    3  502    0  0.38626531385E+02 -0.22948355555E+02 -0.58513959504E+02  0.73773432931E+02  0.00000000000E+00 0. -1.
         -3    1    3    3    0  502  0.45087313223E+02 -0.41009234233E+02 -0.34588669900E+03  0.35121536363E+03  0.00000000000E+00 0.  1.
         11    1    5    5    0    0  0.27892903928E+00 -0.39949058301E+01 -0.11980820824E+02  0.12632384637E+02  0.00000000000E+00 0.  1.
        -11    1    5    5    0    0 -0.38480613695E+03 -0.52311145950E+02 -0.12213469589E+02  0.38853749866E+03  0.00000000000E+00 0. -1.
          4    1    6    6  503    0  0.24662353816E+03  0.85916395969E+02  0.41586502979E+03  0.49106875249E+03  0.00000000000E+00 0. -1.
         -4    1    6    6    0  503  0.54189825145E+02  0.34347245599E+02  0.40125087344E+02  0.75672274076E+02  0.00000000000E+00 0.  1.
<mgrwt>
<rscale>  0 0.13926303E+04</rscale>
<asrwt>0</asrwt>
<pdfrwt beam="1">  1        4 0.10925345E+00 0.13926303E+04</pdfrwt>
<pdfrwt beam="2">  1       -3 0.10503881E+00 0.13926303E+04</pdfrwt>
<totfact> 0.11556647E+00</totfact>
</mgrwt>
</event>
<event>
12    6  0.1530859E-007  0.1652035E+04  0.7818608E-02  0.8789204E-01
          2   -1    0    0  501    0  0.00000000000E+00  0.00000000000E+00  0.32790264624E+04  0.32790264624E+04  0.00000000000E+00 0. -1.
         -1   -1    0    0    0  501 -0.00000000000E+00 -0.00000000000E+00 -0.20808149218E+03  0.20808149218E+03  0.00000000000E+00 0.  1.
         24    2    1    2    0    0  0.53273249944E+03 -0.18898083360E+03  0.11946819932E+04  0.13240538771E+04  0.79598575337E+02 0.  0.
        254    2    1    2    0    0 -0.53273249944E+03  0.18898083360E+03  0.18762629770E+04  0.21630540774E+04  0.91592713227E+03 0.  0.
         23    2    4    4    0    0 -0.41080870664E+03  0.57474328458E+02  0.19117751122E+04  0.19585520213E+04  0.94735677482E+02 0.  0.
         23    2    4    4    0    0 -0.12192379280E+03  0.13150650514E+03 -0.35512135187E+02  0.20450205616E+03  0.91654825753E+02 0.  0.
          4    1    3    3  502    0  0.30654022507E+03 -0.13107291422E+03  0.62449649740E+03  0.70791446779E+03  0.00000000000E+00 0. -1.
         -3    1    3    3    0  502  0.22619227437E+03 -0.57907919376E+02  0.57018549582E+03  0.61613940935E+03  0.00000000000E+00 0.  1.
         11    1    5    5    0    0 -0.40457286867E+03  0.63327890175E+02  0.19019121176E+04  0.19454971937E+04  0.00000000000E+00 0.  1.
        -11    1    5    5    0    0 -0.62358379694E+01 -0.58535617168E+01  0.98629945693E+01  0.13054827530E+02  0.00000000000E+00 0. -1.
          4    1    6    6  503    0 -0.13159950889E+03  0.91875954001E+02 -0.30926675089E+02  0.16345054572E+03  0.00000000000E+00 0.  1.
         -4    1    6    6    0  503  0.96757160878E+01  0.39630551139E+02 -0.45854600986E+01  0.41051510444E+02  0.00000000000E+00 0. -1.
<mgrwt>
<rscale>  0 0.16520348E+04</rscale>
<asrwt>0</asrwt>
<pdfrwt beam="1">  1        2 0.50446557E+00 0.16520348E+04</pdfrwt>
<pdfrwt beam="2">  1       -1 0.32012540E-01 0.16520348E+04</pdfrwt>
<totfact> 0.11474873E+01</totfact>
</mgrwt>
</event>
<event>
12    6  0.1530859E-007  0.1396868E+04  0.7818608E-02  0.8956089E-01
         -1   -1    0    0    0  501 -0.00000000000E+00  0.00000000000E+00  0.23614874294E+03  0.23614874294E+03  0.00000000000E+00 0.  1.
          2   -1    0    0  501    0  0.00000000000E+00 -0.00000000000E+00 -0.20656884155E+04  0.20656884155E+04  0.00000000000E+00 0. -1.
         24    2    1    2    0    0 -0.40119910037E+03 -0.18893029732E+02 -0.34461685560E+03  0.53546187028E+03  0.81492163111E+02 0.  0.
        254    2    1    2    0    0  0.40119910037E+03  0.18893029732E+02 -0.14849228169E+04  0.17663752881E+04  0.86819826165E+03 0.  0.
         23    2    4    4    0    0  0.57510415650E+03  0.23325216170E+03 -0.12214879024E+04  0.13733460202E+04  0.94314546496E+02 0.  0.
         23    2    4    4    0    0 -0.17390505613E+03 -0.21435913197E+03 -0.26343491451E+03  0.39302926792E+03  0.94240358930E+02 0.  0.
          4    1    3    3  502    0 -0.54370780838E+02 -0.24392883223E+01 -0.88914330398E+02  0.10424917307E+03  0.00000000000E+00 0. -1.
         -3    1    3    3    0  502 -0.34682831954E+03 -0.16453741409E+02 -0.25570252520E+03  0.43121269721E+03  0.00000000000E+00 0.  1.
         11    1    5    5    0    0  0.40794865016E+03  0.19209250784E+03 -0.95486079493E+03  0.10559738493E+04  0.00000000000E+00 0. -1.
        -11    1    5    5    0    0  0.16715550634E+03  0.41159653859E+02 -0.26662710748E+03  0.31737217088E+03  0.00000000000E+00 0.  1.
          1    1    6    6  503    0 -0.66045185762E+02 -0.11193423298E+03 -0.65796989052E+02  0.14567251918E+03  0.00000000000E+00 0. -1.
         -1    1    6    6    0  503 -0.10785987037E+03 -0.10242489899E+03 -0.19763792546E+03  0.24735674875E+03  0.00000000000E+00 0.  1.
<mgrwt>
<rscale>  0 0.13968675E+04</rscale>
<asrwt>0</asrwt>
<pdfrwt beam="1">  1        2 0.31779823E+00 0.13968675E+04</pdfrwt>
<pdfrwt beam="2">  1       -1 0.36330574E-01 0.13968675E+04</pdfrwt>
<totfact> 0.49454898E+01</totfact>
</mgrwt>
</event>
<event>
12    6  0.1530859E-007  0.1416674E+04  0.7818608E-02  0.8941837E-01
         -1   -1    0    0    0  501 -0.00000000000E+00  0.00000000000E+00  0.38228086596E+03  0.38228086596E+03  0.00000000000E+00 0.  1.
          2   -1    0    0  501    0  0.00000000000E+00 -0.00000000000E+00 -0.13124939645E+04  0.13124939645E+04  0.00000000000E+00 0. -1.
         24    2    1    2    0    0 -0.16770209379E+03  0.17536749670E+03 -0.69476883065E+03  0.74018522368E+03  0.79326453054E+02 0.  0.
        254    2    1    2    0    0  0.16770209379E+03 -0.17536749670E+03 -0.23544426785E+03  0.95458960674E+03  0.89270911436E+03 0.  0.
         23    2    4    4    0    0 -0.10897779320E+02  0.33739219377E+03  0.14772309858E+02  0.35013237727E+03  0.91772580120E+02 0.  0.
         23    2    4    4    0    0  0.17859987311E+03 -0.51275969047E+03 -0.25021657771E+03  0.60445722947E+03  0.89105508524E+02 0.  0.
          2    1    3    3  502    0 -0.11587536039E+03  0.74880443608E+02 -0.31372794034E+03  0.34272350449E+03  0.00000000000E+00 0. -1.
         -1    1    3    3    0  502 -0.51826733398E+02  0.10048705310E+03 -0.38104089031E+03  0.39746171920E+03  0.00000000000E+00 0.  1.
         11    1    5    5    0    0  0.99089479634E+01  0.84590992537E+02  0.42103732988E+02  0.95008144912E+02  0.00000000000E+00 0.  1.
        -11    1    5    5    0    0 -0.20806727283E+02  0.25280120123E+03 -0.27331423129E+02  0.25512423236E+03  0.00000000000E+00 0. -1.
          3    1    6    6  503    0  0.11063969543E+03 -0.31759888399E+03 -0.10663629958E+03  0.35281934995E+03  0.00000000000E+00 0. -1.
         -3    1    6    6    0  503  0.67960177678E+02 -0.19516080649E+03 -0.14358027814E+03  0.25163787952E+03  0.00000000000E+00 0.  1.
<mgrwt>
<rscale>  0 0.14166740E+04</rscale>
<asrwt>0</asrwt>
<pdfrwt beam="1">  1        2 0.20192215E+00 0.14166740E+04</pdfrwt>
<pdfrwt beam="2">  1       -1 0.58812440E-01 0.14166740E+04</pdfrwt>
<totfact> 0.52781425E+01</totfact>
</mgrwt>
</event>
<event>
12    6  0.1530859E-007  0.1591492E+04  0.7818608E-02  0.8825792E-01
         -1   -1    0    0    0  501 -0.00000000000E+00  0.00000000000E+00  0.15283389409E+04  0.15283389409E+04  0.00000000000E+00 0.  1.
          2   -1    0    0  501    0  0.00000000000E+00 -0.00000000000E+00 -0.41431343198E+03  0.41431343198E+03  0.00000000000E+00 0. -1.
         24    2    1    2    0    0 -0.51042461819E+03 -0.16887777662E+03  0.28116433250E+03  0.61170773999E+03  0.77974245822E+02 0.  0.
        254    2    1    2    0    0  0.51042461819E+03  0.16887777662E+03  0.83286117640E+03  0.13309446329E+04  0.88808945625E+03 0.  0.
         23    2    4    4    0    0  0.30186101426E+03 -0.34922991529E+03  0.41901926000E+03  0.62963270767E+03  0.88196375564E+02 0.  0.
         23    2    4    4    0    0  0.20856360393E+03  0.51810769190E+03  0.41384191640E+03  0.70131192519E+03  0.92945830148E+02 0.  0.
          2    1    3    3  502    0 -0.31061902415E+03 -0.13708724451E+03  0.15462839313E+03  0.37307778107E+03  0.00000000000E+00 0. -1.
         -1    1    3    3    0  502 -0.19980559404E+03 -0.31790532105E+02  0.12653593937E+03  0.23862995892E+03  0.00000000000E+00 0.  1.
         11    1    5    5    0    0  0.12568042537E+03 -0.19789288436E+03  0.24756179018E+03  0.34094574782E+03  0.00000000000E+00 0. -1.
        -11    1    5    5    0    0  0.17618058889E+03 -0.15133703093E+03  0.17145746982E+03  0.28868695985E+03  0.00000000000E+00 0.  1.
          2    1    6    6  503    0  0.20622327240E+03  0.44339918485E+03  0.33551503536E+03  0.59304402380E+03  0.00000000000E+00 0. -1.
         -2    1    6    6    0  503  0.23403315286E+01  0.74708507050E+02  0.78326881040E+02  0.10826790139E+03  0.00000000000E+00 0.  1.
<mgrwt>
<rscale>  0 0.15914916E+04</rscale>
<asrwt>0</asrwt>
<pdfrwt beam="1">  1        2 0.63740529E-01 0.15914916E+04</pdfrwt>
<pdfrwt beam="2">  1       -1 0.23512906E+00 0.15914916E+04</pdfrwt>
<totfact> 0.73217382E+00</totfact>
</mgrwt>
</event>
<event>
12    6  0.1530859E-007  0.1261004E+04  0.7818608E-02  0.9061074E-01
          2   -1    0    0  501    0  0.00000000000E+00  0.00000000000E+00  0.11296981218E+04  0.11296981218E+04  0.00000000000E+00 0. -1.
         -3   -1    0    0    0  501 -0.00000000000E+00 -0.00000000000E+00 -0.35189311464E+03  0.35189311464E+03  0.00000000000E+00 0.  1.
         24    2    1    2    0    0  0.20899185355E+03  0.22082240290E+03  0.23037460746E+03  0.38984433121E+03  0.80411531137E+02 0.  0.
        254    2    1    2    0    0 -0.20899185355E+03 -0.22082240290E+03  0.54743039970E+03  0.10917469052E+04  0.89431042377E+03 0.  0.
         23    2    4    4    0    0 -0.16111308972E+03  0.97481993490E+02  0.69462515170E+03  0.72571263741E+03  0.93244645946E+02 0.  0.
         23    2    4    4    0    0 -0.47878763834E+02 -0.31830439639E+03 -0.14719475200E+03  0.36603426781E+03  0.93299117921E+02 0.  0.
          2    1    3    3  502    0  0.76222987560E+02  0.44049681124E+02  0.99815229592E+02  0.13309169132E+03  0.00000000000E+00 0. -1.
         -1    1    3    3    0  502  0.13276886599E+03  0.17677272178E+03  0.13055937787E+03  0.25675263989E+03  0.00000000000E+00 0.  1.
         11    1    5    5    0    0 -0.19283423589E+01 -0.13287712647E+02  0.82969216305E+02  0.84048632742E+02  0.00000000000E+00 0.  1.
        -11    1    5    5    0    0 -0.15918474736E+03  0.11076970614E+03  0.61165593539E+03  0.64166400467E+03  0.00000000000E+00 0. -1.
          3    1    6    6  503    0 -0.69878513596E+02 -0.25229415886E+03 -0.92934838453E+02  0.27779890831E+03  0.00000000000E+00 0. -1.
         -3    1    6    6    0  503  0.21999749762E+02 -0.66010237531E+02 -0.54259913544E+02  0.88235359501E+02  0.00000000000E+00 0.  1.
<mgrwt>
<rscale>  0 0.12610043E+04</rscale>
<asrwt>0</asrwt>
<pdfrwt beam="1">  1        2 0.17379971E+00 0.12610043E+04</pdfrwt>
<pdfrwt beam="2">  1       -3 0.54137403E-01 0.12610043E+04</pdfrwt>
<totfact> 0.44100520E+01</totfact>
</mgrwt>
</event>
<event>
12    6  0.1530859E-007  0.2114418E+04  0.7818608E-02  0.8554919E-01
          2   -1    0    0  501    0  0.00000000000E+00  0.00000000000E+00  0.17568549825E+04  0.17568549825E+04  0.00000000000E+00 0. -1.
         -1   -1    0    0    0  501 -0.00000000000E+00 -0.00000000000E+00 -0.63618853957E+03  0.63618853957E+03  0.00000000000E+00 0.  1.
         24    2    1    2    0    0 -0.44092186062E+03 -0.72314559610E+03  0.65234685202E+03  0.10717747653E+04  0.76112363538E+02 0.  0.
        254    2    1    2    0    0  0.44092186062E+03  0.72314559610E+03  0.46831959088E+03  0.13212687567E+04  0.89948665802E+03 0.  0.
         23    2    4    4    0    0  0.28917260201E+03  0.77036747120E+03  0.65774947632E+03  0.10576416986E+04  0.94258975990E+02 0.  0.
         23    2    4    4    0    0  0.15174925861E+03 -0.47221875100E+02 -0.18942988544E+03  0.26362705813E+03  0.91421011289E+02 0.  0.
          2    1    3    3  502    0 -0.39537050925E+03 -0.61639635316E+03  0.58740422422E+03  0.93877900829E+03  0.00000000000E+00 0. -1.
         -1    1    3    3    0  502 -0.45551351366E+02 -0.10674924294E+03  0.64942627803E+02  0.13299575702E+03  0.00000000000E+00 0.  1.
         11    1    5    5    0    0  0.17800732588E+03  0.47672788673E+03  0.34728009039E+03  0.61608404235E+03  0.00000000000E+00 0.  1.
        -11    1    5    5    0    0  0.11116527613E+03  0.29363958447E+03  0.31046938593E+03  0.44155765624E+03  0.00000000000E+00 0. -1.
          3    1    6    6  503    0  0.10386990137E+03  0.52653477010E+01 -0.14953715048E+03  0.18214840013E+03  0.00000000000E+00 0. -1.
         -3    1    6    6    0  503  0.47879357236E+02 -0.52487222801E+02 -0.39892734962E+02  0.81478658000E+02  0.00000000000E+00 0.  1.
<mgrwt>
<rscale>  0 0.21144181E+04</rscale>
<asrwt>0</asrwt>
<pdfrwt beam="1">  1        2 0.27028538E+00 0.21144181E+04</pdfrwt>
<pdfrwt beam="2">  1       -1 0.97875160E-01 0.21144181E+04</pdfrwt>
<totfact> 0.95664234E+00</totfact>
</mgrwt>
</event>
<event>
12    6  0.1530859E-007  0.2012580E+04  0.7818608E-02  0.8600761E-01
         -1   -1    0    0    0  501 -0.00000000000E+00  0.00000000000E+00  0.59045077817E+03  0.59045077817E+03  0.00000000000E+00 0.  1.
          2   -1    0    0  501    0  0.00000000000E+00 -0.00000000000E+00 -0.17149948418E+04  0.17149948418E+04  0.00000000000E+00 0. -1.
         24    2    1    2    0    0 -0.27828127330E+03  0.34551105774E+03 -0.11855948546E+04  0.12684027561E+04  0.79950198386E+02 0.  0.
        254    2    1    2    0    0  0.27828127330E+03 -0.34551105774E+03  0.61050791016E+02  0.10370428639E+04  0.93536749159E+03 0.  0.
         23    2    4    4    0    0 -0.27415377666E+03 -0.28206613941E+03  0.20883117730E+03  0.45436016316E+03  0.90061628882E+02 0.  0.
         23    2    4    4    0    0  0.55243504996E+03 -0.63444918330E+02 -0.14778038629E+03  0.58268270070E+03  0.92034477480E+02 0.  0.
          4    1    3    3  502    0 -0.21518984124E+03  0.29427074822E+03 -0.88828840745E+03  0.96018656304E+03  0.00000000000E+00 0. -1.
         -3    1    3    3    0  502 -0.63091432054E+02  0.51240309524E+02 -0.29730644720E+03  0.30821619306E+03  0.00000000000E+00 0.  1.
         11    1    5    5    0    0 -0.22229185929E+03 -0.20212276855E+03  0.11822702801E+03  0.32286981033E+03  0.00000000000E+00 0.  1.
        -11    1    5    5    0    0 -0.51861917369E+02 -0.79943370861E+02  0.90604149295E+02  0.13149035283E+03  0.00000000000E+00 0. -1.
          1    1    6    6  503    0  0.92991811717E+02  0.99214421610E+01 -0.54233829954E+02  0.10810744827E+03  0.00000000000E+00 0. -1.
         -1    1    6    6    0  503  0.45944323824E+03 -0.73366360491E+02 -0.93546556332E+02  0.47457525243E+03  0.00000000000E+00 0.  1.
<mgrwt>
<rscale>  0 0.20125805E+04</rscale>
<asrwt>0</asrwt>
<pdfrwt beam="1">  1        2 0.26384536E+00 0.20125805E+04</pdfrwt>
<pdfrwt beam="2">  1       -1 0.90838582E-01 0.20125805E+04</pdfrwt>
<totfact> 0.12033569E+01</totfact>
</mgrwt>
</event>
<event>
12    6  0.1530859E-007  0.1658136E+04  0.7818608E-02  0.8785608E-01
         -1   -1    0    0    0  501 -0.00000000000E+00  0.00000000000E+00  0.28798775525E+03  0.28798775525E+03  0.00000000000E+00 0.  1.
          2   -1    0    0  501    0  0.00000000000E+00 -0.00000000000E+00 -0.23867472403E+04  0.23867472403E+04  0.00000000000E+00 0. -1.
         24    2    1    2    0    0 -0.38050760825E+03  0.39738627080E+03 -0.10593230178E+04  0.11963125752E+04  0.79351329564E+02 0.  0.
        254    2    1    2    0    0  0.38050760825E+03 -0.39738627080E+03 -0.10394364672E+04  0.14784224203E+04  0.89588101623E+03 0.  0.
         23    2    4    4    0    0 -0.13815611079E+03  0.10835236278E+03 -0.58569087368E+03  0.61821789213E+03  0.91280979246E+02 0.  0.
         23    2    4    4    0    0  0.51866371904E+03 -0.50573863358E+03 -0.45374559355E+03  0.86020452815E+03  0.96349092596E+02 0.  0.
          2    1    3    3  502    0 -0.37439770503E+03  0.36812938708E+03 -0.98504010362E+03  0.11162423092E+04  0.00000000000E+00 0. -1.
         -1    1    3    3    0  502 -0.61099032177E+01  0.29256883716E+02 -0.74282914156E+02  0.80070266002E+02  0.00000000000E+00 0.  1.
         11    1    5    5    0    0 -0.11837956517E+03  0.39801267476E+02 -0.40976607068E+03  0.42837611397E+03  0.00000000000E+00 0.  1.
        -11    1    5    5    0    0 -0.19776545622E+02  0.68551095305E+02 -0.17592480300E+03  0.18984177816E+03  0.00000000000E+00 0. -1.
          1    1    6    6  503    0  0.45718005611E+03 -0.48025661776E+03 -0.39767521336E+03  0.77317889128E+03  0.00000000000E+00 0. -1.
         -1    1    6    6    0  503  0.61483662922E+02 -0.25482015819E+02 -0.56070380199E+02  0.87025636867E+02  0.00000000000E+00 0.  1.
<mgrwt>
<rscale>  0 0.16581363E+04</rscale>
<asrwt>0</asrwt>
<pdfrwt beam="1">  1        2 0.36719188E+00 0.16581363E+04</pdfrwt>
<pdfrwt beam="2">  1       -1 0.44305808E-01 0.16581363E+04</pdfrwt>
<totfact> 0.22203490E+01</totfact>
</mgrwt>
</event>
<event>
12    6  0.1530859E-007  0.1360646E+04  0.7818608E-02  0.8982808E-01
          2   -1    0    0  501    0  0.00000000000E+00  0.00000000000E+00  0.26883370510E+04  0.26883370510E+04  0.00000000000E+00 0. -1.
         -3   -1    0    0    0  501 -0.00000000000E+00 -0.00000000000E+00 -0.17216577204E+03  0.17216577204E+03  0.00000000000E+00 0.  1.
         24    2    1    2    0    0 -0.83555655126E+02 -0.23217117404E+03  0.13132516174E+04  0.13387067039E+04  0.81368465260E+02 0.  0.
        254    2    1    2    0    0  0.83555655126E+02  0.23217117404E+03  0.12029196616E+04  0.15217961191E+04  0.89886746201E+03 0.  0.
         23    2    4    4    0    0 -0.29407310643E+03  0.26946666238E+03  0.10022297462E+04  0.10834524419E+04  0.10155518460E+03 0.  0.
         23    2    4    4    0    0  0.37762876156E+03 -0.37295488338E+02  0.20068991540E+03  0.43834367725E+03  0.88737265167E+02 0.  0.
          2    1    3    3  502    0 -0.71933489064E+02 -0.18299485114E+03  0.11785385751E+04  0.11948283205E+04  0.00000000000E+00 0. -1.
         -1    1    3    3    0  502 -0.11622166062E+02 -0.49176322901E+02  0.13471304225E+03  0.14387838347E+03  0.00000000000E+00 0.  1.
         11    1    5    5    0    0 -0.72478380753E+02  0.39409179206E+02  0.12399426219E+03  0.14893211923E+03  0.00000000000E+00 0. -1.
        -11    1    5    5    0    0 -0.22159472568E+03  0.23005748318E+03  0.87823548402E+03  0.93452032263E+03  0.00000000000E+00 0.  1.
          1    1    6    6  503    0  0.19430091358E+02  0.10437807234E+02  0.33662020455E+02  0.40244352288E+02  0.00000000000E+00 0. -1.
         -1    1    6    6    0  503  0.35819867020E+03 -0.47733295571E+02  0.16702789495E+03  0.39809932496E+03  0.00000000000E+00 0.  1.
<mgrwt>
<rscale>  0 0.13606464E+04</rscale>
<asrwt>0</asrwt>
<pdfrwt beam="1">  1        2 0.41359029E+00 0.13606464E+04</pdfrwt>
<pdfrwt beam="2">  1       -3 0.26487044E-01 0.13606464E+04</pdfrwt>
<totfact> 0.23614713E+01</totfact>
</mgrwt>
</event>
<event>
12    6  0.1559062E-007  0.1546926E+04  0.7818608E-02  0.8853833E-01
         -1   -1    0    0    0  501 -0.00000000000E+00  0.00000000000E+00  0.24732248484E+03  0.24732248484E+03  0.00000000000E+00 0.  1.
          2   -1    0    0  501    0  0.00000000000E+00 -0.00000000000E+00 -0.24188872347E+04  0.24188872347E+04  0.00000000000E+00 0. -1.
         24    2    1    2    0    0  0.14670912907E+03  0.14073870877E+03  0.78970700438E+02  0.23314216867E+03  0.82388995538E+02 0.  0.
        254    2    1    2    0    0 -0.14670912907E+03 -0.14073870877E+03 -0.22505354503E+04  0.24330675509E+04  0.90198500064E+03 0.  0.
         23    2    4    4    0    0 -0.41663647093E+03 -0.19586056893E+02 -0.50851724835E+03  0.66380344852E+03  0.89864697491E+02 0.  0.
         23    2    4    4    0    0  0.26992734186E+03 -0.12115265188E+03 -0.17420182020E+04  0.17692641024E+04  0.90162703231E+02 0.  0.
          2    1    3    3  502    0  0.87985299103E+01  0.38200976270E+02 -0.87948051982E+01  0.40175581079E+02  0.00000000000E+00 0. -1.
         -1    1    3    3    0  502  0.13791059916E+03  0.10253773250E+03  0.87765505636E+02  0.19296658759E+03  0.00000000000E+00 0.  1.
         11    1    5    5    0    0 -0.49590340743E+02  0.27313508266E+02 -0.69812782582E+02  0.89883559346E+02  0.00000000000E+00 0.  1.
        -11    1    5    5    0    0 -0.36704613018E+03 -0.46899565159E+02 -0.43870446577E+03  0.57391988917E+03  0.00000000000E+00 0. -1.
          3    1    6    6  503    0  0.17854430883E+03 -0.31873372754E+02 -0.99222808672E+03  0.10086677145E+04  0.00000000000E+00 0. -1.
         -3    1    6    6    0  503  0.91383033021E+02 -0.89279279124E+02 -0.74979011527E+03  0.76059638795E+03  0.00000000000E+00 0.  1.
<mgrwt>
<rscale>  0 0.15469262E+04</rscale>
<asrwt>0</asrwt>
<pdfrwt beam="1">  1        2 0.37213648E+00 0.15469262E+04</pdfrwt>
<pdfrwt beam="2">  1       -1 0.38049615E-01 0.15469262E+04</pdfrwt>
<totfact> 0.28426240E+01</totfact>
</mgrwt>
</event>
<event>
12    6  0.1530859E-007  0.1429466E+04  0.7818608E-02  0.8932762E-01
          2   -1    0    0  501    0  0.00000000000E+00  0.00000000000E+00  0.14281430749E+04  0.14281430749E+04  0.00000000000E+00 0. -1.
         -1   -1    0    0    0  501 -0.00000000000E+00 -0.00000000000E+00 -0.35769748157E+03  0.35769748157E+03  0.00000000000E+00 0.  1.
         24    2    1    2    0    0  0.74179986195E+00  0.10127748927E+03 -0.18966419228E+03  0.23012555099E+03  0.82021846390E+02 0.  0.
        254    2    1    2    0    0 -0.74179986195E+00 -0.10127748927E+03  0.12601097856E+04  0.15557150054E+04  0.90670547941E+03 0.  0.
         23    2    4    4    0    0 -0.17199153945E+03  0.30742060922E+03  0.23193341520E+03  0.43218761950E+03  0.94363704593E+02 0.  0.
         23    2    4    4    0    0  0.17124973958E+03 -0.40869809849E+03  0.10281763704E+04  0.11235273859E+04  0.93843110515E+02 0.  0.
          2    1    3    3  502    0 -0.10976895189E+01  0.75780045157E+02 -0.56502553243E+02  0.94532315581E+02  0.00000000000E+00 0. -1.
         -1    1    3    3    0  502  0.18394893808E+01  0.25497444112E+02 -0.13316163903E+03  0.13559323540E+03  0.00000000000E+00 0.  1.
         11    1    5    5    0    0 -0.36826203111E+02  0.15061363202E+03  0.12510069570E+03  0.19922554919E+03  0.00000000000E+00 0.  1.
        -11    1    5    5    0    0 -0.13516533633E+03  0.15680697720E+03  0.10683271950E+03  0.23296207031E+03  0.00000000000E+00 0. -1.
          1    1    6    6  503    0  0.17491916976E+03 -0.40956693142E+03  0.10272625900E+04  0.11196473624E+04  0.00000000000E+00 0. -1.
         -1    1    6    6    0  503 -0.36694301725E+01  0.86883292979E+00  0.91378037418E+00  0.38800235853E+01  0.00000000000E+00 0.  1.
<mgrwt>
<rscale>  0 0.14294659E+04</rscale>
<asrwt>0</asrwt>
<pdfrwt beam="1">  1        2 0.21971432E+00 0.14294659E+04</pdfrwt>
<pdfrwt beam="2">  1       -1 0.55030383E-01 0.14294659E+04</pdfrwt>
<totfact> 0.51506662E+01</totfact>
</mgrwt>
</event>
<event>
12    6  0.1530859E-007  0.2187957E+04  0.7818608E-02  0.8523458E-01
          2   -1    0    0  501    0  0.00000000000E+00  0.00000000000E+00  0.33494052836E+04  0.33494052836E+04  0.00000000000E+00 0. -1.
         -1   -1    0    0    0  501 -0.00000000000E+00 -0.00000000000E+00 -0.35731374282E+03  0.35731374282E+03  0.00000000000E+00 0.  1.
         24    2    1    2    0    0  0.84822611103E+02  0.27372928027E+03 -0.20744718310E+03  0.36327286455E+03  0.82524215322E+02 0.  0.
        254    2    1    2    0    0 -0.84822611103E+02 -0.27372928027E+03  0.31995387239E+04  0.33434461619E+04  0.92707151695E+03 0.  0.
         23    2    4    4    0    0  0.27650143196E+02 -0.15499421642E+03  0.50545689390E+02  0.18886150986E+03  0.91247277488E+02 0.  0.
         23    2    4    4    0    0 -0.11247275430E+03 -0.11873506385E+03  0.31489930345E+04  0.31545846520E+04  0.92190344461E+02 0.  0.
          4    1    3    3  502    0  0.20756033892E+02  0.43706216791E+02 -0.22478394487E+01  0.48436547269E+02  0.00000000000E+00 0. -1.
         -3    1    3    3    0  502  0.64066577212E+02  0.23002306348E+03 -0.20519934365E+03  0.31483631728E+03  0.00000000000E+00 0.  1.
         11    1    5    5    0    0 -0.23063150266E+02 -0.10238232322E+02  0.20620233870E+02  0.32587180703E+02  0.00000000000E+00 0. -1.
        -11    1    5    5    0    0  0.50713293462E+02 -0.14475598410E+03  0.29925455520E+02  0.15627432916E+03  0.00000000000E+00 0.  1.
          1    1    6    6  503    0 -0.26040915435E+02 -0.88106545012E+02  0.19065213206E+04  0.19087337265E+04  0.00000000000E+00 0. -1.
         -1    1    6    6    0  503 -0.86431838864E+02 -0.30628518835E+02  0.12424717139E+04  0.12458509255E+04  0.00000000000E+00 0.  1.
<mgrwt>
<rscale>  0 0.21879566E+04</rscale>
<asrwt>0</asrwt>
<pdfrwt beam="1">  1        2 0.51529310E+00 0.21879566E+04</pdfrwt>
<pdfrwt beam="2">  1       -1 0.54971347E-01 0.21879566E+04</pdfrwt>
<totfact> 0.36031449E+00</totfact>
</mgrwt>
</event>
<event>
12    6  0.1530859E-007  0.1876029E+04  0.7818608E-02  0.8666881E-01
         -1   -1    0    0    0  501 -0.00000000000E+00  0.00000000000E+00  0.18582040495E+04  0.18582040495E+04  0.00000000000E+00 0.  1.
          2   -1    0    0  501    0  0.00000000000E+00 -0.00000000000E+00 -0.47350633960E+03  0.47350633960E+03  0.00000000000E+00 0. -1.
         24    2    1    2    0    0 -0.67146181810E+03 -0.21250382049E+03  0.32619733289E+03  0.77985111997E+03  0.75790648741E+02 0.  0.
        254    2    1    2    0    0  0.67146181810E+03  0.21250382049E+03  0.10585003770E+04  0.15518592691E+04  0.88984565864E+03 0.  0.
         23    2    4    4    0    0 -0.12455786418E+03  0.46121957618E+02 -0.55366757717E+02  0.16974178016E+03  0.90027204608E+02 0.  0.
         23    2    4    4    0    0  0.79601968228E+03  0.16638186287E+03  0.11138671347E+04  0.13821174890E+04  0.90655946549E+02 0.  0.
          4    1    3    3  502    0 -0.25483325891E+03 -0.11530284750E+03  0.11057528469E+03  0.30076839940E+03  0.00000000000E+00 0. -1.
         -3    1    3    3    0  502 -0.41662855919E+03 -0.97200972996E+02  0.21562204820E+03  0.47908272057E+03  0.00000000000E+00 0.  1.
         11    1    5    5    0    0 -0.53907889974E+02  0.33273140367E+02 -0.72132841767E+02  0.96001611095E+02  0.00000000000E+00 0. -1.
        -11    1    5    5    0    0 -0.70649974205E+02  0.12848817252E+02  0.16766084050E+02  0.73740169069E+02  0.00000000000E+00 0.  1.
          4    1    6    6  503    0  0.43264207667E+02  0.21019966114E+02  0.10047885213E+03  0.11139852048E+03  0.00000000000E+00 0.  1.
         -4    1    6    6    0  503  0.75275547461E+03  0.14536189676E+03  0.10133882826E+04  0.12707189685E+04  0.00000000000E+00 0. -1.
<mgrwt>
<rscale>  0 0.18760292E+04</rscale>
<asrwt>0</asrwt>
<pdfrwt beam="1">  1        2 0.72847130E-01 0.18760292E+04</pdfrwt>
<pdfrwt beam="2">  1       -1 0.28587754E+00 0.18760292E+04</pdfrwt>
<totfact> 0.28696195E+00</totfact>
</mgrwt>
</event>
<event>
12    6  0.1530859E-007  0.1605629E+04  0.7818608E-02  0.8817097E-01
          2   -1    0    0  501    0  0.00000000000E+00  0.00000000000E+00  0.26557918466E+04  0.26557918466E+04  0.00000000000E+00 0. -1.
         -1   -1    0    0    0  501 -0.00000000000E+00 -0.00000000000E+00 -0.24268140603E+03  0.24268140603E+03  0.00000000000E+00 0.  1.
         24    2    1    2    0    0  0.50405536903E+03 -0.91699952608E+02  0.49238553654E+03  0.71486008268E+03  0.78107137100E+02 0.  0.
        254    2    1    2    0    0 -0.50405536903E+03  0.91699952608E+02  0.19207249041E+04  0.21836131700E+04  0.90360479342E+03 0.  0.
         23    2    4    4    0    0  0.18452851651E+03  0.41702110033E+01  0.10320919170E+04  0.10524491120E+04  0.91472641735E+02 0.  0.
         23    2    4    4    0    0 -0.68858388553E+03  0.87529741605E+02  0.88863298704E+03  0.11311640579E+04  0.89745848067E+02 0.  0.
          2    1    3    3  502    0  0.26618938454E+03 -0.19772451420E+02  0.21766517062E+03  0.34442105740E+03  0.00000000000E+00 0. -1.
         -1    1    3    3    0  502  0.23786598448E+03 -0.71927501188E+02  0.27472036592E+03  0.37043902528E+03  0.00000000000E+00 0.  1.
         11    1    5    5    0    0  0.27862777329E+02  0.33467888333E+02  0.30502687899E+03  0.30811983191E+03  0.00000000000E+00 0. -1.
        -11    1    5    5    0    0  0.15666573918E+03 -0.29297677329E+02  0.72706503803E+03  0.74432928013E+03  0.00000000000E+00 0.  1.
          3    1    6    6  503    0 -0.15534497287E+03  0.58759077776E+01  0.25865831011E+03  0.30177923765E+03  0.00000000000E+00 0. -1.
         -3    1    6    6    0  503 -0.53323891267E+03  0.81653833827E+02  0.62997467693E+03  0.82938482029E+03  0.00000000000E+00 0.  1.
<mgrwt>
<rscale>  0 0.16056292E+04</rscale>
<asrwt>0</asrwt>
<pdfrwt beam="1">  1        2 0.40858334E+00 0.16056292E+04</pdfrwt>
<pdfrwt beam="2">  1       -1 0.37335603E-01 0.16056292E+04</pdfrwt>
<totfact> 0.21332065E+01</totfact>
</mgrwt>
</event>
<event>
12    6  0.1530859E-007  0.2590380E+04  0.7818608E-02  0.8371476E-01
         -1   -1    0    0    0  501 -0.00000000000E+00  0.00000000000E+00  0.15601847713E+04  0.15601847713E+04  0.00000000000E+00 0.  1.
          2   -1    0    0  501    0  0.00000000000E+00 -0.00000000000E+00 -0.10752042043E+04  0.10752042043E+04  0.00000000000E+00 0. -1.
         24    2    1    2    0    0  0.68908113889E+03  0.79216142857E+03  0.66689032965E+03  0.12463718232E+04  0.79670980349E+02 0.  0.
        254    2    1    2    0    0 -0.68908113889E+03 -0.79216142857E+03 -0.18190976269E+03  0.13890171524E+04  0.89102465897E+03 0.  0.
         23    2    4    4    0    0  0.32212623642E+02  0.13245497559E+03 -0.13379801046E+03  0.21175789759E+03  0.91419505086E+02 0.  0.
         23    2    4    4    0    0 -0.72129376253E+03 -0.92461640415E+03 -0.48111752225E+02  0.11772592548E+04  0.91893555421E+02 0.  0.
          2    1    3    3  502    0  0.35966711955E+03  0.40813077588E+03  0.39239611720E+03  0.67075023660E+03  0.00000000000E+00 0. -1.
         -1    1    3    3    0  502  0.32941401933E+03  0.38403065269E+03  0.27449421246E+03  0.57562158664E+03  0.00000000000E+00 0.  1.
         11    1    5    5    0    0 -0.28479085097E+02  0.72217031164E+02 -0.75316905374E+02  0.10816188845E+03  0.00000000000E+00 0.  1.
        -11    1    5    5    0    0  0.60691708740E+02  0.60237944424E+02 -0.58481105088E+02  0.10359600914E+03  0.00000000000E+00 0. -1.
          2    1    6    6  503    0 -0.57260663860E+03 -0.72534900236E+03 -0.56372615933E+00  0.92412653656E+03  0.00000000000E+00 0.  1.
         -2    1    6    6    0  503 -0.14868712392E+03 -0.19926740180E+03 -0.47548026066E+02  0.25313271820E+03  0.00000000000E+00 0. -1.
<mgrwt>
<rscale>  0 0.25903801E+04</rscale>
<asrwt>0</asrwt>
<pdfrwt beam="1">  1        2 0.16541603E+00 0.25903801E+04</pdfrwt>
<pdfrwt beam="2">  1       -1 0.24002843E+00 0.25903801E+04</pdfrwt>
<totfact> 0.18457500E+00</totfact>
</mgrwt>
</event>
<event>
12    6  0.1530859E-007  0.1420956E+04  0.7818608E-02  0.8938788E-01
         -1   -1    0    0    0  501 -0.00000000000E+00  0.00000000000E+00  0.31077971962E+03  0.31077971962E+03  0.00000000000E+00 0.  1.
          2   -1    0    0  501    0  0.00000000000E+00 -0.00000000000E+00 -0.16242337512E+04  0.16242337512E+04  0.00000000000E+00 0. -1.
         24    2    1    2    0    0  0.60237124674E+01 -0.23878589965E+03  0.76985891961E+02  0.26344345234E+03  0.80128858946E+02 0.  0.
        254    2    1    2    0    0 -0.60237124674E+01  0.23878589965E+03 -0.13904399235E+04  0.16715700185E+04  0.89653117887E+03 0.  0.
         23    2    4    4    0    0 -0.19463374830E+03  0.14323039860E+03  0.41175346106E+01  0.25822522294E+03  0.90917922380E+02 0.  0.
         23    2    4    4    0    0  0.18861003584E+03  0.95555501056E+02 -0.13945574581E+04  0.14133447955E+04  0.89712917555E+02 0.  0.
          4    1    3    3  502    0  0.24026749699E+02 -0.49189559597E+02 -0.72035334961E+01  0.55215834407E+02  0.00000000000E+00 0. -1.
         -3    1    3    3    0  502 -0.18003037232E+02 -0.18959634006E+03  0.84189425457E+02  0.20822761793E+03  0.00000000000E+00 0.  1.
         11    1    5    5    0    0 -0.16936604020E+03  0.13740457229E+03 -0.24665744107E+02  0.21948410191E+03  0.00000000000E+00 0.  1.
        -11    1    5    5    0    0 -0.25267708104E+02  0.58258263099E+01  0.28783278717E+02  0.38741121031E+02  0.00000000000E+00 0. -1.
          4    1    6    6  503    0  0.19628523205E+03  0.84126850657E+02 -0.12477306346E+04  0.12658739889E+04  0.00000000000E+00 0.  1.
         -4    1    6    6    0  503 -0.76751962168E+01  0.11428650400E+02 -0.14682682356E+03  0.14747080661E+03  0.00000000000E+00 0. -1.
<mgrwt>
<rscale>  0 0.14209559E+04</rscale>
<asrwt>0</asrwt>
<pdfrwt beam="1">  1        2 0.24988211E+00 0.14209559E+04</pdfrwt>
<pdfrwt beam="2">  1       -1 0.47812265E-01 0.14209559E+04</pdfrwt>
<totfact> 0.52294256E+01</totfact>
</mgrwt>
</event>
<event>
12    6  0.1530859E-007  0.1663886E+04  0.7818608E-02  0.8782234E-01
         -1   -1    0    0    0  501 -0.00000000000E+00  0.00000000000E+00  0.30289260891E+03  0.30289260891E+03  0.00000000000E+00 0.  1.
          2   -1    0    0  501    0  0.00000000000E+00 -0.00000000000E+00 -0.22850654437E+04  0.22850654437E+04  0.00000000000E+00 0. -1.
         24    2    1    2    0    0 -0.22397862378E+03 -0.13296148322E+03 -0.15288726248E+04  0.15529470984E+04  0.79674384634E+02 0.  0.
        254    2    1    2    0    0  0.22397862378E+03  0.13296148322E+03 -0.45330020996E+03  0.10350109542E+04  0.89326447094E+03 0.  0.
         23    2    4    4    0    0 -0.35952427230E+01  0.18889362656E+02 -0.67587706662E+03  0.68204790436E+03  0.89497490794E+02 0.  0.
         23    2    4    4    0    0  0.22757386651E+03  0.11407212057E+03  0.22257685666E+03  0.35296304985E+03  0.10119359678E+03 0.  0.
          2    1    3    3  502    0 -0.15196753042E+03 -0.45038231365E+02 -0.92195934181E+03  0.93548468750E+03  0.00000000000E+00 0. -1.
         -1    1    3    3    0  502 -0.72011093359E+02 -0.87923251856E+02 -0.60691328299E+03  0.61746241089E+03  0.00000000000E+00 0.  1.
         11    1    5    5    0    0 -0.32497578338E+02  0.30636944052E+02 -0.19034585588E+03  0.19551536970E+03  0.00000000000E+00 0.  1.
        -11    1    5    5    0    0  0.28902335615E+02 -0.11747581396E+02 -0.48553121075E+03  0.48653253466E+03  0.00000000000E+00 0. -1.
          2    1    6    6  503    0  0.20798254674E+03  0.10534471775E+03  0.23256553760E+03  0.32930377858E+03  0.00000000000E+00 0. -1.
         -2    1    6    6    0  503  0.19591319762E+02  0.87274028183E+01 -0.99886809397E+01  0.23659271267E+02  0.00000000000E+00 0.  1.
<mgrwt>
<rscale>  0 0.16638863E+04</rscale>
<asrwt>0</asrwt>
<pdfrwt beam="1">  1        2 0.35154853E+00 0.16638863E+04</pdfrwt>
<pdfrwt beam="2">  1       -1 0.46598863E-01 0.16638863E+04</pdfrwt>
<totfact> 0.23063792E+01</totfact>
</mgrwt>
</event>
<event>
12    6  0.1530859E-007  0.1810697E+04  0.7818608E-02  0.8700632E-01
         -1   -1    0    0    0  501 -0.00000000000E+00  0.00000000000E+00  0.56552800564E+03  0.56552800564E+03  0.00000000000E+00 0.  1.
          2   -1    0    0  501    0  0.00000000000E+00 -0.00000000000E+00 -0.14493639776E+04  0.14493639776E+04  0.00000000000E+00 0. -1.
         24    2    1    2    0    0 -0.30541922092E+03 -0.37243214249E+03 -0.87420823929E+03  0.10013045799E+04  0.79901282284E+02 0.  0.
        254    2    1    2    0    0  0.30541922092E+03  0.37243214249E+03 -0.96277326682E+01  0.10135874033E+04  0.89178480007E+03 0.  0.
         23    2    4    4    0    0  0.53074657135E+03  0.23076786492E+03  0.24407220034E+03  0.63481953080E+03  0.92080764690E+02 0.  0.
         23    2    4    4    0    0 -0.22532735043E+03  0.14166427758E+03 -0.25369993301E+03  0.37876787250E+03  0.90885988133E+02 0.  0.
          4    1    3    3  502    0 -0.25034801274E+03 -0.34126186018E+03 -0.78652395161E+03  0.89317059465E+03  0.00000000000E+00 0. -1.
         -3    1    3    3    0  502 -0.55071208175E+02 -0.31170282314E+02 -0.87684287682E+02  0.10813398529E+03  0.00000000000E+00 0.  1.
         11    1    5    5    0    0  0.42387195509E+03  0.17593588444E+03  0.23157815736E+03  0.51405185800E+03  0.00000000000E+00 0. -1.
        -11    1    5    5    0    0  0.10687461626E+03  0.54831980473E+02  0.12494042982E+02  0.12076767280E+03  0.00000000000E+00 0.  1.
          4    1    6    6  503    0 -0.13242373528E+03  0.13328863204E+03 -0.17379780615E+03  0.25594449109E+03  0.00000000000E+00 0. -1.
         -4    1    6    6    0  503 -0.92903615148E+02  0.83756455427E+01 -0.79902126855E+02  0.12282338141E+03  0.00000000000E+00 0.  1.
<mgrwt>
<rscale>  0 0.18106970E+04</rscale>
<asrwt>0</asrwt>
<pdfrwt beam="1">  1        2 0.22297907E+00 0.18106970E+04</pdfrwt>
<pdfrwt beam="2">  1       -1 0.87004309E-01 0.18106970E+04</pdfrwt>
<totfact> 0.18969741E+01</totfact>
</mgrwt>
</event>
<event>
12    6  0.1530859E-007  0.1865398E+04  0.7818608E-02  0.8672274E-01
         -1   -1    0    0    0  501 -0.00000000000E+00  0.00000000000E+00  0.38214952318E+03  0.38214952318E+03  0.00000000000E+00 0.  1.
          2   -1    0    0  501    0  0.00000000000E+00 -0.00000000000E+00 -0.22764052142E+04  0.22764052142E+04  0.00000000000E+00 0. -1.
         24    2    1    2    0    0  0.54049822121E+03 -0.28701289894E+03 -0.21326628940E+03  0.65336297278E+03  0.82981520321E+02 0.  0.
        254    2    1    2    0    0 -0.54049822121E+03  0.28701289894E+03 -0.16809894016E+04  0.20051917646E+04  0.90584430955E+03 0.  0.
         23    2    4    4    0    0  0.11687896579E+03  0.38617303353E+03 -0.51750016640E+03  0.66220677077E+03  0.89000452546E+02 0.  0.
         23    2    4    4    0    0 -0.65737718700E+03 -0.99160134590E+02 -0.11634892352E+04  0.13429849938E+04  0.89016823627E+02 0.  0.
          2    1    3    3  502    0  0.94962428251E+02 -0.24584349295E+02 -0.13414692854E+02  0.99006095741E+02  0.00000000000E+00 0. -1.
         -1    1    3    3    0  502  0.44553579296E+03 -0.26242854965E+03 -0.19985159655E+03  0.55435687704E+03  0.00000000000E+00 0.  1.
         11    1    5    5    0    0 -0.37344714678E+01  0.12965120033E+03 -0.16098519544E+03  0.20673561177E+03  0.00000000000E+00 0. -1.
        -11    1    5    5    0    0  0.12061343726E+03  0.25652183321E+03 -0.35651497095E+03  0.45547115899E+03  0.00000000000E+00 0.  1.
          4    1    6    6  503    0 -0.29053367133E+03 -0.60375661467E+01 -0.55268933898E+03  0.62442915675E+03  0.00000000000E+00 0.  1.
         -4    1    6    6    0  503 -0.36684351568E+03 -0.93122568444E+02 -0.61079989619E+03  0.71855583703E+03  0.00000000000E+00 0. -1.
<mgrwt>
<rscale>  0 0.18653977E+04</rscale>
<asrwt>0</asrwt>
<pdfrwt beam="1">  1        2 0.35021619E+00 0.18653977E+04</pdfrwt>
<pdfrwt beam="2">  1       -1 0.58792234E-01 0.18653977E+04</pdfrwt>
<totfact> 0.14664258E+01</totfact>
</mgrwt>
</event>
<event>
12    6  0.1530859E-007  0.1737820E+04  0.7818608E-02  0.8740084E-01
         -1   -1    0    0    0  501 -0.00000000000E+00  0.00000000000E+00  0.13190633177E+04  0.13190633177E+04  0.00000000000E+00 0.  1.
          2   -1    0    0  501    0  0.00000000000E+00 -0.00000000000E+00 -0.57237921167E+03  0.57237921167E+03  0.00000000000E+00 0. -1.
         24    2    1    2    0    0 -0.69223419392E+02  0.25270647889E+02  0.95325917534E+03  0.95931800755E+03  0.78469718934E+02 0.  0.
        254    2    1    2    0    0  0.69223419392E+02 -0.25270647889E+02 -0.20657506931E+03  0.93212452184E+03  0.90595384955E+03 0.  0.
         23    2    4    4    0    0 -0.13801042331E+03 -0.80744221542E+02 -0.51396210844E+03  0.54662423326E+03  0.95260155482E+02 0.  0.
         23    2    4    4    0    0  0.20723384270E+03  0.55473573653E+02  0.30738703914E+03  0.38550028857E+03  0.90002765102E+02 0.  0.
          4    1    3    3  502    0  0.49252269149E+01 -0.20037411047E+02  0.16586478683E+03  0.16714330143E+03  0.00000000000E+00 0. -1.
         -3    1    3    3    0  502 -0.74148646307E+02  0.45308058936E+02  0.78739438851E+03  0.79217470612E+03  0.00000000000E+00 0.  1.
         11    1    5    5    0    0  0.14268334180E+02 -0.52465239855E+01 -0.59721302349E+02  0.61625849515E+02  0.00000000000E+00 0.  1.
        -11    1    5    5    0    0 -0.15227875749E+03 -0.75497697556E+02 -0.45424080609E+03  0.48499838375E+03  0.00000000000E+00 0. -1.
          4    1    6    6  503    0  0.10977188856E+03 -0.16154612227E+02  0.13177702550E+03  0.17226730237E+03  0.00000000000E+00 0. -1.
         -4    1    6    6    0  503  0.97461954135E+02  0.71628185880E+02  0.17561001364E+03  0.21323298621E+03  0.00000000000E+00 0.  1.
<mgrwt>
<rscale>  0 0.17378198E+04</rscale>
<asrwt>0</asrwt>
<pdfrwt beam="1">  1        2 0.88058341E-01 0.17378198E+04</pdfrwt>
<pdfrwt beam="2">  1       -1 0.20293282E+00 0.17378198E+04</pdfrwt>
<totfact> 0.81730721E+00</totfact>
</mgrwt>
</event>
<event>
12    6  0.1530859E-007  0.1873551E+04  0.7818608E-02  0.8668135E-01
         -1   -1    0    0    0  501 -0.00000000000E+00  0.00000000000E+00  0.82071157396E+03  0.82071157396E+03  0.00000000000E+00 0.  1.
          2   -1    0    0  501    0  0.00000000000E+00 -0.00000000000E+00 -0.10692533771E+04  0.10692533771E+04  0.00000000000E+00 0. -1.
         24    2    1    2    0    0  0.22487305636E+03 -0.72388868108E+02 -0.77556752197E+03  0.81462476347E+03  0.79375590840E+02 0.  0.
        254    2    1    2    0    0 -0.22487305636E+03  0.72388868108E+02  0.52702571884E+03  0.10753401876E+04  0.90707903239E+03 0.  0.
         23    2    4    4    0    0  0.87839225410E+01 -0.22037395722E+03 -0.16111884468E+03  0.28625579161E+03  0.85681140292E+02 0.  0.
         23    2    4    4    0    0 -0.23365697890E+03  0.29276282533E+03  0.68814456352E+03  0.78908439597E+03  0.93838094524E+02 0.  0.
          4    1    3    3  502    0  0.22049480499E+03 -0.81853213231E+02 -0.76224530993E+03  0.79770660024E+03  0.00000000000E+00 0. -1.
         -3    1    3    3    0  502  0.43782513714E+01  0.94643451226E+01 -0.13322212032E+02  0.16918163231E+02  0.00000000000E+00 0.  1.
         11    1    5    5    0    0  0.30632605772E+02 -0.53381862144E+02 -0.15142936145E+02  0.63382081517E+02  0.00000000000E+00 0. -1.
        -11    1    5    5    0    0 -0.21848683231E+02 -0.16699209508E+03 -0.14597590853E+03  0.22287371009E+03  0.00000000000E+00 0.  1.
          1    1    6    6  503    0  0.75294896523E+01  0.21661477730E+02  0.49515236685E+02  0.54568044640E+02  0.00000000000E+00 0. -1.
         -1    1    6    6    0  503 -0.24118646855E+03  0.27110134760E+03  0.63862932683E+03  0.73451635133E+03  0.00000000000E+00 0.  1.
<mgrwt>
<rscale>  0 0.18735513E+04</rscale>
<asrwt>0</asrwt>
<pdfrwt beam="1">  1        2 0.16450052E+00 0.18735513E+04</pdfrwt>
<pdfrwt beam="2">  1       -1 0.12626332E+00 0.18735513E+04</pdfrwt>
<totfact> 0.13302209E+01</totfact>
</mgrwt>
</event>
<event>
12    6  0.1530859E-007  0.2140450E+04  0.7818608E-02  0.8543631E-01
         -1   -1    0    0    0  501 -0.00000000000E+00  0.00000000000E+00  0.61517986919E+03  0.61517986919E+03  0.00000000000E+00 0.  1.
          2   -1    0    0  501    0  0.00000000000E+00 -0.00000000000E+00 -0.18618645756E+04  0.18618645756E+04  0.00000000000E+00 0. -1.
         24    2    1    2    0    0 -0.89056125906E+01 -0.65710142887E+03 -0.11979153301E+04  0.13672333313E+04  0.49641176560E+02 0.  0.
        254    2    1    2    0    0  0.89056125906E+01  0.65710142887E+03 -0.48769376281E+02  0.11098111135E+04  0.89299532907E+03 0.  0.
         23    2    4    4    0    0 -0.20190899219E+03  0.65028927745E+03 -0.31677408862E+03  0.75651269574E+03  0.91226367330E+02 0.  0.
         23    2    4    4    0    0  0.21081460479E+03  0.68121514195E+01  0.26800471234E+03  0.35329841772E+03  0.92217368919E+02 0.  0.
          2    1    3    3  502    0  0.83686062919E+00 -0.51991593619E+03 -0.90704000138E+03  0.10454830678E+04  0.00000000000E+00 0. -1.
         -1    1    3    3    0  502 -0.97424732198E+01 -0.13718549268E+03 -0.29087532876E+03  0.32175026351E+03  0.00000000000E+00 0.  1.
         11    1    5    5    0    0 -0.78082814780E+02  0.35346779542E+03 -0.13016438137E+03  0.38468061368E+03  0.00000000000E+00 0.  1.
        -11    1    5    5    0    0 -0.12382617741E+03  0.29682148203E+03 -0.18660970725E+03  0.37183208206E+03  0.00000000000E+00 0. -1.
          3    1    6    6  503    0  0.99102813900E+02  0.33428135182E+02  0.18167427616E+03  0.20962907852E+03  0.00000000000E+00 0. -1.
         -3    1    6    6    0  503  0.11171179089E+03 -0.26615983762E+02  0.86330436181E+02  0.14366933920E+03  0.00000000000E+00 0.  1.
<mgrwt>
<rscale>  0 0.21404501E+04</rscale>
<asrwt>0</asrwt>
<pdfrwt beam="1">  1        2 0.28644071E+00 0.21404501E+04</pdfrwt>
<pdfrwt beam="2">  1       -1 0.94643056E-01 0.21404501E+04</pdfrwt>
<totfact> 0.90028693E+00</totfact>
</mgrwt>
</event>
<event>
12    6  0.1530859E-007  0.1605355E+04  0.7818608E-02  0.8817265E-01
          2   -1    0    0  501    0  0.00000000000E+00  0.00000000000E+00  0.47537094332E+04  0.47537094332E+04  0.00000000000E+00 0. -1.
         -1   -1    0    0    0  501 -0.00000000000E+00 -0.00000000000E+00 -0.13553438932E+03  0.13553438932E+03  0.00000000000E+00 0.  1.
         24    2    1    2    0    0  0.12196820934E+03  0.25694696700E+03  0.16719816814E+03  0.33983874503E+03  0.81468750171E+02 0.  0.
        254    2    1    2    0    0 -0.12196820934E+03 -0.25694696700E+03  0.44509768757E+04  0.45494050774E+04  0.89721425683E+03 0.  0.
         23    2    4    4    0    0 -0.27518274943E+03 -0.38735311195E+03  0.12403814556E+04  0.13314430942E+04  0.91796398428E+02 0.  0.
         23    2    4    4    0    0  0.15321454008E+03  0.13040614494E+03  0.32105954201E+04  0.32179619833E+04  0.82921143794E+02 0.  0.
          4    1    3    3  502    0  0.10458928613E+03  0.13501393109E+03  0.11600568837E+03  0.20645822845E+03  0.00000000000E+00 0. -1.
         -3    1    3    3    0  502  0.17378923218E+02  0.12193303591E+03  0.51192479769E+02  0.13338051658E+03  0.00000000000E+00 0.  1.
         11    1    5    5    0    0 -0.27638513753E+03 -0.35612849090E+03  0.11850827699E+04  0.12679264244E+04  0.00000000000E+00 0.  1.
        -11    1    5    5    0    0  0.12023881039E+01 -0.31224621042E+02  0.55298685697E+02  0.63516669751E+02  0.00000000000E+00 0. -1.
          2    1    6    6  503    0 -0.78917326355E+01  0.35947085268E+00  0.25560855761E+03  0.25573060705E+03  0.00000000000E+00 0. -1.
         -2    1    6    6    0  503  0.16110627272E+03  0.13004667409E+03  0.29549868625E+04  0.29622313762E+04  0.00000000000E+00 0.  1.
<mgrwt>
<rscale>  0 0.16053549E+04</rscale>
<asrwt>0</asrwt>
<pdfrwt beam="1">  1        2 0.73133979E+00 0.16053549E+04</pdfrwt>
<pdfrwt beam="2">  1       -1 0.20851448E-01 0.16053549E+04</pdfrwt>
<totfact> 0.14485428E+00</totfact>
</mgrwt>
</event>
<event>
12    6  0.1530859E-007  0.1309685E+04  0.7818608E-02  0.9021920E-01
          2   -1    0    0  501    0  0.00000000000E+00  0.00000000000E+00  0.18917356690E+04  0.18917356690E+04  0.00000000000E+00 0. -1.
         -1   -1    0    0    0  501 -0.00000000000E+00 -0.00000000000E+00 -0.22668017504E+03  0.22668017504E+03  0.00000000000E+00 0.  1.
         24    2    1    2    0    0  0.18939461760E+03  0.16786767991E+03  0.96348302630E+02  0.28220775387E+03  0.79425070306E+02 0.  0.
        254    2    1    2    0    0 -0.18939461760E+03 -0.16786767991E+03  0.15687071914E+04  0.18362080902E+04  0.92019998867E+03 0.  0.
         23    2    4    4    0    0 -0.36639301019E+03 -0.42605031547E+03  0.12792610728E+04  0.14002792789E+04  0.92252140943E+02 0.  0.
         23    2    4    4    0    0  0.17699839259E+03  0.25818263557E+03  0.28944611859E+03  0.43592881125E+03  0.90929470606E+02 0.  0.
          2    1    3    3  502    0  0.11537829886E+02  0.12468011728E+02  0.33885723332E+02  0.37905343695E+02  0.00000000000E+00 0. -1.
         -1    1    3    3    0  502  0.17785678772E+03  0.15539966818E+03  0.62462579298E+02  0.24430241018E+03  0.00000000000E+00 0.  1.
         11    1    5    5    0    0 -0.23971343569E+03 -0.33955158535E+03  0.95768745675E+03  0.10439938099E+04  0.00000000000E+00 0.  1.
        -11    1    5    5    0    0 -0.12667957450E+03 -0.86498730122E+02  0.32157361602E+03  0.35628546901E+03  0.00000000000E+00 0. -1.
          3    1    6    6  503    0 -0.34302522948E+01  0.26093506708E+02  0.51076789823E+02  0.57458473542E+02  0.00000000000E+00 0. -1.
         -3    1    6    6    0  503  0.18042864488E+03  0.23208912886E+03  0.23836932877E+03  0.37847033771E+03  0.00000000000E+00 0.  1.
<mgrwt>
<rscale>  0 0.13096854E+04</rscale>
<asrwt>0</asrwt>
<pdfrwt beam="1">  1        2 0.29103625E+00 0.13096854E+04</pdfrwt>
<pdfrwt beam="2">  1       -1 0.34873874E-01 0.13096854E+04</pdfrwt>
<totfact> 0.66907590E+01</totfact>
</mgrwt>
</event>
<event>
12    6  0.1530859E-007  0.1732716E+04  0.7818608E-02  0.8742922E-01
          2   -1    0    0  501    0  0.00000000000E+00  0.00000000000E+00  0.13504487319E+04  0.13504487319E+04  0.00000000000E+00 0. -1.
         -1   -1    0    0    0  501 -0.00000000000E+00 -0.00000000000E+00 -0.55579772265E+03  0.55579772265E+03  0.00000000000E+00 0.  1.
         24    2    1    2    0    0 -0.10938938130E+03  0.61543142561E+03  0.28726258043E+03  0.69189480779E+03  0.74005125197E+02 0.  0.
        254    2    1    2    0    0  0.10938938130E+03 -0.61543142561E+03  0.50738842886E+03  0.12143516468E+04  0.90911221969E+03 0.  0.
         23    2    4    4    0    0 -0.32410025364E+03 -0.35023182732E+03  0.49984563519E+03  0.69660596547E+03  0.87811757963E+02 0.  0.
         23    2    4    4    0    0  0.43348963494E+03 -0.26519959829E+03  0.75427936763E+01  0.51774568133E+03  0.98790719551E+02 0.  0.
          2    1    3    3  502    0 -0.78420245865E+02  0.42424394930E+03  0.15999087373E+03  0.46014100356E+03  0.00000000000E+00 0. -1.
         -1    1    3    3    0  502 -0.30969135431E+02  0.19118747631E+03  0.12727170670E+03  0.23175380423E+03  0.00000000000E+00 0.  1.
         11    1    5    5    0    0 -0.32539246348E+03 -0.34624696590E+03  0.47661287826E+03  0.67299855305E+03  0.00000000000E+00 0.  1.
        -11    1    5    5    0    0  0.12922098378E+01 -0.39848614218E+01  0.23232756930E+02  0.23607412424E+02  0.00000000000E+00 0. -1.
          2    1    6    6  503    0  0.49331742629E+02 -0.70808093584E+02  0.12353360257E+02  0.87178050319E+02  0.00000000000E+00 0. -1.
         -2    1    6    6    0  503  0.38415789231E+03 -0.19439150471E+03 -0.48105665805E+01  0.43056763102E+03  0.00000000000E+00 0.  1.
<mgrwt>
<rscale>  0 0.17327162E+04</rscale>
<asrwt>0</asrwt>
<pdfrwt beam="1">  1        2 0.20776134E+00 0.17327162E+04</pdfrwt>
<pdfrwt beam="2">  1       -1 0.85507342E-01 0.17327162E+04</pdfrwt>
<totfact> 0.22594623E+01</totfact>
</mgrwt>
</event>
<event>
12    6  0.1530859E-007  0.1645535E+04  0.7818608E-02  0.8793052E-01
          2   -1    0    0  501    0  0.00000000000E+00  0.00000000000E+00  0.69377554780E+03  0.69377554780E+03  0.00000000000E+00 0. -1.
         -1   -1    0    0    0  501 -0.00000000000E+00 -0.00000000000E+00 -0.97574223272E+03  0.97574223272E+03  0.00000000000E+00 0.  1.
         24    2    1    2    0    0 -0.18500656396E+03 -0.18604910444E+03  0.41177631945E+03  0.49396602126E+03  0.74839795067E+02 0.  0.
        254    2    1    2    0    0  0.18500656396E+03  0.18604910444E+03 -0.69374300437E+03  0.11755517593E+04  0.91203118620E+03 0.  0.
         23    2    4    4    0    0 -0.11001242500E+03  0.37364303152E+03 -0.68224665430E+01  0.39943571755E+03  0.88263796382E+02 0.  0.
         23    2    4    4    0    0  0.29501898896E+03 -0.18759392708E+03 -0.68692053783E+03  0.77611604170E+03  0.90931840208E+02 0.  0.
          4    1    3    3  502    0 -0.16179124331E+03 -0.15112780278E+03  0.38528468842E+03  0.44436506423E+03  0.00000000000E+00 0. -1.
         -3    1    3    3    0  502 -0.23215320654E+02 -0.34921301665E+02  0.26491631036E+02  0.49600957027E+02  0.00000000000E+00 0.  1.
         11    1    5    5    0    0 -0.85232682241E+02  0.31760608375E+03 -0.37390231311E+02  0.33096263226E+03  0.00000000000E+00 0. -1.
        -11    1    5    5    0    0 -0.24779742760E+02  0.56036947768E+02  0.30567764768E+02  0.68473085292E+02  0.00000000000E+00 0.  1.
          1    1    6    6  503    0  0.23662125851E+03 -0.18402096091E+03 -0.60796634296E+03  0.67784689142E+03  0.00000000000E+00 0. -1.
         -1    1    6    6    0  503  0.58397730449E+02 -0.35729661657E+01 -0.78954194869E+02  0.98269150277E+02  0.00000000000E+00 0.  1.
<mgrwt>
<rscale>  0 0.16455347E+04</rscale>
<asrwt>0</asrwt>
<pdfrwt beam="1">  1        2 0.10673470E+00 0.16455347E+04</pdfrwt>
<pdfrwt beam="2">  1       -1 0.15011419E+00 0.16455347E+04</pdfrwt>
<totfact> 0.15747468E+01</totfact>
</mgrwt>
</event>
<event>
12    6  0.1530859E-007  0.1474192E+04  0.7818608E-02  0.8901799E-01
          2   -1    0    0  501    0  0.00000000000E+00  0.00000000000E+00  0.10008903747E+04  0.10008903747E+04  0.00000000000E+00 0. -1.
         -1   -1    0    0    0  501 -0.00000000000E+00 -0.00000000000E+00 -0.54282705600E+03  0.54282705600E+03  0.00000000000E+00 0.  1.
         24    2    1    2    0    0  0.40660872480E+02  0.11783553472E+03  0.60971090925E+03  0.62740730053E+03  0.79712032398E+02 0.  0.
        254    2    1    2    0    0 -0.40660872480E+02 -0.11783553472E+03 -0.15164759058E+03  0.91631013014E+03  0.89503560995E+03 0.  0.
         23    2    4    4    0    0  0.92699271419E+02  0.20992690370E+03  0.26443470880E+03  0.36240867682E+03  0.93551451045E+02 0.  0.
         23    2    4    4    0    0 -0.13336014390E+03 -0.32776243842E+03 -0.41608229938E+03  0.55390145332E+03  0.92028235432E+02 0.  0.
          4    1    3    3  502    0  0.59566602709E+02  0.50737042036E+02  0.32480448608E+03  0.33409636599E+03  0.00000000000E+00 0. -1.
         -3    1    3    3    0  502 -0.18905730230E+02  0.67098492682E+02  0.28490642317E+03  0.29331093454E+03  0.00000000000E+00 0.  1.
         11    1    5    5    0    0  0.90509937315E+01  0.86136332158E+02  0.46852931481E+02  0.98471241454E+02  0.00000000000E+00 0.  1.
        -11    1    5    5    0    0  0.83648277688E+02  0.12379057155E+03  0.21758177732E+03  0.26393743536E+03  0.00000000000E+00 0. -1.
          3    1    6    6  503    0 -0.10114996348E+03 -0.27821034329E+03 -0.38916436676E+03  0.48895931792E+03  0.00000000000E+00 0. -1.
         -3    1    6    6    0  503 -0.32210180416E+02 -0.49552095130E+02 -0.26917932622E+02  0.64942135404E+02  0.00000000000E+00 0.  1.
<mgrwt>
<rscale>  0 0.14741918E+04</rscale>
<asrwt>0</asrwt>
<pdfrwt beam="1">  1        2 0.15398313E+00 0.14741918E+04</pdfrwt>
<pdfrwt beam="2">  1       -1 0.83511855E-01 0.14741918E+04</pdfrwt>
<totfact> 0.39530463E+01</totfact>
</mgrwt>
</event>
<event>
12    6  0.1530859E-007  0.1559761E+04  0.7818608E-02  0.8845657E-01
          2   -1    0    0  501    0  0.00000000000E+00  0.00000000000E+00  0.20921581078E+04  0.20921581078E+04  0.00000000000E+00 0. -1.
         -1   -1    0    0    0  501 -0.00000000000E+00 -0.00000000000E+00 -0.29071128402E+03  0.29071128402E+03  0.00000000000E+00 0.  1.
         24    2    1    2    0    0 -0.50121655327E+02 -0.44734734576E+03  0.20616816942E+03  0.50143701712E+03  0.79384759006E+02 0.  0.
        254    2    1    2    0    0  0.50121655327E+02  0.44734734576E+03  0.15952786544E+04  0.18814323747E+04  0.89007975340E+03 0.  0.
         23    2    4    4    0    0 -0.30063666516E+03  0.51468012081E+03  0.77327696583E+03  0.98048325793E+03  0.90067319333E+02 0.  0.
         23    2    4    4    0    0  0.35075832049E+03 -0.67332775049E+02  0.82200168858E+03  0.90094911680E+03  0.91964303153E+02 0.  0.
          2    1    3    3  502    0 -0.17554471232E+02 -0.26102608324E+03  0.16025909368E+03  0.30679920583E+03  0.00000000000E+00 0. -1.
         -1    1    3    3    0  502 -0.32567184095E+02 -0.18632126252E+03  0.45909075741E+02  0.19463781129E+03  0.00000000000E+00 0.  1.
         11    1    5    5    0    0  0.60589112071E+01  0.11297462354E+02  0.11054266690E+02  0.16927488670E+02  0.00000000000E+00 0. -1.
        -11    1    5    5    0    0 -0.30669557637E+03  0.50338265846E+03  0.76222269914E+03  0.96355576926E+03  0.00000000000E+00 0.  1.
          2    1    6    6  503    0  0.14928342877E+03 -0.72614519378E+02  0.33448878108E+03  0.37341820416E+03  0.00000000000E+00 0. -1.
         -2    1    6    6    0  503  0.20147489172E+03  0.52817443298E+01  0.48751290749E+03  0.52753091264E+03  0.00000000000E+00 0.  1.
<mgrwt>
<rscale>  0 0.15597615E+04</rscale>
<asrwt>0</asrwt>
<pdfrwt beam="1">  1        2 0.32187047E+00 0.15597615E+04</pdfrwt>
<pdfrwt beam="2">  1       -1 0.44724814E-01 0.15597615E+04</pdfrwt>
<totfact> 0.32230575E+01</totfact>
</mgrwt>
</event>
<event>
12    6  0.1530859E-007  0.3022807E+04  0.7818608E-02  0.8237248E-01
         -1   -1    0    0    0  501 -0.00000000000E+00  0.00000000000E+00  0.16437133923E+04  0.16437133923E+04  0.00000000000E+00 0.  1.
          2   -1    0    0  501    0  0.00000000000E+00 -0.00000000000E+00 -0.13897437712E+04  0.13897437712E+04  0.00000000000E+00 0. -1.
         24    2    1    2    0    0 -0.50150327962E+03 -0.32181967926E+03 -0.11265731624E+04  0.12769957340E+04  0.80483345786E+02 0.  0.
        254    2    1    2    0    0  0.50150327962E+03  0.32181967926E+03  0.13805427835E+04  0.17564614296E+04  0.90784631457E+03 0.  0.
         23    2    4    4    0    0  0.72765322592E+03  0.20366208931E+03  0.73981739828E+03  0.10610721432E+04  0.87102505748E+02 0.  0.
         23    2    4    4    0    0 -0.22614994630E+03  0.11815758995E+03  0.64072538527E+03  0.69538928634E+03  0.89063044812E+02 0.  0.
          2    1    3    3  502    0 -0.28469349814E+03 -0.15933519379E+03 -0.68890406204E+03  0.76225120437E+03  0.00000000000E+00 0. -1.
         -1    1    3    3    0  502 -0.21680978147E+03 -0.16248448546E+03 -0.43766910037E+03  0.51474452962E+03  0.00000000000E+00 0.  1.
         11    1    5    5    0    0  0.14603676258E+03  0.66817876575E+02  0.12277501826E+03  0.20215110627E+03  0.00000000000E+00 0. -1.
        -11    1    5    5    0    0  0.58161646333E+03  0.13684421274E+03  0.61704238002E+03  0.85892103695E+03  0.00000000000E+00 0.  1.
          1    1    6    6  503    0 -0.56089144356E+02  0.38055670194E+02  0.84909739722E+02  0.10864570883E+03  0.00000000000E+00 0. -1.
         -1    1    6    6    0  503 -0.17006080194E+03  0.80101919753E+02  0.55581564554E+03  0.58674357750E+03  0.00000000000E+00 0.  1.
<mgrwt>
<rscale>  0 0.30228069E+04</rscale>
<asrwt>0</asrwt>
<pdfrwt beam="1">  1        2 0.21380673E+00 0.30228069E+04</pdfrwt>
<pdfrwt beam="2">  1       -1 0.25287898E+00 0.30228069E+04</pdfrwt>
<totfact> 0.95289991E-01</totfact>
</mgrwt>
</event>
<event>
12    6  0.1530859E-007  0.1145115E+04  0.7818608E-02  0.9162302E-01
          2   -1    0    0  501    0  0.00000000000E+00  0.00000000000E+00  0.11918221422E+04  0.11918221422E+04  0.00000000000E+00 0. -1.
         -1   -1    0    0    0  501 -0.00000000000E+00 -0.00000000000E+00 -0.27505965246E+03  0.27505965246E+03  0.00000000000E+00 0.  1.
         24    2    1    2    0    0  0.12427111476E+03  0.15741076790E+03  0.10211859593E+03  0.23963556666E+03  0.82313652321E+02 0.  0.
        254    2    1    2    0    0 -0.12427111476E+03 -0.15741076790E+03  0.81464389385E+03  0.12272462280E+04  0.89569368125E+03 0.  0.
         23    2    4    4    0    0 -0.26852869489E+03  0.26180860982E+03  0.13084750026E+03  0.40717764684E+03  0.89560926813E+02 0.  0.
         23    2    4    4    0    0  0.14425758013E+03 -0.41921937772E+03  0.68379639360E+03  0.82006858120E+03  0.91541432659E+02 0.  0.
          4    1    3    3  502    0  0.74778197427E+02  0.99248808674E+02  0.10576030961E+03  0.16317888320E+03  0.00000000000E+00 0. -1.
         -3    1    3    3    0  502  0.49492917336E+02  0.58161959231E+02 -0.36417136755E+01  0.76456683465E+02  0.00000000000E+00 0.  1.
         11    1    5    5    0    0 -0.14365391389E+03  0.19516614290E+03  0.64011999604E+02  0.25064677617E+03  0.00000000000E+00 0. -1.
        -11    1    5    5    0    0 -0.12487478100E+03  0.66642466915E+02  0.66835500653E+02  0.15653087067E+03  0.00000000000E+00 0.  1.
          1    1    6    6  503    0  0.31776851434E+02 -0.22981054146E+03  0.36818359977E+03  0.43518021140E+03  0.00000000000E+00 0. -1.
         -1    1    6    6    0  503  0.11248072869E+03 -0.18940883627E+03  0.31561279382E+03  0.38488836980E+03  0.00000000000E+00 0.  1.
<mgrwt>
<rscale>  0 0.11451152E+04</rscale>
<asrwt>0</asrwt>
<pdfrwt beam="1">  1        2 0.18335725E+00 0.11451152E+04</pdfrwt>
<pdfrwt beam="2">  1       -1 0.42316870E-01 0.11451152E+04</pdfrwt>
<totfact> 0.11864749E+02</totfact>
</mgrwt>
</event>
<event>
12    6  0.1530859E-007  0.2211799E+04  0.7818608E-02  0.8513533E-01
         -1   -1    0    0    0  501 -0.00000000000E+00  0.00000000000E+00  0.23468540331E+04  0.23468540331E+04  0.00000000000E+00 0.  1.
          2   -1    0    0  501    0  0.00000000000E+00 -0.00000000000E+00 -0.52112888241E+03  0.52112888241E+03  0.00000000000E+00 0. -1.
         24    2    1    2    0    0  0.26954933086E+03 -0.36001033784E+03  0.17961171221E+04  0.18533165847E+04  0.80506904264E+02 0.  0.
        254    2    1    2    0    0 -0.26954933086E+03  0.36001033784E+03  0.29608028622E+02  0.10146663309E+04  0.90906921765E+03 0.  0.
         23    2    4    4    0    0 -0.59161460265E+03  0.14648894773E+03  0.53546892892E+02  0.61687416110E+03  0.78737608664E+02 0.  0.
         23    2    4    4    0    0  0.32206527179E+03  0.21352139011E+03 -0.23938864271E+02  0.39779216975E+03  0.91368034679E+02 0.  0.
          2    1    3    3  502    0  0.92402985330E+02 -0.18731733029E+03  0.87069734511E+03  0.89539933031E+03  0.00000000000E+00 0. -1.
         -1    1    3    3    0  502  0.17714634553E+03 -0.17269300755E+03  0.92541977700E+03  0.95791725439E+03  0.00000000000E+00 0.  1.
         11    1    5    5    0    0 -0.57180593643E+03  0.13186359897E+03  0.38626203242E+02  0.58808334549E+03  0.00000000000E+00 0.  1.
        -11    1    5    5    0    0 -0.19808666228E+02  0.14625348760E+02  0.14920689650E+02  0.28790815614E+02  0.00000000000E+00 0. -1.
          3    1    6    6  503    0  0.19479955672E+03  0.93248649251E+02 -0.47437677398E+02  0.22111651029E+03  0.00000000000E+00 0. -1.
         -3    1    6    6    0  503  0.12726571507E+03  0.12027274086E+03  0.23498813127E+02  0.17667565946E+03  0.00000000000E+00 0.  1.
<mgrwt>
<rscale>  0 0.22117987E+04</rscale>
<asrwt>0</asrwt>
<pdfrwt beam="1">  1        2 0.80173676E-01 0.22117987E+04</pdfrwt>
<pdfrwt beam="2">  1       -1 0.36105446E+00 0.22117987E+04</pdfrwt>
<totfact> 0.80313065E-01</totfact>
</mgrwt>
</event>
<event>
12    6  0.1530859E-007  0.1451586E+04  0.7818608E-02  0.8917302E-01
          2   -1    0    0  501    0  0.00000000000E+00  0.00000000000E+00  0.11125089269E+04  0.11125089269E+04  0.00000000000E+00 0. -1.
         -1   -1    0    0    0  501 -0.00000000000E+00 -0.00000000000E+00 -0.47350231124E+03  0.47350231124E+03  0.00000000000E+00 0.  1.
         24    2    1    2    0    0  0.24383674954E+03 -0.35673501508E+03  0.22506964281E+03  0.49365915388E+03  0.79541088058E+02 0.  0.
        254    2    1    2    0    0 -0.24383674954E+03  0.35673501508E+03  0.41393697283E+03  0.10923520842E+04  0.91387801541E+03 0.  0.
         23    2    4    4    0    0  0.35223826232E+01  0.59532410234E+03  0.42307158330E+03  0.73615408588E+03  0.92250092460E+02 0.  0.
         23    2    4    4    0    0 -0.24735913216E+03 -0.23858908726E+03 -0.91346104730E+01  0.35619799835E+03  0.93178753455E+02 0.  0.
          4    1    3    3  502    0  0.19737955503E+02 -0.33716718034E+01  0.40074737532E+01  0.20420942781E+02  0.00000000000E+00 0. -1.
         -3    1    3    3    0  502  0.22409879403E+03 -0.35336334328E+03  0.22106216906E+03  0.47323821110E+03  0.00000000000E+00 0.  1.
         11    1    5    5    0    0 -0.15063154956E+02  0.45976692433E+03  0.28170538042E+03  0.53941676346E+03  0.00000000000E+00 0. -1.
        -11    1    5    5    0    0  0.18585537580E+02  0.13555717801E+03  0.14136620287E+03  0.19673732242E+03  0.00000000000E+00 0.  1.
          4    1    6    6  503    0 -0.21628693339E+03 -0.15939582745E+03  0.10534263831E+02  0.26888294494E+03  0.00000000000E+00 0. -1.
         -4    1    6    6    0  503 -0.31072198770E+02 -0.79193259807E+02 -0.19668874304E+02  0.87315053408E+02  0.00000000000E+00 0.  1.
<mgrwt>
<rscale>  0 0.14515861E+04</rscale>
<asrwt>0</asrwt>
<pdfrwt beam="1">  1        2 0.17115522E+00 0.14515861E+04</pdfrwt>
<pdfrwt beam="2">  1       -1 0.72846510E-01 0.14515861E+04</pdfrwt>
<totfact> 0.44977600E+01</totfact>
</mgrwt>
</event>
<event>
12    6  0.1530859E-007  0.3814629E+04  0.7818608E-02  0.8043023E-01
          2   -1    0    0  501    0  0.00000000000E+00  0.00000000000E+00  0.20275574603E+04  0.20275574603E+04  0.00000000000E+00 0. -1.
         -1   -1    0    0    0  501 -0.00000000000E+00 -0.00000000000E+00 -0.17942021489E+04  0.17942021489E+04  0.00000000000E+00 0.  1.
         24    2    1    2    0    0 -0.17711498669E+04 -0.55597496521E+02 -0.21246762943E+03  0.17865999398E+04  0.82060457158E+02 0.  0.
        254    2    1    2    0    0  0.17711498669E+04  0.55597496521E+02  0.44582294085E+03  0.20351596694E+04  0.89613272046E+03 0.  0.
         23    2    4    4    0    0  0.51681352362E+03  0.42490982947E+03  0.14597757985E+03  0.69043954877E+03  0.88049618440E+02 0.  0.
         23    2    4    4    0    0  0.12543363433E+04 -0.36931233295E+03  0.29984536100E+03  0.13447201206E+04  0.92810026072E+02 0.  0.
          4    1    3    3  502    0 -0.13997251910E+04 -0.20880111873E+02 -0.14327773725E+03  0.14071940518E+04  0.00000000000E+00 0. -1.
         -3    1    3    3    0  502 -0.37142467590E+03 -0.34717384648E+02 -0.69189892188E+02  0.37940588800E+03  0.00000000000E+00 0.  1.
         11    1    5    5    0    0  0.50384950701E+03  0.42834940678E+03  0.14468584783E+03  0.67696494338E+03  0.00000000000E+00 0.  1.
        -11    1    5    5    0    0  0.12964016614E+02 -0.34395773104E+01  0.12917320234E+01  0.13474605391E+02  0.00000000000E+00 0. -1.
          2    1    6    6  503    0  0.31841779390E+03 -0.11401188383E+03  0.11441761043E+03  0.35704340171E+03  0.00000000000E+00 0. -1.
         -2    1    6    6    0  503  0.93591854940E+03 -0.25530044913E+03  0.18542775057E+03  0.98767671893E+03  0.00000000000E+00 0.  1.
<mgrwt>
<rscale>  0 0.38146287E+04</rscale>
<asrwt>0</asrwt>
<pdfrwt beam="1">  1        2 0.31193192E+00 0.38146287E+04</pdfrwt>
<pdfrwt beam="2">  1       -1 0.27603110E+00 0.38146287E+04</pdfrwt>
<totfact> 0.27743801E-01</totfact>
</mgrwt>
</event>
<event>
12    6  0.1530859E-007  0.1316938E+04  0.7818608E-02  0.9016240E-01
         -1   -1    0    0    0  501 -0.00000000000E+00  0.00000000000E+00  0.45312452058E+03  0.45312452058E+03  0.00000000000E+00 0.  1.
          2   -1    0    0  501    0  0.00000000000E+00 -0.00000000000E+00 -0.95686965888E+03  0.95686965888E+03  0.00000000000E+00 0. -1.
         24    2    1    2    0    0 -0.26278928797E+03  0.22036176674E+03 -0.22839862316E+03  0.41932985597E+03  0.77807961855E+02 0.  0.
        254    2    1    2    0    0  0.26278928797E+03 -0.22036176674E+03 -0.27534651514E+03  0.99066432350E+03  0.88768382904E+03 0.  0.
         23    2    4    4    0    0  0.16690437572E+03  0.26333843017E+03  0.12717152265E+03  0.34781624433E+03  0.87174217600E+02 0.  0.
         23    2    4    4    0    0  0.95884912253E+02 -0.48370019691E+03 -0.40251803779E+03  0.64284807916E+03  0.89850349204E+02 0.  0.
          4    1    3    3  502    0 -0.17609827075E+03  0.13771931475E+03 -0.19047847092E+03  0.29369926540E+03  0.00000000000E+00 0. -1.
         -3    1    3    3    0  502 -0.86691017224E+02  0.82642451993E+02 -0.37920152242E+02  0.12563059056E+03  0.00000000000E+00 0.  1.
         11    1    5    5    0    0 -0.27838558097E+01  0.48491818964E+02  0.79923891014E+01  0.49224837665E+02  0.00000000000E+00 0.  1.
        -11    1    5    5    0    0  0.16968823153E+03  0.21484661120E+03  0.11917913355E+03  0.29859140667E+03  0.00000000000E+00 0. -1.
          1    1    6    6  503    0  0.10960110109E+03 -0.46037738765E+03 -0.38900210019E+03  0.61260295002E+03  0.00000000000E+00 0. -1.
         -1    1    6    6    0  503 -0.13716188834E+02 -0.23322809260E+02 -0.13515937599E+02  0.30245129147E+02  0.00000000000E+00 0.  1.
<mgrwt>
<rscale>  0 0.13169375E+04</rscale>
<asrwt>0</asrwt>
<pdfrwt beam="1">  1        2 0.14721072E+00 0.13169375E+04</pdfrwt>
<pdfrwt beam="2">  1       -1 0.69711464E-01 0.13169375E+04</pdfrwt>
<totfact> 0.62467469E+01</totfact>
</mgrwt>
</event>
<event>
12    6  0.1530859E-007  0.1767282E+04  0.7818608E-02  0.8723895E-01
         -1   -1    0    0    0  501 -0.00000000000E+00  0.00000000000E+00  0.10598520742E+04  0.10598520742E+04  0.00000000000E+00 0.  1.
          2   -1    0    0  501    0  0.00000000000E+00 -0.00000000000E+00 -0.73672665928E+03  0.73672665928E+03  0.00000000000E+00 0. -1.
         24    2    1    2    0    0  0.53262944921E+03  0.22185574930E+03  0.42120659901E+03  0.71885486074E+03  0.80144919329E+02 0.  0.
        254    2    1    2    0    0 -0.53262944921E+03 -0.22185574930E+03 -0.98081184084E+02  0.10777238727E+04  0.90496117239E+03 0.  0.
         23    2    4    4    0    0 -0.13562605882E+03  0.30819754698E+03 -0.19840306813E+03  0.40210846961E+03  0.94590105696E+02 0.  0.
         23    2    4    4    0    0 -0.39700339040E+03 -0.53005329628E+03  0.10032188405E+03  0.67561540313E+03  0.88450571726E+02 0.  0.
          2    1    3    3  502    0  0.16268214276E+03  0.57022995795E+02  0.83595324115E+02  0.19158622037E+03  0.00000000000E+00 0. -1.
         -1    1    3    3    0  502  0.36994730645E+03  0.16483275351E+03  0.33761127489E+03  0.52726864037E+03  0.00000000000E+00 0.  1.
         11    1    5    5    0    0 -0.14392922250E+02  0.37236545186E+02  0.77931270936E+01  0.40674922718E+02  0.00000000000E+00 0. -1.
        -11    1    5    5    0    0 -0.12123313657E+03  0.27096100179E+03 -0.20619619523E+03  0.36143354690E+03  0.00000000000E+00 0.  1.
          1    1    6    6  503    0 -0.32663863818E+02 -0.39389871015E+02  0.32739876854E+02  0.60748575905E+02  0.00000000000E+00 0. -1.
         -1    1    6    6    0  503 -0.36433952658E+03 -0.49066342527E+03  0.67582007193E+02  0.61486682722E+03  0.00000000000E+00 0.  1.
<mgrwt>
<rscale>  0 0.17672818E+04</rscale>
<asrwt>0</asrwt>
<pdfrwt beam="1">  1        2 0.11334256E+00 0.17672818E+04</pdfrwt>
<pdfrwt beam="2">  1       -1 0.16305417E+00 0.17672818E+04</pdfrwt>
<totfact> 0.11493836E+01</totfact>
</mgrwt>
</event>
<event>
12    6  0.1530859E-007  0.2885051E+04  0.7818608E-02  0.8277339E-01
         -1   -1    0    0    0  501 -0.00000000000E+00  0.00000000000E+00  0.13153015282E+04  0.13153015282E+04  0.00000000000E+00 0.  1.
          2   -1    0    0  501    0  0.00000000000E+00 -0.00000000000E+00 -0.15820554358E+04  0.15820554358E+04  0.00000000000E+00 0. -1.
         24    2    1    2    0    0 -0.59319153417E+03  0.96587888308E+03 -0.75879110212E+03  0.13665271876E+04  0.82670459512E+02 0.  0.
        254    2    1    2    0    0  0.59319153417E+03 -0.96587888308E+03  0.49203719446E+03  0.15308297764E+04  0.90362657699E+03 0.  0.
         23    2    4    4    0    0 -0.16347737670E+03  0.22055680072E+02  0.13703137363E+03  0.23356552627E+03  0.92541623008E+02 0.  0.
         23    2    4    4    0    0  0.75666891086E+03 -0.98793456315E+03  0.35500582083E+03  0.12972642501E+04  0.91120031514E+02 0.  0.
          2    1    3    3  502    0 -0.22908822086E+03  0.35731246767E+03 -0.33167716073E+03  0.53866812736E+03  0.00000000000E+00 0. -1.
         -1    1    3    3    0  502 -0.36410331331E+03  0.60856641541E+03 -0.42711394139E+03  0.82785906026E+03  0.00000000000E+00 0.  1.
         11    1    5    5    0    0 -0.47685338780E+02  0.30793421480E+02  0.93838618531E+02  0.10967138491E+03  0.00000000000E+00 0. -1.
        -11    1    5    5    0    0 -0.11579203792E+03 -0.87377414081E+01  0.43192755096E+02  0.12389414136E+03  0.00000000000E+00 0.  1.
          2    1    6    6  503    0  0.51952254782E+01 -0.90103543499E+00  0.71298247972E+01  0.88677299385E+01  0.00000000000E+00 0. -1.
         -2    1    6    6    0  503  0.75147368539E+03 -0.98703352772E+03  0.34787599604E+03  0.12883965202E+04  0.00000000000E+00 0.  1.
<mgrwt>
<rscale>  0 0.28850511E+04</rscale>
<asrwt>0</asrwt>
<pdfrwt beam="1">  1        2 0.24339314E+00 0.28850511E+04</pdfrwt>
<pdfrwt beam="2">  1       -1 0.20235408E+00 0.28850511E+04</pdfrwt>
<totfact> 0.16280536E+00</totfact>
</mgrwt>
</event>
<event>
12    6  0.1530859E-007  0.2129122E+04  0.7818608E-02  0.8548522E-01
         -1   -1    0    0    0  501 -0.00000000000E+00  0.00000000000E+00  0.67652731734E+03  0.67652731734E+03  0.00000000000E+00 0.  1.
          2   -1    0    0  501    0  0.00000000000E+00 -0.00000000000E+00 -0.16751573923E+04  0.16751573923E+04  0.00000000000E+00 0. -1.
         24    2    1    2    0    0  0.43369026112E+03 -0.48454377100E+03 -0.10566524188E+04  0.12431293094E+04  0.77370776439E+02 0.  0.
        254    2    1    2    0    0 -0.43369026112E+03  0.48454377100E+03  0.58022343856E+02  0.11085554003E+04  0.89591214662E+03 0.  0.
         23    2    4    4    0    0 -0.29773226761E+03 -0.20737187420E+03  0.12136685810E+03  0.39484835967E+03  0.97610017412E+02 0.  0.
         23    2    4    4    0    0 -0.13595799351E+03  0.69191564520E+03 -0.63344514242E+02  0.71370704060E+03  0.90185232922E+02 0.  0.
          4    1    3    3  502    0  0.42272640378E+03 -0.48548253976E+03 -0.10354276706E+04  0.12192216246E+04  0.00000000000E+00 0. -1.
         -3    1    3    3    0  502  0.10963857336E+02  0.93876875459E+00 -0.21224748217E+02  0.23907684776E+02  0.00000000000E+00 0.  1.
         11    1    5    5    0    0 -0.28641182570E+03 -0.20605441175E+03  0.93902864339E+02  0.36511354732E+03  0.00000000000E+00 0. -1.
        -11    1    5    5    0    0 -0.11320441910E+02 -0.13174624561E+01  0.27463993760E+02  0.29734812352E+02  0.00000000000E+00 0.  1.
          1    1    6    6  503    0 -0.37515941791E+02  0.40642276256E+03 -0.20178070082E+02  0.40864906990E+03  0.00000000000E+00 0. -1.
         -1    1    6    6    0  503 -0.98442051716E+02  0.28549288264E+03 -0.43166444160E+02  0.30505797070E+03  0.00000000000E+00 0.  1.
<mgrwt>
<rscale>  0 0.21291216E+04</rscale>
<asrwt>0</asrwt>
<pdfrwt beam="1">  1        2 0.25771652E+00 0.21291216E+04</pdfrwt>
<pdfrwt beam="2">  1       -1 0.10408113E+00 0.21291216E+04</pdfrwt>
<totfact> 0.92115620E+00</totfact>
</mgrwt>
</event>
<event>
12    6  0.1530859E-007  0.1763544E+04  0.7818608E-02  0.8725930E-01
          2   -1    0    0  501    0  0.00000000000E+00  0.00000000000E+00  0.20848782143E+04  0.20848782143E+04  0.00000000000E+00 0. -1.
         -1   -1    0    0    0  501 -0.00000000000E+00 -0.00000000000E+00 -0.37293379713E+03  0.37293379713E+03  0.00000000000E+00 0.  1.
         24    2    1    2    0    0 -0.36357000353E+03 -0.52956066730E+03  0.60443863290E+03  0.88628605458E+03  0.86828922553E+02 0.  0.
        254    2    1    2    0    0  0.36357000353E+03  0.52956066730E+03  0.11075057842E+04  0.15715259568E+04  0.91132163533E+03 0.  0.
         23    2    4    4    0    0 -0.15866958219E+03 -0.66912153989E+02 -0.13294730342E+02  0.19551227841E+03  0.91624388079E+02 0.  0.
         23    2    4    4    0    0  0.52223958572E+03  0.59647282129E+03  0.11208005146E+04  0.13760136784E+04  0.93305081693E+02 0.  0.
          4    1    3    3  502    0 -0.39563252404E+02 -0.11594866704E+03  0.12452042703E+03  0.17468451871E+03  0.00000000000E+00 0. -1.
         -3    1    3    3    0  502 -0.32400675112E+03 -0.41361200026E+03  0.47991820587E+03  0.71160153587E+03  0.00000000000E+00 0.  1.
         11    1    5    5    0    0 -0.10730195608E+03 -0.76666929627E+02 -0.38620868784E+02  0.13741579015E+03  0.00000000000E+00 0. -1.
        -11    1    5    5    0    0 -0.51367626109E+02  0.97547756376E+01  0.25326138441E+02  0.58096488260E+02  0.00000000000E+00 0.  1.
          3    1    6    6  503    0  0.40021295062E+03  0.47476998635E+03  0.80997337204E+03  0.10206046292E+04  0.00000000000E+00 0.  1.
         -3    1    6    6    0  503  0.12202663510E+03  0.12170283493E+03  0.31082714252E+03  0.35540904917E+03  0.00000000000E+00 0. -1.
<mgrwt>
<rscale>  0 0.17635436E+04</rscale>
<asrwt>0</asrwt>
<pdfrwt beam="1">  1        2 0.32075049E+00 0.17635436E+04</pdfrwt>
<pdfrwt beam="2">  1       -1 0.57374432E-01 0.17635436E+04</pdfrwt>
<totfact> 0.19877519E+01</totfact>
</mgrwt>
</event>
<event>
12    6  0.1530859E-007  0.2397945E+04  0.7818608E-02  0.8440273E-01
          2   -1    0    0  501    0  0.00000000000E+00  0.00000000000E+00  0.10771253708E+04  0.10771253708E+04  0.00000000000E+00 0. -1.
         -1   -1    0    0    0  501 -0.00000000000E+00 -0.00000000000E+00 -0.13346032036E+04  0.13346032036E+04  0.00000000000E+00 0.  1.
         24    2    1    2    0    0 -0.35040458979E+03  0.22245826086E+02  0.86200841467E+03  0.93409147589E+03  0.78677347638E+02 0.  0.
        254    2    1    2    0    0  0.35040458979E+03 -0.22245826086E+02 -0.11194862475E+04  0.14776370985E+04  0.89826704457E+03 0.  0.
         23    2    4    4    0    0  0.51650355081E+02 -0.39057355281E+03 -0.80772155615E+03  0.90261076208E+03  0.84122626064E+02 0.  0.
         23    2    4    4    0    0  0.29875423471E+03  0.36832772672E+03 -0.31176469133E+03  0.57502633646E+03  0.92404858280E+02 0.  0.
          2    1    3    3  502    0 -0.26590069570E+03  0.30926457764E+02  0.72548458781E+03  0.77329652328E+03  0.00000000000E+00 0. -1.
         -1    1    3    3    0  502 -0.84503894092E+02 -0.86806316777E+01  0.13652382686E+03  0.16079495260E+03  0.00000000000E+00 0.  1.
         11    1    5    5    0    0  0.11547780792E+02 -0.28979479876E+03 -0.52475308806E+03  0.59956666023E+03  0.00000000000E+00 0. -1.
        -11    1    5    5    0    0  0.40102574289E+02 -0.10077875405E+03 -0.28296846809E+03  0.30304410185E+03  0.00000000000E+00 0.  1.
          3    1    6    6  503    0  0.19234485271E+03  0.29637705878E+03 -0.24759114973E+03  0.43143629977E+03  0.00000000000E+00 0. -1.
         -3    1    6    6    0  503  0.10640938200E+03  0.71950667942E+02 -0.64173541597E+02  0.14359003669E+03  0.00000000000E+00 0.  1.
<mgrwt>
<rscale>  0 0.23979449E+04</rscale>
<asrwt>0</asrwt>
<pdfrwt beam="1">  1        2 0.16571159E+00 0.23979449E+04</pdfrwt>
<pdfrwt beam="2">  1       -1 0.20532357E+00 0.23979449E+04</pdfrwt>
<totfact> 0.31930518E+00</totfact>
</mgrwt>
</event>
<event>
12    6  0.1530859E-007  0.1813918E+04  0.7818608E-02  0.8698933E-01
         -1   -1    0    0    0  501 -0.00000000000E+00  0.00000000000E+00  0.26514945276E+03  0.26514945276E+03  0.00000000000E+00 0.  1.
          2   -1    0    0  501    0  0.00000000000E+00 -0.00000000000E+00 -0.31023055413E+04  0.31023055413E+04  0.00000000000E+00 0. -1.
         24    2    1    2    0    0 -0.56648825994E+03  0.70589227150E+02 -0.17745246496E+04  0.18662156800E+04  0.89058656714E+02 0.  0.
        254    2    1    2    0    0  0.56648825994E+03 -0.70589227150E+02 -0.10626314389E+04  0.15012393141E+04  0.89366778815E+03 0.  0.
         23    2    4    4    0    0  0.63418223001E+03  0.27184821334E+03 -0.76010383804E+03  0.10303837401E+04  0.88567800347E+02 0.  0.
         23    2    4    4    0    0 -0.67693970071E+02 -0.34243744049E+03 -0.30252760085E+03  0.47085557400E+03  0.91302508455E+02 0.  0.
          2    1    3    3  502    0 -0.47640105733E+03  0.87137639387E+02 -0.14332730855E+04  0.15128855454E+04  0.00000000000E+00 0. -1.
         -1    1    3    3    0  502 -0.90087202612E+02 -0.16548412237E+02 -0.34125156409E+03  0.35333013459E+03  0.00000000000E+00 0.  1.
         11    1    5    5    0    0  0.54987880644E+03  0.22063380043E+03 -0.68940026171E+03  0.90902073492E+03  0.00000000000E+00 0.  1.
        -11    1    5    5    0    0  0.84303423572E+02  0.51214412914E+02 -0.70703576322E+02  0.12136300516E+03  0.00000000000E+00 0. -1.
          2    1    6    6  503    0 -0.36606934807E+02 -0.32069846949E+03 -0.27392306684E+03  0.42334551204E+03  0.00000000000E+00 0. -1.
         -2    1    6    6    0  503 -0.31087035264E+02 -0.21738971000E+02 -0.28604534009E+02  0.47510061961E+02  0.00000000000E+00 0.  1.
<mgrwt>
<rscale>  0 0.18139180E+04</rscale>
<asrwt>0</asrwt>
<pdfrwt beam="1">  1        2 0.47727783E+00 0.18139180E+04</pdfrwt>
<pdfrwt beam="2">  1       -1 0.40792219E-01 0.18139180E+04</pdfrwt>
<totfact> 0.95025103E+00</totfact>
</mgrwt>
</event>
<event>
12    6  0.1530859E-007  0.2863222E+04  0.7818608E-02  0.8283905E-01
         -1   -1    0    0    0  501 -0.00000000000E+00  0.00000000000E+00  0.12002944334E+04  0.12002944334E+04  0.00000000000E+00 0.  1.
          2   -1    0    0  501    0  0.00000000000E+00 -0.00000000000E+00 -0.17075062635E+04  0.17075062635E+04  0.00000000000E+00 0. -1.
         24    2    1    2    0    0  0.38403722797E+03  0.20809567621E+03 -0.14283917107E+04  0.14958229431E+04  0.79968711473E+02 0.  0.
        254    2    1    2    0    0 -0.38403722797E+03 -0.20809567621E+03  0.92117988057E+03  0.14119777538E+04  0.97689323976E+03 0.  0.
         23    2    4    4    0    0  0.18987322740E+03  0.21629377483E+03  0.48654877924E+03  0.57156263485E+03  0.84375893828E+02 0.  0.
         23    2    4    4    0    0 -0.57391045537E+03 -0.42438945103E+03  0.43463110134E+03  0.84041511894E+03  0.88959321949E+02 0.  0.
          4    1    3    3  502    0  0.74257911319E+02  0.21018604215E+02 -0.34725463060E+03  0.35572713924E+03  0.00000000000E+00 0. -1.
         -3    1    3    3    0  502  0.30977931665E+03  0.18707707199E+03 -0.10811370801E+04  0.11400958038E+04  0.00000000000E+00 0.  1.
         11    1    5    5    0    0  0.35374807578E+01  0.31327285556E+02  0.23732554324E+02  0.39460698488E+02  0.00000000000E+00 0. -1.
        -11    1    5    5    0    0  0.18633574665E+03  0.18496648927E+03  0.46281622492E+03  0.53210193636E+03  0.00000000000E+00 0.  1.
          2    1    6    6  503    0  0.24712040418E+01 -0.57837784766E+01  0.76266119358E+01  0.98855527161E+01  0.00000000000E+00 0. -1.
         -2    1    6    6    0  503 -0.57638165941E+03 -0.41860567256E+03  0.42700448940E+03  0.83052956622E+03  0.00000000000E+00 0.  1.
<mgrwt>
<rscale>  0 0.28632221E+04</rscale>
<asrwt>0</asrwt>
<pdfrwt beam="1">  1        2 0.26269327E+00 0.28632221E+04</pdfrwt>
<pdfrwt beam="2">  1       -1 0.18466068E+00 0.28632221E+04</pdfrwt>
<totfact> 0.18447318E+00</totfact>
</mgrwt>
</event>
<event>
12    6  0.1530859E-007  0.1390681E+04  0.7818608E-02  0.8960592E-01
         -1   -1    0    0    0  501 -0.00000000000E+00  0.00000000000E+00  0.23275231984E+03  0.23275231984E+03  0.00000000000E+00 0.  1.
          2   -1    0    0  501    0  0.00000000000E+00 -0.00000000000E+00 -0.20773098173E+04  0.20773098173E+04  0.00000000000E+00 0. -1.
         24    2    1    2    0    0  0.85684012966E+02  0.51904364409E+02  0.98960991636E+02  0.16321986458E+03  0.82532619043E+02 0.  0.
        254    2    1    2    0    0 -0.85684012966E+02 -0.51904364409E+02 -0.19435184891E+04  0.21468422726E+04  0.90643908380E+03 0.  0.
         23    2    4    4    0    0 -0.20104228953E+03 -0.24146145207E+03 -0.19654288916E+03  0.38346414136E+03  0.98458140393E+02 0.  0.
         23    2    4    4    0    0  0.11535827656E+03  0.18955708766E+03 -0.17469755999E+04  0.17633781312E+04  0.91319578200E+02 0.  0.
          2    1    3    3  502    0  0.23315901180E+02  0.46131833625E+02  0.72994351730E+01  0.52202098380E+02  0.00000000000E+00 0. -1.
         -1    1    3    3    0  502  0.62368111787E+02  0.57725307840E+01  0.91661556463E+02  0.11101776620E+03  0.00000000000E+00 0.  1.
         11    1    5    5    0    0 -0.16181200559E+03 -0.18888619934E+03 -0.19790994305E+03  0.31785132847E+03  0.00000000000E+00 0.  1.
        -11    1    5    5    0    0 -0.39230283933E+02 -0.52575252736E+02  0.13670538902E+01  0.65612812880E+02  0.00000000000E+00 0. -1.
          4    1    6    6  503    0  0.68087356001E+02  0.15833581201E+03 -0.15061288242E+04  0.15159584930E+04  0.00000000000E+00 0. -1.
         -4    1    6    6    0  503  0.47270920561E+02  0.31221275653E+02 -0.24084677575E+03  0.24741963821E+03  0.00000000000E+00 0.  1.
<mgrwt>
<rscale>  0 0.13906814E+04</rscale>
<asrwt>0</asrwt>
<pdfrwt beam="1">  1        2 0.31958613E+00 0.13906814E+04</pdfrwt>
<pdfrwt beam="2">  1       -1 0.35808049E-01 0.13906814E+04</pdfrwt>
<totfact> 0.50036579E+01</totfact>
</mgrwt>
</event>
<event>
12    6  0.1530859E-007  0.2294797E+04  0.7818608E-02  0.8479975E-01
          2   -1    0    0  501    0  0.00000000000E+00  0.00000000000E+00  0.12734701539E+04  0.12734701539E+04  0.00000000000E+00 0. -1.
         -3   -1    0    0    0  501 -0.00000000000E+00 -0.00000000000E+00 -0.10338081161E+04  0.10338081161E+04  0.00000000000E+00 0.  1.
         24    2    1    2    0    0 -0.13300094763E+03 -0.87419617302E+03 -0.29300621581E+03  0.93544806153E+03  0.85453100159E+02 0.  0.
        254    2    1    2    0    0  0.13300094763E+03  0.87419617302E+03  0.53266825364E+03  0.13718302085E+04  0.90347908199E+03 0.  0.
         23    2    4    4    0    0 -0.36568411230E+03  0.28407157705E+03  0.30028275214E+03  0.55947548344E+03  0.91769027772E+02 0.  0.
         23    2    4    4    0    0  0.49868505992E+03  0.59012459597E+03  0.23238550150E+03  0.81235472509E+03  0.94780537603E+02 0.  0.
          2    1    3    3  502    0 -0.10648587525E+03 -0.66193231017E+03 -0.18332738012E+03  0.69505579141E+03  0.00000000000E+00 0. -1.
         -1    1    3    3    0  502 -0.26515072380E+02 -0.21226386285E+03 -0.10967883568E+03  0.24039227012E+03  0.00000000000E+00 0.  1.
         11    1    5    5    0    0 -0.43245777107E+02  0.34485879562E+02  0.76353530519E+02  0.94283268661E+02  0.00000000000E+00 0. -1.
        -11    1    5    5    0    0 -0.32243833519E+03  0.24958569749E+03  0.22392922162E+03  0.46519221477E+03  0.00000000000E+00 0.  1.
          3    1    6    6  503    0  0.16708688777E+02  0.18540429765E+02  0.27465218106E+02  0.37111534893E+02  0.00000000000E+00 0. -1.
         -3    1    6    6    0  503  0.48197637115E+03  0.57158416621E+03  0.20492028339E+03  0.77524319020E+03  0.00000000000E+00 0.  1.
<mgrwt>
<rscale>  0 0.22947974E+04</rscale>
<asrwt>0</asrwt>
<pdfrwt beam="1">  1        2 0.19591849E+00 0.22947974E+04</pdfrwt>
<pdfrwt beam="2">  1       -3 0.15904740E+00 0.22947974E+04</pdfrwt>
<totfact> 0.27181374E+00</totfact>
</mgrwt>
</event>
<event>
12    6  0.1530859E-007  0.1652001E+04  0.7818608E-02  0.8789224E-01
         -1   -1    0    0    0  501 -0.00000000000E+00  0.00000000000E+00  0.29762237720E+03  0.29762237720E+03  0.00000000000E+00 0.  1.
          2   -1    0    0  501    0  0.00000000000E+00 -0.00000000000E+00 -0.22924248003E+04  0.22924248003E+04  0.00000000000E+00 0. -1.
         24    2    1    2    0    0  0.30965970024E+03 -0.23265547741E+03 -0.33084382299E+02  0.39681985494E+03  0.79710223930E+02 0.  0.
        254    2    1    2    0    0 -0.30965970024E+03  0.23265547741E+03 -0.19617180408E+04  0.21932273226E+04  0.90104978538E+03 0.  0.
         23    2    4    4    0    0 -0.54698132604E+03 -0.92108210121E+02 -0.12563867649E+04  0.13763975335E+04  0.91049293204E+02 0.  0.
         23    2    4    4    0    0  0.23732162580E+03  0.32476368753E+03 -0.70533127596E+03  0.81682978912E+03  0.89026337351E+02 0.  0.
          2    1    3    3  502    0  0.24150099051E+02 -0.27420872045E+02  0.19292322259E+02  0.41319791940E+02  0.00000000000E+00 0. -1.
         -1    1    3    3    0  502  0.28550960119E+03 -0.20523460537E+03 -0.52376704558E+02  0.35550006300E+03  0.00000000000E+00 0.  1.
         11    1    5    5    0    0 -0.53096847370E+03 -0.10116118382E+03 -0.11812681958E+04  0.12990595274E+04  0.00000000000E+00 0.  1.
        -11    1    5    5    0    0 -0.16012852339E+02  0.90529736941E+01 -0.75118569031E+02  0.77338006091E+02  0.00000000000E+00 0. -1.
          4    1    6    6  503    0  0.16243706062E+03  0.23031994010E+03 -0.56819686529E+03  0.63425606122E+03  0.00000000000E+00 0.  1.
         -4    1    6    6    0  503  0.74884565178E+02  0.94443747428E+02 -0.13713441067E+03  0.18257372790E+03  0.00000000000E+00 0. -1.
<mgrwt>
<rscale>  0 0.16520011E+04</rscale>
<asrwt>0</asrwt>
<pdfrwt beam="1">  1        2 0.35268074E+00 0.16520011E+04</pdfrwt>
<pdfrwt beam="2">  1       -1 0.45788057E-01 0.16520011E+04</pdfrwt>
<totfact> 0.23632594E+01</totfact>
</mgrwt>
</event>
<event>
12    6  0.1530859E-007  0.1834171E+04  0.7818608E-02  0.8688336E-01
         -1   -1    0    0    0  501 -0.00000000000E+00  0.00000000000E+00  0.16570811659E+03  0.16570811659E+03  0.00000000000E+00 0.  1.
          2   -1    0    0  501    0  0.00000000000E+00 -0.00000000000E+00 -0.50754637435E+04  0.50754637435E+04  0.00000000000E+00 0. -1.
         24    2    1    2    0    0  0.67617892663E+03  0.38946430199E+02 -0.23556585535E+04  0.24524571958E+04  0.81757637816E+02 0.  0.
        254    2    1    2    0    0 -0.67617892663E+03 -0.38946430199E+02 -0.25540970735E+04  0.27887146643E+04  0.89150594677E+03 0.  0.
         23    2    4    4    0    0 -0.67235549787E+03 -0.12384921799E+03 -0.25722742913E+04  0.26633870558E+04  0.98158214021E+02 0.  0.
         23    2    4    4    0    0 -0.38234287548E+01  0.84902787788E+02  0.18177217825E+02  0.12532760855E+03  0.90296712201E+02 0.  0.
          4    1    3    3  502    0  0.32127319629E+03 -0.71385860180E+00 -0.98676805653E+03  0.10377514990E+04  0.00000000000E+00 0. -1.
         -3    1    3    3    0  502  0.35490573033E+03  0.39660288801E+02 -0.13688904970E+04  0.14147056968E+04  0.00000000000E+00 0.  1.
         11    1    5    5    0    0 -0.49878783125E+03 -0.58080411659E+02 -0.19816277856E+04  0.20442630250E+04  0.00000000000E+00 0. -1.
        -11    1    5    5    0    0 -0.17356766662E+03 -0.65768806327E+02 -0.59064650572E+03  0.61912403079E+03  0.00000000000E+00 0.  1.
          2    1    6    6  503    0  0.79724062841E+01 -0.80904364550E+01 -0.20886638062E+02  0.23775324888E+02  0.00000000000E+00 0.  1.
         -2    1    6    6    0  503 -0.11795835039E+02  0.92993224243E+02  0.39063855887E+02  0.10155228366E+03  0.00000000000E+00 0. -1.
<mgrwt>
<rscale>  0 0.18341707E+04</rscale>
<asrwt>0</asrwt>
<pdfrwt beam="1">  1        2 0.78084067E+00 0.18341707E+04</pdfrwt>
<pdfrwt beam="2">  1       -1 0.25493553E-01 0.18341707E+04</pdfrwt>
<totfact> 0.41175308E-01</totfact>
</mgrwt>
</event>
<event>
12    6  0.1530859E-007  0.1467586E+04  0.7818608E-02  0.8906299E-01
          2   -1    0    0  501    0  0.00000000000E+00  0.00000000000E+00  0.15407224436E+04  0.15407224436E+04  0.00000000000E+00 0. -1.
         -1   -1    0    0    0  501 -0.00000000000E+00 -0.00000000000E+00 -0.34948032643E+03  0.34948032643E+03  0.00000000000E+00 0.  1.
         24    2    1    2    0    0 -0.34476924889E+02  0.23934913607E+03 -0.11921037018E+03  0.28126721510E+03  0.80146532308E+02 0.  0.
        254    2    1    2    0    0  0.34476924889E+02 -0.23934913607E+03  0.13104524874E+04  0.16089355550E+04  0.90161589996E+03 0.  0.
         23    2    4    4    0    0  0.82964030931E+02 -0.54136028612E+03  0.10837241961E+04  0.12180402826E+04  0.95968781712E+02 0.  0.
         23    2    4    4    0    0 -0.48487106042E+02  0.30201115004E+03  0.22672829130E+03  0.39089527236E+03  0.88496676062E+02 0.  0.
          4    1    3    3  502    0  0.17114272345E+02  0.12885442068E+03 -0.40596237146E+02  0.13617787822E+03  0.00000000000E+00 0. -1.
         -3    1    3    3    0  502 -0.51591197234E+02  0.11049471539E+03 -0.78614133039E+02  0.14508933688E+03  0.00000000000E+00 0.  1.
         11    1    5    5    0    0  0.68882950523E+02 -0.25485922666E+03  0.43698584533E+03  0.51054354888E+03  0.00000000000E+00 0.  1.
        -11    1    5    5    0    0  0.14081080408E+02 -0.28650105946E+03  0.64673835076E+03  0.70749673373E+03  0.00000000000E+00 0. -1.
          3    1    6    6  503    0  0.10880230295E+02  0.16298328513E+03  0.87154151222E+02  0.18514258483E+03  0.00000000000E+00 0. -1.
         -3    1    6    6    0  503 -0.59367336337E+02  0.13902786491E+03  0.13957414008E+03  0.20575268753E+03  0.00000000000E+00 0.  1.
<mgrwt>
<rscale>  0 0.14675860E+04</rscale>
<asrwt>0</asrwt>
<pdfrwt beam="1">  1        2 0.23703422E+00 0.14675860E+04</pdfrwt>
<pdfrwt beam="2">  1       -1 0.53766205E-01 0.14675860E+04</pdfrwt>
<totfact> 0.46385343E+01</totfact>
</mgrwt>
</event>
<event>
12    6  0.1530859E-007  0.2157493E+04  0.7818608E-02  0.8536332E-01
         -1   -1    0    0    0  501 -0.00000000000E+00  0.00000000000E+00  0.16976141019E+04  0.16976141019E+04  0.00000000000E+00 0.  1.
          2   -1    0    0  501    0  0.00000000000E+00 -0.00000000000E+00 -0.68548787210E+03  0.68548787210E+03  0.00000000000E+00 0. -1.
         24    2    1    2    0    0  0.12186847795E+03  0.81489045506E+03  0.51300422679E+02  0.82929243001E+03  0.78713540392E+02 0.  0.
        254    2    1    2    0    0 -0.12186847795E+03 -0.81489045506E+03  0.96082580712E+03  0.15538095440E+04  0.90124330105E+03 0.  0.
         23    2    4    4    0    0  0.63536895339E+02 -0.80606117634E+02  0.74923640631E+03  0.76178917823E+03  0.91832871371E+02 0.  0.
         23    2    4    4    0    0 -0.18540537329E+03 -0.73428433743E+03  0.21158940082E+03  0.79202036576E+03  0.94749905576E+02 0.  0.
          2    1    3    3  502    0  0.37512460964E+02  0.50924891619E+03  0.30038619564E+02  0.51151144859E+03  0.00000000000E+00 0. -1.
         -1    1    3    3    0  502  0.84356016984E+02  0.30564153887E+03  0.21261803115E+02  0.31778098142E+03  0.00000000000E+00 0.  1.
         11    1    5    5    0    0  0.25467966788E+01  0.67195071025E+01  0.26752911124E+01  0.76677983516E+01  0.00000000000E+00 0. -1.
        -11    1    5    5    0    0  0.60990098661E+02 -0.87325624737E+02  0.74656111519E+03  0.75412137988E+03  0.00000000000E+00 0.  1.
          3    1    6    6  503    0  0.87421234025E+01 -0.49268015391E+02  0.25226030708E+02  0.56036726238E+02  0.00000000000E+00 0. -1.
         -3    1    6    6    0  503 -0.19414749669E+03 -0.68501632204E+03  0.18636337011E+03  0.73598363952E+03  0.00000000000E+00 0.  1.
<mgrwt>
<rscale>  0 0.21574929E+04</rscale>
<asrwt>0</asrwt>
<pdfrwt beam="1">  1        2 0.10545967E+00 0.21574929E+04</pdfrwt>
<pdfrwt beam="2">  1       -1 0.26117140E+00 0.21574929E+04</pdfrwt>
<totfact> 0.25969770E+00</totfact>
</mgrwt>
</event>
<event>
12    6  0.1530859E-007  0.2100668E+04  0.7818608E-02  0.8560949E-01
         -1   -1    0    0    0  501 -0.00000000000E+00  0.00000000000E+00  0.14541400195E+04  0.14541400195E+04  0.00000000000E+00 0.  1.
          2   -1    0    0  501    0  0.00000000000E+00 -0.00000000000E+00 -0.75866280078E+03  0.75866280078E+03  0.00000000000E+00 0. -1.
         24    2    1    2    0    0  0.48255882806E+03 -0.46162831416E+03 -0.26952648907E+03  0.72481861897E+03  0.82181379363E+02 0.  0.
        254    2    1    2    0    0 -0.48255882806E+03  0.46162831416E+03  0.96500370782E+03  0.14879842013E+04  0.91482299071E+03 0.  0.
         23    2    4    4    0    0 -0.56762321769E+02  0.32173585467E+03  0.97339035072E+03  0.10307431155E+04  0.90590694895E+02 0.  0.
         23    2    4    4    0    0 -0.42579650629E+03  0.13989245949E+03 -0.83866428992E+01  0.45724108579E+03  0.90147156157E+02 0.  0.
          2    1    3    3  502    0  0.42858851761E+03 -0.37978004005E+03 -0.25007679656E+03  0.62486750630E+03  0.00000000000E+00 0. -1.
         -1    1    3    3    0  502  0.53970310452E+02 -0.81848274115E+02 -0.19449692516E+02  0.99951112674E+02  0.00000000000E+00 0.  1.
         11    1    5    5    0    0 -0.80452528295E+02  0.22809518457E+03  0.66782805586E+03  0.71027764623E+03  0.00000000000E+00 0. -1.
        -11    1    5    5    0    0  0.23690206526E+02  0.93640670098E+02  0.30556229486E+03  0.32046546931E+03  0.00000000000E+00 0.  1.
          2    1    6    6  503    0 -0.42197995101E+03  0.12333638317E+03 -0.38352289049E+01  0.43965173883E+03  0.00000000000E+00 0. -1.
         -2    1    6    6    0  503 -0.38165552801E+01  0.16556076323E+02 -0.45514139943E+01  0.17589346968E+02  0.00000000000E+00 0.  1.
<mgrwt>
<rscale>  0 0.21006684E+04</rscale>
<asrwt>0</asrwt>
<pdfrwt beam="1">  1        2 0.11671735E+00 0.21006684E+04</pdfrwt>
<pdfrwt beam="2">  1       -1 0.22371385E+00 0.21006684E+04</pdfrwt>
<totfact> 0.40374736E+00</totfact>
</mgrwt>
</event>
<event>
12    6  0.1530859E-007  0.2906548E+04  0.7818608E-02  0.8270932E-01
          2   -1    0    0  501    0  0.00000000000E+00  0.00000000000E+00  0.19717992762E+04  0.19717992762E+04  0.00000000000E+00 0. -1.
         -1   -1    0    0    0  501 -0.00000000000E+00 -0.00000000000E+00 -0.10711052682E+04  0.10711052682E+04  0.00000000000E+00 0.  1.
         24    2    1    2    0    0 -0.75658201307E+03 -0.75678405382E+03 -0.39103396765E+03  0.11425119783E+04  0.85367500339E+02 0.  0.
        254    2    1    2    0    0  0.75658201307E+03  0.75678405382E+03  0.12917279756E+04  0.19003925661E+04  0.89319219409E+03 0.  0.
         23    2    4    4    0    0 -0.76083155902E+01 -0.14245037429E+03  0.34808223924E+03  0.38707613477E+03  0.91195905787E+02 0.  0.
         23    2    4    4    0    0  0.76419032866E+03  0.89923442810E+03  0.94364573639E+03  0.15133164313E+04  0.83963863490E+02 0.  0.
          4    1    3    3  502    0 -0.10460443140E+03 -0.84610768857E+02 -0.75958928936E+02  0.15450187105E+03  0.00000000000E+00 0. -1.
         -3    1    3    3    0  502 -0.65197758167E+03 -0.67217328496E+03 -0.31507503871E+03  0.98801010725E+03  0.00000000000E+00 0.  1.
         11    1    5    5    0    0 -0.47030780257E+02 -0.99504653117E+02  0.20738826332E+03  0.23478279759E+03  0.00000000000E+00 0. -1.
        -11    1    5    5    0    0  0.39422464667E+02 -0.42945721169E+02  0.14069397592E+03  0.15229333717E+03  0.00000000000E+00 0.  1.
          3    1    6    6  503    0  0.68676975157E+03  0.77245523092E+03  0.84428960597E+03  0.13346028301E+04  0.00000000000E+00 0. -1.
         -3    1    6    6    0  503  0.77420577092E+02  0.12677919718E+03  0.99356130421E+02  0.17871360118E+03  0.00000000000E+00 0.  1.
<mgrwt>
<rscale>  0 0.29065475E+04</rscale>
<asrwt>0</asrwt>
<pdfrwt beam="1">  1        2 0.30335373E+00 0.29065475E+04</pdfrwt>
<pdfrwt beam="2">  1       -1 0.16478543E+00 0.29065475E+04</pdfrwt>
<totfact> 0.18284129E+00</totfact>
</mgrwt>
</event>
<event>
12    6  0.1530859E-007  0.3256613E+04  0.7818608E-02  0.8174024E-01
         -1   -1    0    0    0  501 -0.00000000000E+00  0.00000000000E+00  0.77199602083E+03  0.77199602083E+03  0.00000000000E+00 0.  1.
          2   -1    0    0  501    0  0.00000000000E+00 -0.00000000000E+00 -0.34344508953E+04  0.34344508953E+04  0.00000000000E+00 0. -1.
         24    2    1    2    0    0 -0.33576401548E+02  0.12600284475E+04 -0.19645759818E+03  0.12781847754E+04  0.79760071209E+02 0.  0.
        254    2    1    2    0    0  0.33576401548E+02 -0.12600284475E+04 -0.24659972762E+04  0.29282621407E+04  0.95119794730E+03 0.  0.
         23    2    4    4    0    0 -0.16931042832E+03  0.39205816139E+02 -0.10147891132E+03  0.22111805783E+03  0.91608454298E+02 0.  0.
         23    2    4    4    0    0  0.20288682987E+03 -0.12992342636E+04 -0.23645183649E+04  0.27071440829E+04  0.92245594997E+02 0.  0.
          4    1    3    3  502    0  0.22322217017E+02  0.20146021540E+03 -0.41093907265E+02  0.20681684886E+03  0.00000000000E+00 0. -1.
         -3    1    3    3    0  502 -0.55898618566E+02  0.10585682321E+04 -0.15536369091E+03  0.10713679265E+04  0.00000000000E+00 0.  1.
         11    1    5    5    0    0  0.98156254902E+00 -0.13460782594E+01  0.12251075936E+02  0.12363828424E+02  0.00000000000E+00 0. -1.
        -11    1    5    5    0    0 -0.17029199087E+03  0.40551894398E+02 -0.11372998726E+03  0.20875422941E+03  0.00000000000E+00 0.  1.
          1    1    6    6  503    0  0.15143318171E+03 -0.67428193191E+03 -0.12260090392E+04  0.14073685716E+04  0.00000000000E+00 0. -1.
         -1    1    6    6    0  503  0.51453648155E+02 -0.62495233172E+03 -0.11385093257E+04  0.12997755112E+04  0.00000000000E+00 0.  1.
<mgrwt>
<rscale>  0 0.32566132E+04</rscale>
<asrwt>0</asrwt>
<pdfrwt beam="1">  1        2 0.52837706E+00 0.32566132E+04</pdfrwt>
<pdfrwt beam="2">  1       -1 0.11876862E+00 0.32566132E+04</pdfrwt>
<totfact> 0.54490525E-01</totfact>
</mgrwt>
</event>
<event>
12    6  0.1530859E-007  0.1345679E+04  0.7818608E-02  0.8994106E-01
          2   -1    0    0  501    0  0.00000000000E+00  0.00000000000E+00  0.86598019371E+03  0.86598019371E+03  0.00000000000E+00 0. -1.
         -1   -1    0    0    0  501 -0.00000000000E+00 -0.00000000000E+00 -0.52277508146E+03  0.52277508146E+03  0.00000000000E+00 0.  1.
         24    2    1    2    0    0  0.39872252932E+02  0.23691239133E+03  0.38009840829E+03  0.45689487440E+03  0.80999065109E+02 0.  0.
        254    2    1    2    0    0 -0.39872252932E+02 -0.23691239133E+03 -0.36893296036E+02  0.93186040077E+03  0.89960291992E+03 0.  0.
         23    2    4    4    0    0  0.34563733266E+03 -0.36765037715E+03  0.84993590177E+01  0.51243587259E+03  0.88804948465E+02 0.  0.
         23    2    4    4    0    0 -0.38550958559E+03  0.13073798582E+03 -0.45392655054E+02  0.41942452818E+03  0.90257299947E+02 0.  0.
          2    1    3    3  502    0  0.62237003341E+02  0.20064931734E+03  0.30116905026E+03  0.36720074887E+03  0.00000000000E+00 0. -1.
         -1    1    3    3    0  502 -0.22364750409E+02  0.36263073986E+02  0.78929358024E+02  0.89694125526E+02  0.00000000000E+00 0.  1.
         11    1    5    5    0    0  0.17838134427E+03 -0.14966359149E+03 -0.30806988298E+02  0.23487904362E+03  0.00000000000E+00 0. -1.
        -11    1    5    5    0    0  0.16725598838E+03 -0.21798678565E+03  0.39306347316E+02  0.27755682897E+03  0.00000000000E+00 0.  1.
          1    1    6    6  503    0 -0.59356163775E+02  0.55100143460E+02 -0.21337270691E+02  0.83752367775E+02  0.00000000000E+00 0. -1.
         -1    1    6    6    0  503 -0.32615342181E+03  0.75637842361E+02 -0.24055384363E+02  0.33567216041E+03  0.00000000000E+00 0.  1.
<mgrwt>
<rscale>  0 0.13456788E+04</rscale>
<asrwt>0</asrwt>
<pdfrwt beam="1">  1        2 0.13322772E+00 0.13456788E+04</pdfrwt>
<pdfrwt beam="2">  1       -1 0.80426936E-01 0.13456788E+04</pdfrwt>
<totfact> 0.53230712E+01</totfact>
</mgrwt>
</event>
<event>
12    6  0.1530859E-007  0.1857601E+04  0.7818608E-02  0.8676254E-01
          2   -1    0    0  501    0  0.00000000000E+00  0.00000000000E+00  0.35970883875E+04  0.35970883875E+04  0.00000000000E+00 0. -1.
         -1   -1    0    0    0  501 -0.00000000000E+00 -0.00000000000E+00 -0.23982470331E+03  0.23982470331E+03  0.00000000000E+00 0.  1.
         24    2    1    2    0    0 -0.44346006156E+03 -0.94044906399E+02  0.23914828546E+04  0.24354023950E+04  0.80581085873E+02 0.  0.
        254    2    1    2    0    0  0.44346006156E+03  0.94044906399E+02  0.96578082960E+03  0.14015106958E+04  0.90884451304E+03 0.  0.
         23    2    4    4    0    0 -0.16924441821E+03 -0.21525625319E+03  0.13480190007E+03  0.31911253082E+03  0.93179007459E+02 0.  0.
         23    2    4    4    0    0  0.61270447977E+03  0.30930115959E+03  0.83097892953E+03  0.10823981649E+04  0.99929071228E+02 0.  0.
          2    1    3    3  502    0 -0.31880065751E+03 -0.29815578556E+02  0.16674947478E+04  0.16979580566E+04  0.00000000000E+00 0. -1.
         -1    1    3    3    0  502 -0.12465940405E+03 -0.64229327844E+02  0.72398810672E+03  0.73744433841E+03  0.00000000000E+00 0.  1.
         11    1    5    5    0    0 -0.18034469617E+03 -0.19172980784E+03  0.12193959628E+03  0.29009273309E+03  0.00000000000E+00 0. -1.
        -11    1    5    5    0    0  0.11100277957E+02 -0.23526445358E+02  0.12862303785E+02  0.29019797735E+02  0.00000000000E+00 0.  1.
          4    1    6    6  503    0  0.50806353301E+03  0.29521111517E+03  0.69093301306E+03  0.90700969379E+03  0.00000000000E+00 0. -1.
         -4    1    6    6    0  503  0.10464094677E+03  0.14090044428E+02  0.14004591647E+03  0.17538847115E+03  0.00000000000E+00 0.  1.
<mgrwt>
<rscale>  0 0.18576013E+04</rscale>
<asrwt>0</asrwt>
<pdfrwt beam="1">  1        2 0.55339818E+00 0.18576013E+04</pdfrwt>
<pdfrwt beam="2">  1       -1 0.36896111E-01 0.18576013E+04</pdfrwt>
<totfact> 0.52805127E+00</totfact>
</mgrwt>
</event>
<event>
12    6  0.1530859E-007  0.1993087E+04  0.7818608E-02  0.8609860E-01
          2   -1    0    0  501    0  0.00000000000E+00  0.00000000000E+00  0.92541138980E+03  0.92541138980E+03  0.00000000000E+00 0. -1.
         -1   -1    0    0    0  501 -0.00000000000E+00 -0.00000000000E+00 -0.10731428015E+04  0.10731428015E+04  0.00000000000E+00 0.  1.
         24    2    1    2    0    0  0.50466022143E+03 -0.59510162308E+03  0.34340778311E+02  0.78511460360E+03  0.79986066625E+02 0.  0.
        254    2    1    2    0    0 -0.50466022143E+03  0.59510162308E+03 -0.18207219000E+03  0.12134395877E+04  0.91129439245E+03 0.  0.
         23    2    4    4    0    0 -0.56556718127E+03  0.37609018369E+03 -0.47424643044E+03  0.83335042863E+03  0.90847109562E+02 0.  0.
         23    2    4    4    0    0  0.60906959844E+02  0.21901143938E+03  0.29217424044E+03  0.38008915905E+03  0.86176062281E+02 0.  0.
          2    1    3    3  502    0  0.49718158852E+03 -0.57288693225E+03  0.43870797606E+02  0.75981156611E+03  0.00000000000E+00 0. -1.
         -1    1    3    3    0  502  0.74786329050E+01 -0.22214690829E+02 -0.95300192949E+01  0.25303037496E+02  0.00000000000E+00 0.  1.
         11    1    5    5    0    0 -0.14058462054E+03  0.49891863189E+02 -0.92691053818E+02  0.17562706228E+03  0.00000000000E+00 0. -1.
        -11    1    5    5    0    0 -0.42498256073E+03  0.32619832050E+03 -0.38155537662E+03  0.65772336636E+03  0.00000000000E+00 0.  1.
          4    1    6    6  503    0  0.41444980921E+02  0.20830899535E+03  0.28741203424E+03  0.35737375591E+03  0.00000000000E+00 0.  1.
         -4    1    6    6    0  503  0.19461978923E+02  0.10702444037E+02  0.47622062026E+01  0.22715403141E+02  0.00000000000E+00 0. -1.
<mgrwt>
<rscale>  0 0.19930866E+04</rscale>
<asrwt>0</asrwt>
<pdfrwt beam="1">  1        2 0.14237098E+00 0.19930866E+04</pdfrwt>
<pdfrwt beam="2">  1       -1 0.16509889E+00 0.19930866E+04</pdfrwt>
<totfact> 0.79984576E+00</totfact>
</mgrwt>
</event>
<event>
12    6  0.1530859E-007  0.1350856E+04  0.7818608E-02  0.8990180E-01
         -1   -1    0    0    0  501 -0.00000000000E+00  0.00000000000E+00  0.51770669125E+03  0.51770669125E+03  0.00000000000E+00 0.  1.
          2   -1    0    0  501    0  0.00000000000E+00 -0.00000000000E+00 -0.88119981206E+03  0.88119981206E+03  0.00000000000E+00 0. -1.
         24    2    1    2    0    0 -0.11101688225E+03  0.15937269012E+03 -0.44219894875E+03  0.49083328795E+03  0.87481448191E+02 0.  0.
        254    2    1    2    0    0  0.11101688225E+03 -0.15937269012E+03  0.78705827943E+02  0.90807321537E+03  0.88355981949E+03 0.  0.
         23    2    4    4    0    0 -0.32807519158E+03  0.74376107185E+02  0.18001619523E+03  0.39232077928E+03  0.91348928072E+02 0.  0.
         23    2    4    4    0    0  0.43909207383E+03 -0.23374879730E+03 -0.10131036729E+03  0.51575243609E+03  0.91084769694E+02 0.  0.
          2    1    3    3  502    0 -0.45267987724E+02  0.11631055556E+03 -0.19573737414E+03  0.23214317927E+03  0.00000000000E+00 0. -1.
         -1    1    3    3    0  502 -0.65748894529E+02  0.43062134555E+02 -0.24646157462E+03  0.25869010868E+03  0.00000000000E+00 0.  1.
         11    1    5    5    0    0 -0.62086762468E+02  0.65600761161E+01  0.76998030070E+02  0.99128690635E+02  0.00000000000E+00 0. -1.
        -11    1    5    5    0    0 -0.26598842911E+03  0.67816031069E+02  0.10301816516E+03  0.29319208864E+03  0.00000000000E+00 0.  1.
          3    1    6    6  503    0  0.20777379934E+03 -0.11412134534E+03 -0.94642219033E+02  0.25524651374E+03  0.00000000000E+00 0. -1.
         -3    1    6    6    0  503  0.23131827449E+03 -0.11962745197E+03 -0.66681482561E+01  0.26050592235E+03  0.00000000000E+00 0.  1.
<mgrwt>
<rscale>  0 0.13508561E+04</rscale>
<asrwt>0</asrwt>
<pdfrwt beam="1">  1        2 0.13556920E+00 0.13508561E+04</pdfrwt>
<pdfrwt beam="2">  1       -1 0.79647184E-01 0.13508561E+04</pdfrwt>
<totfact> 0.53029784E+01</totfact>
</mgrwt>
</event>
<event>
12    6  0.1530859E-007  0.3695011E+04  0.7818608E-02  0.8069068E-01
          2   -1    0    0  501    0  0.00000000000E+00  0.00000000000E+00  0.18093943170E+04  0.18093943170E+04  0.00000000000E+00 0. -1.
         -3   -1    0    0    0  501 -0.00000000000E+00 -0.00000000000E+00 -0.18864191668E+04  0.18864191668E+04  0.00000000000E+00 0.  1.
         24    2    1    2    0    0  0.93545879940E+03  0.51879055824E+03 -0.14085159638E+04  0.17704225698E+04  0.79069885846E+02 0.  0.
        254    2    1    2    0    0 -0.93545879940E+03 -0.51879055824E+03  0.13314911139E+04  0.19253909140E+04  0.88883900486E+03 0.  0.
         23    2    4    4    0    0 -0.88655563461E+01 -0.11229465685E+03  0.72970046703E+03  0.74444042041E+03  0.95079334811E+02 0.  0.
         23    2    4    4    0    0 -0.92659324305E+03 -0.40649590140E+03  0.60179064690E+03  0.11809504936E+04  0.93156479640E+02 0.  0.
          2    1    3    3  502    0  0.39461579679E+03  0.26045554671E+03 -0.59687369723E+03  0.76145710932E+03  0.00000000000E+00 0. -1.
         -1    1    3    3    0  502  0.54084300261E+03  0.25833501154E+03 -0.81164226654E+03  0.10089654605E+04  0.00000000000E+00 0.  1.
         11    1    5    5    0    0 -0.19888857298E+01 -0.12302438035E+03  0.52021571927E+03  0.53456837580E+03  0.00000000000E+00 0. -1.
        -11    1    5    5    0    0 -0.68766706164E+01  0.10729723501E+02  0.20948474776E+03  0.20987204461E+03  0.00000000000E+00 0.  1.
          3    1    6    6  503    0 -0.82247413229E+03 -0.35270469789E+03  0.49654694711E+03  0.10234369413E+04  0.00000000000E+00 0. -1.
         -3    1    6    6    0  503 -0.10411911077E+03 -0.53791203507E+02  0.10524369979E+03  0.15751355226E+03  0.00000000000E+00 0.  1.
<mgrwt>
<rscale>  0 0.36950108E+04</rscale>
<asrwt>0</asrwt>
<pdfrwt beam="1">  1        2 0.27836835E+00 0.36950108E+04</pdfrwt>
<pdfrwt beam="2">  1       -3 0.29021833E+00 0.36950108E+04</pdfrwt>
<totfact> 0.18690099E-01</totfact>
</mgrwt>
</event>
<event>
12    6  0.1530859E-007  0.2301237E+04  0.7818608E-02  0.8477434E-01
         -1   -1    0    0    0  501 -0.00000000000E+00  0.00000000000E+00  0.10660861036E+04  0.10660861036E+04  0.00000000000E+00 0.  1.
          2   -1    0    0  501    0  0.00000000000E+00 -0.00000000000E+00 -0.12418533156E+04  0.12418533156E+04  0.00000000000E+00 0. -1.
         24    2    1    2    0    0 -0.43302183738E+02 -0.24455357484E+03  0.86797010893E+03  0.90621229017E+03  0.78530724957E+02 0.  0.
        254    2    1    2    0    0  0.43302183738E+02  0.24455357484E+03 -0.10437373209E+04  0.14017271291E+04  0.90209191287E+03 0.  0.
         23    2    4    4    0    0  0.43254557901E+03  0.28645902234E+03 -0.68040280002E+03  0.86031997535E+03  0.89710870573E+02 0.  0.
         23    2    4    4    0    0 -0.38924339528E+03 -0.41905447502E+02 -0.36333452090E+03  0.54140715374E+03  0.88562095438E+02 0.  0.
          4    1    3    3  502    0 -0.14074292477E+02 -0.65045800507E+02  0.12857302551E+03  0.14477591222E+03  0.00000000000E+00 0. -1.
         -3    1    3    3    0  502 -0.29227891261E+02 -0.17950777434E+03  0.73939708343E+03  0.76143637794E+03  0.00000000000E+00 0.  1.
         11    1    5    5    0    0  0.13925621915E+03  0.80663371134E+02 -0.14834996914E+03  0.21887573497E+03  0.00000000000E+00 0. -1.
        -11    1    5    5    0    0  0.29328935987E+03  0.20579565121E+03 -0.53205283088E+03  0.64144424038E+03  0.00000000000E+00 0.  1.
          2    1    6    6  503    0 -0.19921040865E+03  0.17536341690E+02 -0.15317450894E+03  0.25190224370E+03  0.00000000000E+00 0.  1.
         -2    1    6    6    0  503 -0.19003298663E+03 -0.59441789192E+02 -0.21016001197E+03  0.28950491004E+03  0.00000000000E+00 0. -1.
<mgrwt>
<rscale>  0 0.23012367E+04</rscale>
<asrwt>0</asrwt>
<pdfrwt beam="1">  1        2 0.19105436E+00 0.23012367E+04</pdfrwt>
<pdfrwt beam="2">  1       -1 0.16401325E+00 0.23012367E+04</pdfrwt>
<totfact> 0.50373705E+00</totfact>
</mgrwt>
</event>
<event>
12    6  0.1530859E-007  0.1814655E+04  0.7818608E-02  0.8698545E-01
         -1   -1    0    0    0  501 -0.00000000000E+00  0.00000000000E+00  0.91715570569E+03  0.91715570569E+03  0.00000000000E+00 0.  1.
          2   -1    0    0  501    0  0.00000000000E+00 -0.00000000000E+00 -0.89760492903E+03  0.89760492903E+03  0.00000000000E+00 0. -1.
         24    2    1    2    0    0  0.20770162536E+03 -0.33584268474E+03  0.57420807042E+03  0.70130481061E+03  0.78633677123E+02 0.  0.
        254    2    1    2    0    0 -0.20770162536E+03  0.33584268474E+03 -0.55465729377E+03  0.11134558241E+04  0.88102717588E+03 0.  0.
         23    2    4    4    0    0  0.14015359184E+03 -0.34158404773E+02 -0.57191718345E+03  0.59676327646E+03  0.90704561540E+02 0.  0.
         23    2    4    4    0    0 -0.34785521720E+03  0.37000108951E+03  0.17259889677E+02  0.51669254765E+03  0.93644148970E+02 0.  0.
          4    1    3    3  502    0  0.10207984773E+03 -0.94235442370E+02  0.20156375902E+03  0.24480311040E+03  0.00000000000E+00 0. -1.
         -1    1    3    3    0  502  0.10562177763E+03 -0.24160724237E+03  0.37264431140E+03  0.45650170021E+03  0.00000000000E+00 0.  1.
         11    1    5    5    0    0  0.32290087968E+01 -0.27901972493E+02 -0.52223222277E+02  0.59297651824E+02  0.00000000000E+00 0.  1.
        -11    1    5    5    0    0  0.13692458304E+03 -0.62564322795E+01 -0.51969396117E+03  0.53746562463E+03  0.00000000000E+00 0. -1.
          3    1    6    6  503    0 -0.31880499901E+03  0.33266522762E+03 -0.12269103063E+02  0.46092657979E+03  0.00000000000E+00 0. -1.
         -3    1    6    6    0  503 -0.29050218181E+02  0.37335861893E+02  0.29528992740E+02  0.55765967865E+02  0.00000000000E+00 0.  1.
<mgrwt>
<rscale>  0 0.18146553E+04</rscale>
<asrwt>0</asrwt>
<pdfrwt beam="1">  1        2 0.13809307E+00 0.18146553E+04</pdfrwt>
<pdfrwt beam="2">  1       -1 0.14110088E+00 0.18146553E+04</pdfrwt>
<totfact> 0.13006242E+01</totfact>
</mgrwt>
</event>
<event>
12    6  0.1530859E-007  0.1828591E+04  0.7818608E-02  0.8691241E-01
          2   -1    0    0  501    0  0.00000000000E+00  0.00000000000E+00  0.34253392126E+04  0.34253392126E+04  0.00000000000E+00 0. -1.
         -1   -1    0    0    0  501 -0.00000000000E+00 -0.00000000000E+00 -0.24404472696E+03  0.24404472696E+03  0.00000000000E+00 0.  1.
         24    2    1    2    0    0  0.48840684666E+03 -0.48839942517E+03  0.14514960328E+04  0.16094391677E+04  0.79865229846E+02 0.  0.
        254    2    1    2    0    0 -0.48840684666E+03  0.48839942517E+03  0.17297984528E+04  0.20599447718E+04  0.87982641995E+03 0.  0.
         23    2    4    4    0    0 -0.52605047300E+03 -0.81294352413E+02  0.82630872440E+03  0.98704863206E+03  0.90227613042E+02 0.  0.
         23    2    4    4    0    0  0.37643626338E+02  0.56969377759E+03  0.90348972840E+03  0.10728961398E+04  0.94044641239E+02 0.  0.
          4    1    3    3  502    0  0.48393652415E+03 -0.48679708053E+03  0.14157232523E+04  0.15733525619E+04  0.00000000000E+00 0. -1.
         -3    1    3    3    0  502  0.44703225084E+01 -0.16023446463E+01  0.35772780545E+02  0.36086605820E+02  0.00000000000E+00 0.  1.
         11    1    5    5    0    0 -0.20591523515E+03 -0.58202095260E+02  0.26675507940E+03  0.34197491186E+03  0.00000000000E+00 0.  1.
        -11    1    5    5    0    0 -0.32013523785E+03 -0.23092257153E+02  0.55955364500E+03  0.64507372020E+03  0.00000000000E+00 0. -1.
          1    1    6    6  503    0 -0.56921768848E+01  0.98501919690E+02  0.10035331688E+03  0.14073314204E+03  0.00000000000E+00 0. -1.
         -1    1    6    6    0  503  0.43335803223E+02  0.47119185790E+03  0.80313641152E+03  0.93216299771E+03  0.00000000000E+00 0.  1.
<mgrwt>
<rscale>  0 0.18285907E+04</rscale>
<asrwt>0</asrwt>
<pdfrwt beam="1">  1        2 0.52697523E+00 0.18285907E+04</pdfrwt>
<pdfrwt beam="2">  1       -1 0.37545345E-01 0.18285907E+04</pdfrwt>
<totfact> 0.67625497E+00</totfact>
</mgrwt>
</event>
<event>
12    6  0.1530859E-007  0.2327139E+04  0.7818608E-02  0.8467297E-01
          2   -1    0    0  501    0  0.00000000000E+00  0.00000000000E+00  0.18162938220E+04  0.18162938220E+04  0.00000000000E+00 0. -1.
         -1   -1    0    0    0  501 -0.00000000000E+00 -0.00000000000E+00 -0.74541586731E+03  0.74541586731E+03  0.00000000000E+00 0.  1.
         24    2    1    2    0    0 -0.25651158931E+03 -0.35818784240E+03  0.14282930521E+04  0.14959304278E+04  0.60745998275E+02 0.  0.
        254    2    1    2    0    0  0.25651158931E+03  0.35818784240E+03 -0.35741509737E+03  0.10657792615E+04  0.90224340209E+03 0.  0.
         23    2    4    4    0    0  0.35133443869E+03 -0.10764233378E+03 -0.43404070482E+03  0.57567033057E+03  0.89343361404E+02 0.  0.
         23    2    4    4    0    0 -0.94822849376E+02  0.46583017618E+03  0.76625607458E+02  0.49010893097E+03  0.91357291399E+02 0.  0.
          4    1    3    3  502    0 -0.21421318984E+03 -0.31282131507E+03  0.11529633779E+04  0.12137005465E+04  0.00000000000E+00 0. -1.
         -3    1    3    3    0  502 -0.42298399475E+02 -0.45366527327E+02  0.27532967413E+03  0.28222988123E+03  0.00000000000E+00 0.  1.
         11    1    5    5    0    0  0.30893060641E+03 -0.74259698608E+02 -0.40377143563E+03  0.51379372772E+03  0.00000000000E+00 0.  1.
        -11    1    5    5    0    0  0.42403832278E+02 -0.33382635176E+02 -0.30269269198E+02  0.61876602855E+02  0.00000000000E+00 0. -1.
          1    1    6    6  503    0  0.48288405360E+01 -0.20140703345E+00  0.69653908604E+01  0.84779086781E+01  0.00000000000E+00 0. -1.
         -1    1    6    6    0  503 -0.99651689912E+02  0.46603158321E+03  0.69660216597E+02  0.48163102229E+03  0.00000000000E+00 0.  1.
<mgrwt>
<rscale>  0 0.23271392E+04</rscale>
<asrwt>0</asrwt>
<pdfrwt beam="1">  1        2 0.27942982E+00 0.23271392E+04</pdfrwt>
<pdfrwt beam="2">  1       -1 0.11467936E+00 0.23271392E+04</pdfrwt>
<totfact> 0.60136772E+00</totfact>
</mgrwt>
</event>
<event>
12    6  0.1530859E-007  0.1123490E+04  0.7818608E-02  0.9182595E-01
         -1   -1    0    0    0  501 -0.00000000000E+00  0.00000000000E+00  0.23693871390E+03  0.23693871390E+03  0.00000000000E+00 0.  1.
          2   -1    0    0  501    0  0.00000000000E+00 -0.00000000000E+00 -0.13318106354E+04  0.13318106354E+04  0.00000000000E+00 0. -1.
         24    2    1    2    0    0  0.15125300058E+03 -0.66445068673E+02 -0.29462945931E+03  0.34702576575E+03  0.79548390692E+02 0.  0.
        254    2    1    2    0    0 -0.15125300058E+03  0.66445068673E+02 -0.80024246217E+03  0.12217235835E+04  0.90825552514E+03 0.  0.
         23    2    4    4    0    0 -0.40230003450E+03 -0.26814326350E+03 -0.47737361842E+03  0.68543503495E+03  0.90495790289E+02 0.  0.
         23    2    4    4    0    0  0.25104703392E+03  0.33458833217E+03 -0.32286884375E+03  0.53628854858E+03  0.91581394443E+02 0.  0.
          2    1    3    3  502    0  0.11015258724E+03 -0.45440992265E+02 -0.26904917851E+03  0.29425488392E+03  0.00000000000E+00 0. -1.
         -1    1    3    3    0  502  0.41100413344E+02 -0.21004076409E+02 -0.25580280798E+02  0.52770881825E+02  0.00000000000E+00 0.  1.
         11    1    5    5    0    0 -0.82763586628E+02 -0.30016588986E+02 -0.50654309299E+02  0.10157098964E+03  0.00000000000E+00 0.  1.
        -11    1    5    5    0    0 -0.31953644787E+03 -0.23812667451E+03 -0.42671930912E+03  0.58386404531E+03  0.00000000000E+00 0. -1.
          3    1    6    6  503    0  0.23831683796E+03  0.33670666775E+03 -0.32208525833E+03  0.52335954085E+03  0.00000000000E+00 0. -1.
         -3    1    6    6    0  503  0.12730195958E+02 -0.21183355797E+01 -0.78358541739E+00  0.12929007729E+02  0.00000000000E+00 0.  1.
<mgrwt>
<rscale>  0 0.11234901E+04</rscale>
<asrwt>0</asrwt>
<pdfrwt beam="1">  1        2 0.20489394E+00 0.11234901E+04</pdfrwt>
<pdfrwt beam="2">  1       -1 0.36452110E-01 0.11234901E+04</pdfrwt>
<totfact> 0.12898683E+02</totfact>
</mgrwt>
</event>
<event>
12    6  0.1530859E-007  0.1318585E+04  0.7818608E-02  0.9014956E-01
          2   -1    0    0  501    0  0.00000000000E+00  0.00000000000E+00  0.56614047846E+03  0.56614047846E+03  0.00000000000E+00 0. -1.
         -1   -1    0    0    0  501 -0.00000000000E+00 -0.00000000000E+00 -0.76777114997E+03  0.76777114997E+03  0.00000000000E+00 0.  1.
         24    2    1    2    0    0 -0.11754528754E+02  0.81368865203E+02 -0.34795125977E+03  0.36609096022E+03  0.78698480330E+02 0.  0.
        254    2    1    2    0    0  0.11754528754E+02 -0.81368865203E+02  0.14632058825E+03  0.96782066821E+03  0.95315689690E+03 0.  0.
         23    2    4    4    0    0 -0.45571638190E+03  0.16877681904E+02  0.12577841601E+03  0.48126457551E+03  0.88504829404E+02 0.  0.
         23    2    4    4    0    0  0.46747091065E+03 -0.98246547107E+02  0.20542172239E+02  0.48655609270E+03  0.90185443277E+02 0.  0.
          2    1    3    3  502    0  0.88554169378E+01 -0.10220900032E+02 -0.15177806949E+02  0.20328576694E+02  0.00000000000E+00 0. -1.
         -1    1    3    3    0  502 -0.20609945692E+02  0.91589765235E+02 -0.33277345282E+03  0.34576238352E+03  0.00000000000E+00 0.  1.
         11    1    5    5    0    0 -0.45280352606E+03  0.76901328430E+01  0.12936037820E+03  0.47098224893E+03  0.00000000000E+00 0.  1.
        -11    1    5    5    0    0 -0.29128558377E+01  0.91875490612E+01 -0.35819621827E+01  0.10282326583E+02  0.00000000000E+00 0. -1.
          1    1    6    6  503    0  0.21892375613E+03 -0.21395750551E+01 -0.37834859532E+01  0.21896690058E+03  0.00000000000E+00 0. -1.
         -1    1    6    6    0  503  0.24854715452E+03 -0.96106972052E+02  0.24325658192E+02  0.26758919213E+03  0.00000000000E+00 0.  1.
<mgrwt>
<rscale>  0 0.13185846E+04</rscale>
<asrwt>0</asrwt>
<pdfrwt beam="1">  1        2 0.87098536E-01 0.13185846E+04</pdfrwt>
<pdfrwt beam="2">  1       -1 0.11811864E+00 0.13185846E+04</pdfrwt>
<totfact> 0.38310398E+01</totfact>
</mgrwt>
</event>
<event>
12    6  0.1530859E-007  0.1432950E+04  0.7818608E-02  0.8930307E-01
          2   -1    0    0  501    0  0.00000000000E+00  0.00000000000E+00  0.12535437479E+04  0.12535437479E+04  0.00000000000E+00 0. -1.
         -1   -1    0    0    0  501 -0.00000000000E+00 -0.00000000000E+00 -0.40950796707E+03  0.40950796707E+03  0.00000000000E+00 0.  1.
         24    2    1    2    0    0 -0.28475201017E+03  0.16784491435E+03  0.57217136807E+03  0.66561695068E+03  0.80063899598E+02 0.  0.
        254    2    1    2    0    0  0.28475201017E+03 -0.16784491435E+03  0.27186441277E+03  0.99743476431E+03  0.90094962543E+03 0.  0.
         23    2    4    4    0    0  0.39661110855E+03 -0.23387824099E+03  0.52031668155E+03  0.70164162187E+03  0.97837178030E+02 0.  0.
         23    2    4    4    0    0 -0.11185909838E+03  0.66033326640E+02 -0.24845226878E+03  0.29579314244E+03  0.94298436568E+02 0.  0.
          2    1    3    3  502    0 -0.21924513707E+03  0.89102839392E+02  0.37512246094E+03  0.44353647743E+03  0.00000000000E+00 0. -1.
         -1    1    3    3    0  502 -0.65506873100E+02  0.78742074962E+02  0.19704890713E+03  0.22208047324E+03  0.00000000000E+00 0.  1.
         11    1    5    5    0    0  0.37640891358E+03 -0.22194542100E+03  0.51854825994E+03  0.67811189195E+03  0.00000000000E+00 0. -1.
        -11    1    5    5    0    0  0.20202194976E+02 -0.11932819991E+02  0.17684216056E+01  0.23529729913E+02  0.00000000000E+00 0.  1.
          4    1    6    6  503    0 -0.40850452829E+01 -0.14918979371E+02 -0.72574174604E+02  0.74204274539E+02  0.00000000000E+00 0.  1.
         -4    1    6    6    0  503 -0.10777405310E+03  0.80952306011E+02 -0.17587809417E+03  0.22158886790E+03  0.00000000000E+00 0. -1.
<mgrwt>
<rscale>  0 0.14329496E+04</rscale>
<asrwt>0</asrwt>
<pdfrwt beam="1">  1        2 0.19285288E+00 0.14329496E+04</pdfrwt>
<pdfrwt beam="2">  1       -1 0.63001226E-01 0.14329496E+04</pdfrwt>
<totfact> 0.49793683E+01</totfact>
</mgrwt>
</event>
<event>
12    6  0.1530859E-007  0.2102504E+04  0.7818608E-02  0.8560141E-01
         -1   -1    0    0    0  501 -0.00000000000E+00  0.00000000000E+00  0.65339800385E+03  0.65339800385E+03  0.00000000000E+00 0.  1.
          2   -1    0    0  501    0  0.00000000000E+00 -0.00000000000E+00 -0.16913591037E+04  0.16913591037E+04  0.00000000000E+00 0. -1.
         24    2    1    2    0    0 -0.48312683587E+03  0.69397894874E+03 -0.28057073358E+03  0.89434185219E+03  0.78160675527E+02 0.  0.
        254    2    1    2    0    0  0.48312683587E+03 -0.69397894874E+03 -0.75739036622E+03  0.14504152553E+04  0.90279893951E+03 0.  0.
         23    2    4    4    0    0  0.73632744377E+03 -0.45291231793E+03 -0.46685562993E+03  0.98673759952E+03  0.91592788569E+02 0.  0.
         23    2    4    4    0    0 -0.25320060790E+03 -0.24106663081E+03 -0.29053473629E+03  0.46367765580E+03  0.91448713332E+02 0.  0.
          2    1    3    3  502    0 -0.23956779848E+03  0.33322924309E+03 -0.17680980573E+03  0.44687376956E+03  0.00000000000E+00 0. -1.
         -1    1    3    3    0  502 -0.24355903739E+03  0.36074970565E+03 -0.10376092785E+03  0.44746808263E+03  0.00000000000E+00 0.  1.
         11    1    5    5    0    0  0.33023481688E+03 -0.24862163778E+03 -0.19478475638E+03  0.45695607488E+03  0.00000000000E+00 0.  1.
        -11    1    5    5    0    0  0.40609262689E+03 -0.20429068015E+03 -0.27207087355E+03  0.52978152463E+03  0.00000000000E+00 0. -1.
          1    1    6    6  503    0 -0.14469953849E+03 -0.12032622858E+03 -0.99122404564E+02  0.21270074943E+03  0.00000000000E+00 0. -1.
         -1    1    6    6    0  503 -0.10850106941E+03 -0.12074040223E+03 -0.19141233173E+03  0.25097690637E+03  0.00000000000E+00 0.  1.
<mgrwt>
<rscale>  0 0.21025039E+04</rscale>
<asrwt>0</asrwt>
<pdfrwt beam="1">  1        2 0.26020909E+00 0.21025039E+04</pdfrwt>
<pdfrwt beam="2">  1       -1 0.10052277E+00 0.21025039E+04</pdfrwt>
<totfact> 0.97991575E+00</totfact>
</mgrwt>
</event>
<event>
12    6  0.1530859E-007  0.2234812E+04  0.7818608E-02  0.8504077E-01
          2   -1    0    0  501    0  0.00000000000E+00  0.00000000000E+00  0.21830350343E+04  0.21830350343E+04  0.00000000000E+00 0. -1.
         -1   -1    0    0    0  501 -0.00000000000E+00 -0.00000000000E+00 -0.57195442934E+03  0.57195442934E+03  0.00000000000E+00 0.  1.
         24    2    1    2    0    0  0.54586224552E+03  0.40370159136E+03 -0.11340579521E+03  0.69344897637E+03  0.84083544706E+02 0.  0.
        254    2    1    2    0    0 -0.54586224552E+03 -0.40370159136E+03  0.17244864001E+04  0.20615404873E+04  0.90285949647E+03 0.  0.
         23    2    4    4    0    0 -0.64629906405E+03 -0.92497850265E+01  0.71060955314E+03  0.96524543634E+03  0.94576829231E+02 0.  0.
         23    2    4    4    0    0  0.10043681854E+03 -0.39445180633E+03  0.10138768470E+04  0.10962950509E+04  0.90756794489E+02 0.  0.
          4    1    3    3  502    0  0.21511628441E+00  0.12801228327E+02 -0.36791355377E+01  0.13321177125E+02  0.00000000000E+00 0. -1.
         -3    1    3    3    0  502  0.54564712923E+03  0.39090036303E+03 -0.10972665967E+03  0.68012779924E+03  0.00000000000E+00 0.  1.
         11    1    5    5    0    0 -0.17521457483E+03 -0.37715371172E+02  0.16222767524E+03  0.24174452439E+03  0.00000000000E+00 0.  1.
        -11    1    5    5    0    0 -0.47108448922E+03  0.28465586146E+02  0.54838187790E+03  0.72350091195E+03  0.00000000000E+00 0. -1.
          3    1    6    6  503    0  0.89352327780E+02 -0.21248728522E+03  0.64222170479E+03  0.68233672257E+03  0.00000000000E+00 0. -1.
         -3    1    6    6    0  503  0.11084490757E+02 -0.18196452112E+03  0.37165514221E+03  0.41395832836E+03  0.00000000000E+00 0.  1.
<mgrwt>
<rscale>  0 0.22348123E+04</rscale>
<asrwt>0</asrwt>
<pdfrwt beam="1">  1        2 0.33585154E+00 0.22348123E+04</pdfrwt>
<pdfrwt beam="2">  1       -1 0.87992990E-01 0.22348123E+04</pdfrwt>
<totfact> 0.69497810E+00</totfact>
</mgrwt>
</event>
<event>
12    6  0.1530859E-007  0.2236447E+04  0.7818608E-02  0.8503409E-01
         -1   -1    0    0    0  501 -0.00000000000E+00  0.00000000000E+00  0.12311115428E+04  0.12311115428E+04  0.00000000000E+00 0.  1.
          2   -1    0    0  501    0  0.00000000000E+00 -0.00000000000E+00 -0.10156867974E+04  0.10156867974E+04  0.00000000000E+00 0. -1.
         24    2    1    2    0    0  0.49830006558E+03  0.45260305854E+03 -0.56011060338E+03  0.87941793416E+03  0.80619668421E+02 0.  0.
        254    2    1    2    0    0 -0.49830006558E+03 -0.45260305854E+03  0.77553534886E+03  0.13673804061E+04  0.90284085727E+03 0.  0.
         23    2    4    4    0    0 -0.27734634211E+03 -0.69175750486E+03  0.36518554842E+03  0.83535634085E+03  0.94922560027E+02 0.  0.
         23    2    4    4    0    0 -0.22095372347E+03  0.23915444632E+03  0.41034980044E+03  0.53202406520E+03  0.92990591577E+02 0.  0.
          2    1    3    3  502    0  0.34002741692E+02  0.22465894637E+02 -0.61074945421E+02  0.73423782404E+02  0.00000000000E+00 0. -1.
         -1    1    3    3    0  502  0.46429732389E+03  0.43013716390E+03 -0.49903565796E+03  0.80599415175E+03  0.00000000000E+00 0.  1.
         11    1    5    5    0    0 -0.23319102219E+03 -0.62705732080E+03  0.35185951992E+03  0.75589950268E+03  0.00000000000E+00 0. -1.
        -11    1    5    5    0    0 -0.44155319922E+02 -0.64700184066E+02  0.13326028495E+02  0.79456838164E+02  0.00000000000E+00 0.  1.
          1    1    6    6  503    0 -0.19207374868E+03  0.14657122805E+03  0.29575788016E+03  0.38190073776E+03  0.00000000000E+00 0. -1.
         -1    1    6    6    0  503 -0.28879974792E+02  0.92583218271E+02  0.11459192028E+03  0.15012332745E+03  0.00000000000E+00 0.  1.
<mgrwt>
<rscale>  0 0.22364470E+04</rscale>
<asrwt>0</asrwt>
<pdfrwt beam="1">  1        2 0.15625951E+00 0.22364470E+04</pdfrwt>
<pdfrwt beam="2">  1       -1 0.18940177E+00 0.22364470E+04</pdfrwt>
<totfact> 0.45634553E+00</totfact>
</mgrwt>
</event>
<event>
12    6  0.1530859E-007  0.3083601E+04  0.7818608E-02  0.8220253E-01
         -1   -1    0    0    0  501 -0.00000000000E+00  0.00000000000E+00  0.22054285957E+04  0.22054285957E+04  0.00000000000E+00 0.  1.
          2   -1    0    0  501    0  0.00000000000E+00 -0.00000000000E+00 -0.10778625618E+04  0.10778625618E+04  0.00000000000E+00 0. -1.
         24    2    1    2    0    0 -0.94163751524E+03  0.40103980463E+03 -0.50245556147E+03  0.11429441973E+04  0.79659976899E+02 0.  0.
        254    2    1    2    0    0  0.94163751524E+03 -0.40103980463E+03  0.16300215954E+04  0.21403469602E+04  0.93626949840E+03 0.  0.
         23    2    4    4    0    0  0.25730671163E+03 -0.37427673643E+03  0.11591277202E+03  0.47601733363E+03  0.82866832433E+02 0.  0.
         23    2    4    4    0    0  0.68433080361E+03 -0.26763068196E+02  0.15141088234E+04  0.16643296266E+04  0.91883982756E+02 0.  0.
          4    1    3    3  502    0 -0.43762271156E+03  0.15329784764E+03 -0.25558077863E+03  0.52946709263E+03  0.00000000000E+00 0. -1.
         -3    1    3    3    0  502 -0.50401480368E+03  0.24774195698E+03 -0.24687478284E+03  0.61347710469E+03  0.00000000000E+00 0.  1.
         11    1    5    5    0    0  0.29875162653E+02 -0.22770419805E+02 -0.99167392096E+01  0.38850470759E+02  0.00000000000E+00 0. -1.
        -11    1    5    5    0    0  0.22743154898E+03 -0.35150631663E+03  0.12582951123E+03  0.43716686287E+03  0.00000000000E+00 0.  1.
          3    1    6    6  503    0  0.46243339385E+03 -0.58211298511E+02  0.10591770595E+04  0.11571902360E+04  0.00000000000E+00 0. -1.
         -3    1    6    6    0  503  0.22189740976E+03  0.31448230315E+02  0.45493176391E+03  0.50713939056E+03  0.00000000000E+00 0.  1.
<mgrwt>
<rscale>  0 0.30836011E+04</rscale>
<asrwt>0</asrwt>
<pdfrwt beam="1">  1        2 0.16582501E+00 0.30836011E+04</pdfrwt>
<pdfrwt beam="2">  1       -1 0.33929671E+00 0.30836011E+04</pdfrwt>
<totfact> 0.39825820E-01</totfact>
</mgrwt>
</event>
<event>
12    6  0.1530859E-007  0.2364448E+04  0.7818608E-02  0.8452935E-01
          2   -1    0    0  501    0  0.00000000000E+00  0.00000000000E+00  0.33463470200E+04  0.33463470200E+04  0.00000000000E+00 0. -1.
         -1   -1    0    0    0  501 -0.00000000000E+00 -0.00000000000E+00 -0.41766553658E+03  0.41766553658E+03  0.00000000000E+00 0.  1.
         24    2    1    2    0    0 -0.46003108290E+03 -0.86405461303E+03  0.87440086044E+03  0.13149114120E+04  0.78715850166E+02 0.  0.
        254    2    1    2    0    0  0.46003108290E+03  0.86405461303E+03  0.20542806229E+04  0.24491011446E+04  0.90543280644E+03 0.  0.
         23    2    4    4    0    0  0.23732086452E+03 -0.11197133499E+03  0.76709988789E+03  0.81595719931E+03  0.92114822325E+02 0.  0.
         23    2    4    4    0    0  0.22271021838E+03  0.97602594802E+03  0.12871807350E+04  0.16331439453E+04  0.89991158915E+02 0.  0.
          4    1    3    3  502    0 -0.43731225438E+03 -0.84590871894E+03  0.83938898988E+03  0.12694004273E+04  0.00000000000E+00 0. -1.
         -3    1    3    3    0  502 -0.22718828527E+02 -0.18145894087E+02  0.35011870560E+02  0.45510984630E+02  0.00000000000E+00 0.  1.
         11    1    5    5    0    0  0.22316641930E+02  0.15080081742E+02  0.10264018856E+03  0.10611526600E+03  0.00000000000E+00 0.  1.
        -11    1    5    5    0    0  0.21500422259E+03 -0.12705141673E+03  0.66445969934E+03  0.70984193330E+03  0.00000000000E+00 0. -1.
          2    1    6    6  503    0  0.85324239611E+02  0.55682561177E+03  0.69185342718E+03  0.89218616471E+03  0.00000000000E+00 0. -1.
         -2    1    6    6    0  503  0.13738597877E+03  0.41920033625E+03  0.59532730785E+03  0.74095778055E+03  0.00000000000E+00 0.  1.
<mgrwt>
<rscale>  0 0.23644482E+04</rscale>
<asrwt>0</asrwt>
<pdfrwt beam="1">  1        2 0.51482260E+00 0.23644482E+04</pdfrwt>
<pdfrwt beam="2">  1       -1 0.64256239E-01 0.23644482E+04</pdfrwt>
<totfact> 0.26166288E+00</totfact>
</mgrwt>
</event>
<event>
12    6  0.1530859E-007  0.1490707E+04  0.7818608E-02  0.8890656E-01
         -1   -1    0    0    0  501 -0.00000000000E+00  0.00000000000E+00  0.25905741004E+03  0.25905741004E+03  0.00000000000E+00 0.  1.
          2   -1    0    0  501    0  0.00000000000E+00 -0.00000000000E+00 -0.21445128833E+04  0.21445128833E+04  0.00000000000E+00 0. -1.
         24    2    1    2    0    0  0.28601988607E+03  0.11607960169E+03 -0.48064665796E+02  0.32243142420E+03  0.79812042063E+02 0.  0.
        254    2    1    2    0    0 -0.28601988607E+03 -0.11607960169E+03 -0.18373908075E+04  0.20811388691E+04  0.92728213837E+03 0.  0.
         23    2    4    4    0    0  0.22804036747E+02 -0.42927517188E+03 -0.47771937567E+03  0.64916413813E+03  0.91657400451E+02 0.  0.
         23    2    4    4    0    0 -0.30882392282E+03  0.31319557019E+03 -0.13596714318E+04  0.14319747310E+04  0.91550790957E+02 0.  0.
          4    1    3    3  502    0  0.49066990234E+02 -0.84454275412E+01  0.31776772495E+01  0.49889802662E+02  0.00000000000E+00 0. -1.
         -3    1    3    3    0  502  0.23695289584E+03  0.12452502923E+03 -0.51242343046E+02  0.27254162154E+03  0.00000000000E+00 0.  1.
         11    1    5    5    0    0  0.16296139536E+02 -0.32496239216E+02 -0.77272803891E+02  0.85397048826E+02  0.00000000000E+00 0. -1.
        -11    1    5    5    0    0  0.65078972113E+01 -0.39677893267E+03 -0.40044657178E+03  0.56376708931E+03  0.00000000000E+00 0.  1.
          4    1    6    6  503    0 -0.26873493060E+03  0.26682180802E+03 -0.10477790635E+04  0.11141154815E+04  0.00000000000E+00 0. -1.
         -4    1    6    6    0  503 -0.40088992217E+02  0.46373762172E+02 -0.31189236824E+03  0.31785924948E+03  0.00000000000E+00 0.  1.
<mgrwt>
<rscale>  0 0.14907072E+04</rscale>
<asrwt>0</asrwt>
<pdfrwt beam="1">  1        2 0.32992507E+00 0.14907072E+04</pdfrwt>
<pdfrwt beam="2">  1       -1 0.39854985E-01 0.14907072E+04</pdfrwt>
<totfact> 0.37497204E+01</totfact>
</mgrwt>
</event>
<event>
12    6  0.1530859E-007  0.1332717E+04  0.7818608E-02  0.9004015E-01
          2   -1    0    0  501    0  0.00000000000E+00  0.00000000000E+00  0.29869349349E+04  0.29869349349E+04  0.00000000000E+00 0. -1.
         -1   -1    0    0    0  501 -0.00000000000E+00 -0.00000000000E+00 -0.14865858750E+03  0.14865858750E+03  0.00000000000E+00 0.  1.
         24    2    1    2    0    0 -0.17209799631E+03  0.11103270712E+03  0.93378244414E+02  0.23904449043E+03  0.80478503274E+02 0.  0.
        254    2    1    2    0    0  0.17209799631E+03 -0.11103270712E+03  0.27448981030E+04  0.28965490319E+04  0.90198931058E+03 0.  0.
         23    2    4    4    0    0  0.31221208145E+03  0.13282917620E+02  0.26469604707E+04  0.26668094196E+04  0.88430351271E+02 0.  0.
         23    2    4    4    0    0 -0.14011408514E+03 -0.12431562474E+03  0.97937632236E+02  0.22973961237E+03  0.90012100712E+02 0.  0.
          4    1    3    3  502    0  0.83864781743E+01  0.43005190391E+01 -0.20466584804E+00  0.94270551225E+01  0.00000000000E+00 0. -1.
         -3    1    3    3    0  502 -0.18048447449E+03  0.10673218808E+03  0.93582910262E+02  0.22961743531E+03  0.00000000000E+00 0.  1.
         11    1    5    5    0    0  0.28812564933E+03  0.27674358789E+02  0.21985743470E+04  0.22175462609E+04  0.00000000000E+00 0. -1.
        -11    1    5    5    0    0  0.24086432119E+02 -0.14391441170E+02  0.44838612373E+03  0.44926315868E+03  0.00000000000E+00 0.  1.
          4    1    6    6  503    0 -0.74328339584E+02 -0.39092167181E+02  0.87966486526E+02  0.12161826488E+03  0.00000000000E+00 0.  1.
         -4    1    6    6    0  503 -0.65785745555E+02 -0.85223457557E+02  0.99711457101E+01  0.10812134749E+03  0.00000000000E+00 0. -1.
<mgrwt>
<rscale>  0 0.13327168E+04</rscale>
<asrwt>0</asrwt>
<pdfrwt beam="1">  1        2 0.45952841E+00 0.13327168E+04</pdfrwt>
<pdfrwt beam="2">  1       -1 0.22870554E-01 0.13327168E+04</pdfrwt>
<totfact> 0.32567931E+01</totfact>
</mgrwt>
</event>
<event>
12    6  0.1530859E-007  0.2760344E+04  0.7818608E-02  0.8315687E-01
         -1   -1    0    0    0  501 -0.00000000000E+00  0.00000000000E+00  0.15274829228E+04  0.15274829228E+04  0.00000000000E+00 0.  1.
          2   -1    0    0  501    0  0.00000000000E+00 -0.00000000000E+00 -0.12470674123E+04  0.12470674123E+04  0.00000000000E+00 0. -1.
         24    2    1    2    0    0 -0.11811635641E+04 -0.29789133288E+03 -0.79678978834E+02  0.12234367976E+04  0.81007696168E+02 0.  0.
        254    2    1    2    0    0  0.11811635641E+04  0.29789133288E+03  0.36009448935E+03  0.15511135375E+04  0.89016771105E+03 0.  0.
         23    2    4    4    0    0  0.10763277077E+04  0.28945255788E+03 -0.48087313311E+02  0.11198527058E+04  0.97434979780E+02 0.  0.
         23    2    4    4    0    0  0.10483585637E+03  0.84387749970E+01  0.40818180266E+03  0.43126083178E+03  0.91168806594E+02 0.  0.
          2    1    3    3  502    0 -0.93725190574E+03 -0.22131678280E+03 -0.92543883981E+02  0.96746401671E+03  0.00000000000E+00 0. -1.
         -1    1    3    3    0  502 -0.24391165831E+03 -0.76574550076E+02  0.12864905147E+02  0.25597278091E+03  0.00000000000E+00 0.  1.
         11    1    5    5    0    0  0.24207249565E+03  0.70054936849E+02  0.29606647583E+02  0.25373872568E+03  0.00000000000E+00 0.  1.
        -11    1    5    5    0    0  0.83425521204E+03  0.21939762103E+03 -0.77693960894E+02  0.86611398008E+03  0.00000000000E+00 0. -1.
          1    1    6    6  503    0  0.66397906900E+02  0.49593938078E+02  0.24349806416E+03  0.25721498398E+03  0.00000000000E+00 0. -1.
         -1    1    6    6    0  503  0.38437949465E+02 -0.41155163081E+02  0.16468373850E+03  0.17404584779E+03  0.00000000000E+00 0.  1.
<mgrwt>
<rscale>  0 0.27603436E+04</rscale>
<asrwt>0</asrwt>
<pdfrwt beam="1">  1        2 0.19185653E+00 0.27603436E+04</pdfrwt>
<pdfrwt beam="2">  1       -1 0.23499737E+00 0.27603436E+04</pdfrwt>
<totfact> 0.15449231E+00</totfact>
</mgrwt>
</event>
<event>
12    6  0.1530859E-007  0.1586595E+04  0.7818608E-02  0.8828826E-01
          2   -1    0    0  501    0  0.00000000000E+00  0.00000000000E+00  0.13313292882E+04  0.13313292882E+04  0.00000000000E+00 0. -1.
         -1   -1    0    0    0  501 -0.00000000000E+00 -0.00000000000E+00 -0.47270107473E+03  0.47270107473E+03  0.00000000000E+00 0.  1.
         24    2    1    2    0    0 -0.42687386705E+03  0.15493705816E+03  0.62344085079E+03  0.77573434563E+03  0.82816002042E+02 0.  0.
        254    2    1    2    0    0  0.42687386705E+03 -0.15493705816E+03  0.23518736266E+03  0.10282960173E+04  0.89210583073E+03 0.  0.
         23    2    4    4    0    0  0.99216419082E+02  0.35942289531E+03  0.83248494622E+02  0.39276249737E+03  0.91122730404E+02 0.  0.
         23    2    4    4    0    0  0.32765744797E+03 -0.51435995346E+03  0.15193886804E+03  0.63553351990E+03  0.94296714481E+02 0.  0.
          4    1    3    3  502    0 -0.28651902755E+03  0.97250969959E+02  0.34706847828E+03  0.46044264889E+03  0.00000000000E+00 0. -1.
         -3    1    3    3    0  502 -0.14035483950E+03  0.57686088199E+02  0.27637237251E+03  0.31529169674E+03  0.00000000000E+00 0.  1.
         11    1    5    5    0    0  0.36323884343E+02  0.15531879535E+03  0.81626420930E+02  0.17918210111E+03  0.00000000000E+00 0.  1.
        -11    1    5    5    0    0  0.62892534739E+02  0.20410409995E+03  0.16220736925E+01  0.21358039626E+03  0.00000000000E+00 0. -1.
          2    1    6    6  503    0  0.27392856324E+03 -0.48151055793E+03  0.13211380479E+03  0.56951148590E+03  0.00000000000E+00 0. -1.
         -2    1    6    6    0  503  0.53728884727E+02 -0.32849395536E+02  0.19825063241E+02  0.66022034001E+02  0.00000000000E+00 0.  1.
<mgrwt>
<rscale>  0 0.15865948E+04</rscale>
<asrwt>0</asrwt>
<pdfrwt beam="1">  1        2 0.20481989E+00 0.15865948E+04</pdfrwt>
<pdfrwt beam="2">  1       -1 0.72723243E-01 0.15865948E+04</pdfrwt>
<totfact> 0.33072515E+01</totfact>
</mgrwt>
</event>
<event>
12    6  0.1530859E-007  0.1322104E+04  0.7818608E-02  0.9012217E-01
         -1   -1    0    0    0  501 -0.00000000000E+00  0.00000000000E+00  0.26033986708E+03  0.26033986708E+03  0.00000000000E+00 0.  1.
          2   -1    0    0  501    0  0.00000000000E+00 -0.00000000000E+00 -0.16785369014E+04  0.16785369014E+04  0.00000000000E+00 0. -1.
         24    2    1    2    0    0  0.50332044381E+02  0.21100703590E+03 -0.78568247390E+03  0.81905611225E+03  0.80614398975E+02 0.  0.
        254    2    1    2    0    0 -0.50332044381E+02 -0.21100703590E+03 -0.63251456036E+03  0.11198206562E+04  0.89825739577E+03 0.  0.
         23    2    4    4    0    0  0.12049292671E+03  0.31338191157E+03 -0.14268479439E+03  0.37667791034E+03  0.93811138438E+02 0.  0.
         23    2    4    4    0    0 -0.17082497109E+03 -0.52438894747E+03 -0.48982976597E+03  0.74314274585E+03  0.90349333691E+02 0.  0.
          2    1    3    3  502    0  0.29199166820E+02  0.17034383623E+03 -0.70867117473E+03  0.72944118870E+03  0.00000000000E+00 0. -1.
         -1    1    3    3    0  502  0.21132877562E+02  0.40663199674E+02 -0.77011299174E+02  0.89614923547E+02  0.00000000000E+00 0.  1.
         11    1    5    5    0    0  0.99170924632E+02  0.30471200097E+03 -0.14813021469E+03  0.35302526302E+03  0.00000000000E+00 0. -1.
        -11    1    5    5    0    0  0.21322002082E+02  0.86699106031E+01  0.54454203016E+01  0.23652647313E+02  0.00000000000E+00 0.  1.
          3    1    6    6  503    0 -0.72810272658E+02 -0.28610760241E+03 -0.31530984825E+03  0.43194814083E+03  0.00000000000E+00 0. -1.
         -3    1    6    6    0  503 -0.98014698437E+02 -0.23828134506E+03 -0.17451991773E+03  0.31119460502E+03  0.00000000000E+00 0.  1.
<mgrwt>
<rscale>  0 0.13221045E+04</rscale>
<asrwt>0</asrwt>
<pdfrwt beam="1">  1        2 0.25823645E+00 0.13221045E+04</pdfrwt>
<pdfrwt beam="2">  1       -1 0.40052287E-01 0.13221045E+04</pdfrwt>
<totfact> 0.68289682E+01</totfact>
</mgrwt>
</event>
<event>
12    6  0.1530859E-007  0.2755722E+04  0.7818608E-02  0.8317148E-01
         -1   -1    0    0    0  501 -0.00000000000E+00  0.00000000000E+00  0.18102575044E+04  0.18102575044E+04  0.00000000000E+00 0.  1.
          2   -1    0    0  501    0  0.00000000000E+00 -0.00000000000E+00 -0.10487462077E+04  0.10487462077E+04  0.00000000000E+00 0. -1.
         24    2    1    2    0    0  0.46812955294E+03  0.11196158091E+04  0.13375437805E+03  0.12234723064E+04  0.79431810879E+02 0.  0.
        254    2    1    2    0    0 -0.46812955294E+03 -0.11196158091E+04  0.62775691859E+03  0.16355314057E+04  0.89899910555E+03 0.  0.
         23    2    4    4    0    0 -0.47812434125E+03 -0.88358153506E+03  0.83401404033E+03  0.13088823116E+04  0.90963021337E+02 0.  0.
         23    2    4    4    0    0  0.99947883067E+01 -0.23603427405E+03 -0.20625712174E+03  0.32664909412E+03  0.91354015236E+02 0.  0.
          2    1    3    3  502    0  0.45311625553E+03  0.11077674708E+04  0.12917417751E+03  0.12038060801E+04  0.00000000000E+00 0. -1.
         -1    1    3    3    0  502  0.15013297407E+02  0.11848338293E+02  0.45802005385E+01  0.19666226285E+02  0.00000000000E+00 0.  1.
         11    1    5    5    0    0 -0.42881356275E+03 -0.72120695291E+03  0.69271016229E+03  0.10880569422E+04  0.00000000000E+00 0. -1.
        -11    1    5    5    0    0 -0.49310778498E+02 -0.16237458215E+03  0.14130387804E+03  0.22082536936E+03  0.00000000000E+00 0.  1.
          4    1    6    6  503    0  0.22675412175E+02 -0.19771272447E+03 -0.20579733682E+03  0.28628139928E+03  0.00000000000E+00 0. -1.
         -4    1    6    6    0  503 -0.12680623869E+02 -0.38321549583E+02 -0.45978492203E+00  0.40367694836E+02  0.00000000000E+00 0.  1.
<mgrwt>
<rscale>  0 0.27557218E+04</rscale>
<asrwt>0</asrwt>
<pdfrwt beam="1">  1        2 0.16134557E+00 0.27557218E+04</pdfrwt>
<pdfrwt beam="2">  1       -1 0.27850115E+00 0.27557218E+04</pdfrwt>
<totfact> 0.10623032E+00</totfact>
</mgrwt>
</event>
<event>
12    6  0.1530859E-007  0.2224057E+04  0.7818608E-02  0.8508481E-01
         -1   -1    0    0    0  501 -0.00000000000E+00  0.00000000000E+00  0.77040609268E+03  0.77040609268E+03  0.00000000000E+00 0.  1.
          2   -1    0    0  501    0  0.00000000000E+00 -0.00000000000E+00 -0.16051368637E+04  0.16051368637E+04  0.00000000000E+00 0. -1.
         24    2    1    2    0    0 -0.61988857673E+03 -0.62103894922E+03 -0.66165240561E+03  0.11020798561E+04  0.82733786784E+02 0.  0.
        254    2    1    2    0    0  0.61988857673E+03  0.62103894922E+03 -0.17307836543E+03  0.12734631002E+04  0.90653236186E+03 0.  0.
         23    2    4    4    0    0 -0.36487704071E+02  0.48086212812E+03  0.16327832908E+03  0.51705501062E+03  0.90146172715E+02 0.  0.
         23    2    4    4    0    0  0.65637628080E+03  0.14017682110E+03 -0.33635669450E+03  0.75640808962E+03  0.92401347107E+02 0.  0.
          4    1    3    3  502    0 -0.22353004606E+03 -0.27836404170E+03 -0.28455794480E+03  0.45653635688E+03  0.00000000000E+00 0. -1.
         -3    1    3    3    0  502 -0.39635853067E+03 -0.34267490751E+03 -0.37709446080E+03  0.64554349926E+03  0.00000000000E+00 0.  1.
         11    1    5    5    0    0 -0.29593755896E+02  0.24443471931E+03  0.37172098116E+02  0.24900981361E+03  0.00000000000E+00 0. -1.
        -11    1    5    5    0    0 -0.68939481756E+01  0.23642740880E+03  0.12610623096E+03  0.26804519701E+03  0.00000000000E+00 0.  1.
          4    1    6    6  503    0  0.42551759333E+03  0.60716376982E+02 -0.25110825952E+03  0.49780222847E+03  0.00000000000E+00 0. -1.
         -4    1    6    6    0  503  0.23085868747E+03  0.79460444116E+02 -0.85248434979E+02  0.25860586116E+03  0.00000000000E+00 0.  1.
<mgrwt>
<rscale>  0 0.22240569E+04</rscale>
<asrwt>0</asrwt>
<pdfrwt beam="1">  1        2 0.24694413E+00 0.22240569E+04</pdfrwt>
<pdfrwt beam="2">  1       -1 0.11852402E+00 0.22240569E+04</pdfrwt>
<totfact> 0.73451281E+00</totfact>
</mgrwt>
</event>
<event>
12    6  0.1530859E-007  0.1106664E+04  0.7818608E-02  0.9198720E-01
          2   -1    0    0  501    0  0.00000000000E+00  0.00000000000E+00  0.65529934175E+03  0.65529934175E+03  0.00000000000E+00 0. -1.
         -1   -1    0    0    0  501 -0.00000000000E+00 -0.00000000000E+00 -0.46723160208E+03  0.46723160208E+03  0.00000000000E+00 0.  1.
         24    2    1    2    0    0 -0.41881804412E+02 -0.33379701040E+02 -0.16335580584E+03  0.18995858445E+03  0.80813702579E+02 0.  0.
        254    2    1    2    0    0  0.41881804412E+02  0.33379701040E+02  0.35142354550E+03  0.93257235938E+03  0.86216263383E+03 0.  0.
         23    2    4    4    0    0  0.42533625973E+03  0.12720027783E+03  0.23675700238E+03  0.51125605178E+03  0.90763581796E+02 0.  0.
         23    2    4    4    0    0 -0.38345445532E+03 -0.93820576793E+02  0.11466654312E+03  0.42131630761E+03  0.92300568863E+02 0.  0.
          4    1    3    3  502    0 -0.18641194979E+02 -0.23277625462E+02 -0.58034729350E+01  0.30381281992E+02  0.00000000000E+00 0. -1.
         -3    1    3    3    0  502 -0.23240609432E+02 -0.10102075578E+02 -0.15755233290E+03  0.15957730246E+03  0.00000000000E+00 0.  1.
         11    1    5    5    0    0  0.26916945433E+03  0.37032169079E+02  0.12476591541E+03  0.29898178931E+03  0.00000000000E+00 0.  1.
        -11    1    5    5    0    0  0.15616680540E+03  0.90168108754E+02  0.11199108697E+03  0.21227426247E+03  0.00000000000E+00 0. -1.
          2    1    6    6  503    0 -0.19753004490E+02  0.12688502974E+02 -0.47863466603E+01  0.23960142079E+02  0.00000000000E+00 0. -1.
         -2    1    6    6    0  503 -0.36370145083E+03 -0.10650907977E+03  0.11945288978E+03  0.39735616553E+03  0.00000000000E+00 0.  1.
<mgrwt>
<rscale>  0 0.11066645E+04</rscale>
<asrwt>0</asrwt>
<pdfrwt beam="1">  1        2 0.10081528E+00 0.11066645E+04</pdfrwt>
<pdfrwt beam="2">  1       -1 0.71881784E-01 0.11066645E+04</pdfrwt>
<totfact> 0.98619157E+01</totfact>
</mgrwt>
</event>
<event>
12    6  0.1530859E-007  0.1611767E+04  0.7818608E-02  0.8813351E-01
          2   -1    0    0  501    0  0.00000000000E+00  0.00000000000E+00  0.18389885849E+04  0.18389885849E+04  0.00000000000E+00 0. -1.
         -1   -1    0    0    0  501 -0.00000000000E+00 -0.00000000000E+00 -0.35315528342E+03  0.35315528342E+03  0.00000000000E+00 0.  1.
         24    2    1    2    0    0 -0.69283606678E+02 -0.22581043067E+03  0.11797022413E+04  0.12059669886E+04  0.82875995441E+02 0.  0.
        254    2    1    2    0    0  0.69283606678E+02  0.22581043067E+03  0.30613106012E+03  0.98617687969E+03  0.90721444174E+03 0.  0.
         23    2    4    4    0    0  0.42502204527E+03  0.33759591269E+03  0.22507315059E+03  0.59463970330E+03  0.91234392631E+02 0.  0.
         23    2    4    4    0    0 -0.35573843859E+03 -0.11178548202E+03  0.81057909532E+02  0.39153717638E+03  0.87664959420E+02 0.  0.
          4    1    3    3  502    0 -0.61048649553E+02 -0.22040549570E+03  0.11699915279E+04  0.11921349318E+04  0.00000000000E+00 0. -1.
         -3    1    3    3    0  502 -0.82349571248E+01 -0.54049349772E+01  0.97107134086E+01  0.13832056820E+02  0.00000000000E+00 0.  1.
         11    1    5    5    0    0  0.26505217679E+03  0.19444627098E+03  0.18181240243E+03  0.37565643665E+03  0.00000000000E+00 0.  1.
        -11    1    5    5    0    0  0.15996986848E+03  0.14314964171E+03  0.43260748160E+02  0.21898326665E+03  0.00000000000E+00 0. -1.
          2    1    6    6  503    0 -0.17562951342E+03 -0.79923160317E+02  0.79311073297E+02  0.20862330619E+03  0.00000000000E+00 0. -1.
         -2    1    6    6    0  503 -0.18010892518E+03 -0.31862321699E+02  0.17468362354E+01  0.18291387019E+03  0.00000000000E+00 0.  1.
<mgrwt>
<rscale>  0 0.16117674E+04</rscale>
<asrwt>0</asrwt>
<pdfrwt beam="1">  1        2 0.28292132E+00 0.16117674E+04</pdfrwt>
<pdfrwt beam="2">  1       -1 0.54331583E-01 0.16117674E+04</pdfrwt>
<totfact> 0.30652769E+01</totfact>
</mgrwt>
</event>
<event>
12    6  0.1530859E-007  0.1581887E+04  0.7818608E-02  0.8831753E-01
          2   -1    0    0  501    0  0.00000000000E+00  0.00000000000E+00  0.88358268713E+03  0.88358268713E+03  0.00000000000E+00 0. -1.
         -1   -1    0    0    0  501 -0.00000000000E+00 -0.00000000000E+00 -0.70801696226E+03  0.70801696226E+03  0.00000000000E+00 0.  1.
         24    2    1    2    0    0  0.60879264654E+02 -0.38664450660E+03 -0.30597208326E+03  0.50263350013E+03  0.76297184532E+02 0.  0.
        254    2    1    2    0    0 -0.60879264654E+02  0.38664450660E+03  0.48153780813E+03  0.10889661493E+04  0.89485661098E+03 0.  0.
         23    2    4    4    0    0 -0.12636858794E+03 -0.65226704395E+02 -0.20005898658E+03  0.26363146153E+03  0.96199825415E+02 0.  0.
         23    2    4    4    0    0  0.65489323289E+02  0.45187121100E+03  0.68159679472E+03  0.82533468773E+03  0.90148285683E+02 0.  0.
          4    1    3    3  502    0  0.76086564054E+01 -0.81241296572E+01 -0.27609263467E+02  0.29768516325E+02  0.00000000000E+00 0. -1.
         -3    1    3    3    0  502  0.53270608249E+02 -0.37852037695E+03 -0.27836281979E+03  0.47286498381E+03  0.00000000000E+00 0.  1.
         11    1    5    5    0    0 -0.85366078988E+02 -0.29127611795E+02 -0.48251343842E+02  0.10229358432E+03  0.00000000000E+00 0. -1.
        -11    1    5    5    0    0 -0.41002508955E+02 -0.36099092600E+02 -0.15180764274E+03  0.16133787721E+03  0.00000000000E+00 0.  1.
          4    1    6    6  503    0  0.46526291452E+02  0.31344246492E+03  0.39417670822E+03  0.50575305428E+03  0.00000000000E+00 0. -1.
         -4    1    6    6    0  503  0.18963031836E+02  0.13842874608E+03  0.28742008650E+03  0.31958163345E+03  0.00000000000E+00 0.  1.
<mgrwt>
<rscale>  0 0.15818869E+04</rscale>
<asrwt>0</asrwt>
<pdfrwt beam="1">  1        2 0.13593580E+00 0.15818869E+04</pdfrwt>
<pdfrwt beam="2">  1       -1 0.10892569E+00 0.15818869E+04</pdfrwt>
<totfact> 0.25762976E+01</totfact>
</mgrwt>
</event>
<event>
12    6  0.1530859E-007  0.1978263E+04  0.7818608E-02  0.8616851E-01
          2   -1    0    0  501    0  0.00000000000E+00  0.00000000000E+00  0.12571693742E+04  0.12571693742E+04  0.00000000000E+00 0. -1.
         -1   -1    0    0    0  501 -0.00000000000E+00 -0.00000000000E+00 -0.77824136997E+03  0.77824136997E+03  0.00000000000E+00 0.  1.
         24    2    1    2    0    0  0.10652409224E+03 -0.56789130216E+03 -0.34373281428E+03  0.67712540860E+03  0.80614254680E+02 0.  0.
        254    2    1    2    0    0 -0.10652409224E+03  0.56789130216E+03  0.82266081851E+03  0.13582853356E+04  0.91341136255E+03 0.  0.
         23    2    4    4    0    0  0.11111315270E+03  0.23403696996E+03 -0.14255850158E+03  0.30944477890E+03  0.91179541578E+02 0.  0.
         23    2    4    4    0    0 -0.21763724494E+03  0.33385433220E+03  0.96521932009E+03  0.10488405567E+04  0.97946372817E+02 0.  0.
          4    1    3    3  502    0  0.11839494170E+03 -0.53156477210E+03 -0.32842210307E+03  0.63595561711E+03  0.00000000000E+00 0. -1.
         -3    1    3    3    0  502 -0.11870849450E+02 -0.36326530064E+02 -0.15310711214E+02  0.41169791487E+02  0.00000000000E+00 0.  1.
         11    1    5    5    0    0  0.55258293637E+02  0.20046727182E+03 -0.12210553188E+03  0.24114387199E+03  0.00000000000E+00 0. -1.
        -11    1    5    5    0    0  0.55854859059E+02  0.33569698150E+02 -0.20452969701E+02  0.68300906905E+02  0.00000000000E+00 0.  1.
          3    1    6    6  503    0 -0.12766465228E+03  0.15924502328E+03  0.60566221308E+03  0.63912749685E+03  0.00000000000E+00 0. -1.
         -3    1    6    6    0  503 -0.89972592663E+02  0.17460930892E+03  0.35955710701E+03  0.40971305983E+03  0.00000000000E+00 0.  1.
<mgrwt>
<rscale>  0 0.19782631E+04</rscale>
<asrwt>0</asrwt>
<pdfrwt beam="1">  1        2 0.19341067E+00 0.19782631E+04</pdfrwt>
<pdfrwt beam="2">  1       -1 0.11972944E+00 0.19782631E+04</pdfrwt>
<totfact> 0.11570344E+01</totfact>
</mgrwt>
</event>
<event>
12    6  0.1530859E-007  0.2324079E+04  0.7818608E-02  0.8468487E-01
         -1   -1    0    0    0  501 -0.00000000000E+00  0.00000000000E+00  0.12487977614E+04  0.12487977614E+04  0.00000000000E+00 0.  1.
          2   -1    0    0  501    0  0.00000000000E+00 -0.00000000000E+00 -0.10813085037E+04  0.10813085037E+04  0.00000000000E+00 0. -1.
         24    2    1    2    0    0  0.57424163751E+03  0.53870194330E+03  0.68424446428E+03  0.10462442496E+04  0.80518947158E+02 0.  0.
        254    2    1    2    0    0 -0.57424163751E+03 -0.53870194330E+03 -0.51675520656E+03  0.12838620156E+04  0.87253222843E+03 0.  0.
         23    2    4    4    0    0 -0.15574194942E+03 -0.69063588624E+03 -0.38363676408E+03  0.81046284785E+03  0.91866091823E+02 0.  0.
         23    2    4    4    0    0 -0.41849968810E+03  0.15193394294E+03 -0.13311844248E+03  0.47339916776E+03  0.90334602190E+02 0.  0.
          2    1    3    3  502    0  0.28543645514E+03  0.28714050773E+03  0.30172035775E+03  0.50493446642E+03  0.00000000000E+00 0. -1.
         -1    1    3    3    0  502  0.28880518237E+03  0.25156143557E+03  0.38252410654E+03  0.54130978313E+03  0.00000000000E+00 0.  1.
         11    1    5    5    0    0 -0.50471844585E+01 -0.20488076761E+03 -0.98346336894E+02  0.22731829004E+03  0.00000000000E+00 0.  1.
        -11    1    5    5    0    0 -0.15069476496E+03 -0.48575511863E+03 -0.28529042719E+03  0.58314455781E+03  0.00000000000E+00 0. -1.
          1    1    6    6  503    0 -0.16846699828E+03  0.86161390224E+02 -0.17009376170E+02  0.18998482453E+03  0.00000000000E+00 0. -1.
         -1    1    6    6    0  503 -0.25003268982E+03  0.65772552716E+02 -0.11610906631E+03  0.28341434323E+03  0.00000000000E+00 0.  1.
<mgrwt>
<rscale>  0 0.23240789E+04</rscale>
<asrwt>0</asrwt>
<pdfrwt beam="1">  1        2 0.16635515E+00 0.23240789E+04</pdfrwt>
<pdfrwt beam="2">  1       -1 0.19212273E+00 0.23240789E+04</pdfrwt>
<totfact> 0.39413164E+00</totfact>
</mgrwt>
</event>
<event>
12    6  0.1530859E-007  0.1575203E+04  0.7818608E-02  0.8835928E-01
         -1   -1    0    0    0  501 -0.00000000000E+00  0.00000000000E+00  0.22627806337E+03  0.22627806337E+03  0.00000000000E+00 0.  1.
          2   -1    0    0  501    0  0.00000000000E+00 -0.00000000000E+00 -0.27413876582E+04  0.27413876582E+04  0.00000000000E+00 0. -1.
         24    2    1    2    0    0 -0.14991853993E+03 -0.11596355541E+02 -0.17706365378E+04  0.17787968209E+04  0.79714094900E+02 0.  0.
        254    2    1    2    0    0  0.14991853993E+03  0.11596355541E+02 -0.74447305708E+03  0.11888689007E+04  0.91463604036E+03 0.  0.
         23    2    4    4    0    0  0.20886893121E+03  0.34166481223E+03 -0.53739852413E+02  0.41570473934E+03  0.97782330880E+02 0.  0.
         23    2    4    4    0    0 -0.58950391275E+02 -0.33006845669E+03 -0.69073320467E+03  0.77316416139E+03  0.90830202548E+02 0.  0.
          4    1    3    3  502    0 -0.53496862318E+02  0.28605711835E+02 -0.87219431864E+03  0.87430151006E+03  0.00000000000E+00 0. -1.
         -3    1    3    3    0  502 -0.96421677615E+02 -0.40202067376E+02 -0.89844221913E+03  0.90449531079E+03  0.00000000000E+00 0.  1.
         11    1    5    5    0    0 -0.10235655862E+02  0.81208443198E+01 -0.31387332747E+01  0.13437574557E+02  0.00000000000E+00 0.  1.
        -11    1    5    5    0    0  0.21910458707E+03  0.33354396791E+03 -0.50601119139E+02  0.40226716478E+03  0.00000000000E+00 0. -1.
          4    1    6    6  503    0 -0.40317745873E+01 -0.24297688944E+03 -0.51582911859E+03  0.57020496630E+03  0.00000000000E+00 0. -1.
         -4    1    6    6    0  503 -0.54918616688E+02 -0.87091567248E+02 -0.17490408608E+03  0.20295919509E+03  0.00000000000E+00 0.  1.
<mgrwt>
<rscale>  0 0.15752027E+04</rscale>
<asrwt>0</asrwt>
<pdfrwt beam="1">  1        2 0.42175194E+00 0.15752027E+04</pdfrwt>
<pdfrwt beam="2">  1       -1 0.34812011E-01 0.15752027E+04</pdfrwt>
<totfact> 0.21587416E+01</totfact>
</mgrwt>
</event>
<event>
12    6  0.1530859E-007  0.1603704E+04  0.7818608E-02  0.8818275E-01
         -1   -1    0    0    0  501 -0.00000000000E+00  0.00000000000E+00  0.79244900264E+03  0.79244900264E+03  0.00000000000E+00 0.  1.
          2   -1    0    0  501    0  0.00000000000E+00 -0.00000000000E+00 -0.81136697250E+03  0.81136697250E+03  0.00000000000E+00 0. -1.
         24    2    1    2    0    0 -0.43789195078E+03 -0.71804725216E+02  0.28679117334E+03  0.53411980322E+03  0.78291174220E+02 0.  0.
        254    2    1    2    0    0  0.43789195078E+03  0.71804725216E+02 -0.30570914319E+03  0.10696961719E+04  0.92405981455E+03 0.  0.
         23    2    4    4    0    0 -0.74569451703E+02 -0.16051421224E+03 -0.44095288503E+03  0.48355878150E+03  0.89801073970E+02 0.  0.
         23    2    4    4    0    0  0.51246140249E+03  0.23231893745E+03  0.13524374184E+03  0.58613739042E+03  0.93152525482E+02 0.  0.
          2    1    3    3  502    0 -0.17621101254E+02 -0.11414665074E+02  0.34047792107E+02  0.40000624189E+02  0.00000000000E+00 0. -1.
         -1    1    3    3    0  502 -0.42027084953E+03 -0.60390060142E+02  0.25274338123E+03  0.49411917903E+03  0.00000000000E+00 0.  1.
         11    1    5    5    0    0  0.86453648819E+00 -0.32034724448E+02 -0.21915734466E+02  0.38823580605E+02  0.00000000000E+00 0. -1.
        -11    1    5    5    0    0 -0.75433988192E+02 -0.12847948779E+03 -0.41903715057E+03  0.44473520089E+03  0.00000000000E+00 0.  1.
          1    1    6    6  503    0  0.18153861181E+03  0.13201396440E+03  0.48847620287E+02  0.22971731407E+03  0.00000000000E+00 0. -1.
         -1    1    6    6    0  503  0.33092279067E+03  0.10030497305E+03  0.86396121551E+02  0.35642007635E+03  0.00000000000E+00 0.  1.
<mgrwt>
<rscale>  0 0.16037044E+04</rscale>
<asrwt>0</asrwt>
<pdfrwt beam="1">  1        2 0.12482569E+00 0.16037044E+04</pdfrwt>
<pdfrwt beam="2">  1       -1 0.12191523E+00 0.16037044E+04</pdfrwt>
<totfact> 0.22032196E+01</totfact>
</mgrwt>
</event>
<event>
12    6  0.1530859E-007  0.1180907E+04  0.7818608E-02  0.9129734E-01
          2   -1    0    0  501    0  0.00000000000E+00  0.00000000000E+00  0.12719340862E+04  0.12719340862E+04  0.00000000000E+00 0. -1.
         -1   -1    0    0    0  501 -0.00000000000E+00 -0.00000000000E+00 -0.27409872346E+03  0.27409872346E+03  0.00000000000E+00 0.  1.
         24    2    1    2    0    0 -0.87353025579E+02 -0.14507128522E+03  0.41405965921E+03  0.45442144708E+03  0.79857506306E+02 0.  0.
        254    2    1    2    0    0  0.87353025579E+02  0.14507128522E+03  0.58377570355E+03  0.10916113626E+04  0.90672215481E+03 0.  0.
         23    2    4    4    0    0  0.43467440232E+03 -0.89370041994E+02  0.45817288561E+03  0.64457589057E+03  0.92880811560E+02 0.  0.
         23    2    4    4    0    0 -0.34732137674E+03  0.23444132721E+03  0.12560281794E+03  0.44703547203E+03  0.92031357309E+02 0.  0.
          2    1    3    3  502    0 -0.73423321596E+02 -0.11419973612E+03  0.38978248654E+03  0.41275047026E+03  0.00000000000E+00 0. -1.
         -3    1    3    3    0  502 -0.13929703983E+02 -0.30871549097E+02  0.24277172662E+02  0.41670976821E+02  0.00000000000E+00 0.  1.
         11    1    5    5    0    0  0.20898846912E+03  0.42867080405E+01  0.21231180612E+03  0.29794438929E+03  0.00000000000E+00 0. -1.
        -11    1    5    5    0    0  0.22568593320E+03 -0.93656750035E+02  0.24586107950E+03  0.34663150129E+03  0.00000000000E+00 0.  1.
          4    1    6    6  503    0 -0.14075382157E+02  0.40845810430E+02  0.18766397331E+02  0.47102805451E+02  0.00000000000E+00 0. -1.
         -4    1    6    6    0  503 -0.33324599459E+03  0.19359551678E+03  0.10683642061E+03  0.39993266658E+03  0.00000000000E+00 0.  1.
<mgrwt>
<rscale>  0 0.11809073E+04</rscale>
<asrwt>0</asrwt>
<pdfrwt beam="1">  1        2 0.19568216E+00 0.11809073E+04</pdfrwt>
<pdfrwt beam="2">  1       -1 0.42169035E-01 0.11809073E+04</pdfrwt>
<totfact> 0.10678678E+02</totfact>
</mgrwt>
</event>
<event>
12    6  0.1530859E-007  0.1261725E+04  0.7818608E-02  0.9060481E-01
         -1   -1    0    0    0  501 -0.00000000000E+00  0.00000000000E+00  0.17391006496E+03  0.17391006496E+03  0.00000000000E+00 0.  1.
          2   -1    0    0  501    0  0.00000000000E+00 -0.00000000000E+00 -0.22884659312E+04  0.22884659312E+04  0.00000000000E+00 0. -1.
         24    2    1    2    0    0 -0.17554658198E+03 -0.48602559814E+02 -0.51849714170E+02  0.20371753582E+03  0.75057513107E+02 0.  0.
        254    2    1    2    0    0  0.17554658198E+03  0.48602559814E+02 -0.20627061521E+04  0.22586584603E+04  0.90199920147E+03 0.  0.
         23    2    4    4    0    0 -0.12395138493E+03 -0.12353312565E+03 -0.36260875398E+02  0.20101771559E+03  0.92026582774E+02 0.  0.
         23    2    4    4    0    0  0.29949796691E+03  0.17213568546E+03 -0.20264452767E+04  0.20576407448E+04  0.89862387978E+02 0.  0.
          4    1    3    3  502    0  0.11553030201E+00 -0.94744361459E+01 -0.18360103085E+02  0.20660872992E+02  0.00000000000E+00 0. -1.
         -3    1    3    3    0  502 -0.17566211228E+03 -0.39128123668E+02 -0.33489611086E+02  0.18305666282E+03  0.00000000000E+00 0.  1.
         11    1    5    5    0    0 -0.74059018201E+02 -0.11050499992E+03 -0.57919120052E+02  0.14508865445E+03  0.00000000000E+00 0.  1.
        -11    1    5    5    0    0 -0.49892366730E+02 -0.13028125731E+02  0.21658244654E+02  0.55929061135E+02  0.00000000000E+00 0. -1.
          4    1    6    6  503    0  0.13928681633E+02  0.38190231543E+02 -0.28082602480E+03  0.28375298794E+03  0.00000000000E+00 0. -1.
         -4    1    6    6    0  503  0.28556928528E+03  0.13394545392E+03 -0.17456192519E+04  0.17738877568E+04  0.00000000000E+00 0.  1.
<mgrwt>
<rscale>  0 0.12617246E+04</rscale>
<asrwt>0</asrwt>
<pdfrwt beam="1">  1        2 0.35207168E+00 0.12617246E+04</pdfrwt>
<pdfrwt beam="2">  1       -1 0.26755395E-01 0.12617246E+04</pdfrwt>
<totfact> 0.64391902E+01</totfact>
</mgrwt>
</event>
<event>
12    6  0.1530859E-007  0.2650601E+04  0.7818608E-02  0.8351214E-01
         -1   -1    0    0    0  501 -0.00000000000E+00  0.00000000000E+00  0.17266003880E+04  0.17266003880E+04  0.00000000000E+00 0.  1.
          2   -1    0    0  501    0  0.00000000000E+00 -0.00000000000E+00 -0.10172712687E+04  0.10172712687E+04  0.00000000000E+00 0. -1.
         24    2    1    2    0    0  0.52592114260E+03 -0.10112804718E+04  0.13681277954E+02  0.11426871584E+04  0.79155061050E+02 0.  0.
        254    2    1    2    0    0 -0.52592114260E+03  0.10112804718E+04  0.69564784126E+03  0.16011844983E+04  0.88350701048E+03 0.  0.
         23    2    4    4    0    0  0.60975197697E+01 -0.25372722170E+02  0.37800201731E+03  0.39008890507E+03  0.92751679156E+02 0.  0.
         23    2    4    4    0    0 -0.53201866237E+03  0.10366531940E+04  0.31764582395E+03  0.12110955932E+04  0.90332522946E+02 0.  0.
          2    1    3    3  502    0  0.35817442652E+03 -0.73991512523E+03 -0.16692405990E+02  0.82221770157E+03  0.00000000000E+00 0. -1.
         -1    1    3    3    0  502  0.16774671608E+03 -0.27136534661E+03  0.30373683944E+02  0.32046945685E+03  0.00000000000E+00 0.  1.
         11    1    5    5    0    0 -0.33480323648E+02  0.96087816263E+01  0.77334388868E+02  0.84816675586E+02  0.00000000000E+00 0. -1.
        -11    1    5    5    0    0  0.39577843418E+02 -0.34981503797E+02  0.30066762845E+03  0.30527222948E+03  0.00000000000E+00 0.  1.
          3    1    6    6  503    0 -0.27607361759E+03  0.44297631597E+03  0.12978304598E+03  0.53785527594E+03  0.00000000000E+00 0.  1.
         -3    1    6    6    0  503 -0.25594504478E+03  0.59367687804E+03  0.18786277797E+03  0.67324031728E+03  0.00000000000E+00 0. -1.
<mgrwt>
<rscale>  0 0.26506007E+04</rscale>
<asrwt>0</asrwt>
<pdfrwt beam="1">  1        2 0.15650327E+00 0.26506007E+04</pdfrwt>
<pdfrwt beam="2">  1       -1 0.26563083E+00 0.26506007E+04</pdfrwt>
<totfact> 0.13598224E+00</totfact>
</mgrwt>
</event>
<event>
12    6  0.1530859E-007  0.1874665E+04  0.7818608E-02  0.8667571E-01
          2   -1    0    0  501    0  0.00000000000E+00  0.00000000000E+00  0.19007128366E+04  0.19007128366E+04  0.00000000000E+00 0. -1.
         -1   -1    0    0    0  501 -0.00000000000E+00 -0.00000000000E+00 -0.46224369427E+03  0.46224369427E+03  0.00000000000E+00 0.  1.
         24    2    1    2    0    0 -0.44177650412E+03 -0.23291732562E+03 -0.97298071163E+02  0.51493125882E+03  0.79185393135E+02 0.  0.
        254    2    1    2    0    0  0.44177650412E+03  0.23291732562E+03  0.15357672135E+04  0.18480252721E+04  0.89844282619E+03 0.  0.
         23    2    4    4    0    0  0.58990166257E+03  0.35989417022E+03  0.71058947978E+03  0.99573823076E+03  0.95128492897E+02 0.  0.
         23    2    4    4    0    0 -0.14812515845E+03 -0.12697684460E+03  0.82517773374E+03  0.85228704132E+03  0.86085578969E+02 0.  0.
          4    1    3    3  502    0 -0.61270668850E+02 -0.56242006536E+02  0.43032227999E+01  0.83281305747E+02  0.00000000000E+00 0. -1.
         -3    1    3    3    0  502 -0.38050583527E+03 -0.17667531909E+03 -0.10160129396E+03  0.43164995307E+03  0.00000000000E+00 0.  1.
         11    1    5    5    0    0  0.69339572469E+02  0.59588762938E+02  0.56476293784E+02  0.10746333672E+03  0.00000000000E+00 0.  1.
        -11    1    5    5    0    0  0.52056209010E+03  0.30030540728E+03  0.65411318599E+03  0.88827489404E+03  0.00000000000E+00 0. -1.
          4    1    6    6  503    0 -0.57298485270E+02 -0.10310216622E+03  0.50693568365E+03  0.52047762724E+03  0.00000000000E+00 0.  1.
         -4    1    6    6    0  503 -0.90826673176E+02 -0.23874678376E+02  0.31824205009E+03  0.33180941408E+03  0.00000000000E+00 0. -1.
<mgrwt>
<rscale>  0 0.18746653E+04</rscale>
<asrwt>0</asrwt>
<pdfrwt beam="1">  1        2 0.29241736E+00 0.18746653E+04</pdfrwt>
<pdfrwt beam="2">  1       -1 0.71114415E-01 0.18746653E+04</pdfrwt>
<totfact> 0.16191730E+01</totfact>
</mgrwt>
</event>
<event>
12    6  0.1530859E-007  0.2460241E+04  0.7818608E-02  0.8417288E-01
          2   -1    0    0  501    0  0.00000000000E+00  0.00000000000E+00  0.22007548523E+04  0.22007548523E+04  0.00000000000E+00 0. -1.
         -1   -1    0    0    0  501 -0.00000000000E+00 -0.00000000000E+00 -0.68758051582E+03  0.68758051582E+03  0.00000000000E+00 0.  1.
         24    2    1    2    0    0  0.14886917894E+03  0.89700886121E+03  0.13031082908E+04  0.15910337719E+04  0.80686530319E+02 0.  0.
        254    2    1    2    0    0 -0.14886917894E+03 -0.89700886121E+03  0.21006604568E+03  0.12973015963E+04  0.90115301619E+03 0.  0.
         23    2    4    4    0    0 -0.24798053368E+03  0.86547126685E+02 -0.10541492074E+02  0.28037577787E+03  0.97543341850E+02 0.  0.
         23    2    4    4    0    0  0.99111354744E+02 -0.98355598789E+03  0.22060753775E+03  0.10169258184E+04  0.90912003736E+02 0.  0.
          2    1    3    3  502    0  0.62752878464E+02  0.55321455079E+03  0.84266005376E+03  0.10099803113E+04  0.00000000000E+00 0. -1.
         -1    1    3    3    0  502  0.86116300476E+02  0.34379431041E+03  0.46044823706E+03  0.58105346061E+03  0.00000000000E+00 0.  1.
         11    1    5    5    0    0 -0.96246990505E+02  0.75089013269E+02 -0.33261494121E+02  0.12652339739E+03  0.00000000000E+00 0.  1.
        -11    1    5    5    0    0 -0.15173354318E+03  0.11458113417E+02  0.22720002047E+02  0.15385238049E+03  0.00000000000E+00 0. -1.
          1    1    6    6  503    0 -0.54601972326E+01 -0.24558664754E+01  0.22428436726E+01  0.63933857778E+01  0.00000000000E+00 0. -1.
         -1    1    6    6    0  503  0.10457155198E+03 -0.98110012142E+03  0.21836469408E+03  0.10105324326E+04  0.00000000000E+00 0.  1.
<mgrwt>
<rscale>  0 0.24602408E+04</rscale>
<asrwt>0</asrwt>
<pdfrwt beam="1">  1        2 0.33857767E+00 0.24602408E+04</pdfrwt>
<pdfrwt beam="2">  1       -1 0.10578162E+00 0.24602408E+04</pdfrwt>
<totfact> 0.43935371E+00</totfact>
</mgrwt>
</event>
<event>
12    6  0.1530859E-007  0.3932532E+04  0.7818608E-02  0.8018297E-01
         -1   -1    0    0    0  501 -0.00000000000E+00  0.00000000000E+00  0.17133414963E+04  0.17133414963E+04  0.00000000000E+00 0.  1.
          2   -1    0    0  501    0  0.00000000000E+00 -0.00000000000E+00 -0.22565270396E+04  0.22565270396E+04  0.00000000000E+00 0. -1.
         24    2    1    2    0    0 -0.50961125773E+03  0.13217462562E+04  0.96133603691E+03  0.17137937266E+04  0.78772850017E+02 0.  0.
        254    2    1    2    0    0  0.50961125773E+03 -0.13217462562E+04 -0.15045215801E+04  0.22560748093E+04  0.90530191654E+03 0.  0.
         23    2    4    4    0    0  0.11126170091E+03 -0.51157582661E+03 -0.39380294585E+02  0.53264502946E+03  0.89838340046E+02 0.  0.
         23    2    4    4    0    0  0.39834955682E+03 -0.81017042957E+03 -0.14651412856E+04  0.17234297798E+04  0.92264429045E+02 0.  0.
          4    1    3    3  502    0 -0.26020713805E+03  0.78284191446E+03  0.55744243680E+03  0.99563612232E+03  0.00000000000E+00 0. -1.
         -3    1    3    3    0  502 -0.24940411968E+03  0.53890434171E+03  0.40389360011E+03  0.71815760432E+03  0.00000000000E+00 0.  1.
         11    1    5    5    0    0  0.65985579952E+02 -0.44613856236E+03 -0.42650938641E+02  0.45300421207E+03  0.00000000000E+00 0. -1.
        -11    1    5    5    0    0  0.45276120957E+02 -0.65437264250E+02  0.32706440558E+01  0.79640817386E+02  0.00000000000E+00 0.  1.
          2    1    6    6  503    0  0.10657921357E+03 -0.24928814008E+03 -0.51800292254E+03  0.58466292280E+03  0.00000000000E+00 0.  1.
         -2    1    6    6    0  503  0.29177034325E+03 -0.56088228949E+03 -0.94713836302E+03  0.11387668570E+04  0.00000000000E+00 0. -1.
<mgrwt>
<rscale>  0 0.39325317E+04</rscale>
<asrwt>0</asrwt>
<pdfrwt beam="1">  1        2 0.34715801E+00 0.39325317E+04</pdfrwt>
<pdfrwt beam="2">  1       -1 0.26359100E+00 0.39325317E+04</pdfrwt>
<totfact> 0.24609361E-01</totfact>
</mgrwt>
</event>
<event>
12    6  0.1530859E-007  0.1640310E+04  0.7818608E-02  0.8796160E-01
         -1   -1    0    0    0  501 -0.00000000000E+00  0.00000000000E+00  0.10934606049E+04  0.10934606049E+04  0.00000000000E+00 0.  1.
          2   -1    0    0  501    0  0.00000000000E+00 -0.00000000000E+00 -0.61516098062E+03  0.61516098062E+03  0.00000000000E+00 0. -1.
         24    2    1    2    0    0  0.19643845151E+03  0.14340897924E+03  0.70284750015E+03  0.74792553843E+03  0.79017732323E+02 0.  0.
        254    2    1    2    0    0 -0.19643845151E+03 -0.14340897924E+03 -0.22454787582E+03  0.96069604714E+03  0.90186525928E+03 0.  0.
         23    2    4    4    0    0  0.31148704827E+02 -0.28822973071E+03 -0.48597362801E+03  0.57306091703E+03  0.90453457780E+02 0.  0.
         23    2    4    4    0    0 -0.22758715633E+03  0.14482075148E+03  0.26142575220E+03  0.38763513011E+03  0.95648347579E+02 0.  0.
          4    1    3    3  502    0  0.33586830594E+02  0.53481620007E+02  0.11315977237E+03  0.12958971005E+03  0.00000000000E+00 0. -1.
         -3    1    3    3    0  502  0.16285162091E+03  0.89927359230E+02  0.58968772778E+03  0.61833582838E+03  0.00000000000E+00 0.  1.
         11    1    5    5    0    0  0.46900997940E+01 -0.70379388883E+02 -0.20338447458E+03  0.21526843688E+03  0.00000000000E+00 0.  1.
        -11    1    5    5    0    0  0.26458605033E+02 -0.21785034183E+03 -0.28258915343E+03  0.35779248015E+03  0.00000000000E+00 0. -1.
          2    1    6    6  503    0 -0.85950611891E+02  0.90173088118E+02  0.68581379437E+02  0.14220442718E+03  0.00000000000E+00 0. -1.
         -2    1    6    6    0  503 -0.14163654444E+03  0.54647663360E+02  0.19284437276E+03  0.24543070292E+03  0.00000000000E+00 0.  1.
<mgrwt>
<rscale>  0 0.16403101E+04</rscale>
<asrwt>0</asrwt>
<pdfrwt beam="1">  1        2 0.94640151E-01 0.16403101E+04</pdfrwt>
<pdfrwt beam="2">  1       -1 0.16822471E+00 0.16403101E+04</pdfrwt>
<totfact> 0.13324825E+01</totfact>
</mgrwt>
</event>
<event>
12    6  0.1530859E-007  0.3589309E+04  0.7818608E-02  0.8092945E-01
         -1   -1    0    0    0  501 -0.00000000000E+00  0.00000000000E+00  0.19013445921E+04  0.19013445921E+04  0.00000000000E+00 0.  1.
          2   -1    0    0  501    0  0.00000000000E+00 -0.00000000000E+00 -0.16939514573E+04  0.16939514573E+04  0.00000000000E+00 0. -1.
         24    2    1    2    0    0  0.30202506685E+03 -0.12965224622E+04  0.11253943791E+04  0.17450910472E+04  0.81489988736E+02 0.  0.
        254    2    1    2    0    0 -0.30202506685E+03  0.12965224622E+04 -0.91800124431E+03  0.18502050022E+04  0.89907876722E+03 0.  0.
         23    2    4    4    0    0  0.18377347137E+03 -0.14508462245E+02 -0.12145175085E+03  0.23840174228E+03  0.90009325528E+02 0.  0.
         23    2    4    4    0    0 -0.48579853823E+03  0.13110309245E+04 -0.79654949346E+03  0.16118032600E+04  0.92824288760E+02 0.  0.
          2    1    3    3  502    0  0.45651912538E+02 -0.33411152458E+03  0.26331227940E+03  0.42784105046E+03  0.00000000000E+00 0. -1.
         -1    1    3    3    0  502  0.25637315432E+03 -0.96241093766E+03  0.86208209972E+03  0.13172499967E+04  0.00000000000E+00 0.  1.
         11    1    5    5    0    0  0.81301264794E+02  0.31155452861E+02 -0.25350891014E+02  0.90682002488E+02  0.00000000000E+00 0. -1.
        -11    1    5    5    0    0  0.10247220658E+03 -0.45663915106E+02 -0.96100859833E+02  0.14771973979E+03  0.00000000000E+00 0.  1.
          4    1    6    6  503    0 -0.35744835562E+03  0.83986229813E+03 -0.52890391893E+03  0.10549300272E+04  0.00000000000E+00 0. -1.
         -4    1    6    6    0  503 -0.12835018261E+03  0.47116862636E+03 -0.26764557453E+03  0.55687323280E+03  0.00000000000E+00 0.  1.
<mgrwt>
<rscale>  0 0.35893094E+04</rscale>
<asrwt>0</asrwt>
<pdfrwt beam="1">  1        2 0.26060792E+00 0.35893094E+04</pdfrwt>
<pdfrwt beam="2">  1       -1 0.29251455E+00 0.35893094E+04</pdfrwt>
<totfact> 0.33883471E-01</totfact>
</mgrwt>
</event>
<event>
12    6  0.1530859E-007  0.1623514E+04  0.7818608E-02  0.8806231E-01
         -1   -1    0    0    0  501 -0.00000000000E+00  0.00000000000E+00  0.44745412267E+03  0.44745412267E+03  0.00000000000E+00 0.  1.
          2   -1    0    0  501    0  0.00000000000E+00 -0.00000000000E+00 -0.14726630341E+04  0.14726630341E+04  0.00000000000E+00 0. -1.
         24    2    1    2    0    0  0.23941095124E+03  0.49284653379E+03 -0.34333140330E+03  0.65146535433E+03  0.79469150963E+02 0.  0.
        254    2    1    2    0    0 -0.23941095124E+03 -0.49284653379E+03 -0.68187750811E+03  0.12686518024E+04  0.91886078937E+03 0.  0.
         23    2    4    4    0    0 -0.21044700899E+03 -0.35258219365E+03  0.12910960685E+03  0.44004950069E+03  0.91499320265E+02 0.  0.
         23    2    4    4    0    0 -0.28963942244E+02 -0.14026434015E+03 -0.81098711496E+03  0.82860230172E+03  0.91480482661E+02 0.  0.
          2    1    3    3  502    0  0.69875489985E+01  0.65506557163E+02 -0.56175213898E+02  0.86577072767E+02  0.00000000000E+00 0. -1.
         -1    1    3    3    0  502  0.23242340224E+03  0.42733997663E+03 -0.28715618940E+03  0.56488828156E+03  0.00000000000E+00 0.  1.
         11    1    5    5    0    0 -0.17311561725E+03 -0.31932361512E+03  0.84242180792E+02  0.37287173818E+03  0.00000000000E+00 0. -1.
        -11    1    5    5    0    0 -0.37331391738E+02 -0.33258578525E+02  0.44867426060E+02  0.67177762510E+02  0.00000000000E+00 0.  1.
          1    1    6    6  503    0  0.80564556254E+01 -0.10846698515E+03 -0.68338828972E+03  0.69198955763E+03  0.00000000000E+00 0. -1.
         -1    1    6    6    0  503 -0.37020397870E+02 -0.31797354996E+02 -0.12759882524E+03  0.13661274408E+03  0.00000000000E+00 0.  1.
<mgrwt>
<rscale>  0 0.16235137E+04</rscale>
<asrwt>0</asrwt>
<pdfrwt beam="1">  1        2 0.22656355E+00 0.16235137E+04</pdfrwt>
<pdfrwt beam="2">  1       -1 0.68839095E-01 0.16235137E+04</pdfrwt>
<totfact> 0.30638626E+01</totfact>
</mgrwt>
</event>
<event>
12    6  0.1530859E-007  0.2061468E+04  0.7818608E-02  0.8578410E-01
          2   -1    0    0  501    0  0.00000000000E+00  0.00000000000E+00  0.18242512888E+04  0.18242512888E+04  0.00000000000E+00 0. -1.
         -1   -1    0    0    0  501 -0.00000000000E+00 -0.00000000000E+00 -0.58238280352E+03  0.58238280352E+03  0.00000000000E+00 0.  1.
         24    2    1    2    0    0  0.10814925399E+03  0.31319550623E+03  0.14071300048E+04  0.14478504785E+04  0.80426808517E+02 0.  0.
        254    2    1    2    0    0 -0.10814925399E+03 -0.31319550623E+03 -0.16526151949E+03  0.95878361382E+03  0.88440203643E+03 0.  0.
         23    2    4    4    0    0  0.29452420235E+03 -0.12980519294E+03  0.18950046377E+03  0.38441230115E+03  0.90931279666E+02 0.  0.
         23    2    4    4    0    0 -0.40267345634E+03 -0.18339031330E+03 -0.35476198326E+03  0.57437131267E+03  0.90930856142E+02 0.  0.
          2    1    3    3  502    0  0.82140507288E+02  0.20892460479E+03  0.10939111084E+04  0.11167085863E+04  0.00000000000E+00 0. -1.
         -1    1    3    3    0  502  0.26008746705E+02  0.10427090145E+03  0.31321889630E+03  0.33114189224E+03  0.00000000000E+00 0.  1.
         11    1    5    5    0    0  0.25432384540E+03 -0.13167953986E+03  0.13487179658E+03  0.31656045405E+03  0.00000000000E+00 0. -1.
        -11    1    5    5    0    0  0.40200356953E+02  0.18743469267E+01  0.54628667190E+02  0.67851847097E+02  0.00000000000E+00 0.  1.
          4    1    6    6  503    0 -0.37532179156E+03 -0.19382957368E+03 -0.33313318211E+03  0.53797218132E+03  0.00000000000E+00 0. -1.
         -4    1    6    6    0  503 -0.27351664784E+02  0.10439260385E+02 -0.21628801153E+02  0.36399131352E+02  0.00000000000E+00 0.  1.
<mgrwt>
<rscale>  0 0.20614680E+04</rscale>
<asrwt>0</asrwt>
<pdfrwt beam="1">  1        2 0.28065404E+00 0.20614680E+04</pdfrwt>
<pdfrwt beam="2">  1       -1 0.89597355E-01 0.20614680E+04</pdfrwt>
<totfact> 0.10742260E+01</totfact>
</mgrwt>
</event>
<event>
12    6  0.1530859E-007  0.2171089E+04  0.7818608E-02  0.8530559E-01
          2   -1    0    0  501    0  0.00000000000E+00  0.00000000000E+00  0.22762732345E+04  0.22762732345E+04  0.00000000000E+00 0. -1.
         -1   -1    0    0    0  501 -0.00000000000E+00 -0.00000000000E+00 -0.51769113057E+03  0.51769113057E+03  0.00000000000E+00 0.  1.
         24    2    1    2    0    0  0.89309973377E+03 -0.80739314910E+02  0.81718840611E+03  0.12158528278E+04  0.79719736278E+02 0.  0.
        254    2    1    2    0    0 -0.89309973377E+03  0.80739314910E+02  0.94139369782E+03  0.15781115373E+04  0.89446518008E+03 0.  0.
         23    2    4    4    0    0 -0.45198032752E+03 -0.23836354272E+03  0.41313780295E+02  0.52188480362E+03  0.97742134420E+02 0.  0.
         23    2    4    4    0    0 -0.44111940624E+03  0.31910285763E+03  0.90007991752E+03  0.10562267337E+04  0.95174002002E+02 0.  0.
          2    1    3    3  502    0  0.40055418364E+03 -0.16847143998E+02  0.41202318257E+03  0.57488310400E+03  0.00000000000E+00 0. -1.
         -3    1    3    3    0  502  0.49254555013E+03 -0.63892170912E+02  0.40516522355E+03  0.64096972380E+03  0.00000000000E+00 0.  1.
         11    1    5    5    0    0 -0.24272071159E+03 -0.11401230621E+03 -0.25746075351E+02  0.26939749478E+03  0.00000000000E+00 0. -1.
        -11    1    5    5    0    0 -0.20925961594E+03 -0.12435123651E+03  0.67059855645E+02  0.25248730884E+03  0.00000000000E+00 0.  1.
          3    1    6    6  503    0 -0.18704980500E+03  0.10852467535E+03  0.43723151885E+03  0.48778749040E+03  0.00000000000E+00 0. -1.
         -3    1    6    6    0  503 -0.25406960125E+03  0.21057818228E+03  0.46284839867E+03  0.56843924326E+03  0.00000000000E+00 0.  1.
<mgrwt>
<rscale>  0 0.21710886E+04</rscale>
<asrwt>0</asrwt>
<pdfrwt beam="1">  1        2 0.35019588E+00 0.21710886E+04</pdfrwt>
<pdfrwt beam="2">  1       -1 0.79644791E-01 0.21710886E+04</pdfrwt>
<totfact> 0.76783891E+00</totfact>
</mgrwt>
</event>
<event>
12    6  0.1530859E-007  0.2079426E+04  0.7818608E-02  0.8570361E-01
         -1   -1    0    0    0  501 -0.00000000000E+00  0.00000000000E+00  0.46469066623E+03  0.46469066623E+03  0.00000000000E+00 0.  1.
          2   -1    0    0  501    0  0.00000000000E+00 -0.00000000000E+00 -0.23262857652E+04  0.23262857652E+04  0.00000000000E+00 0. -1.
         24    2    1    2    0    0  0.83029038090E+03 -0.11191338583E+03 -0.81389923505E+03  0.11710700894E+04  0.84062279499E+02 0.  0.
        254    2    1    2    0    0 -0.83029038090E+03  0.11191338583E+03 -0.10476958640E+04  0.16199063421E+04  0.90803260476E+03 0.  0.
         23    2    4    4    0    0 -0.74163354786E+03 -0.28806923534E+03 -0.56492275247E+03  0.98017594233E+03  0.92752132042E+02 0.  0.
         23    2    4    4    0    0 -0.88656833042E+02  0.39998262116E+03 -0.48277311149E+03  0.63973039979E+03  0.91317993612E+02 0.  0.
          2    1    3    3  502    0  0.68472749461E+03 -0.80359601027E+02 -0.70871716238E+03  0.98873121909E+03  0.00000000000E+00 0. -1.
         -1    1    3    3    0  502  0.14556288629E+03 -0.31553784799E+02 -0.10518207268E+03  0.18233887027E+03  0.00000000000E+00 0.  1.
         11    1    5    5    0    0 -0.41161444748E+03 -0.11261549796E+03 -0.28382657619E+03  0.51250973562E+03  0.00000000000E+00 0. -1.
        -11    1    5    5    0    0 -0.33001910038E+03 -0.17545373737E+03 -0.28109617629E+03  0.46766620671E+03  0.00000000000E+00 0.  1.
          4    1    6    6  503    0 -0.55783188194E+02  0.35801860820E+03 -0.44754445392E+03  0.57583428704E+03  0.00000000000E+00 0.  1.
         -4    1    6    6    0  503 -0.32873644847E+02  0.41964012963E+02 -0.35228657574E+02  0.63896112746E+02  0.00000000000E+00 0. -1.
<mgrwt>
<rscale>  0 0.20794262E+04</rscale>
<asrwt>0</asrwt>
<pdfrwt beam="1">  1        2 0.35789011E+00 0.20794262E+04</pdfrwt>
<pdfrwt beam="2">  1       -1 0.71490873E-01 0.20794262E+04</pdfrwt>
<totfact> 0.90926489E+00</totfact>
</mgrwt>
</event>
<event>
12    6  0.1530859E-007  0.2036983E+04  0.7818608E-02  0.8589522E-01
          2   -1    0    0  501    0  0.00000000000E+00  0.00000000000E+00  0.26173784884E+04  0.26173784884E+04  0.00000000000E+00 0. -1.
         -1   -1    0    0    0  501 -0.00000000000E+00 -0.00000000000E+00 -0.39632216219E+03  0.39632216219E+03  0.00000000000E+00 0.  1.
         24    2    1    2    0    0 -0.35852032448E+03  0.18090474277E+03  0.19464932346E+04  0.19891491913E+04  0.81334149173E+02 0.  0.
        254    2    1    2    0    0  0.35852032448E+03 -0.18090474277E+03  0.27456309162E+03  0.10245514593E+04  0.90169698485E+03 0.  0.
         23    2    4    4    0    0  0.44317708132E+03 -0.43577910102E+03  0.36493407055E+03  0.72661421146E+03  0.92097698945E+02 0.  0.
         23    2    4    4    0    0 -0.84656756840E+02  0.25487435825E+03 -0.90370978935E+02  0.29793724786E+03  0.92043385717E+02 0.  0.
          2    1    3    3  502    0 -0.33109879483E+03  0.17972890801E+03  0.18769619087E+04  0.19143967454E+04  0.00000000000E+00 0. -1.
         -3    1    3    3    0  502 -0.27421529653E+02  0.11758347514E+01  0.69531325957E+02  0.74752445881E+02  0.00000000000E+00 0.  1.
         11    1    5    5    0    0  0.43432406705E+03 -0.44012313510E+03  0.35735397706E+03  0.71417619268E+03  0.00000000000E+00 0.  1.
        -11    1    5    5    0    0  0.88530142670E+01  0.43440340827E+01  0.75800934935E+01  0.12438018777E+02  0.00000000000E+00 0. -1.
          1    1    6    6  503    0 -0.72708700994E+02  0.81789709887E+02 -0.23044765742E+02  0.11183547323E+03  0.00000000000E+00 0. -1.
         -1    1    6    6    0  503 -0.11948055847E+02  0.17308464837E+03 -0.67326213193E+02  0.18610177463E+03  0.00000000000E+00 0.  1.
<mgrwt>
<rscale>  0 0.20369832E+04</rscale>
<asrwt>0</asrwt>
<pdfrwt beam="1">  1        2 0.40267360E+00 0.20369832E+04</pdfrwt>
<pdfrwt beam="2">  1       -1 0.60972642E-01 0.20369832E+04</pdfrwt>
<totfact> 0.85556273E+00</totfact>
</mgrwt>
</event>
<event>
12    6  0.1530859E-007  0.3310174E+04  0.7818608E-02  0.8160311E-01
          2   -1    0    0  501    0  0.00000000000E+00  0.00000000000E+00  0.20646474170E+04  0.20646474170E+04  0.00000000000E+00 0. -1.
         -1   -1    0    0    0  501 -0.00000000000E+00 -0.00000000000E+00 -0.13267706133E+04  0.13267706133E+04  0.00000000000E+00 0.  1.
         24    2    1    2    0    0  0.39457545088E+03  0.13412992883E+04 -0.29351281494E+03  0.14307739894E+04  0.78682074890E+02 0.  0.
        254    2    1    2    0    0 -0.39457545088E+03 -0.13412992883E+04  0.10313896186E+04  0.19606440409E+04  0.90861814997E+03 0.  0.
         23    2    4    4    0    0 -0.98879758367E+02 -0.10567242751E+04  0.28259475678E+03  0.11023089363E+04  0.93711227673E+02 0.  0.
         23    2    4    4    0    0 -0.29569569251E+03 -0.28457501322E+03  0.74879486183E+03  0.85833510464E+03  0.87329983606E+02 0.  0.
          2    1    3    3  502    0  0.14721153379E+03  0.37770539741E+03 -0.93729416321E+02  0.41607427990E+03  0.00000000000E+00 0. -1.
         -1    1    3    3    0  502  0.24736391709E+03  0.96359389093E+03 -0.19978339862E+03  0.10146997095E+04  0.00000000000E+00 0.  1.
         11    1    5    5    0    0 -0.68906550790E+02 -0.35116183083E+03  0.68355599710E+02  0.36432846744E+03  0.00000000000E+00 0.  1.
        -11    1    5    5    0    0 -0.29973207577E+02 -0.70556244429E+03  0.21423915707E+03  0.73798046884E+03  0.00000000000E+00 0. -1.
          1    1    6    6  503    0 -0.22570785813E+02 -0.20601318728E+02  0.20079931003E+02  0.36565808272E+02  0.00000000000E+00 0. -1.
         -1    1    6    6    0  503 -0.27312490670E+03 -0.26397369449E+03  0.72871493083E+03  0.82176929637E+03  0.00000000000E+00 0.  1.
<mgrwt>
<rscale>  0 0.33101743E+04</rscale>
<asrwt>0</asrwt>
<pdfrwt beam="1">  1        2 0.31763807E+00 0.33101743E+04</pdfrwt>
<pdfrwt beam="2">  1       -1 0.20411855E+00 0.33101743E+04</pdfrwt>
<totfact> 0.82292122E-01</totfact>
</mgrwt>
</event>
<event>
12    6  0.1530859E-007  0.3733998E+04  0.7818608E-02  0.8060469E-01
         -1   -1    0    0    0  501 -0.00000000000E+00  0.00000000000E+00  0.14135597878E+04  0.14135597878E+04  0.00000000000E+00 0.  1.
          2   -1    0    0  501    0  0.00000000000E+00 -0.00000000000E+00 -0.24658915456E+04  0.24658915456E+04  0.00000000000E+00 0. -1.
         24    2    1    2    0    0  0.36017820783E+03 -0.11401528777E+04 -0.18320649875E+04  0.21893293697E+04  0.83809572904E+02 0.  0.
        254    2    1    2    0    0 -0.36017820783E+03  0.11401528777E+04  0.77973322969E+03  0.16901219637E+04  0.90490409256E+03 0.  0.
         23    2    4    4    0    0  0.17116710588E+03  0.52915577377E+03  0.67326419707E+00  0.56357564968E+03  0.91175921058E+02 0.  0.
         23    2    4    4    0    0 -0.53134531370E+03  0.61099710390E+03  0.77905996550E+03  0.11265463140E+04  0.80789011329E+02 0.  0.
          2    1    3    3  502    0  0.24973173255E+03 -0.74235215723E+03 -0.12662860567E+04  0.14889368828E+04  0.00000000000E+00 0. -1.
         -1    1    3    3    0  502  0.11044647528E+03 -0.39780072045E+03 -0.56577893083E+03  0.70039248687E+03  0.00000000000E+00 0.  1.
         11    1    5    5    0    0  0.15267988795E+03  0.33681198955E+03 -0.11303495812E+02  0.36997463900E+03  0.00000000000E+00 0.  1.
        -11    1    5    5    0    0  0.18487217927E+02  0.19234378422E+03  0.11976760009E+02  0.19360101068E+03  0.00000000000E+00 0. -1.
          3    1    6    6  503    0 -0.34804061922E+01  0.35360837425E+01  0.18849553398E+02  0.19491607907E+02  0.00000000000E+00 0. -1.
         -3    1    6    6    0  503 -0.52786490751E+03  0.60746102016E+03  0.76021041210E+03  0.11070547061E+04  0.00000000000E+00 0.  1.
<mgrwt>
<rscale>  0 0.37339979E+04</rscale>
<asrwt>0</asrwt>
<pdfrwt beam="1">  1        2 0.37936793E+00 0.37339979E+04</pdfrwt>
<pdfrwt beam="2">  1       -1 0.21747074E+00 0.37339979E+04</pdfrwt>
<totfact> 0.38197017E-01</totfact>
</mgrwt>
</event>
<event>
12    6  0.1530859E-007  0.2055347E+04  0.7818608E-02  0.8581173E-01
          2   -1    0    0  501    0  0.00000000000E+00  0.00000000000E+00  0.48085257666E+03  0.48085257666E+03  0.00000000000E+00 0. -1.
         -1   -1    0    0    0  501 -0.00000000000E+00 -0.00000000000E+00 -0.21963330803E+04  0.21963330803E+04  0.00000000000E+00 0.  1.
         24    2    1    2    0    0  0.34072984168E+03  0.42553180053E+03  0.12248220652E+03  0.56420626625E+03  0.78439031683E+02 0.  0.
        254    2    1    2    0    0 -0.34072984168E+03 -0.42553180053E+03 -0.18379627101E+04  0.21129793907E+04  0.88848232585E+03 0.  0.
         23    2    4    4    0    0 -0.32194649473E+03  0.17937541848E+03 -0.10430350040E+04  0.11097842371E+04  0.88735263862E+02 0.  0.
         23    2    4    4    0    0 -0.18783346950E+02 -0.60490721901E+03 -0.79492770610E+03  0.10031951536E+04  0.90691237278E+02 0.  0.
          2    1    3    3  502    0  0.30528892882E+03  0.38178887227E+03  0.13371653490E+03  0.50679797233E+03  0.00000000000E+00 0. -1.
         -1    1    3    3    0  502  0.35440912853E+02  0.43742928254E+02 -0.11234328384E+02  0.57408293915E+02  0.00000000000E+00 0.  1.
         11    1    5    5    0    0 -0.24276190067E+03  0.88585847214E+02 -0.69497473193E+03  0.74146521885E+03  0.00000000000E+00 0. -1.
        -11    1    5    5    0    0 -0.79184594056E+02  0.90789571270E+02 -0.34806027211E+03  0.36831901825E+03  0.00000000000E+00 0.  1.
          3    1    6    6  503    0  0.30979952773E+02 -0.11527014186E+03 -0.14048789849E+03  0.18434698994E+03  0.00000000000E+00 0. -1.
         -3    1    6    6    0  503 -0.49763299722E+02 -0.48963707715E+03 -0.65443980761E+03  0.81884816364E+03  0.00000000000E+00 0.  1.
<mgrwt>
<rscale>  0 0.20553466E+04</rscale>
<asrwt>0</asrwt>
<pdfrwt beam="1">  1        2 0.73977320E-01 0.20553466E+04</pdfrwt>
<pdfrwt beam="2">  1       -1 0.33789740E+00 0.20553466E+04</pdfrwt>
<totfact> 0.12733089E+00</totfact>
</mgrwt>
</event>
<event>
12    6  0.1530859E-007  0.1651034E+04  0.7818608E-02  0.8789795E-01
          2   -1    0    0  501    0  0.00000000000E+00  0.00000000000E+00  0.66706005521E+03  0.66706005521E+03  0.00000000000E+00 0. -1.
         -1   -1    0    0    0  501 -0.00000000000E+00 -0.00000000000E+00 -0.10216140573E+04  0.10216140573E+04  0.00000000000E+00 0.  1.
         24    2    1    2    0    0  0.22074621010E+03 -0.47613300815E+03 -0.24105899244E+03  0.58325881617E+03  0.81546784644E+02 0.  0.
        254    2    1    2    0    0 -0.22074621010E+03  0.47613300815E+03 -0.11349500963E+03  0.11054152963E+04  0.96624548091E+03 0.  0.
         23    2    4    4    0    0  0.23442804973E+03  0.21040255636E+03 -0.38528739940E+03  0.50597853164E+03  0.91335360714E+02 0.  0.
         23    2    4    4    0    0 -0.45517425983E+03  0.26573045179E+03  0.27179238977E+03  0.59943676467E+03  0.87504582120E+02 0.  0.
          4    1    3    3  502    0  0.14518835217E+03 -0.35596842060E+03 -0.14052334116E+03  0.40931648327E+03  0.00000000000E+00 0. -1.
         -3    1    3    3    0  502  0.75557857930E+02 -0.12016458755E+03 -0.10053565128E+03  0.17394233290E+03  0.00000000000E+00 0.  1.
         11    1    5    5    0    0  0.23140982591E+03  0.21635191235E+03 -0.38590271678E+03  0.49927904455E+03  0.00000000000E+00 0.  1.
        -11    1    5    5    0    0  0.30182238164E+01 -0.59493559891E+01  0.61531738599E+00  0.66994870831E+01  0.00000000000E+00 0. -1.
          2    1    6    6  503    0 -0.11222562414E+02  0.33990789786E+01  0.25303172167E+02  0.27888172524E+02  0.00000000000E+00 0. -1.
         -2    1    6    6    0  503 -0.44395169741E+03  0.26233137281E+03  0.24648921760E+03  0.57154859215E+03  0.00000000000E+00 0.  1.
<mgrwt>
<rscale>  0 0.16510335E+04</rscale>
<asrwt>0</asrwt>
<pdfrwt beam="1">  1        2 0.10262462E+00 0.16510335E+04</pdfrwt>
<pdfrwt beam="2">  1       -1 0.15717139E+00 0.16510335E+04</pdfrwt>
<totfact> 0.14586886E+01</totfact>
</mgrwt>
</event>
<event>
12    6  0.1530859E-007  0.1188395E+04  0.7818608E-02  0.9123076E-01
         -1   -1    0    0    0  501 -0.00000000000E+00  0.00000000000E+00  0.40615664834E+03  0.40615664834E+03  0.00000000000E+00 0.  1.
          2   -1    0    0  501    0  0.00000000000E+00 -0.00000000000E+00 -0.86929645682E+03  0.86929645682E+03  0.00000000000E+00 0. -1.
         24    2    1    2    0    0  0.91197878982E+02  0.72853510781E+02  0.12986115735E+03  0.19118575447E+03  0.77867742751E+02 0.  0.
        254    2    1    2    0    0 -0.91197878982E+02 -0.72853510781E+02 -0.59300096583E+03  0.10842673507E+04  0.90020045275E+03 0.  0.
         23    2    4    4    0    0  0.77598550552E+02  0.32510377989E+02  0.21474027764E+03  0.24780806874E+03  0.90647627464E+02 0.  0.
         23    2    4    4    0    0 -0.16879642953E+03 -0.10536388877E+03 -0.80774124347E+03  0.83645928195E+03  0.87317983704E+02 0.  0.
          4    1    3    3  502    0  0.95965172672E+01  0.55395855128E+02  0.43405525006E+02  0.71026991420E+02  0.00000000000E+00 0. -1.
         -3    1    3    3    0  502  0.81601361714E+02  0.17457655652E+02  0.86455632340E+02  0.12015876305E+03  0.00000000000E+00 0.  1.
         11    1    5    5    0    0 -0.33106196325E+01  0.92734795750E+01 -0.60210346323E+01  0.11541684618E+02  0.00000000000E+00 0. -1.
        -11    1    5    5    0    0  0.80909170185E+02  0.23236898414E+02  0.22076131227E+03  0.23626638412E+03  0.00000000000E+00 0.  1.
          2    1    6    6  503    0 -0.11869806277E+03 -0.27437011598E+02 -0.39076247585E+03  0.40931324465E+03  0.00000000000E+00 0.  1.
         -2    1    6    6    0  503 -0.50098366763E+02 -0.77926877171E+02 -0.41697876762E+03  0.42714603730E+03  0.00000000000E+00 0. -1.
<mgrwt>
<rscale>  0 0.11883948E+04</rscale>
<asrwt>0</asrwt>
<pdfrwt beam="1">  1        2 0.13373791E+00 0.11883948E+04</pdfrwt>
<pdfrwt beam="2">  1       -1 0.62485639E-01 0.11883948E+04</pdfrwt>
<totfact> 0.90105568E+01</totfact>
</mgrwt>
</event>
<event>
12    6  0.1530859E-007  0.1516013E+04  0.7818608E-02  0.8873874E-01
          2   -1    0    0  501    0  0.00000000000E+00  0.00000000000E+00  0.29313622816E+04  0.29313622816E+04  0.00000000000E+00 0. -1.
         -1   -1    0    0    0  501 -0.00000000000E+00 -0.00000000000E+00 -0.19600912666E+03  0.19600912666E+03  0.00000000000E+00 0.  1.
         24    2    1    2    0    0 -0.31372427738E+02  0.78754048881E+02 -0.95854828152E+02  0.15064355392E+03  0.79491526719E+02 0.  0.
        254    2    1    2    0    0  0.31372427738E+02 -0.78754048881E+02  0.28312079831E+04  0.29767278544E+04  0.91541446671E+03 0.  0.
         23    2    4    4    0    0  0.80899384656E+02 -0.22746324629E+03  0.16825961994E+03  0.30764313051E+03  0.89714866053E+02 0.  0.
         23    2    4    4    0    0 -0.49526956918E+02  0.14870919741E+03  0.26629483632E+04  0.26690847239E+04  0.90288057693E+02 0.  0.
          4    1    3    3  502    0 -0.28925874382E+02  0.37742879935E+02 -0.13239635317E+01  0.47570832177E+02  0.00000000000E+00 0. -1.
         -3    1    3    3    0  502 -0.24465533561E+01  0.41011168946E+02 -0.94530864620E+02  0.10307272174E+03  0.00000000000E+00 0.  1.
         11    1    5    5    0    0  0.54802439204E+02 -0.19746534221E+03  0.98555895052E+02  0.22739642294E+03  0.00000000000E+00 0. -1.
        -11    1    5    5    0    0  0.26096945452E+02 -0.29997904088E+02  0.69703724892E+02  0.80246707568E+02  0.00000000000E+00 0.  1.
          3    1    6    6  503    0  0.19359628362E+02  0.79737914955E+02  0.13809249694E+04  0.13833606548E+04  0.00000000000E+00 0. -1.
         -3    1    6    6    0  503 -0.68886585280E+02  0.68971282459E+02  0.12820233938E+04  0.12857240690E+04  0.00000000000E+00 0.  1.
<mgrwt>
<rscale>  0 0.15160129E+04</rscale>
<asrwt>0</asrwt>
<pdfrwt beam="1">  1        2 0.45097878E+00 0.15160129E+04</pdfrwt>
<pdfrwt beam="2">  1       -1 0.30155252E-01 0.15160129E+04</pdfrwt>
<totfact> 0.21486910E+01</totfact>
</mgrwt>
</event>
<event>
12    6  0.1530859E-007  0.1279863E+04  0.7818608E-02  0.9045688E-01
          2   -1    0    0  501    0  0.00000000000E+00  0.00000000000E+00  0.23249521518E+03  0.23249521518E+03  0.00000000000E+00 0. -1.
         -1   -1    0    0    0  501 -0.00000000000E+00 -0.00000000000E+00 -0.17613794996E+04  0.17613794996E+04  0.00000000000E+00 0.  1.
         24    2    1    2    0    0  0.28967286520E+03  0.95283082568E+02 -0.54102957721E+03  0.62627271090E+03  0.80717224618E+02 0.  0.
        254    2    1    2    0    0 -0.28967286520E+03 -0.95283082568E+02 -0.98785470724E+03  0.13676020039E+04  0.89525922715E+03 0.  0.
         23    2    4    4    0    0  0.14652572549E+03  0.29864631785E+03 -0.29431917620E+03  0.45347198855E+03  0.91398334334E+02 0.  0.
         23    2    4    4    0    0 -0.43619859070E+03 -0.39392940042E+03 -0.69353553103E+03  0.91413001535E+03  0.95877886476E+02 0.  0.
          2    1    3    3  502    0  0.56227908199E+02  0.13954276642E+02 -0.50000117297E+02  0.76526539362E+02  0.00000000000E+00 0. -1.
         -1    1    3    3    0  502  0.23344495700E+03  0.81328805926E+02 -0.49102945991E+03  0.54974617154E+03  0.00000000000E+00 0.  1.
         11    1    5    5    0    0  0.15826452048E+03  0.25815125595E+03 -0.25982796404E+03  0.39899912317E+03  0.00000000000E+00 0. -1.
        -11    1    5    5    0    0 -0.11738794988E+02  0.40495061901E+02 -0.34491212163E+02  0.54472865379E+02  0.00000000000E+00 0.  1.
          4    1    6    6  503    0 -0.35353375661E+03 -0.30346138025E+03 -0.60166134510E+03  0.76096734526E+03  0.00000000000E+00 0. -1.
         -4    1    6    6    0  503 -0.82664834084E+02 -0.90468020167E+02 -0.91874185938E+02  0.15316267009E+03  0.00000000000E+00 0.  1.
<mgrwt>
<rscale>  0 0.12798630E+04</rscale>
<asrwt>0</asrwt>
<pdfrwt beam="1">  1        2 0.35768495E-01 0.12798630E+04</pdfrwt>
<pdfrwt beam="2">  1       -1 0.27098146E+00 0.12798630E+04</pdfrwt>
<totfact> 0.83914709E+00</totfact>
</mgrwt>
</event>
<event>
12    6  0.1530859E-007  0.1924307E+04  0.7818608E-02  0.8642851E-01
          2   -1    0    0  501    0  0.00000000000E+00  0.00000000000E+00  0.23343507501E+04  0.23343507501E+04  0.00000000000E+00 0. -1.
         -1   -1    0    0    0  501 -0.00000000000E+00 -0.00000000000E+00 -0.39657237206E+03  0.39657237206E+03  0.00000000000E+00 0.  1.
         24    2    1    2    0    0  0.14728136652E+03 -0.45314896004E+03 -0.57821315516E+02  0.48974040885E+03  0.97296364917E+02 0.  0.
        254    2    1    2    0    0 -0.14728136652E+03  0.45314896004E+03  0.19955996936E+04  0.22411827133E+04  0.90191243288E+03 0.  0.
         23    2    4    4    0    0  0.27695047961E+03  0.50030325397E+03  0.12327861256E+04  0.13617779287E+04  0.87593273275E+02 0.  0.
         23    2    4    4    0    0 -0.42423184613E+03 -0.47154293928E+02  0.76281356798E+03  0.87940478463E+03  0.96291479550E+02 0.  0.
          4    1    3    3  502    0  0.90256361737E+01 -0.10913568659E+03  0.18906976512E+02  0.11112845701E+03  0.00000000000E+00 0. -1.
         -3    1    3    3    0  502  0.13825573034E+03 -0.34401327345E+03 -0.76728292029E+02  0.37861195184E+03  0.00000000000E+00 0.  1.
         11    1    5    5    0    0  0.27693222722E+03  0.48943457110E+03  0.11708413221E+04  0.12988868540E+04  0.00000000000E+00 0.  1.
        -11    1    5    5    0    0  0.18252389661E-01  0.10868682863E+02  0.61944803482E+02  0.62891074714E+02  0.00000000000E+00 0. -1.
          2    1    6    6  503    0  0.43841501712E+01  0.38959079690E+01  0.86447755244E+01  0.10446579129E+02  0.00000000000E+00 0. -1.
         -2    1    6    6    0  503 -0.42861599630E+03 -0.51050201897E+02  0.75416879245E+03  0.86895820550E+03  0.00000000000E+00 0.  1.
<mgrwt>
<rscale>  0 0.19243066E+04</rscale>
<asrwt>0</asrwt>
<pdfrwt beam="1">  1        2 0.35913088E+00 0.19243066E+04</pdfrwt>
<pdfrwt beam="2">  1       -1 0.61011136E-01 0.19243066E+04</pdfrwt>
<totfact> 0.12571324E+01</totfact>
</mgrwt>
</event>
<event>
12    6  0.1530859E-007  0.2694193E+04  0.7818608E-02  0.8336891E-01
         -1   -1    0    0    0  501 -0.00000000000E+00  0.00000000000E+00  0.14638267875E+04  0.14638267875E+04  0.00000000000E+00 0.  1.
          2   -1    0    0  501    0  0.00000000000E+00 -0.00000000000E+00 -0.12396750327E+04  0.12396750327E+04  0.00000000000E+00 0. -1.
         24    2    1    2    0    0 -0.72811173272E+02 -0.99560921579E+03 -0.55496676868E+03  0.11449986802E+04  0.80589613427E+02 0.  0.
        254    2    1    2    0    0  0.72811173272E+02  0.99560921579E+03  0.77911852345E+03  0.15585031400E+04  0.90849721321E+03 0.  0.
         23    2    4    4    0    0  0.12333473753E+03  0.11459542527E+04  0.58752253312E+03  0.12969582114E+04  0.92169781028E+02 0.  0.
         23    2    4    4    0    0 -0.50523564256E+02 -0.15034503691E+03  0.19159599033E+03  0.26154492861E+03  0.80873144503E+02 0.  0.
          4    1    3    3  502    0 -0.28941887602E+02 -0.62767821191E+03 -0.30863241190E+03  0.70005109545E+03  0.00000000000E+00 0. -1.
         -3    1    3    3    0  502 -0.43869285670E+02 -0.36793100388E+03 -0.24633435678E+03  0.44494758475E+03  0.00000000000E+00 0.  1.
         11    1    5    5    0    0  0.19100406858E+02  0.60399031528E+03  0.30031351604E+03  0.67480170006E+03  0.00000000000E+00 0. -1.
        -11    1    5    5    0    0  0.10423433067E+03  0.54196393742E+03  0.28720901708E+03  0.62215651137E+03  0.00000000000E+00 0.  1.
          3    1    6    6  503    0 -0.30855878043E+02 -0.14726668878E+03  0.13721869032E+03  0.20363823759E+03  0.00000000000E+00 0. -1.
         -3    1    6    6    0  503 -0.19667686213E+02 -0.30783481205E+01  0.54377300009E+02  0.57906691016E+02  0.00000000000E+00 0.  1.
<mgrwt>
<rscale>  0 0.26941934E+04</rscale>
<asrwt>0</asrwt>
<pdfrwt beam="1">  1        2 0.19071924E+00 0.26941934E+04</pdfrwt>
<pdfrwt beam="2">  1       -1 0.22520412E+00 0.26941934E+04</pdfrwt>
<totfact> 0.18223151E+00</totfact>
</mgrwt>
</event>
<event>
12    6  0.1530859E-007  0.1790883E+04  0.7818608E-02  0.8711163E-01
         -1   -1    0    0    0  501 -0.00000000000E+00  0.00000000000E+00  0.82263326283E+03  0.82263326283E+03  0.00000000000E+00 0.  1.
          2   -1    0    0  501    0  0.00000000000E+00 -0.00000000000E+00 -0.97469368986E+03  0.97469368986E+03  0.00000000000E+00 0. -1.
         24    2    1    2    0    0 -0.40293663525E+03  0.52824994357E+03 -0.52368544078E+00  0.66869088390E+03  0.75771294442E+02 0.  0.
        254    2    1    2    0    0  0.40293663525E+03 -0.52824994357E+03 -0.15153674159E+03  0.11286360688E+04  0.89969442413E+03 0.  0.
         23    2    4    4    0    0 -0.60940544057E+02 -0.27427857920E+03  0.30471577489E+03  0.42438384832E+03  0.91145259465E+02 0.  0.
         23    2    4    4    0    0  0.46387717930E+03 -0.25397136437E+03 -0.45625251649E+03  0.70425222047E+03  0.90118476660E+02 0.  0.
          2    1    3    3  502    0 -0.63022894534E+02  0.10248905524E+03  0.26558041830E+02  0.12321209870E+03  0.00000000000E+00 0. -1.
         -1    1    3    3    0  502 -0.33991374071E+03  0.42576088833E+03 -0.27081727271E+02  0.54547878520E+03  0.00000000000E+00 0.  1.
         11    1    5    5    0    0  0.13458495642E+02 -0.14935787716E+03  0.15721960693E+03  0.21727151534E+03  0.00000000000E+00 0.  1.
        -11    1    5    5    0    0 -0.74399039699E+02 -0.12492070204E+03  0.14749616797E+03  0.20711233298E+03  0.00000000000E+00 0. -1.
          2    1    6    6  503    0  0.44541033863E+03 -0.23639147122E+03 -0.40407895080E+03  0.64618193715E+03  0.00000000000E+00 0. -1.
         -2    1    6    6    0  503  0.18466840672E+02 -0.17579893146E+02 -0.52173565689E+02  0.58070283313E+02  0.00000000000E+00 0.  1.
<mgrwt>
<rscale>  0 0.17908830E+04</rscale>
<asrwt>0</asrwt>
<pdfrwt beam="1">  1        2 0.14995287E+00 0.17908830E+04</pdfrwt>
<pdfrwt beam="2">  1       -1 0.12655896E+00 0.17908830E+04</pdfrwt>
<totfact> 0.15299593E+01</totfact>
</mgrwt>
</event>
<event>
12    6  0.1530859E-007  0.1657242E+04  0.7818608E-02  0.8786134E-01
         -1   -1    0    0    0  501 -0.00000000000E+00  0.00000000000E+00  0.39753903246E+03  0.39753903246E+03  0.00000000000E+00 0.  1.
          2   -1    0    0  501    0  0.00000000000E+00 -0.00000000000E+00 -0.17271578754E+04  0.17271578754E+04  0.00000000000E+00 0. -1.
         24    2    1    2    0    0 -0.20668102203E+03  0.27369190245E+03  0.13010572770E+03  0.37710874327E+03  0.87516864299E+02 0.  0.
        254    2    1    2    0    0  0.20668102203E+03 -0.27369190245E+03 -0.14597245707E+04  0.17475881646E+04  0.89757688727E+03 0.  0.
         23    2    4    4    0    0  0.37850934087E+03 -0.74456334939E+02 -0.14103573606E+04  0.14649509964E+04  0.90335321607E+02 0.  0.
         23    2    4    4    0    0 -0.17182831884E+03 -0.19923556751E+03 -0.49367210074E+02  0.28263716822E+03  0.90702066741E+02 0.  0.
          4    1    3    3  502    0 -0.81903311314E+02  0.45045648159E+02  0.33657205100E+02  0.99348227349E+02  0.00000000000E+00 0. -1.
         -3    1    3    3    0  502 -0.12477771071E+03  0.22864625429E+03  0.96448522600E+02  0.27776051592E+03  0.00000000000E+00 0.  1.
         11    1    5    5    0    0  0.15073744244E+03 -0.76341906746E+01 -0.41238562140E+03  0.43913774395E+03  0.00000000000E+00 0.  1.
        -11    1    5    5    0    0  0.22777189843E+03 -0.66822144265E+02 -0.99797173919E+03  0.10258132525E+04  0.00000000000E+00 0. -1.
          3    1    6    6  503    0 -0.58049386460E+02 -0.10160775629E+03  0.17780803000E+02  0.11836394874E+03  0.00000000000E+00 0. -1.
         -3    1    6    6    0  503 -0.11377893238E+03 -0.97627811227E+02 -0.67148013074E+02  0.16427321948E+03  0.00000000000E+00 0.  1.
<mgrwt>
<rscale>  0 0.16572419E+04</rscale>
<asrwt>0</asrwt>
<pdfrwt beam="1">  1        2 0.26571659E+00 0.16572419E+04</pdfrwt>
<pdfrwt beam="2">  1       -1 0.61159852E-01 0.16572419E+04</pdfrwt>
<totfact> 0.27929282E+01</totfact>
</mgrwt>
</event>
<event>
12    6  0.1530859E-007  0.1188566E+04  0.7818608E-02  0.9122924E-01
          2   -1    0    0  501    0  0.00000000000E+00  0.00000000000E+00  0.17966420542E+04  0.17966420542E+04  0.00000000000E+00 0. -1.
         -1   -1    0    0    0  501 -0.00000000000E+00 -0.00000000000E+00 -0.19657370156E+03  0.19657370156E+03  0.00000000000E+00 0.  1.
         24    2    1    2    0    0 -0.17244816591E+03  0.74389707725E+02  0.85247355612E+02  0.22138289281E+03  0.80442992549E+02 0.  0.
        254    2    1    2    0    0  0.17244816591E+03 -0.74389707725E+02  0.15148209971E+04  0.17718328630E+04  0.89968708041E+03 0.  0.
         23    2    4    4    0    0 -0.19962430440E+02 -0.35670307994E+03  0.13181072985E+04  0.13688173522E+04  0.92835917546E+02 0.  0.
         23    2    4    4    0    0  0.19241059635E+03  0.28231337221E+03  0.19671369857E+03  0.40301551074E+03  0.83681210426E+02 0.  0.
          2    1    3    3  502    0 -0.13973125682E+02  0.32472061505E+02  0.35443165121E+02  0.50058974955E+02  0.00000000000E+00 0. -1.
         -1    1    3    3    0  502 -0.15847504023E+03  0.41917646220E+02  0.49804190490E+02  0.17132391786E+03  0.00000000000E+00 0.  1.
         11    1    5    5    0    0 -0.19321720393E+02 -0.64085733426E+02  0.14401736517E+03  0.15881218964E+03  0.00000000000E+00 0. -1.
        -11    1    5    5    0    0 -0.64071004720E+00 -0.29261734651E+03  0.11740899333E+04  0.12100051626E+04  0.00000000000E+00 0.  1.
          1    1    6    6  503    0  0.47753211278E+01  0.57732225540E+02  0.20725133661E+02  0.61525155205E+02  0.00000000000E+00 0. -1.
         -1    1    6    6    0  503  0.18763527522E+03  0.22458114667E+03  0.17598856491E+03  0.34149035554E+03  0.00000000000E+00 0.  1.
<mgrwt>
<rscale>  0 0.11885665E+04</rscale>
<asrwt>0</asrwt>
<pdfrwt beam="1">  1        2 0.27640646E+00 0.11885665E+04</pdfrwt>
<pdfrwt beam="2">  1       -1 0.30242109E-01 0.11885665E+04</pdfrwt>
<totfact> 0.98104037E+01</totfact>
</mgrwt>
</event>
<event>
12    6  0.1530859E-007  0.1371769E+04  0.7818608E-02  0.8974511E-01
         -1   -1    0    0    0  501 -0.00000000000E+00  0.00000000000E+00  0.47936384753E+03  0.47936384753E+03  0.00000000000E+00 0.  1.
          2   -1    0    0  501    0  0.00000000000E+00 -0.00000000000E+00 -0.98137889085E+03  0.98137889085E+03  0.00000000000E+00 0. -1.
         24    2    1    2    0    0  0.16264232822E+02 -0.24975502890E+03 -0.48452410710E+03  0.55120257364E+03  0.80115960346E+02 0.  0.
        254    2    1    2    0    0 -0.16264232822E+02  0.24975502890E+03 -0.17490936226E+02  0.90954016474E+03  0.87425126748E+03 0.  0.
         23    2    4    4    0    0  0.34737016276E+03  0.11541033512E+03  0.22864038255E+03  0.44101245671E+03  0.90719275886E+02 0.  0.
         23    2    4    4    0    0 -0.36363439558E+03  0.13434469378E+03 -0.24613131878E+03  0.46852770802E+03  0.93054375028E+02 0.  0.
          2    1    3    3  502    0 -0.31591227098E+02 -0.12142840859E+03 -0.24617300108E+03  0.27630419922E+03  0.00000000000E+00 0. -1.
         -1    1    3    3    0  502  0.47855459920E+02 -0.12832662031E+03 -0.23835110602E+03  0.27489837443E+03  0.00000000000E+00 0.  1.
         11    1    5    5    0    0  0.20175160507E+02 -0.11186650798E+02  0.16007081905E+01  0.23124457275E+02  0.00000000000E+00 0.  1.
        -11    1    5    5    0    0  0.32719500225E+03  0.12659698592E+03  0.22703967436E+03  0.41788799944E+03  0.00000000000E+00 0. -1.
          2    1    6    6  503    0 -0.15361813684E+03  0.10081147388E+03 -0.89394976170E+02  0.20433537872E+03  0.00000000000E+00 0. -1.
         -2    1    6    6    0  503 -0.21001625874E+03  0.33533219899E+02 -0.15673634261E+03  0.26419232931E+03  0.00000000000E+00 0.  1.
<mgrwt>
<rscale>  0 0.13717690E+04</rscale>
<asrwt>0</asrwt>
<pdfrwt beam="1">  1        2 0.15098137E+00 0.13717690E+04</pdfrwt>
<pdfrwt beam="2">  1       -1 0.73748285E-01 0.13717690E+04</pdfrwt>
<totfact> 0.53376376E+01</totfact>
</mgrwt>
</event>
<event>
12    6  0.1530859E-007  0.2166628E+04  0.7818608E-02  0.8532448E-01
          2   -1    0    0  501    0  0.00000000000E+00  0.00000000000E+00  0.10672167447E+04  0.10672167447E+04  0.00000000000E+00 0. -1.
         -1   -1    0    0    0  501 -0.00000000000E+00 -0.00000000000E+00 -0.10996542468E+04  0.10996542468E+04  0.00000000000E+00 0.  1.
         24    2    1    2    0    0 -0.43877593215E+03  0.69732213786E+03 -0.35584557245E+03  0.90096200880E+03  0.79523501436E+02 0.  0.
        254    2    1    2    0    0  0.43877593215E+03 -0.69732213786E+03  0.32340807033E+03  0.12659089827E+04  0.90506921838E+03 0.  0.
         23    2    4    4    0    0  0.22227788730E+03 -0.87333837262E+03  0.34672918769E+03  0.97070034496E+03  0.99552286991E+02 0.  0.
         23    2    4    4    0    0  0.21649804485E+03  0.17601623476E+03 -0.23321117364E+02  0.29520863778E+03  0.93547565359E+02 0.  0.
          2    1    3    3  502    0 -0.94997358703E+02  0.12093590351E+03 -0.38173612184E+02  0.15845256573E+03  0.00000000000E+00 0. -1.
         -1    1    3    3    0  502 -0.34377857344E+03  0.57638623435E+03 -0.31767196027E+03  0.74250944307E+03  0.00000000000E+00 0.  1.
         11    1    5    5    0    0  0.87453480332E+02 -0.32709051926E+03  0.79324594035E+02  0.34774805568E+03  0.00000000000E+00 0. -1.
        -11    1    5    5    0    0  0.13482440696E+03 -0.54624785336E+03  0.26740459365E+03  0.62295228929E+03  0.00000000000E+00 0.  1.
          4    1    6    6  503    0 -0.86579022332E+01  0.86147607287E+01 -0.71996869167E+01  0.14177759527E+02  0.00000000000E+00 0. -1.
         -4    1    6    6    0  503  0.22515594708E+03  0.16740147403E+03 -0.16121430447E+02  0.28103087826E+03  0.00000000000E+00 0.  1.
<mgrwt>
<rscale>  0 0.21666282E+04</rscale>
<asrwt>0</asrwt>
<pdfrwt beam="1">  1        2 0.16418719E+00 0.21666282E+04</pdfrwt>
<pdfrwt beam="2">  1       -1 0.16917758E+00 0.21666282E+04</pdfrwt>
<totfact> 0.59548713E+00</totfact>
</mgrwt>
</event>
<event>
12    6  0.1530859E-007  0.1268589E+04  0.7818608E-02  0.9054852E-01
          2   -1    0    0  501    0  0.00000000000E+00  0.00000000000E+00  0.78665143409E+03  0.78665143409E+03  0.00000000000E+00 0. -1.
         -1   -1    0    0    0  501 -0.00000000000E+00 -0.00000000000E+00 -0.51144566005E+03  0.51144566005E+03  0.00000000000E+00 0.  1.
         24    2    1    2    0    0  0.19356499620E+03 -0.22135915986E+03  0.16195327740E+03  0.34760411793E+03  0.90180226958E+02 0.  0.
        254    2    1    2    0    0 -0.19356499620E+03  0.22135915986E+03  0.11325249663E+03  0.95049297620E+03  0.89674047774E+03 0.  0.
         23    2    4    4    0    0  0.20898568219E+02  0.49549097200E+03  0.25372421851E+03  0.56431146944E+03  0.90129917311E+02 0.  0.
         23    2    4    4    0    0 -0.21446356442E+03 -0.27413181215E+03 -0.14047172188E+03  0.38618150676E+03  0.90889936858E+02 0.  0.
          2    1    3    3  502    0  0.10998772954E+03 -0.85411562137E+02  0.34750708455E+02  0.14352716584E+03  0.00000000000E+00 0. -1.
         -1    1    3    3    0  502  0.83577266666E+02 -0.13594759772E+03  0.12720256895E+03  0.20407695209E+03  0.00000000000E+00 0.  1.
         11    1    5    5    0    0  0.44172313710E+02  0.18775560829E+03  0.12551937136E+03  0.23012708300E+03  0.00000000000E+00 0.  1.
        -11    1    5    5    0    0 -0.23273745492E+02  0.30773536372E+03  0.12820484715E+03  0.33418438645E+03  0.00000000000E+00 0. -1.
          3    1    6    6  503    0  0.25797600542E+01 -0.28358902488E+02 -0.26918106547E+02  0.39185035056E+02  0.00000000000E+00 0. -1.
         -3    1    6    6    0  503 -0.21704332447E+03 -0.24577290966E+03 -0.11355361533E+03  0.34699647170E+03  0.00000000000E+00 0.  1.
<mgrwt>
<rscale>  0 0.12685889E+04</rscale>
<asrwt>0</asrwt>
<pdfrwt beam="1">  1        2 0.12102330E+00 0.12685889E+04</pdfrwt>
<pdfrwt beam="2">  1       -1 0.78683948E-01 0.12685889E+04</pdfrwt>
<totfact> 0.63864032E+01</totfact>
</mgrwt>
</event>
<event>
12    6  0.1530859E-007  0.1064095E+04  0.7818608E-02  0.9240911E-01
          2   -1    0    0  501    0  0.00000000000E+00  0.00000000000E+00  0.57051653557E+03  0.57051653557E+03  0.00000000000E+00 0. -1.
         -1   -1    0    0    0  501 -0.00000000000E+00 -0.00000000000E+00 -0.49617263683E+03  0.49617263683E+03  0.00000000000E+00 0.  1.
         24    2    1    2    0    0  0.51609962129E+02 -0.11389333777E+03  0.85568925816E+02  0.17107549031E+03  0.79432372108E+02 0.  0.
        254    2    1    2    0    0 -0.51609962129E+02  0.11389333777E+03 -0.11225027073E+02  0.89561368209E+03  0.88677087556E+03 0.  0.
         23    2    4    4    0    0 -0.76416592526E+01  0.19543554820E+03  0.40546567781E+03  0.45927684654E+03  0.90990974449E+02 0.  0.
         23    2    4    4    0    0 -0.43968302877E+02 -0.81542210429E+02 -0.41669070488E+03  0.43633683555E+03  0.90423154035E+02 0.  0.
          2    1    3    3  502    0  0.55327976922E+02 -0.10158233809E+03  0.37932123704E+02  0.12173332515E+03  0.00000000000E+00 0. -1.
         -1    1    3    3    0  502 -0.37180147925E+01 -0.12310999676E+02  0.47636802111E+02  0.49342165157E+02  0.00000000000E+00 0.  1.
         11    1    5    5    0    0 -0.14801669534E+02  0.10922974570E+03  0.31669459650E+03  0.33532923257E+03  0.00000000000E+00 0. -1.
        -11    1    5    5    0    0  0.71600102811E+01  0.86205802495E+02  0.88771081313E+02  0.12394761397E+03  0.00000000000E+00 0.  1.
          2    1    6    6  503    0 -0.30076694166E+02 -0.95806885093E+01 -0.27507407590E+03  0.27687929564E+03  0.00000000000E+00 0. -1.
         -2    1    6    6    0  503 -0.13891608711E+02 -0.71961521920E+02 -0.14161662899E+03  0.15945753991E+03  0.00000000000E+00 0.  1.
<mgrwt>
<rscale>  0 0.10640953E+04</rscale>
<asrwt>0</asrwt>
<pdfrwt beam="1">  1        2 0.87771775E-01 0.10640953E+04</pdfrwt>
<pdfrwt beam="2">  1       -1 0.76334251E-01 0.10640953E+04</pdfrwt>
<totfact> 0.10330743E+02</totfact>
</mgrwt>
</event>
<event>
12    6  0.1530859E-007  0.2960233E+04  0.7818608E-02  0.8255179E-01
          2   -1    0    0  501    0  0.00000000000E+00  0.00000000000E+00  0.14973047487E+04  0.14973047487E+04  0.00000000000E+00 0. -1.
         -1   -1    0    0    0  501 -0.00000000000E+00 -0.00000000000E+00 -0.14631253694E+04  0.14631253694E+04  0.00000000000E+00 0.  1.
         24    2    1    2    0    0  0.53477203265E+03  0.13775318548E+03  0.12399570498E+04  0.13598859175E+04  0.82699191958E+02 0.  0.
        254    2    1    2    0    0 -0.53477203265E+03 -0.13775318548E+03 -0.12057776704E+04  0.16005442006E+04  0.89603843689E+03 0.  0.
         23    2    4    4    0    0 -0.57904414048E+03  0.25912175436E+03 -0.77767120251E+03  0.10078391605E+04  0.92363813710E+02 0.  0.
         23    2    4    4    0    0  0.44272107832E+02 -0.39687493984E+03 -0.42810646794E+03  0.59270504003E+03  0.92489886881E+02 0.  0.
          4    1    3    3  502    0  0.39457764468E+03  0.12683650202E+03  0.85784127917E+03  0.95271752172E+03  0.00000000000E+00 0. -1.
         -3    1    3    3    0  502  0.14019438797E+03  0.10916683459E+02  0.38211577059E+03  0.40716839579E+03  0.00000000000E+00 0.  1.
         11    1    5    5    0    0 -0.44290930274E+03  0.23465564599E+03 -0.57983925197E+03  0.76644992059E+03  0.00000000000E+00 0.  1.
        -11    1    5    5    0    0 -0.13613483774E+03  0.24466108370E+02 -0.19783195054E+03  0.24138923994E+03  0.00000000000E+00 0. -1.
          2    1    6    6  503    0  0.38553084684E+02 -0.38491114762E+03 -0.37794021743E+03  0.54081580954E+03  0.00000000000E+00 0.  1.
         -2    1    6    6    0  503  0.57190231480E+01 -0.11963792222E+02 -0.50166250506E+02  0.51889230481E+02  0.00000000000E+00 0. -1.
<mgrwt>
<rscale>  0 0.29602328E+04</rscale>
<asrwt>0</asrwt>
<pdfrwt beam="1">  1        2 0.23035458E+00 0.29602328E+04</pdfrwt>
<pdfrwt beam="2">  1       -1 0.22509621E+00 0.29602328E+04</pdfrwt>
<totfact> 0.12675164E+00</totfact>
</mgrwt>
</event>
<event>
12    6  0.1530859E-007  0.2113644E+04  0.7818608E-02  0.8555257E-01
          2   -1    0    0  501    0  0.00000000000E+00  0.00000000000E+00  0.32424590834E+04  0.32424590834E+04  0.00000000000E+00 0. -1.
         -1   -1    0    0    0  501 -0.00000000000E+00 -0.00000000000E+00 -0.34445225252E+03  0.34445225252E+03  0.00000000000E+00 0.  1.
         24    2    1    2    0    0 -0.16945866369E+02 -0.76320448036E+03  0.46389510902E+03  0.89655216736E+03  0.76412534249E+02 0.  0.
        254    2    1    2    0    0  0.16945866369E+02  0.76320448036E+03  0.24341117218E+04  0.26903591685E+04  0.85461356189E+03 0.  0.
         23    2    4    4    0    0  0.13561096068E+03 -0.14720700371E+03  0.38877357742E+03  0.44660005045E+03  0.90810109395E+02 0.  0.
         23    2    4    4    0    0 -0.11866509431E+03  0.91041148407E+03  0.20453381444E+04  0.22437591181E+04  0.90090954436E+02 0.  0.
          4    1    3    3  502    0  0.20471030673E+02 -0.18490108424E+03  0.87914149844E+02  0.20575804187E+03  0.00000000000E+00 0. -1.
         -3    1    3    3    0  502 -0.37416897042E+02 -0.57830339612E+03  0.37598095918E+03  0.69079412549E+03  0.00000000000E+00 0.  1.
         11    1    5    5    0    0  0.63904512993E+02 -0.20405106299E+02  0.74775919375E+02  0.10045692242E+03  0.00000000000E+00 0.  1.
        -11    1    5    5    0    0  0.71706447685E+02 -0.12680189741E+03  0.31399765804E+03  0.34614312803E+03  0.00000000000E+00 0. -1.
          2    1    6    6  503    0 -0.12349344178E+03  0.79271048457E+03  0.17246508606E+04  0.19021201680E+04  0.00000000000E+00 0. -1.
         -2    1    6    6    0  503  0.48283474680E+01  0.11770099950E+03  0.32068728384E+03  0.34163895012E+03  0.00000000000E+00 0.  1.
<mgrwt>
<rscale>  0 0.21136436E+04</rscale>
<asrwt>0</asrwt>
<pdfrwt beam="1">  1        2 0.49883984E+00 0.21136436E+04</pdfrwt>
<pdfrwt beam="2">  1       -1 0.52992657E-01 0.21136436E+04</pdfrwt>
<totfact> 0.45874047E+00</totfact>
</mgrwt>
</event>
<event>
12    6  0.1530859E-007  0.1449830E+04  0.7818608E-02  0.8918518E-01
          2   -1    0    0  501    0  0.00000000000E+00  0.00000000000E+00  0.10122708990E+04  0.10122708990E+04  0.00000000000E+00 0. -1.
         -1   -1    0    0    0  501 -0.00000000000E+00 -0.00000000000E+00 -0.51913161816E+03  0.51913161816E+03  0.00000000000E+00 0.  1.
         24    2    1    2    0    0 -0.60730007324E+02 -0.48843872225E+03 -0.25174102313E+01  0.49980564312E+03  0.86826403556E+02 0.  0.
        254    2    1    2    0    0  0.60730007324E+02  0.48843872225E+03  0.49565669103E+03  0.10315968740E+04  0.75911529816E+03 0.  0.
         23    2    4    4    0    0  0.94165395839E+02  0.49493997926E+03  0.66424820288E+03  0.83853559548E+03  0.89908648170E+02 0.  0.
         23    2    4    4    0    0 -0.33435388515E+02 -0.65012570076E+01 -0.16859151185E+03  0.19306127852E+03  0.87689040652E+02 0.  0.
          4    1    3    3  502    0 -0.58548574964E+02 -0.15477759967E+03 -0.12831884633E+02  0.16597800533E+03  0.00000000000E+00 0. -1.
         -3    1    3    3    0  502 -0.21814323603E+01 -0.33366112259E+03  0.10314474402E+02  0.33382763779E+03  0.00000000000E+00 0.  1.
         11    1    5    5    0    0  0.60142970051E+02  0.35804126437E+03  0.40893141999E+03  0.54684150363E+03  0.00000000000E+00 0. -1.
        -11    1    5    5    0    0  0.34022425788E+02  0.13689871489E+03  0.25531678289E+03  0.29169409185E+03  0.00000000000E+00 0.  1.
          4    1    6    6  503    0 -0.37737369074E+02 -0.30503982787E+02 -0.16001686995E+03  0.16721244170E+03  0.00000000000E+00 0. -1.
         -4    1    6    6    0  503  0.43019805596E+01  0.24002725779E+02 -0.85746418994E+01  0.25848836826E+02  0.00000000000E+00 0.  1.
<mgrwt>
<rscale>  0 0.14498301E+04</rscale>
<asrwt>0</asrwt>
<pdfrwt beam="1">  1        2 0.15573398E+00 0.14498301E+04</pdfrwt>
<pdfrwt beam="2">  1       -1 0.79866403E-01 0.14498301E+04</pdfrwt>
<totfact> 0.42852907E+01</totfact>
</mgrwt>
</event>
<event>
12    6  0.1530859E-007  0.1581732E+04  0.7818608E-02  0.8831850E-01
         -1   -1    0    0    0  501 -0.00000000000E+00  0.00000000000E+00  0.49563486835E+03  0.49563486835E+03  0.00000000000E+00 0.  1.
          2   -1    0    0  501    0  0.00000000000E+00 -0.00000000000E+00 -0.12619560494E+04  0.12619560494E+04  0.00000000000E+00 0. -1.
         24    2    1    2    0    0  0.13779082950E+03  0.50954740071E+03 -0.37618708626E+03  0.65362250612E+03  0.84147432369E+02 0.  0.
        254    2    1    2    0    0 -0.13779082950E+03 -0.50954740071E+03 -0.39013409475E+03  0.11039684116E+04  0.88764676286E+03 0.  0.
         23    2    4    4    0    0 -0.34570209374E+03  0.69766096399E+02  0.91758610791E+01  0.36459165966E+03  0.92008891086E+02 0.  0.
         23    2    4    4    0    0  0.20791126424E+03 -0.57931349711E+03 -0.39930995583E+03  0.73937675193E+03  0.91642341375E+02 0.  0.
          2    1    3    3  502    0  0.10783108545E+03  0.47908271227E+03 -0.35487291180E+03  0.60587339578E+03  0.00000000000E+00 0. -1.
         -1    1    3    3    0  502  0.29959744052E+02  0.30464688441E+02 -0.21314174458E+02  0.47749110340E+02  0.00000000000E+00 0.  1.
         11    1    5    5    0    0 -0.16800523105E+03  0.60676046067E+02  0.42394258892E+02  0.18358816251E+03  0.00000000000E+00 0. -1.
        -11    1    5    5    0    0 -0.17769686269E+03  0.90900503322E+01 -0.33218397813E+02  0.18100349715E+03  0.00000000000E+00 0.  1.
          2    1    6    6  503    0  0.11733694509E+03 -0.44547954142E+03 -0.29647555007E+03  0.54783002135E+03  0.00000000000E+00 0. -1.
         -2    1    6    6    0  503  0.90574319150E+02 -0.13383395569E+03 -0.10283440576E+03  0.19154673057E+03  0.00000000000E+00 0.  1.
<mgrwt>
<rscale>  0 0.15817325E+04</rscale>
<asrwt>0</asrwt>
<pdfrwt beam="1">  1        2 0.19414709E+00 0.15817325E+04</pdfrwt>
<pdfrwt beam="2">  1       -1 0.76251518E-01 0.15817325E+04</pdfrwt>
<totfact> 0.32902953E+01</totfact>
</mgrwt>
</event>
<event>
12    6  0.1530859E-007  0.2098362E+04  0.7818608E-02  0.8561965E-01
         -3   -1    0    0    0  501 -0.00000000000E+00  0.00000000000E+00  0.37115592911E+03  0.37115592911E+03  0.00000000000E+00 0.  1.
          2   -1    0    0  501    0  0.00000000000E+00 -0.00000000000E+00 -0.29658177167E+04  0.29658177167E+04  0.00000000000E+00 0. -1.
         24    2    1    2    0    0  0.44053484877E+03 -0.68654654952E+03 -0.14822253361E+04  0.16937290759E+04  0.79429956730E+02 0.  0.
        254    2    1    2    0    0 -0.44053484877E+03  0.68654654952E+03 -0.11124364515E+04  0.16432445699E+04  0.89292818312E+03 0.  0.
         23    2    4    4    0    0 -0.63788141995E+02  0.47825324713E+03 -0.10985470353E+04  0.12031691075E+04  0.89527744842E+02 0.  0.
         23    2    4    4    0    0 -0.37674670678E+03  0.20829330239E+03 -0.13889416229E+02  0.44007546238E+03  0.90273561026E+02 0.  0.
          4    1    3    3  502    0  0.92743529559E+02 -0.10094238313E+03 -0.28723034031E+03  0.31826403407E+03  0.00000000000E+00 0. -1.
         -3    1    3    3    0  502  0.34779131921E+03 -0.58560416639E+03 -0.11949949958E+04  0.13754650418E+04  0.00000000000E+00 0.  1.
         11    1    5    5    0    0 -0.23726176303E+02  0.90007465185E+02 -0.13910431097E+03  0.16737468315E+03  0.00000000000E+00 0. -1.
        -11    1    5    5    0    0 -0.40061965692E+02  0.38824578194E+03 -0.95944272432E+03  0.10357944244E+04  0.00000000000E+00 0.  1.
          3    1    6    6  503    0 -0.95401878740E+02  0.34354774636E+02  0.31558808121E+02  0.10619664485E+03  0.00000000000E+00 0. -1.
         -3    1    6    6    0  503 -0.28134482804E+03  0.17393852776E+03 -0.45448224350E+02  0.33387881753E+03  0.00000000000E+00 0.  1.
<mgrwt>
<rscale>  0 0.20983621E+04</rscale>
<asrwt>0</asrwt>
<pdfrwt beam="1">  1        2 0.45627965E+00 0.20983621E+04</pdfrwt>
<pdfrwt beam="2">  1       -3 0.57100913E-01 0.20983621E+04</pdfrwt>
<totfact> 0.32781168E+00</totfact>
</mgrwt>
</event>
<event>
12    6  0.1530859E-007  0.2300918E+04  0.7818608E-02  0.8477559E-01
         -1   -1    0    0    0  501 -0.00000000000E+00  0.00000000000E+00  0.12783673304E+04  0.12783673304E+04  0.00000000000E+00 0.  1.
          2   -1    0    0  501    0  0.00000000000E+00 -0.00000000000E+00 -0.10353487767E+04  0.10353487767E+04  0.00000000000E+00 0. -1.
         24    2    1    2    0    0  0.39878500024E+03  0.56471854004E+03  0.78598925922E+03  0.10497572080E+04  0.79212210699E+02 0.  0.
        254    2    1    2    0    0 -0.39878500024E+03 -0.56471854004E+03 -0.54297070558E+03  0.12639588991E+04  0.90820614710E+03 0.  0.
         23    2    4    4    0    0 -0.24913199969E+03  0.73844170916E+02  0.14319213319E+03  0.31040432462E+03  0.91253180168E+02 0.  0.
         23    2    4    4    0    0 -0.14965300055E+03 -0.63856271096E+03 -0.68616283877E+03  0.95355457448E+03  0.91041357711E+02 0.  0.
          4    1    3    3  502    0  0.40524608103E+02  0.55699670997E+02  0.11855570997E+03  0.13711365205E+03  0.00000000000E+00 0. -1.
         -3    1    3    3    0  502  0.35826039213E+03  0.50901886904E+03  0.66743354925E+03  0.91264355598E+03  0.00000000000E+00 0.  1.
         11    1    5    5    0    0 -0.14131536934E+03  0.87850410483E+02  0.93466624777E+02  0.19085004108E+03  0.00000000000E+00 0. -1.
        -11    1    5    5    0    0 -0.10781663035E+03 -0.14006239566E+02  0.49725508411E+02  0.11955428354E+03  0.00000000000E+00 0.  1.
          2    1    6    6  503    0 -0.95946316724E+02 -0.44777192817E+03 -0.41747159414E+03  0.61966759417E+03  0.00000000000E+00 0. -1.
         -2    1    6    6    0  503 -0.53706683823E+02 -0.19079078279E+03 -0.26869124462E+03  0.33388698031E+03  0.00000000000E+00 0.  1.
<mgrwt>
<rscale>  0 0.23009181E+04</rscale>
<asrwt>0</asrwt>
<pdfrwt beam="1">  1        2 0.15928443E+00 0.23009181E+04</pdfrwt>
<pdfrwt beam="2">  1       -1 0.19667190E+00 0.23009181E+04</pdfrwt>
<totfact> 0.39229459E+00</totfact>
</mgrwt>
</event>
<event>
12    6  0.1530859E-007  0.1295806E+04  0.7818608E-02  0.9032897E-01
          2   -1    0    0  501    0  0.00000000000E+00  0.00000000000E+00  0.19890433305E+04  0.19890433305E+04  0.00000000000E+00 0. -1.
         -1   -1    0    0    0  501 -0.00000000000E+00 -0.00000000000E+00 -0.21104543775E+03  0.21104543775E+03  0.00000000000E+00 0.  1.
         24    2    1    2    0    0 -0.36524913393E+02 -0.28888059638E+03  0.72731647390E+03  0.78848391731E+03  0.89059341918E+02 0.  0.
        254    2    1    2    0    0  0.36524913393E+02  0.28888059638E+03  0.10506814188E+04  0.14116048509E+04  0.89661069760E+03 0.  0.
         23    2    4    4    0    0 -0.26248954921E+03 -0.10903057834E+03  0.78589703884E+03  0.84055353432E+03  0.90042534070E+02 0.  0.
         23    2    4    4    0    0  0.29901446260E+03  0.39791117472E+03  0.26478438000E+03  0.57105131662E+03  0.90806863787E+02 0.  0.
          2    1    3    3  502    0 -0.60151020139E+02 -0.20352829174E+03  0.56557340240E+03  0.60408210060E+03  0.00000000000E+00 0. -1.
         -1    1    3    3    0  502  0.23626106746E+02 -0.85352304633E+02  0.16174307150E+03  0.18440181671E+03  0.00000000000E+00 0.  1.
         11    1    5    5    0    0 -0.96731989492E+02 -0.58114461185E+01  0.34497372525E+03  0.35832627842E+03  0.00000000000E+00 0. -1.
        -11    1    5    5    0    0 -0.16575755972E+03 -0.10321913222E+03  0.44092331360E+03  0.48222725590E+03  0.00000000000E+00 0.  1.
          1    1    6    6  503    0  0.14422029993E+03  0.14642671068E+03  0.69251527595E+02  0.21687796243E+03  0.00000000000E+00 0. -1.
         -1    1    6    6    0  503  0.15479416267E+03  0.25148446404E+03  0.19553285241E+03  0.35417335419E+03  0.00000000000E+00 0.  1.
<mgrwt>
<rscale>  0 0.12958063E+04</rscale>
<asrwt>0</asrwt>
<pdfrwt beam="1">  1        2 0.30600665E+00 0.12958063E+04</pdfrwt>
<pdfrwt beam="2">  1       -1 0.32468530E-01 0.12958063E+04</pdfrwt>
<totfact> 0.67205654E+01</totfact>
</mgrwt>
</event>
<event>
12    6  0.1530859E-007  0.1759034E+04  0.7818608E-02  0.8728393E-01
         -1   -1    0    0    0  501 -0.00000000000E+00  0.00000000000E+00  0.73441585631E+03  0.73441585631E+03  0.00000000000E+00 0.  1.
          2   -1    0    0  501    0  0.00000000000E+00 -0.00000000000E+00 -0.10532860486E+04  0.10532860486E+04  0.00000000000E+00 0. -1.
         24    2    1    2    0    0  0.53951409965E+03  0.11909186527E+03 -0.35963860177E+03  0.66430354279E+03  0.81859251099E+02 0.  0.
        254    2    1    2    0    0 -0.53951409965E+03 -0.11909186527E+03  0.40768409527E+02  0.11233983621E+04  0.97729395814E+03 0.  0.
         23    2    4    4    0    0 -0.71369947085E+02 -0.22216605746E+03  0.43122422294E+03  0.49841622466E+03  0.89515228451E+02 0.  0.
         23    2    4    4    0    0 -0.46814415256E+03  0.10307419219E+03 -0.39045581341E+03  0.62498213742E+03  0.91453229514E+02 0.  0.
          4    1    3    3  502    0  0.46379187985E+03  0.11652871605E+03 -0.27895396600E+03  0.55362186069E+03  0.00000000000E+00 0. -1.
         -3    1    3    3    0  502  0.75722219793E+02  0.25631492216E+01 -0.80684635769E+02  0.11068168210E+03  0.00000000000E+00 0.  1.
         11    1    5    5    0    0 -0.77988691422E+02 -0.97335724419E+02  0.22527596740E+03  0.25749901111E+03  0.00000000000E+00 0.  1.
        -11    1    5    5    0    0  0.66187443373E+01 -0.12483033305E+03  0.20594825554E+03  0.24091721355E+03  0.00000000000E+00 0. -1.
          4    1    6    6  503    0 -0.40559109254E+03  0.83667072037E+02 -0.29196491115E+03  0.50670289385E+03  0.00000000000E+00 0. -1.
         -4    1    6    6    0  503 -0.62553060022E+02  0.19407120156E+02 -0.98490902262E+02  0.11827924357E+03  0.00000000000E+00 0.  1.
<mgrwt>
<rscale>  0 0.17590338E+04</rscale>
<asrwt>0</asrwt>
<pdfrwt beam="1">  1        2 0.16204401E+00 0.17590338E+04</pdfrwt>
<pdfrwt beam="2">  1       -1 0.11298705E+00 0.17590338E+04</pdfrwt>
<totfact> 0.18026596E+01</totfact>
</mgrwt>
</event>
<event>
12    6  0.1530859E-007  0.1490880E+04  0.7818608E-02  0.8890541E-01
          2   -1    0    0  501    0  0.00000000000E+00  0.00000000000E+00  0.29584466684E+04  0.29584466684E+04  0.00000000000E+00 0. -1.
         -3   -1    0    0    0  501 -0.00000000000E+00 -0.00000000000E+00 -0.18782846603E+03  0.18782846603E+03  0.00000000000E+00 0.  1.
         24    2    1    2    0    0  0.36845221624E+03 -0.41852110650E+02  0.27506997303E+03  0.46836974631E+03  0.78727977097E+02 0.  0.
        254    2    1    2    0    0 -0.36845221624E+03  0.41852110650E+02  0.24955482294E+04  0.26779053881E+04  0.89772360332E+03 0.  0.
         23    2    4    4    0    0 -0.22609931657E+03 -0.13784618479E+03  0.23943532502E+04  0.24106915753E+04  0.91563708953E+02 0.  0.
         23    2    4    4    0    0 -0.14235289967E+03  0.17969829544E+03  0.10119497917E+03  0.26721381287E+03  0.92773770810E+02 0.  0.
          2    1    3    3  502    0  0.14408858757E+03 -0.49927732155E+02  0.13562752921E+03  0.20408117549E+03  0.00000000000E+00 0. -1.
         -1    1    3    3    0  502  0.22436362867E+03  0.80756215048E+01  0.13944244382E+03  0.26428857083E+03  0.00000000000E+00 0.  1.
         11    1    5    5    0    0 -0.13152532607E+03 -0.11952108545E+03  0.12972183130E+04  0.13093355387E+04  0.00000000000E+00 0.  1.
        -11    1    5    5    0    0 -0.94573990496E+02 -0.18325099331E+02  0.10971349372E+04  0.11013560366E+04  0.00000000000E+00 0. -1.
          4    1    6    6  503    0 -0.33895409249E+02  0.23114658863E+02 -0.15472096423E+02  0.43847143468E+02  0.00000000000E+00 0. -1.
         -4    1    6    6    0  503 -0.10845749042E+03  0.15658363657E+03  0.11666707560E+03  0.22336666940E+03  0.00000000000E+00 0.  1.
<mgrwt>
<rscale>  0 0.14908796E+04</rscale>
<asrwt>0</asrwt>
<pdfrwt beam="1">  1        2 0.45514561E+00 0.14908796E+04</pdfrwt>
<pdfrwt beam="2">  1       -3 0.28896689E-01 0.14908796E+04</pdfrwt>
<totfact> 0.13621531E+01</totfact>
</mgrwt>
</event>
<event>
12    6  0.1530859E-007  0.2676269E+04  0.7818608E-02  0.8342746E-01
          2   -1    0    0  501    0  0.00000000000E+00  0.00000000000E+00  0.15292973446E+04  0.15292973446E+04  0.00000000000E+00 0. -1.
         -1   -1    0    0    0  501 -0.00000000000E+00 -0.00000000000E+00 -0.11708667016E+04  0.11708667016E+04  0.00000000000E+00 0.  1.
         24    2    1    2    0    0  0.22963236900E+03 -0.10443378286E+04 -0.35675541986E+03  0.11301315296E+04  0.80934043627E+02 0.  0.
        254    2    1    2    0    0 -0.22963236900E+03  0.10443378286E+04  0.71518606290E+03  0.15700325166E+04  0.90007692634E+03 0.  0.
         23    2    4    4    0    0  0.23270791141E+03  0.27297325251E+03 -0.65149575564E+02  0.37593822081E+03  0.91748079273E+02 0.  0.
         23    2    4    4    0    0 -0.46234028041E+03  0.77136457614E+03  0.78033563847E+03  0.11940942958E+04  0.90419214423E+02 0.  0.
          4    1    3    3  502    0  0.17457809348E+02 -0.28253555349E+02 -0.23468487993E+01  0.33294837384E+02  0.00000000000E+00 0. -1.
         -3    1    3    3    0  502  0.21217455965E+03 -0.10160842733E+04 -0.35440857106E+03  0.10968366922E+04  0.00000000000E+00 0.  1.
         11    1    5    5    0    0  0.10181834439E+03  0.18371507428E+03 -0.18865895978E+02  0.21088889445E+03  0.00000000000E+00 0.  1.
        -11    1    5    5    0    0  0.13088956702E+03  0.89258178230E+02 -0.46283679585E+02  0.16504932636E+03  0.00000000000E+00 0. -1.
          4    1    6    6  503    0 -0.31940059345E+03  0.55945613409E+03  0.50636137191E+03  0.81939596291E+03  0.00000000000E+00 0. -1.
         -4    1    6    6    0  503 -0.14293968695E+03  0.21190844204E+03  0.27397426656E+03  0.37469833287E+03  0.00000000000E+00 0.  1.
<mgrwt>
<rscale>  0 0.26762685E+04</rscale>
<asrwt>0</asrwt>
<pdfrwt beam="1">  1        2 0.23527652E+00 0.26762685E+04</pdfrwt>
<pdfrwt beam="2">  1       -1 0.18013334E+00 0.26762685E+04</pdfrwt>
<totfact> 0.25400770E+00</totfact>
</mgrwt>
</event>
<event>
12    6  0.1530859E-007  0.1529975E+04  0.7818608E-02  0.8864761E-01
         -1   -1    0    0    0  501 -0.00000000000E+00  0.00000000000E+00  0.16204741838E+03  0.16204741838E+03  0.00000000000E+00 0.  1.
          2   -1    0    0  501    0  0.00000000000E+00 -0.00000000000E+00 -0.36113252316E+04  0.36113252316E+04  0.00000000000E+00 0. -1.
         24    2    1    2    0    0  0.32431591653E+03 -0.47307461604E+02 -0.20460842737E+04  0.20737077315E+04  0.79900506489E+02 0.  0.
        254    2    1    2    0    0 -0.32431591653E+03  0.47307461604E+02 -0.14031935394E+04  0.16996649184E+04  0.90138222529E+03 0.  0.
         23    2    4    4    0    0 -0.25506829606E+03 -0.34640310331E+03 -0.32764975779E+03  0.54856684498E+03  0.92283660479E+02 0.  0.
         23    2    4    4    0    0 -0.69247620471E+02  0.39371056492E+03 -0.10755437816E+04  0.11510980734E+04  0.91810165678E+02 0.  0.
          2    1    3    3  502    0  0.30887028151E+03 -0.61570864662E+02 -0.19566685789E+04  0.19818536147E+04  0.00000000000E+00 0. -1.
         -1    1    3    3    0  502  0.15445635020E+02  0.14263403058E+02 -0.89415694820E+02  0.91854116882E+02  0.00000000000E+00 0.  1.
         11    1    5    5    0    0 -0.23019604731E+03 -0.30873585595E+03 -0.32401432742E+03  0.50328255813E+03  0.00000000000E+00 0.  1.
        -11    1    5    5    0    0 -0.24872248752E+02 -0.37667247362E+02 -0.36354303788E+01  0.45284286854E+02  0.00000000000E+00 0. -1.
          2    1    6    6  503    0 -0.80317859674E+02  0.23713236885E+03 -0.72506921118E+03  0.76707762315E+03  0.00000000000E+00 0. -1.
         -2    1    6    6    0  503  0.11070239203E+02  0.15657819607E+03 -0.35047457047E+03  0.38402045027E+03  0.00000000000E+00 0.  1.
<mgrwt>
<rscale>  0 0.15299751E+04</rscale>
<asrwt>0</asrwt>
<pdfrwt beam="1">  1        2 0.55558845E+00 0.15299751E+04</pdfrwt>
<pdfrwt beam="2">  1       -1 0.24930374E-01 0.15299751E+04</pdfrwt>
<totfact> 0.10628654E+01</totfact>
</mgrwt>
</event>
<event>
12    6  0.1530859E-007  0.1627197E+04  0.7818608E-02  0.8804012E-01
         -1   -1    0    0    0  501 -0.00000000000E+00  0.00000000000E+00  0.44963907836E+03  0.44963907836E+03  0.00000000000E+00 0.  1.
          2   -1    0    0  501    0  0.00000000000E+00 -0.00000000000E+00 -0.14721642429E+04  0.14721642429E+04  0.00000000000E+00 0. -1.
         24    2    1    2    0    0 -0.38713219647E+02  0.55793380735E+03 -0.41090340440E+03  0.69839449523E+03  0.78258651065E+02 0.  0.
        254    2    1    2    0    0  0.38713219647E+02 -0.55793380735E+03 -0.61162176018E+03  0.12234088261E+04  0.89992173625E+03 0.  0.
         23    2    4    4    0    0  0.19862081555E+03 -0.37993107017E+03  0.11490959060E+03  0.45305332744E+03  0.90858445045E+02 0.  0.
         23    2    4    4    0    0 -0.15990759590E+03 -0.17800273718E+03 -0.72653135078E+03  0.77035549862E+03  0.91347561078E+02 0.  0.
          4    1    3    3  502    0 -0.45776728600E+01  0.19486224364E+03 -0.18906653828E+03  0.27154816328E+03  0.00000000000E+00 0. -1.
         -3    1    3    3    0  502 -0.34135546787E+02  0.36307156371E+03 -0.22183686612E+03  0.42684633195E+03  0.00000000000E+00 0.  1.
         11    1    5    5    0    0  0.13970373334E+03 -0.33381301154E+03  0.80568923622E+02  0.37072848722E+03  0.00000000000E+00 0. -1.
        -11    1    5    5    0    0  0.58917082206E+02 -0.46118058634E+02  0.34340666981E+02  0.82324840216E+02  0.00000000000E+00 0.  1.
          3    1    6    6  503    0 -0.14334698662E+03 -0.17413758571E+03 -0.71519553955E+03  0.74991794026E+03  0.00000000000E+00 0. -1.
         -3    1    6    6    0  503 -0.16560609276E+02 -0.38651514693E+01 -0.11335811234E+02  0.20437558362E+02  0.00000000000E+00 0.  1.
<mgrwt>
<rscale>  0 0.16271971E+04</rscale>
<asrwt>0</asrwt>
<pdfrwt beam="1">  1        2 0.22648681E+00 0.16271971E+04</pdfrwt>
<pdfrwt beam="2">  1       -1 0.69175243E-01 0.16271971E+04</pdfrwt>
<totfact> 0.30345433E+01</totfact>
</mgrwt>
</event>
<event>
12    6  0.1530859E-007  0.1194267E+04  0.7818608E-02  0.9117889E-01
          2   -1    0    0  501    0  0.00000000000E+00  0.00000000000E+00  0.11104616375E+04  0.11104616375E+04  0.00000000000E+00 0. -1.
         -1   -1    0    0    0  501 -0.00000000000E+00 -0.00000000000E+00 -0.32109924226E+03  0.32109924226E+03  0.00000000000E+00 0.  1.
         24    2    1    2    0    0  0.22880932432E+03  0.57010953672E+01  0.41004418389E+03  0.47607579233E+03  0.78266965721E+02 0.  0.
        254    2    1    2    0    0 -0.22880932432E+03 -0.57010953672E+01  0.37931821134E+03  0.95548508741E+03  0.84657146032E+03 0.  0.
         23    2    4    4    0    0 -0.37999110246E+03  0.27563509276E+03  0.39989863932E+03  0.62291089043E+03  0.87926750040E+02 0.  0.
         23    2    4    4    0    0  0.15118177814E+03 -0.28133618813E+03 -0.20580427981E+02  0.33257419699E+03  0.90421577589E+02 0.  0.
          4    1    3    3  502    0  0.14311576963E+03  0.31858387688E+02  0.30204037978E+03  0.33574614130E+03  0.00000000000E+00 0. -1.
         -3    1    3    3    0  502  0.85693554684E+02 -0.26157292321E+02  0.10800380411E+03  0.14032965103E+03  0.00000000000E+00 0.  1.
         11    1    5    5    0    0 -0.10470563747E+03  0.31376577547E+02  0.10039308310E+03  0.14841337969E+03  0.00000000000E+00 0. -1.
        -11    1    5    5    0    0 -0.27528546499E+03  0.24425851521E+03  0.29950555622E+03  0.47449751074E+03  0.00000000000E+00 0.  1.
          3    1    6    6  503    0 -0.10306548831E+02 -0.46951491168E+01 -0.32366194994E+01  0.11779010137E+02  0.00000000000E+00 0. -1.
         -3    1    6    6    0  503  0.16148832698E+03 -0.27664103901E+03 -0.17343808482E+02  0.32079518685E+03  0.00000000000E+00 0.  1.
<mgrwt>
<rscale>  0 0.11942670E+04</rscale>
<asrwt>0</asrwt>
<pdfrwt beam="1">  1        2 0.17084025E+00 0.11942670E+04</pdfrwt>
<pdfrwt beam="2">  1       -1 0.49399884E-01 0.11942670E+04</pdfrwt>
<totfact> 0.99199665E+01</totfact>
</mgrwt>
</event>
<event>
12    6  0.1530859E-007  0.1902047E+04  0.7818608E-02  0.8653838E-01
         -1   -1    0    0    0  501 -0.00000000000E+00  0.00000000000E+00  0.11097134643E+04  0.11097134643E+04  0.00000000000E+00 0.  1.
          2   -1    0    0  501    0  0.00000000000E+00 -0.00000000000E+00 -0.81502647078E+03  0.81502647078E+03  0.00000000000E+00 0. -1.
         24    2    1    2    0    0 -0.31488447037E+03 -0.17172221058E+03 -0.53688777311E+03  0.65027661401E+03  0.77268664489E+02 0.  0.
        254    2    1    2    0    0  0.31488447037E+03  0.17172221058E+03  0.83157476660E+03  0.12744633210E+04  0.89671590649E+03 0.  0.
         23    2    4    4    0    0  0.13694516611E+03 -0.14838741345E+03 -0.11916618174E+03  0.25154801903E+03  0.91120930720E+02 0.  0.
         23    2    4    4    0    0  0.17793930426E+03  0.32010962403E+03  0.95074094834E+03  0.10229153020E+04  0.91185507893E+02 0.  0.
          2    1    3    3  502    0 -0.15446421139E+03 -0.49546065758E+02 -0.28129453128E+03  0.32471621235E+03  0.00000000000E+00 0. -1.
         -1    1    3    3    0  502 -0.16042025898E+03 -0.12217614482E+03 -0.25559324183E+03  0.32556040165E+03  0.00000000000E+00 0.  1.
         11    1    5    5    0    0  0.28182876266E+02  0.87874664096E+01 -0.23915545246E+02  0.37992728053E+02  0.00000000000E+00 0.  1.
        -11    1    5    5    0    0  0.10876228985E+03 -0.15717487986E+03 -0.95250636495E+02  0.21355529098E+03  0.00000000000E+00 0. -1.
          4    1    6    6  503    0  0.18038668309E+03  0.25560574344E+03  0.79243490378E+03  0.85195465152E+03  0.00000000000E+00 0. -1.
         -4    1    6    6    0  503 -0.24473788250E+01  0.64503880592E+02  0.15830604456E+03  0.17096065050E+03  0.00000000000E+00 0.  1.
<mgrwt>
<rscale>  0 0.19020472E+04</rscale>
<asrwt>0</asrwt>
<pdfrwt beam="1">  1        2 0.12538869E+00 0.19020472E+04</pdfrwt>
<pdfrwt beam="2">  1       -1 0.17072515E+00 0.19020472E+04</pdfrwt>
<totfact> 0.87278575E+00</totfact>
</mgrwt>
</event>
<event>
12    6  0.1530859E-007  0.2677344E+04  0.7818608E-02  0.8342394E-01
          2   -1    0    0  501    0  0.00000000000E+00  0.00000000000E+00  0.27827706353E+04  0.27827706353E+04  0.00000000000E+00 0. -1.
         -1   -1    0    0    0  501 -0.00000000000E+00 -0.00000000000E+00 -0.64397783889E+03  0.64397783889E+03  0.00000000000E+00 0.  1.
         24    2    1    2    0    0  0.10527836205E+04  0.46818840507E+03  0.64041692367E+03  0.13204347385E+04  0.76552781927E+02 0.  0.
        254    2    1    2    0    0 -0.10527836205E+04 -0.46818840507E+03  0.14983758728E+04  0.21063137357E+04  0.92944798822E+03 0.  0.
         23    2    4    4    0    0 -0.76117028137E+03 -0.23343388636E+03  0.31511970336E+03  0.86203853611E+03  0.99691693496E+02 0.  0.
         23    2    4    4    0    0 -0.29161333911E+03 -0.23475451871E+03  0.11832561694E+04  0.12442751996E+04  0.89317334277E+02 0.  0.
          2    1    3    3  502    0  0.97834393747E+03  0.45470616972E+03  0.60494875161E+03  0.12368821904E+04  0.00000000000E+00 0. -1.
         -1    1    3    3    0  502  0.74439683017E+02  0.13482235344E+02  0.35468172059E+02  0.83552548176E+02  0.00000000000E+00 0.  1.
         11    1    5    5    0    0 -0.19138963537E+03 -0.59028874144E+02  0.12707138158E+03  0.23719514440E+03  0.00000000000E+00 0. -1.
        -11    1    5    5    0    0 -0.56978064600E+03 -0.17440501221E+03  0.18804832178E+03  0.62484339172E+03  0.00000000000E+00 0.  1.
          4    1    6    6  503    0 -0.14794602672E+02 -0.49776909184E+02  0.16232197372E+03  0.17042606640E+03  0.00000000000E+00 0. -1.
         -4    1    6    6    0  503 -0.27681873644E+03 -0.18497760952E+03  0.10209341957E+04  0.10738491332E+04  0.00000000000E+00 0.  1.
<mgrwt>
<rscale>  0 0.26773439E+04</rscale>
<asrwt>0</asrwt>
<pdfrwt beam="1">  1        2 0.42811855E+00 0.26773439E+04</pdfrwt>
<pdfrwt beam="2">  1       -1 0.99073515E-01 0.26773439E+04</pdfrwt>
<totfact> 0.23036290E+00</totfact>
</mgrwt>
</event>
<event>
12    6  0.1530859E-007  0.2560320E+04  0.7818608E-02  0.8381806E-01
         -1   -1    0    0    0  501 -0.00000000000E+00  0.00000000000E+00  0.31639264170E+04  0.31639264170E+04  0.00000000000E+00 0.  1.
          2   -1    0    0  501    0  0.00000000000E+00 -0.00000000000E+00 -0.51796712727E+03  0.51796712727E+03  0.00000000000E+00 0. -1.
         24    2    1    2    0    0  0.77070101138E+03  0.48472724864E+03  0.22750624560E+03  0.94234654712E+03  0.85541618870E+02 0.  0.
        254    2    1    2    0    0 -0.77070101138E+03 -0.48472724864E+03  0.24184530442E+04  0.27395469972E+04  0.90953948150E+03 0.  0.
         23    2    4    4    0    0 -0.33695097036E+03  0.17921224823E+03  0.13513368560E+04  0.14070184999E+04  0.89088575806E+02 0.  0.
         23    2    4    4    0    0 -0.43375004103E+03 -0.66393949688E+03  0.10671161882E+04  0.13325284973E+04  0.89109390145E+02 0.  0.
          2    1    3    3  502    0  0.71441700987E+03  0.47333299227E+03  0.21073750288E+03  0.88252256667E+03  0.00000000000E+00 0. -1.
         -1    1    3    3    0  502  0.56284001515E+02  0.11394256378E+02  0.16768742719E+02  0.59823980454E+02  0.00000000000E+00 0.  1.
         11    1    5    5    0    0 -0.80628082504E+02  0.73105101947E+02  0.28174015628E+03  0.30203105681E+03  0.00000000000E+00 0. -1.
        -11    1    5    5    0    0 -0.25632288785E+03  0.10610714629E+03  0.10695966997E+04  0.11049874431E+04  0.00000000000E+00 0.  1.
          2    1    6    6  503    0 -0.26335285171E+03 -0.44375006954E+03  0.75222288744E+03  0.91219960596E+03  0.00000000000E+00 0. -1.
         -2    1    6    6    0  503 -0.17039718932E+03 -0.22018942733E+03  0.31489330072E+03  0.42032889132E+03  0.00000000000E+00 0.  1.
<mgrwt>
<rscale>  0 0.25603202E+04</rscale>
<asrwt>0</asrwt>
<pdfrwt beam="1">  1        2 0.79687252E-01 0.25603202E+04</pdfrwt>
<pdfrwt beam="2">  1       -1 0.48675790E+00 0.25603202E+04</pdfrwt>
<totfact> 0.10861680E-01</totfact>
</mgrwt>
</event>
<event>
12    6  0.1530859E-007  0.1648740E+04  0.7818608E-02  0.8791152E-01
          2   -1    0    0  501    0  0.00000000000E+00  0.00000000000E+00  0.93110532735E+03  0.93110532735E+03  0.00000000000E+00 0. -1.
         -1   -1    0    0    0  501 -0.00000000000E+00 -0.00000000000E+00 -0.72986990677E+03  0.72986990677E+03  0.00000000000E+00 0.  1.
         24    2    1    2    0    0 -0.34129643677E+03  0.40431551009E+02 -0.39215306994E+03  0.52753669462E+03  0.79956024403E+02 0.  0.
        254    2    1    2    0    0  0.34129643677E+03 -0.40431551009E+02  0.59338849052E+03  0.11334385395E+04  0.90247163616E+03 0.  0.
         23    2    4    4    0    0  0.14880811052E+03  0.26641870657E+03  0.67965320502E+03  0.75079009883E+03  0.92922077254E+02 0.  0.
         23    2    4    4    0    0  0.19248832625E+03 -0.30685025758E+03 -0.86264714504E+02  0.38264844067E+03  0.88144153862E+02 0.  0.
          2    1    3    3  502    0 -0.15843981230E+03  0.39522449347E+02 -0.13430617301E+03  0.21143165854E+03  0.00000000000E+00 0. -1.
         -1    1    3    3    0  502 -0.18285662446E+03  0.90910166158E+00 -0.25784689693E+03  0.31610503608E+03  0.00000000000E+00 0.  1.
         11    1    5    5    0    0  0.15941263356E+03  0.23824210657E+03  0.58487312144E+03  0.65134342498E+03  0.00000000000E+00 0. -1.
        -11    1    5    5    0    0 -0.10604523043E+02  0.28176600003E+02  0.94780083575E+02  0.99446673847E+02  0.00000000000E+00 0.  1.
          2    1    6    6  503    0  0.10746722812E+03 -0.24473997969E+03 -0.67662198322E+02  0.27572637861E+03  0.00000000000E+00 0. -1.
         -2    1    6    6    0  503  0.85021098134E+02 -0.62110277884E+02 -0.18602516182E+02  0.10692206206E+03  0.00000000000E+00 0.  1.
<mgrwt>
<rscale>  0 0.16487398E+04</rscale>
<asrwt>0</asrwt>
<pdfrwt beam="1">  1        2 0.14324697E+00 0.16487398E+04</pdfrwt>
<pdfrwt beam="2">  1       -1 0.11228768E+00 0.16487398E+04</pdfrwt>
<totfact> 0.22145289E+01</totfact>
</mgrwt>
</event>
<event>
12    6  0.1700468E-007  0.2139418E+04  0.7818608E-02  0.8544076E-01
         -1   -1    0    0    0  501 -0.00000000000E+00  0.00000000000E+00  0.70238054329E+03  0.70238054329E+03  0.00000000000E+00 0.  1.
          2   -1    0    0  501    0  0.00000000000E+00 -0.00000000000E+00 -0.16291408458E+04  0.16291408458E+04  0.00000000000E+00 0. -1.
         24    2    1    2    0    0 -0.16484329187E+03  0.41964965518E+03  0.44085111222E+03  0.63548057945E+03  0.78782737602E+02 0.  0.
        254    2    1    2    0    0  0.16484329187E+03 -0.41964965518E+03 -0.13676114148E+04  0.16960408097E+04  0.89605485452E+03 0.  0.
         23    2    4    4    0    0 -0.21136124741E+03 -0.23697868537E+03 -0.80865444337E+02  0.33934634839E+03  0.88228395970E+02 0.  0.
         23    2    4    4    0    0  0.37620453927E+03 -0.18267096981E+03 -0.12867459704E+04  0.13566944613E+04  0.10003064664E+03 0.  0.
          4    1    3    3  502    0 -0.37017031595E+02  0.50532899421E+02  0.33231695639E+02  0.70909661874E+02  0.00000000000E+00 0. -1.
         -3    1    3    3    0  502 -0.12782626027E+03  0.36911675576E+03  0.40761941658E+03  0.56457091757E+03  0.00000000000E+00 0.  1.
         11    1    5    5    0    0 -0.19019350300E+03 -0.23160274626E+03 -0.53652837408E+02  0.30445365431E+03  0.00000000000E+00 0.  1.
        -11    1    5    5    0    0 -0.21167744412E+02 -0.53759391034E+01 -0.27212606928E+02  0.34892694086E+02  0.00000000000E+00 0. -1.
          1    1    6    6  503    0  0.96339911139E+02 -0.54250581872E+02 -0.21743579915E+03  0.24393202099E+03  0.00000000000E+00 0. -1.
         -1    1    6    6    0  503  0.27986462814E+03 -0.12842038794E+03 -0.10693101713E+04  0.11127624403E+04  0.00000000000E+00 0.  1.
<mgrwt>
<rscale>  0 0.21394175E+04</rscale>
<asrwt>0</asrwt>
<pdfrwt beam="1">  1        2 0.25063705E+00 0.21394175E+04</pdfrwt>
<pdfrwt beam="2">  1       -1 0.10805855E+00 0.21394175E+04</pdfrwt>
<totfact> 0.89447402E+00</totfact>
</mgrwt>
</event>
<event>
12    6  0.1530859E-007  0.1333056E+04  0.7818608E-02  0.9003754E-01
          2   -1    0    0  501    0  0.00000000000E+00  0.00000000000E+00  0.93834853655E+03  0.93834853655E+03  0.00000000000E+00 0. -1.
         -1   -1    0    0    0  501 -0.00000000000E+00 -0.00000000000E+00 -0.47344868036E+03  0.47344868036E+03  0.00000000000E+00 0.  1.
         24    2    1    2    0    0  0.39525752857E+02 -0.26330690227E+03  0.37180610959E+03  0.46457316960E+03  0.81826871301E+02 0.  0.
        254    2    1    2    0    0 -0.39525752857E+02  0.26330690227E+03  0.93093746601E+02  0.94722404731E+03  0.90425336064E+03 0.  0.
         23    2    4    4    0    0  0.15374191327E+03  0.45264715372E+03 -0.21062072629E+03  0.52994323323E+03  0.89178015453E+02 0.  0.
         23    2    4    4    0    0 -0.19326766613E+03 -0.18934025146E+03  0.30371447289E+03  0.41728081408E+03  0.93159407267E+02 0.  0.
          2    1    3    3  502    0  0.83968695432E+01 -0.18174637175E+03  0.30295980888E+03  0.35339340240E+03  0.00000000000E+00 0. -1.
         -1    1    3    3    0  502  0.31128883314E+02 -0.81560530514E+02  0.68846300713E+02  0.11117976721E+03  0.00000000000E+00 0.  1.
         11    1    5    5    0    0 -0.66992488383E+01  0.40464945853E+02 -0.24276474582E+01  0.41087531564E+02  0.00000000000E+00 0. -1.
        -11    1    5    5    0    0  0.16044116211E+03  0.41218220787E+03 -0.20819307883E+03  0.48885570167E+03  0.00000000000E+00 0.  1.
          2    1    6    6  503    0 -0.76574252121E+02 -0.24425884371E+02  0.57680591546E+02  0.98930736155E+02  0.00000000000E+00 0. -1.
         -2    1    6    6    0  503 -0.11669341401E+03 -0.16491436708E+03  0.24603388134E+03  0.31835007792E+03  0.00000000000E+00 0.  1.
<mgrwt>
<rscale>  0 0.13330565E+04</rscale>
<asrwt>0</asrwt>
<pdfrwt beam="1">  1        2 0.14436131E+00 0.13330565E+04</pdfrwt>
<pdfrwt beam="2">  1       -1 0.72838259E-01 0.13330565E+04</pdfrwt>
<totfact> 0.58622516E+01</totfact>
</mgrwt>
</event>
<event>
12    6  0.1530859E-007  0.2526912E+04  0.7818608E-02  0.8393460E-01
         -1   -1    0    0    0  501 -0.00000000000E+00  0.00000000000E+00  0.58432742979E+03  0.58432742979E+03  0.00000000000E+00 0.  1.
          2   -1    0    0  501    0  0.00000000000E+00 -0.00000000000E+00 -0.27318958632E+04  0.27318958632E+04  0.00000000000E+00 0. -1.
         24    2    1    2    0    0 -0.17820478134E+03  0.13472512136E+03 -0.23292029220E+04  0.23419859097E+04  0.99014884225E+02 0.  0.
        254    2    1    2    0    0  0.17820478134E+03 -0.13472512136E+03  0.18163448858E+03  0.97423738322E+03  0.93071993049E+03 0.  0.
         23    2    4    4    0    0 -0.33148689886E+03 -0.18822578797E+03 -0.69198356620E+02  0.39681275906E+03  0.85787189135E+02 0.  0.
         23    2    4    4    0    0  0.50969168020E+03  0.53500666613E+02  0.25083284520E+03  0.57742462416E+03  0.88623643398E+02 0.  0.
          4    1    3    3  502    0 -0.18768763681E+03  0.11554230433E+03 -0.20049879358E+04  0.20170655160E+04  0.00000000000E+00 0. -1.
         -3    1    3    3    0  502  0.94828554737E+01  0.19182817029E+02 -0.32421498615E+03  0.32492039373E+03  0.00000000000E+00 0.  1.
         11    1    5    5    0    0 -0.40897588824E+02 -0.56693309086E+02  0.22319579980E+01  0.69940872909E+02  0.00000000000E+00 0.  1.
        -11    1    5    5    0    0 -0.29058931004E+03 -0.13153247889E+03 -0.71430314618E+02  0.32687188615E+03  0.00000000000E+00 0. -1.
          1    1    6    6  503    0  0.47804454909E+03  0.71340831516E+02  0.22711592790E+03  0.53403909020E+03  0.00000000000E+00 0. -1.
         -1    1    6    6    0  503  0.31647131104E+02 -0.17840164902E+02  0.23716917299E+02  0.43385533961E+02  0.00000000000E+00 0.  1.
<mgrwt>
<rscale>  0 0.25269125E+04</rscale>
<asrwt>0</asrwt>
<pdfrwt beam="1">  1        2 0.42029166E+00 0.25269125E+04</pdfrwt>
<pdfrwt beam="2">  1       -1 0.89896530E-01 0.25269125E+04</pdfrwt>
<totfact> 0.31143577E+00</totfact>
</mgrwt>
</event>
<event>
12    6  0.1530859E-007  0.1338475E+04  0.7818608E-02  0.8999599E-01
         -1   -1    0    0    0  501 -0.00000000000E+00  0.00000000000E+00  0.74271024364E+03  0.74271024364E+03  0.00000000000E+00 0.  1.
          2   -1    0    0  501    0  0.00000000000E+00 -0.00000000000E+00 -0.60303279887E+03  0.60303279887E+03  0.00000000000E+00 0. -1.
         24    2    1    2    0    0 -0.26951489311E+03  0.20465147280E+03  0.16679514677E+03  0.38566040847E+03  0.79955154628E+02 0.  0.
        254    2    1    2    0    0  0.26951489311E+03 -0.20465147280E+03 -0.27117702000E+02  0.96008263404E+03  0.89805500472E+03 0.  0.
         23    2    4    4    0    0  0.23937132125E+03 -0.54642414860E+03 -0.41842941605E+02  0.60483475708E+03  0.90533264563E+02 0.  0.
         23    2    4    4    0    0  0.30143571856E+02  0.34177267580E+03  0.14725239605E+02  0.35524787697E+03  0.90923179439E+02 0.  0.
          2    1    3    3  502    0 -0.30761662505E+02  0.13742034338E+02 -0.64255844721E+01  0.34298856011E+02  0.00000000000E+00 0. -1.
         -1    1    3    3    0  502 -0.23875323060E+03  0.19090943846E+03  0.17322073124E+03  0.35136155246E+03  0.00000000000E+00 0.  1.
         11    1    5    5    0    0  0.64013086528E+02 -0.15363125079E+03  0.28819138475E+02  0.16891056571E+03  0.00000000000E+00 0. -1.
        -11    1    5    5    0    0  0.17535823472E+03 -0.39279289781E+03 -0.70662080080E+02  0.43592419137E+03  0.00000000000E+00 0.  1.
          4    1    6    6  503    0  0.54335485196E+02  0.12565536985E+03  0.15540436469E+02  0.13777925130E+03  0.00000000000E+00 0. -1.
         -4    1    6    6    0  503 -0.24191913339E+02  0.21611730595E+03 -0.81519686363E+00  0.21746862567E+03  0.00000000000E+00 0.  1.
<mgrwt>
<rscale>  0 0.13384747E+04</rscale>
<asrwt>0</asrwt>
<pdfrwt beam="1">  1        2 0.92774277E-01 0.13384747E+04</pdfrwt>
<pdfrwt beam="2">  1       -1 0.11426311E+00 0.13384747E+04</pdfrwt>
<totfact> 0.38403557E+01</totfact>
</mgrwt>
</event>
<event>
12    6  0.1530859E-007  0.1770843E+04  0.7818608E-02  0.8721960E-01
          2   -1    0    0  501    0  0.00000000000E+00  0.00000000000E+00  0.16427377351E+04  0.16427377351E+04  0.00000000000E+00 0. -1.
         -1   -1    0    0    0  501 -0.00000000000E+00 -0.00000000000E+00 -0.47723475612E+03  0.47723475612E+03  0.00000000000E+00 0.  1.
         24    2    1    2    0    0  0.52604187831E+03  0.34350393383E+03  0.22591716416E+03  0.67200713723E+03  0.76420004801E+02 0.  0.
        254    2    1    2    0    0 -0.52604187831E+03 -0.34350393383E+03  0.93958581486E+03  0.14479653540E+04  0.90502328849E+03 0.  0.
         23    2    4    4    0    0 -0.43626626087E+02 -0.35210572661E+03  0.87997640174E+03  0.95322023341E+03  0.91589412806E+02 0.  0.
         23    2    4    4    0    0 -0.48241525222E+03  0.86017927813E+01  0.59609413120E+02  0.49474512063E+03  0.91765929607E+02 0.  0.
          2    1    3    3  502    0  0.77225825191E+02  0.58106180283E+02  0.71740670706E+01  0.96910389029E+02  0.00000000000E+00 0. -1.
         -1    1    3    3    0  502  0.44881605312E+03  0.28539775354E+03  0.21874309709E+03  0.57509674820E+03  0.00000000000E+00 0.  1.
         11    1    5    5    0    0 -0.52857622777E+02 -0.10342444460E+03  0.24208522688E+03  0.26850661277E+03  0.00000000000E+00 0. -1.
        -11    1    5    5    0    0  0.92309966899E+01 -0.24868128201E+03  0.63789117486E+03  0.68471362064E+03  0.00000000000E+00 0.  1.
          1    1    6    6  503    0 -0.19987593870E+03  0.48812246895E+02  0.26045671956E+02  0.20739190762E+03  0.00000000000E+00 0. -1.
         -1    1    6    6    0  503 -0.28253931352E+03 -0.40210454113E+02  0.33563741164E+02  0.28735321301E+03  0.00000000000E+00 0.  1.
<mgrwt>
<rscale>  0 0.17708433E+04</rscale>
<asrwt>0</asrwt>
<pdfrwt beam="1">  1        2 0.25272888E+00 0.17708433E+04</pdfrwt>
<pdfrwt beam="2">  1       -1 0.73420732E-01 0.17708433E+04</pdfrwt>
<totfact> 0.21266854E+01</totfact>
</mgrwt>
</event>
<event>
12    6  0.1530859E-007  0.1102912E+04  0.7818608E-02  0.9202358E-01
         -1   -1    0    0    0  501 -0.00000000000E+00  0.00000000000E+00  0.40437346023E+03  0.40437346023E+03  0.00000000000E+00 0.  1.
          2   -1    0    0  501    0  0.00000000000E+00 -0.00000000000E+00 -0.75203664675E+03  0.75203664675E+03  0.00000000000E+00 0. -1.
         24    2    1    2    0    0 -0.14092909044E+03 -0.40656180260E+02 -0.14114429975E+03  0.21829496410E+03  0.78848236976E+02 0.  0.
        254    2    1    2    0    0  0.14092909044E+03  0.40656180260E+02 -0.20651888677E+03  0.93811514288E+03  0.90326963703E+03 0.  0.
         23    2    4    4    0    0 -0.23106883039E+03 -0.30373518379E+03 -0.15638838979E+03  0.42147381740E+03  0.86804285869E+02 0.  0.
         23    2    4    4    0    0  0.37199792083E+03  0.34439136405E+03 -0.50130496984E+02  0.51664132549E+03  0.86123909211E+02 0.  0.
          2    1    3    3  502    0 -0.12795691383E+03 -0.46929294424E+02 -0.14896038230E+03  0.20190226835E+03  0.00000000000E+00 0. -1.
         -1    1    3    3    0  502 -0.12972176614E+02  0.62731141642E+01  0.78160825511E+01  0.16392695748E+02  0.00000000000E+00 0.  1.
         11    1    5    5    0    0 -0.91570598718E+01 -0.91618241209E+01  0.10491001792E+02  0.16668889745E+02  0.00000000000E+00 0. -1.
        -11    1    5    5    0    0 -0.22191177051E+03 -0.29457335967E+03 -0.16687939158E+03  0.40480492765E+03  0.00000000000E+00 0.  1.
          3    1    6    6  503    0  0.64305758963E+02  0.61453391521E+02 -0.42467410506E+02  0.98565870971E+02  0.00000000000E+00 0. -1.
         -3    1    6    6    0  503  0.30769216187E+03  0.28293797253E+03 -0.76630864784E+01  0.41807545451E+03  0.00000000000E+00 0.  1.
<mgrwt>
<rscale>  0 0.11029119E+04</rscale>
<asrwt>0</asrwt>
<pdfrwt beam="1">  1        2 0.11569795E+00 0.11029119E+04</pdfrwt>
<pdfrwt beam="2">  1       -1 0.62211302E-01 0.11029119E+04</pdfrwt>
<totfact> 0.11101706E+02</totfact>
</mgrwt>
</event>
<event>
12    6  0.1530859E-007  0.1397611E+04  0.7818608E-02  0.8955550E-01
         -1   -1    0    0    0  501 -0.00000000000E+00  0.00000000000E+00  0.33298049538E+03  0.33298049538E+03  0.00000000000E+00 0.  1.
          2   -1    0    0  501    0  0.00000000000E+00 -0.00000000000E+00 -0.14665398225E+04  0.14665398225E+04  0.00000000000E+00 0. -1.
         24    2    1    2    0    0  0.16095088017E+03 -0.92247210759E+01  0.14784012757E+03  0.23316705375E+03  0.80745837840E+02 0.  0.
        254    2    1    2    0    0 -0.16095088017E+03  0.92247210759E+01 -0.12813994547E+04  0.15663532641E+04  0.88627744203E+03 0.  0.
         23    2    4    4    0    0  0.21890651887E+03 -0.14426791157E+03 -0.72799932262E+02  0.28694180018E+03  0.91117902981E+02 0.  0.
         23    2    4    4    0    0 -0.37985739903E+03  0.15349263265E+03 -0.12085995224E+04  0.12794114639E+04  0.91264760828E+02 0.  0.
          4    1    3    3  502    0  0.32053392290E+02 -0.21933167317E+01  0.82392237145E+02  0.88434785788E+02  0.00000000000E+00 0. -1.
         -3    1    3    3    0  502  0.12889748788E+03 -0.70314043443E+01  0.65447890425E+02  0.14473226796E+03  0.00000000000E+00 0.  1.
         11    1    5    5    0    0  0.59390052246E+02  0.42229496890E+01 -0.12811628415E+02  0.60902786738E+02  0.00000000000E+00 0. -1.
        -11    1    5    5    0    0  0.15951646662E+03 -0.14849086126E+03 -0.59988303846E+02  0.22603901345E+03  0.00000000000E+00 0.  1.
          1    1    6    6  503    0 -0.34331520144E+03  0.11564215843E+03 -0.11104731722E+04  0.11680706753E+04  0.00000000000E+00 0.  1.
         -1    1    6    6    0  503 -0.36542197595E+02  0.37850474220E+02 -0.98126350249E+02  0.11134078865E+03  0.00000000000E+00 0. -1.
<mgrwt>
<rscale>  0 0.13976110E+04</rscale>
<asrwt>0</asrwt>
<pdfrwt beam="1">  1        2 0.22562151E+00 0.13976110E+04</pdfrwt>
<pdfrwt beam="2">  1       -1 0.51227769E-01 0.13976110E+04</pdfrwt>
<totfact> 0.56359960E+01</totfact>
</mgrwt>
</event>
<event>
12    6  0.1530859E-007  0.1603683E+04  0.7818608E-02  0.8818288E-01
          2   -1    0    0  501    0  0.00000000000E+00  0.00000000000E+00  0.80293938543E+03  0.80293938543E+03  0.00000000000E+00 0. -1.
         -1   -1    0    0    0  501 -0.00000000000E+00 -0.00000000000E+00 -0.80074534343E+03  0.80074534343E+03  0.00000000000E+00 0.  1.
         24    2    1    2    0    0  0.20848995661E+03  0.30800374878E+03  0.39864473034E+03  0.55101889901E+03  0.79811244658E+02 0.  0.
        254    2    1    2    0    0 -0.20848995661E+03 -0.30800374878E+03 -0.39645068834E+03  0.10526658298E+04  0.90144208342E+03 0.  0.
         23    2    4    4    0    0 -0.85684694661E+02 -0.65019754729E+02 -0.65257841719E+03  0.66771325265E+03  0.91722198914E+02 0.  0.
         23    2    4    4    0    0 -0.12280526194E+03 -0.24298399405E+03  0.25612772885E+03  0.38495257720E+03  0.92003910118E+02 0.  0.
          4    1    3    3  502    0  0.91884839350E+02  0.19528701014E+03  0.25783272024E+03  0.33624031831E+03  0.00000000000E+00 0. -1.
         -3    1    3    3    0  502  0.11660511726E+03  0.11271673864E+03  0.14081201010E+03  0.21477858070E+03  0.00000000000E+00 0.  1.
         11    1    5    5    0    0 -0.32938291258E+02 -0.57405771384E+02 -0.17375497167E+03  0.18593317025E+03  0.00000000000E+00 0. -1.
        -11    1    5    5    0    0 -0.52746403403E+02 -0.76139833449E+01 -0.47882344552E+03  0.48178008240E+03  0.00000000000E+00 0.  1.
          4    1    6    6  503    0 -0.41741024352E+02 -0.51394414887E+02  0.11778742381E+03  0.13512059874E+03  0.00000000000E+00 0. -1.
         -4    1    6    6    0  503 -0.81064237593E+02 -0.19158957917E+03  0.13834030504E+03  0.24983197846E+03  0.00000000000E+00 0.  1.
<mgrwt>
<rscale>  0 0.16036832E+04</rscale>
<asrwt>0</asrwt>
<pdfrwt beam="1">  1        2 0.12352914E+00 0.16036832E+04</pdfrwt>
<pdfrwt beam="2">  1       -1 0.12319159E+00 0.16036832E+04</pdfrwt>
<totfact> 0.21774469E+01</totfact>
</mgrwt>
</event>
<event>
12    6  0.1530859E-007  0.1391033E+04  0.7818608E-02  0.8960335E-01
         -1   -1    0    0    0  501 -0.00000000000E+00  0.00000000000E+00  0.85206087073E+03  0.85206087073E+03  0.00000000000E+00 0.  1.
          2   -1    0    0  501    0  0.00000000000E+00 -0.00000000000E+00 -0.56773303112E+03  0.56773303112E+03  0.00000000000E+00 0. -1.
         24    2    1    2    0    0 -0.60863188576E+02  0.34761189591E+03  0.28448557176E+03  0.46016141103E+03  0.79234624748E+02 0.  0.
        254    2    1    2    0    0  0.60863188576E+02 -0.34761189591E+03 -0.15773215243E+00  0.95963249082E+03  0.89238788352E+03 0.  0.
         23    2    4    4    0    0  0.24497648264E+03 -0.44856706125E+03 -0.28762322158E+03  0.59211431930E+03  0.81525235618E+02 0.  0.
         23    2    4    4    0    0 -0.18411329407E+03  0.10095516534E+03  0.28746548942E+03  0.36751817152E+03  0.91343025594E+02 0.  0.
          2    1    3    3  502    0  0.16434108762E+02  0.12313011393E+03  0.94231832278E+02  0.15591902738E+03  0.00000000000E+00 0. -1.
         -1    1    3    3    0  502 -0.77297297339E+02  0.22448178198E+03  0.19025373948E+03  0.30424238364E+03  0.00000000000E+00 0.  1.
         11    1    5    5    0    0  0.18110656543E+03 -0.25048116470E+03 -0.16133500682E+03  0.34866801737E+03  0.00000000000E+00 0.  1.
        -11    1    5    5    0    0  0.63869917215E+02 -0.19808589655E+03 -0.12628821475E+03  0.24344630193E+03  0.00000000000E+00 0. -1.
          4    1    6    6  503    0 -0.60072899564E+02  0.70930543342E+02  0.17154236161E+03  0.19510683501E+03  0.00000000000E+00 0. -1.
         -4    1    6    6    0  503 -0.12404039450E+03  0.30024622002E+02  0.11592312782E+03  0.17241133651E+03  0.00000000000E+00 0.  1.
<mgrwt>
<rscale>  0 0.13910329E+04</rscale>
<asrwt>0</asrwt>
<pdfrwt beam="1">  1        2 0.87343543E-01 0.13910329E+04</pdfrwt>
<pdfrwt beam="2">  1       -1 0.13108629E+00 0.13910329E+04</pdfrwt>
<totfact> 0.29309415E+01</totfact>
</mgrwt>
</event>
<event>
12    6  0.1530859E-007  0.1265205E+04  0.7818608E-02  0.9057622E-01
          2   -1    0    0  501    0  0.00000000000E+00  0.00000000000E+00  0.64696877019E+03  0.64696877019E+03  0.00000000000E+00 0. -1.
         -1   -1    0    0    0  501 -0.00000000000E+00 -0.00000000000E+00 -0.61855528933E+03  0.61855528933E+03  0.00000000000E+00 0.  1.
         24    2    1    2    0    0  0.13819961399E+03 -0.22324271626E+03  0.15566404177E+03  0.31565134650E+03  0.80424094479E+02 0.  0.
        254    2    1    2    0    0 -0.13819961399E+03  0.22324271626E+03 -0.12725056090E+03  0.94987271302E+03  0.90395189143E+03 0.  0.
         23    2    4    4    0    0 -0.34285847605E+03  0.43722703733E+03 -0.25104949090E+03  0.61654678125E+03  0.91567842758E+02 0.  0.
         23    2    4    4    0    0  0.20465886205E+03 -0.21398432106E+03  0.12379892999E+03  0.33332593177E+03  0.90030340702E+02 0.  0.
          4    1    3    3  502    0  0.11321069801E+03 -0.21782020011E+03  0.12422253288E+03  0.27512458886E+03  0.00000000000E+00 0. -1.
         -3    1    3    3    0  502  0.24988915978E+02 -0.54225161568E+01  0.31441508897E+02  0.40526757642E+02  0.00000000000E+00 0.  1.
         11    1    5    5    0    0 -0.20695666538E+03  0.23860070163E+03 -0.95447260051E+02  0.32995686932E+03  0.00000000000E+00 0. -1.
        -11    1    5    5    0    0 -0.13590181067E+03  0.19862633570E+03 -0.15560223084E+03  0.28658991193E+03  0.00000000000E+00 0.  1.
          2    1    6    6  503    0  0.62586555111E+02 -0.23618649836E+02  0.53346799599E+02  0.85561665062E+02  0.00000000000E+00 0.  1.
         -2    1    6    6    0  503  0.14207230694E+03 -0.19036567123E+03  0.70452130392E+02  0.24776426671E+03  0.00000000000E+00 0. -1.
<mgrwt>
<rscale>  0 0.12652051E+04</rscale>
<asrwt>0</asrwt>
<pdfrwt beam="1">  1        2 0.99533657E-01 0.12652051E+04</pdfrwt>
<pdfrwt beam="2">  1       -1 0.95162352E-01 0.12652051E+04</pdfrwt>
<totfact> 0.54177230E+01</totfact>
</mgrwt>
</event>
<event>
12    6  0.1530859E-007  0.1923364E+04  0.7818608E-02  0.8643313E-01
          2   -1    0    0  501    0  0.00000000000E+00  0.00000000000E+00  0.27267428818E+04  0.27267428818E+04  0.00000000000E+00 0. -1.
         -1   -1    0    0    0  501 -0.00000000000E+00 -0.00000000000E+00 -0.33917091859E+03  0.33917091859E+03  0.00000000000E+00 0.  1.
         24    2    1    2    0    0  0.28233156756E+03  0.37274934647E+02  0.20423821067E+04  0.20637606102E+04  0.81747486529E+02 0.  0.
        254    2    1    2    0    0 -0.28233156756E+03 -0.37274934647E+02  0.34518985652E+03  0.10021531902E+04  0.89669083013E+03 0.  0.
         23    2    4    4    0    0 -0.27464869313E+03 -0.27388243096E+03 -0.16626089330E+03  0.43135360364E+03  0.89329480595E+02 0.  0.
         23    2    4    4    0    0 -0.76828744253E+01  0.23660749632E+03  0.51145074981E+03  0.57079958658E+03  0.90488478201E+02 0.  0.
          4    1    3    3  502    0  0.28462603078E+03  0.40983919487E+02  0.20347571088E+04  0.20549764356E+04  0.00000000000E+00 0. -1.
         -3    1    3    3    0  502 -0.22944632273E+01 -0.37089848399E+01  0.76249979117E+01  0.87841745883E+01  0.00000000000E+00 0.  1.
         11    1    5    5    0    0 -0.60755007457E+02 -0.24077709744E+02 -0.50919418520E+02  0.82847415289E+02  0.00000000000E+00 0. -1.
        -11    1    5    5    0    0 -0.21389368567E+03 -0.24980472122E+03 -0.11534147478E+03  0.34850618835E+03  0.00000000000E+00 0.  1.
          2    1    6    6  503    0  0.39107034460E+02  0.83927816225E+02  0.21459755671E+03  0.23372066623E+03  0.00000000000E+00 0. -1.
         -2    1    6    6    0  503 -0.46789908886E+02  0.15267968009E+03  0.29685319311E+03  0.33707892035E+03  0.00000000000E+00 0.  1.
<mgrwt>
<rscale>  0 0.19233636E+04</rscale>
<asrwt>0</asrwt>
<pdfrwt beam="1">  1        2 0.41949889E+00 0.19233636E+04</pdfrwt>
<pdfrwt beam="2">  1       -1 0.52180143E-01 0.19233636E+04</pdfrwt>
<totfact> 0.10091005E+01</totfact>
</mgrwt>
</event>
<event>
12    6  0.1530859E-007  0.1504318E+04  0.7818608E-02  0.8881587E-01
         -1   -1    0    0    0  501 -0.00000000000E+00  0.00000000000E+00  0.31667063337E+03  0.31667063337E+03  0.00000000000E+00 0.  1.
          2   -1    0    0  501    0  0.00000000000E+00 -0.00000000000E+00 -0.17865347398E+04  0.17865347398E+04  0.00000000000E+00 0. -1.
         24    2    1    2    0    0  0.38478550200E+03  0.44263616968E+02 -0.81161657568E+02  0.40359101622E+03  0.79242308034E+02 0.  0.
        254    2    1    2    0    0 -0.38478550200E+03 -0.44263616968E+02 -0.13887024489E+04  0.16996143570E+04  0.90009739501E+03 0.  0.
         23    2    4    4    0    0 -0.32803032957E+03 -0.40756184066E+03 -0.48118041233E+03  0.71665249366E+03  0.91354564109E+02 0.  0.
         23    2    4    4    0    0 -0.56755172431E+02  0.36329822369E+03 -0.90752203655E+03  0.98296186329E+03  0.86087333159E+02 0.  0.
          2    1    3    3  502    0  0.29146648341E+01  0.82828196174E+01  0.54994021220E+01  0.10360685094E+02  0.00000000000E+00 0. -1.
         -1    1    3    3    0  502  0.38187083716E+03  0.35980797351E+02 -0.86661059690E+02  0.39323033113E+03  0.00000000000E+00 0.  1.
         11    1    5    5    0    0 -0.66471080743E+02 -0.14931464891E+03 -0.15393149852E+03  0.22451765006E+03  0.00000000000E+00 0.  1.
        -11    1    5    5    0    0 -0.26155924882E+03 -0.25824719175E+03 -0.32724891380E+03  0.49213484359E+03  0.00000000000E+00 0. -1.
          2    1    6    6  503    0 -0.35383436811E+02  0.33066268251E+03 -0.74548597962E+03  0.81629598983E+03  0.00000000000E+00 0. -1.
         -2    1    6    6    0  503 -0.21371735620E+02  0.32635541184E+02 -0.16203605693E+03  0.16666587346E+03  0.00000000000E+00 0.  1.
<mgrwt>
<rscale>  0 0.15043179E+04</rscale>
<asrwt>0</asrwt>
<pdfrwt beam="1">  1        2 0.27485150E+00 0.15043179E+04</pdfrwt>
<pdfrwt beam="2">  1       -1 0.48718560E-01 0.15043179E+04</pdfrwt>
<totfact> 0.40734593E+01</totfact>
</mgrwt>
</event>
<event>
12    6  0.1530859E-007  0.1305862E+04  0.7818608E-02  0.9024929E-01
         -1   -1    0    0    0  501 -0.00000000000E+00  0.00000000000E+00  0.47372743003E+03  0.47372743003E+03  0.00000000000E+00 0.  1.
          2   -1    0    0  501    0  0.00000000000E+00 -0.00000000000E+00 -0.89992442093E+03  0.89992442093E+03  0.00000000000E+00 0. -1.
         24    2    1    2    0    0 -0.50397483474E+02 -0.18647074509E+03  0.17322316001E+03  0.27233662034E+03  0.82763074505E+02 0.  0.
        254    2    1    2    0    0  0.50397483474E+02  0.18647074509E+03 -0.59942015091E+03  0.11013152306E+04  0.90348186188E+03 0.  0.
         23    2    4    4    0    0  0.13661221964E+03  0.45451730354E+03 -0.61234460606E+02  0.48729275295E+03  0.91954826609E+02 0.  0.
         23    2    4    4    0    0 -0.86214736161E+02 -0.26804655846E+03 -0.53818569030E+03  0.61402247766E+03  0.89987930273E+02 0.  0.
          2    1    3    3  502    0 -0.10849268169E+02 -0.20382284417E+01  0.39775255091E+02  0.41278710161E+02  0.00000000000E+00 0. -1.
         -1    1    3    3    0  502 -0.39548215305E+02 -0.18443251665E+03  0.13344790492E+03  0.23105791018E+03  0.00000000000E+00 0.  1.
         11    1    5    5    0    0  0.37653547144E+01  0.62617058160E+02  0.19489769072E+02  0.65688088472E+02  0.00000000000E+00 0. -1.
        -11    1    5    5    0    0  0.13284686492E+03  0.39190024538E+03 -0.80724229678E+02  0.42160466448E+03  0.00000000000E+00 0.  1.
          1    1    6    6  503    0  0.11179111134E+02 -0.89286099579E+00 -0.22227696697E+02  0.24896590670E+02  0.00000000000E+00 0. -1.
         -1    1    6    6    0  503 -0.97393847295E+02 -0.26715369746E+03 -0.51595799361E+03  0.58912588699E+03  0.00000000000E+00 0.  1.
<mgrwt>
<rscale>  0 0.13058620E+04</rscale>
<asrwt>0</asrwt>
<pdfrwt beam="1">  1        2 0.13844991E+00 0.13058620E+04</pdfrwt>
<pdfrwt beam="2">  1       -1 0.72881144E-01 0.13058620E+04</pdfrwt>
<totfact> 0.62256051E+01</totfact>
</mgrwt>
</event>
<event>
12    6  0.1530859E-007  0.1692669E+04  0.7818608E-02  0.8765557E-01
          2   -1    0    0  501    0  0.00000000000E+00  0.00000000000E+00  0.43222003359E+03  0.43222003359E+03  0.00000000000E+00 0. -1.
         -1   -1    0    0    0  501 -0.00000000000E+00 -0.00000000000E+00 -0.16572157186E+04  0.16572157186E+04  0.00000000000E+00 0.  1.
         24    2    1    2    0    0  0.18465288927E+03 -0.37232908494E+03  0.93491765634E+02  0.43340607438E+03  0.79840328569E+02 0.  0.
        254    2    1    2    0    0 -0.18465288927E+03  0.37232908494E+03 -0.13184874506E+04  0.16560296778E+04  0.91175627185E+03 0.  0.
         23    2    4    4    0    0 -0.22091321774E+03 -0.25437273550E+03 -0.32591846256E+03  0.47783587255E+03  0.92715362906E+02 0.  0.
         23    2    4    4    0    0  0.36260328467E+02  0.62670182044E+03 -0.99256898808E+03  0.11781938053E+04  0.94220292314E+02 0.  0.
          2    1    3    3  502    0  0.17750810178E+03 -0.36077325861E+03  0.72743035941E+02  0.40860496767E+03  0.00000000000E+00 0. -1.
         -1    1    3    3    0  502  0.71447874952E+01 -0.11555826322E+02  0.20748729693E+02  0.24801106713E+02  0.00000000000E+00 0.  1.
         11    1    5    5    0    0 -0.14179851532E+03 -0.21993601250E+03 -0.22550973947E+03  0.34544653876E+03  0.00000000000E+00 0. -1.
        -11    1    5    5    0    0 -0.79114702418E+02 -0.34436723000E+02 -0.10040872309E+03  0.13238933379E+03  0.00000000000E+00 0.  1.
          4    1    6    6  503    0 -0.23982567940E+02  0.34668918887E+03 -0.51376249387E+03  0.62025837951E+03  0.00000000000E+00 0. -1.
         -4    1    6    6    0  503  0.60242896407E+02  0.28001263157E+03 -0.47880649421E+03  0.55793542575E+03  0.00000000000E+00 0.  1.
<mgrwt>
<rscale>  0 0.16926687E+04</rscale>
<asrwt>0</asrwt>
<pdfrwt beam="1">  1        2 0.66495391E-01 0.16926687E+04</pdfrwt>
<pdfrwt beam="2">  1       -1 0.25495626E+00 0.16926687E+04</pdfrwt>
<totfact> 0.51323409E+00</totfact>
</mgrwt>
</event>
<event>
12    6  0.1530859E-007  0.1484341E+04  0.7818608E-02  0.8894933E-01
          2   -1    0    0  501    0  0.00000000000E+00  0.00000000000E+00  0.29478600842E+04  0.29478600842E+04  0.00000000000E+00 0. -1.
         -1   -1    0    0    0  501 -0.00000000000E+00 -0.00000000000E+00 -0.18685326206E+03  0.18685326206E+03  0.00000000000E+00 0.  1.
         24    2    1    2    0    0  0.39515787171E+02  0.21830197364E+03  0.17350949516E+04  0.17509736931E+04  0.78339861085E+02 0.  0.
        254    2    1    2    0    0 -0.39515787171E+02 -0.21830197364E+03  0.10259118706E+04  0.13837396532E+04  0.90167788732E+03 0.  0.
         23    2    4    4    0    0 -0.42571377795E+03 -0.24345573900E+03  0.73994347056E+03  0.89283807274E+03  0.95606312145E+02 0.  0.
         23    2    4    4    0    0  0.38619799078E+03  0.25153765368E+02  0.28596840004E+03  0.49090158046E+03  0.97081593937E+02 0.  0.
          2    1    3    3  502    0  0.31315873164E+02  0.48698697928E+02  0.66205134175E+03  0.66457823182E+03  0.00000000000E+00 0. -1.
         -1    1    3    3    0  502  0.81999140071E+01  0.16960327571E+03  0.10730436098E+04  0.10863954613E+04  0.00000000000E+00 0.  1.
         11    1    5    5    0    0 -0.40767912327E+03 -0.25212837125E+03  0.71585693431E+03  0.86152314742E+03  0.00000000000E+00 0. -1.
        -11    1    5    5    0    0 -0.18034654684E+02  0.86726322429E+01  0.24086536248E+02  0.31314925324E+02  0.00000000000E+00 0.  1.
          3    1    6    6  503    0  0.38012181908E+03  0.38086669552E+02  0.26282606591E+03  0.46370328084E+03  0.00000000000E+00 0. -1.
         -3    1    6    6    0  503  0.60761717000E+01 -0.12932904184E+02  0.23142334139E+02  0.27198299626E+02  0.00000000000E+00 0.  1.
<mgrwt>
<rscale>  0 0.14843413E+04</rscale>
<asrwt>0</asrwt>
<pdfrwt beam="1">  1        2 0.45351690E+00 0.14843413E+04</pdfrwt>
<pdfrwt beam="2">  1       -1 0.28746658E-01 0.14843413E+04</pdfrwt>
<totfact> 0.22892732E+01</totfact>
</mgrwt>
</event>
<event>
12    6  0.1530859E-007  0.1818741E+04  0.7818608E-02  0.8696396E-01
          2   -1    0    0  501    0  0.00000000000E+00  0.00000000000E+00  0.19502524136E+04  0.19502524136E+04  0.00000000000E+00 0. -1.
         -1   -1    0    0    0  501 -0.00000000000E+00 -0.00000000000E+00 -0.42402444119E+03  0.42402444119E+03  0.00000000000E+00 0.  1.
         24    2    1    2    0    0 -0.85208003080E+02 -0.51037216818E+03 -0.11572994426E+02  0.52360014258E+03  0.79265511210E+02 0.  0.
        254    2    1    2    0    0  0.85208003080E+02  0.51037216818E+03  0.15378009669E+04  0.18506767122E+04  0.89018668023E+03 0.  0.
         23    2    4    4    0    0 -0.16635225581E+03 -0.19699551690E+03  0.41139305057E+03  0.49396656563E+03  0.90985818743E+02 0.  0.
         23    2    4    4    0    0  0.25156025889E+03  0.70736768509E+03  0.11264079163E+04  0.13567101466E+04  0.90642276220E+02 0.  0.
          2    1    3    3  502    0 -0.66629176878E+02 -0.41453723774E+03 -0.40443676265E+02  0.42180120867E+03  0.00000000000E+00 0. -1.
         -1    1    3    3    0  502 -0.18578826202E+02 -0.95834930442E+02  0.28870681839E+02  0.10179893391E+03  0.00000000000E+00 0.  1.
         11    1    5    5    0    0 -0.16965711871E+03 -0.20374008962E+03  0.39270487768E+03  0.47382558289E+03  0.00000000000E+00 0. -1.
        -11    1    5    5    0    0  0.33048629002E+01  0.67445727152E+01  0.18688172887E+02  0.20140982741E+02  0.00000000000E+00 0.  1.
          3    1    6    6  503    0  0.23589821089E+03  0.65810398155E+03  0.10838133869E+04  0.12897287599E+04  0.00000000000E+00 0. -1.
         -3    1    6    6    0  503  0.15662047998E+02  0.49263703536E+02  0.42594529426E+02  0.66981386747E+02  0.00000000000E+00 0.  1.
<mgrwt>
<rscale>  0 0.18187410E+04</rscale>
<asrwt>0</asrwt>
<pdfrwt beam="1">  1        2 0.30003883E+00 0.18187410E+04</pdfrwt>
<pdfrwt beam="2">  1       -1 0.65234530E-01 0.18187410E+04</pdfrwt>
<totfact> 0.18210557E+01</totfact>
</mgrwt>
</event>
<event>
12    6  0.1530859E-007  0.3200945E+04  0.7818608E-02  0.8188568E-01
          2   -1    0    0  501    0  0.00000000000E+00  0.00000000000E+00  0.15349113991E+04  0.15349113991E+04  0.00000000000E+00 0. -1.
         -1   -1    0    0    0  501 -0.00000000000E+00 -0.00000000000E+00 -0.16688341385E+04  0.16688341385E+04  0.00000000000E+00 0.  1.
         24    2    1    2    0    0  0.13144521229E+03  0.28794426989E+03 -0.14956293892E+04  0.15313641987E+04  0.89326887238E+02 0.  0.
        254    2    1    2    0    0 -0.13144521229E+03 -0.28794426989E+03  0.13617066498E+04  0.16723813389E+04  0.91783691154E+03 0.  0.
         23    2    4    4    0    0 -0.41273431821E+03 -0.45985622395E+03  0.95361537042E+03  0.11401106483E+04  0.93019629717E+02 0.  0.
         23    2    4    4    0    0  0.28128910592E+03  0.17191195406E+03  0.40809127938E+03  0.53227069061E+03  0.89979523878E+02 0.  0.
          4    1    3    3  502    0  0.33126033688E+02  0.15125415902E+02 -0.11581794072E+03  0.12140802159E+03  0.00000000000E+00 0. -1.
         -3    1    3    3    0  502  0.98319178602E+02  0.27281885399E+03 -0.13798114485E+04  0.14099561771E+04  0.00000000000E+00 0.  1.
         11    1    5    5    0    0 -0.28465536647E+03 -0.29725843366E+03  0.70775546746E+03  0.81872404128E+03  0.00000000000E+00 0. -1.
        -11    1    5    5    0    0 -0.12807895174E+03 -0.16259779029E+03  0.24585990296E+03  0.32138660701E+03  0.00000000000E+00 0.  1.
          1    1    6    6  503    0  0.26527874116E+03  0.12913399398E+03  0.36645746253E+03  0.47046728978E+03  0.00000000000E+00 0. -1.
         -1    1    6    6    0  503  0.16010364760E+02  0.42777960075E+02  0.41633816855E+02  0.61803400827E+02  0.00000000000E+00 0.  1.
<mgrwt>
<rscale>  0 0.32009452E+04</rscale>
<asrwt>0</asrwt>
<pdfrwt beam="1">  1        2 0.23614022E+00 0.32009452E+04</pdfrwt>
<pdfrwt beam="2">  1       -1 0.25674371E+00 0.32009452E+04</pdfrwt>
<totfact> 0.73260805E-01</totfact>
</mgrwt>
</event>
<event>
12    6  0.1530859E-007  0.1287852E+04  0.7818608E-02  0.9039255E-01
         -1   -1    0    0    0  501 -0.00000000000E+00  0.00000000000E+00  0.37879684533E+03  0.37879684533E+03  0.00000000000E+00 0.  1.
          2   -1    0    0  501    0  0.00000000000E+00 -0.00000000000E+00 -0.10946253480E+04  0.10946253480E+04  0.00000000000E+00 0. -1.
         24    2    1    2    0    0  0.14217913186E+03  0.15557031440E+03 -0.45302116419E+03  0.50640904531E+03  0.82491925110E+02 0.  0.
        254    2    1    2    0    0 -0.14217913186E+03 -0.15557031440E+03 -0.26280733852E+03  0.96701314806E+03  0.90643792015E+03 0.  0.
         23    2    4    4    0    0 -0.71674080594E+02 -0.45374616914E+03 -0.40359189093E+03  0.61825991841E+03  0.91302532578E+02 0.  0.
         23    2    4    4    0    0 -0.70505051267E+02  0.29817585474E+03  0.14078455240E+03  0.34875322965E+03  0.89043373659E+02 0.  0.
          4    1    3    3  502    0  0.12873671151E+03  0.89831565069E+02 -0.34821166903E+03  0.38196101558E+03  0.00000000000E+00 0. -1.
         -3    1    3    3    0  502  0.13442420353E+02  0.65738749331E+02 -0.10480949516E+03  0.12444802973E+03  0.00000000000E+00 0.  1.
         11    1    5    5    0    0 -0.87351064769E+00 -0.81305646946E+01  0.49669349557E+01  0.95676301119E+01  0.00000000000E+00 0.  1.
        -11    1    5    5    0    0 -0.70800569946E+02 -0.44561560445E+03 -0.40855882588E+03  0.60869228830E+03  0.00000000000E+00 0. -1.
          1    1    6    6  503    0 -0.75851067033E+02  0.20640962115E+03  0.64134327977E+02  0.22906664554E+03  0.00000000000E+00 0. -1.
         -1    1    6    6    0  503  0.53460157657E+01  0.91766233590E+02  0.76650224427E+02  0.11968658411E+03  0.00000000000E+00 0.  1.
<mgrwt>
<rscale>  0 0.12878519E+04</rscale>
<asrwt>0</asrwt>
<pdfrwt beam="1">  1        2 0.16840390E+00 0.12878519E+04</pdfrwt>
<pdfrwt beam="2">  1       -1 0.58276439E-01 0.12878519E+04</pdfrwt>
<totfact> 0.73274324E+01</totfact>
</mgrwt>
</event>
<event>
12    6  0.1530859E-007  0.2563198E+04  0.7818608E-02  0.8380811E-01
         -1   -1    0    0    0  501 -0.00000000000E+00  0.00000000000E+00  0.19538555152E+04  0.19538555152E+04  0.00000000000E+00 0.  1.
          2   -1    0    0  501    0  0.00000000000E+00 -0.00000000000E+00 -0.84064349519E+03  0.84064349519E+03  0.00000000000E+00 0. -1.
         24    2    1    2    0    0 -0.30242014182E+03  0.10590975207E+04  0.72236131129E+03  0.13193879444E+04  0.76375279609E+02 0.  0.
        254    2    1    2    0    0  0.30242014182E+03 -0.10590975207E+04  0.39085070872E+03  0.14751110660E+04  0.90002382195E+03 0.  0.
         23    2    4    4    0    0  0.25137100040E+03  0.31316833290E+02 -0.82952893679E+02  0.28162807596E+03  0.90912412293E+02 0.  0.
         23    2    4    4    0    0  0.51049141418E+02 -0.10904143539E+04  0.47380360239E+03  0.11934829900E+04  0.91117044112E+02 0.  0.
          2    1    3    3  502    0  0.24237828962E+01  0.18902817192E+02  0.54832520525E+01  0.19830715428E+02  0.00000000000E+00 0. -1.
         -1    1    3    3    0  502 -0.30484392472E+03  0.10401947035E+04  0.71687805924E+03  0.12995572290E+04  0.00000000000E+00 0.  1.
         11    1    5    5    0    0 -0.55666158694E+01 -0.38294205360E+01  0.43047299534E+01  0.80113902570E+01  0.00000000000E+00 0. -1.
        -11    1    5    5    0    0  0.25693761627E+03  0.35146253826E+02 -0.87257623632E+02  0.27361668571E+03  0.00000000000E+00 0.  1.
          2    1    6    6  503    0  0.45178801781E+02 -0.31104312115E+03  0.10634675150E+03  0.33181105904E+03  0.00000000000E+00 0. -1.
         -2    1    6    6    0  503  0.58703396373E+01 -0.77937123279E+03  0.36745685090E+03  0.86167193099E+03  0.00000000000E+00 0.  1.
<mgrwt>
<rscale>  0 0.25631979E+04</rscale>
<asrwt>0</asrwt>
<pdfrwt beam="1">  1        2 0.12932977E+00 0.25631979E+04</pdfrwt>
<pdfrwt beam="2">  1       -1 0.30059316E+00 0.25631979E+04</pdfrwt>
<totfact> 0.10672521E+00</totfact>
</mgrwt>
</event>
<event>
12    6  0.1530859E-007  0.1383727E+04  0.7818608E-02  0.8965683E-01
          2   -1    0    0  501    0  0.00000000000E+00  0.00000000000E+00  0.21001520516E+04  0.21001520516E+04  0.00000000000E+00 0. -1.
         -1   -1    0    0    0  501 -0.00000000000E+00 -0.00000000000E+00 -0.22792405774E+03  0.22792405774E+03  0.00000000000E+00 0.  1.
         24    2    1    2    0    0 -0.24893693829E+03 -0.23846060652E+03  0.98050341882E+03  0.10424762974E+04  0.80850579027E+02 0.  0.
        254    2    1    2    0    0  0.24893693829E+03  0.23846060652E+03  0.89172457505E+03  0.12855998120E+04  0.85951212831E+03 0.  0.
         23    2    4    4    0    0 -0.28472158311E+03 -0.59190897865E+02  0.34368923024E+03  0.45992006064E+03  0.93990600150E+02 0.  0.
         23    2    4    4    0    0  0.53365852140E+03  0.29765150439E+03  0.54803534481E+03  0.82567975134E+03  0.89534781467E+02 0.  0.
          4    1    3    3  502    0 -0.21242526817E+03 -0.23477572535E+03  0.89796146253E+03  0.95214438189E+03  0.00000000000E+00 0. -1.
         -3    1    3    3    0  502 -0.36511670128E+02 -0.36848811696E+01  0.82541956295E+02  0.90331915477E+02  0.00000000000E+00 0.  1.
         11    1    5    5    0    0 -0.14507722470E+03  0.95147973614E+01  0.20590236394E+03  0.25205895337E+03  0.00000000000E+00 0.  1.
        -11    1    5    5    0    0 -0.13964435840E+03 -0.68705695226E+02  0.13778686630E+03  0.20786110727E+03  0.00000000000E+00 0. -1.
          1    1    6    6  503    0  0.31191531683E+02 -0.34211756614E+01  0.21362136438E+02  0.37959938947E+02  0.00000000000E+00 0. -1.
         -1    1    6    6    0  503  0.50246698972E+03  0.30107268005E+03  0.52667320837E+03  0.78771981240E+03  0.00000000000E+00 0.  1.
<mgrwt>
<rscale>  0 0.13837271E+04</rscale>
<asrwt>0</asrwt>
<pdfrwt beam="1">  1        2 0.32310030E+00 0.13837271E+04</pdfrwt>
<pdfrwt beam="2">  1       -1 0.35065241E-01 0.13837271E+04</pdfrwt>
<totfact> 0.50485332E+01</totfact>
</mgrwt>
</event>
<event>
12    6  0.1530859E-007  0.2041027E+04  0.7818608E-02  0.8587676E-01
          2   -1    0    0  501    0  0.00000000000E+00  0.00000000000E+00  0.14107428429E+04  0.14107428429E+04  0.00000000000E+00 0. -1.
         -1   -1    0    0    0  501 -0.00000000000E+00 -0.00000000000E+00 -0.73822674913E+03  0.73822674913E+03  0.00000000000E+00 0.  1.
         24    2    1    2    0    0  0.51918988624E+02  0.55374227338E+03  0.90853111480E+03  0.10681388741E+04  0.78522488053E+02 0.  0.
        254    2    1    2    0    0 -0.51918988624E+02 -0.55374227338E+03 -0.23601502105E+03  0.10808307179E+04  0.89619521527E+03 0.  0.
         23    2    4    4    0    0 -0.38909756555E+03 -0.42862315320E+03 -0.36243457544E+03  0.68871047122E+03  0.88592148136E+02 0.  0.
         23    2    4    4    0    0  0.33717857693E+03 -0.12511912017E+03  0.12641955439E+03  0.39212024667E+03  0.91826995723E+02 0.  0.
          4    1    3    3  502    0 -0.16341012971E+02  0.23392911720E+03  0.39245510162E+03  0.45717706347E+03  0.00000000000E+00 0. -1.
         -3    1    3    3    0  502  0.68260001595E+02  0.31981315617E+03  0.51607601319E+03  0.61096181064E+03  0.00000000000E+00 0.  1.
         11    1    5    5    0    0 -0.11400366214E+02 -0.46601396692E+02 -0.22574825554E+02  0.53021517069E+02  0.00000000000E+00 0.  1.
        -11    1    5    5    0    0 -0.37769719934E+03 -0.38202175651E+03 -0.33985974989E+03  0.63568895415E+03  0.00000000000E+00 0. -1.
          1    1    6    6  503    0  0.33590747353E+03 -0.11638510878E+03  0.10774946049E+03  0.37146907079E+03  0.00000000000E+00 0. -1.
         -1    1    6    6    0  503  0.12711034017E+01 -0.87340113921E+01  0.18670093906E+02  0.20651175882E+02  0.00000000000E+00 0.  1.
<mgrwt>
<rscale>  0 0.20410273E+04</rscale>
<asrwt>0</asrwt>
<pdfrwt beam="1">  1        2 0.21703736E+00 0.20410273E+04</pdfrwt>
<pdfrwt beam="2">  1       -1 0.11357335E+00 0.20410273E+04</pdfrwt>
<totfact> 0.10648217E+01</totfact>
</mgrwt>
</event>
<event>
12    6  0.1530859E-007  0.2313064E+04  0.7818608E-02  0.8472788E-01
          2   -1    0    0  501    0  0.00000000000E+00  0.00000000000E+00  0.16527455522E+04  0.16527455522E+04  0.00000000000E+00 0. -1.
         -1   -1    0    0    0  501 -0.00000000000E+00 -0.00000000000E+00 -0.80929955262E+03  0.80929955262E+03  0.00000000000E+00 0.  1.
         24    2    1    2    0    0 -0.40892071889E+03  0.44475774925E+02  0.13048646530E+04  0.13705092166E+04  0.80184171395E+02 0.  0.
        254    2    1    2    0    0  0.40892071889E+03 -0.44475774925E+02 -0.46141865346E+03  0.10915358881E+04  0.89963835647E+03 0.  0.
         23    2    4    4    0    0  0.60178639158E+03 -0.18442735849E+03 -0.53095192011E+03  0.82829658325E+03  0.89470535363E+02 0.  0.
         23    2    4    4    0    0 -0.19286567269E+03  0.13995158357E+03  0.69533266643E+02  0.26323930489E+03  0.87615312710E+02 0.  0.
          4    1    3    3  502    0 -0.32391361851E+03  0.18516916519E+02  0.11076933487E+04  0.11542302471E+04  0.00000000000E+00 0. -1.
         -3    1    3    3    0  502 -0.85007100376E+02  0.25958858406E+02  0.19717130427E+03  0.21627896955E+03  0.00000000000E+00 0.  1.
         11    1    5    5    0    0  0.15450676246E+03 -0.15296758421E+02 -0.10086447414E+03  0.18514851500E+03  0.00000000000E+00 0. -1.
        -11    1    5    5    0    0  0.44727962913E+03 -0.16913060007E+03 -0.43008744596E+03  0.64314806825E+03  0.00000000000E+00 0.  1.
          4    1    6    6  503    0 -0.14374795089E+03  0.58931406540E+02  0.20955682324E+02  0.15676582754E+03  0.00000000000E+00 0.  1.
         -4    1    6    6    0  503 -0.49117721801E+02  0.81020177025E+02  0.48577584319E+02  0.10647347735E+03  0.00000000000E+00 0. -1.
<mgrwt>
<rscale>  0 0.23130640E+04</rscale>
<asrwt>0</asrwt>
<pdfrwt beam="1">  1        2 0.25426855E+00 0.23130640E+04</pdfrwt>
<pdfrwt beam="2">  1       -1 0.12450762E+00 0.23130640E+04</pdfrwt>
<totfact> 0.60734674E+00</totfact>
</mgrwt>
</event>
<event>
12    6  0.1530859E-007  0.1742416E+04  0.7818608E-02  0.8737536E-01
         -1   -1    0    0    0  501 -0.00000000000E+00  0.00000000000E+00  0.49632472467E+03  0.49632472467E+03  0.00000000000E+00 0.  1.
          2   -1    0    0  501    0  0.00000000000E+00 -0.00000000000E+00 -0.15292479454E+04  0.15292479454E+04  0.00000000000E+00 0. -1.
         24    2    1    2    0    0  0.62622390171E+03 -0.96707437243E+02 -0.42793005592E+03  0.76901704916E+03  0.82185069512E+02 0.  0.
        254    2    1    2    0    0 -0.62622390171E+03  0.96707437243E+02 -0.60499316482E+03  0.12565556209E+04  0.90078110299E+03 0.  0.
         23    2    4    4    0    0 -0.61161990356E+03 -0.11007419079E+03 -0.18946754822E+02  0.62833745195E+03  0.90850096814E+02 0.  0.
         23    2    4    4    0    0 -0.14603998149E+02  0.20678162803E+03 -0.58604641000E+03  0.62821816898E+03  0.90751059000E+02 0.  0.
          4    1    3    3  502    0  0.33079241577E+02 -0.12923982355E+02 -0.53110575230E+01  0.35909231059E+02  0.00000000000E+00 0. -1.
         -3    1    3    3    0  502  0.59314466013E+03 -0.83783454888E+02 -0.42261899840E+03  0.73310781810E+03  0.00000000000E+00 0.  1.
         11    1    5    5    0    0 -0.36295363498E+03 -0.50544693981E+02 -0.53427800311E+02  0.37033044310E+03  0.00000000000E+00 0.  1.
        -11    1    5    5    0    0 -0.24866626858E+03 -0.59529496807E+02  0.34481045488E+02  0.25800700885E+03  0.00000000000E+00 0. -1.
          1    1    6    6  503    0 -0.41053292461E+02  0.10875626418E+03 -0.22619480160E+03  0.25431749073E+03  0.00000000000E+00 0. -1.
         -1    1    6    6    0  503  0.26449294312E+02  0.98025363848E+02 -0.35985160840E+03  0.37390067825E+03  0.00000000000E+00 0.  1.
<mgrwt>
<rscale>  0 0.17424162E+04</rscale>
<asrwt>0</asrwt>
<pdfrwt beam="1">  1        2 0.23526892E+00 0.17424162E+04</pdfrwt>
<pdfrwt beam="2">  1       -1 0.76357650E-01 0.17424162E+04</pdfrwt>
<totfact> 0.22737029E+01</totfact>
</mgrwt>
</event>
<event>
12    6  0.1530859E-007  0.2324485E+04  0.7818608E-02  0.8468329E-01
         -1   -1    0    0    0  501 -0.00000000000E+00  0.00000000000E+00  0.46125231065E+03  0.46125231065E+03  0.00000000000E+00 0.  1.
          2   -1    0    0  501    0  0.00000000000E+00 -0.00000000000E+00 -0.29285664704E+04  0.29285664704E+04  0.00000000000E+00 0. -1.
         24    2    1    2    0    0 -0.56911732556E+03  0.47230571195E+03 -0.10024353395E+03  0.75020828733E+03  0.76134699687E+02 0.  0.
        254    2    1    2    0    0  0.56911732556E+03 -0.47230571195E+03 -0.23670706258E+04  0.26396104937E+04  0.90418637195E+03 0.  0.
         23    2    4    4    0    0  0.61248913178E+03 -0.19636369060E+03 -0.22124027837E+04  0.23058416370E+04  0.92075740716E+02 0.  0.
         23    2    4    4    0    0 -0.43371806223E+02 -0.27594202134E+03 -0.15466784209E+03  0.33376885672E+03  0.97233716464E+02 0.  0.
          2    1    3    3  502    0 -0.29951745841E+03  0.22886954769E+03 -0.86270121745E+02  0.38669692481E+03  0.00000000000E+00 0. -1.
         -1    1    3    3    0  502 -0.26959986715E+03  0.24343616426E+03 -0.13973412206E+02  0.36351136252E+03  0.00000000000E+00 0.  1.
         11    1    5    5    0    0  0.29464059281E+03 -0.63319886160E+02 -0.11575743311E+04  0.11961608666E+04  0.00000000000E+00 0.  1.
        -11    1    5    5    0    0  0.31784853897E+03 -0.13304380444E+03 -0.10548284527E+04  0.11096807704E+04  0.00000000000E+00 0. -1.
          1    1    6    6  503    0  0.26019550689E+02 -0.92359365307E+02 -0.75692248953E+02  0.12221532608E+03  0.00000000000E+00 0. -1.
         -1    1    6    6    0  503 -0.69391356912E+02 -0.18358265604E+03 -0.78975593142E+02  0.21155353063E+03  0.00000000000E+00 0.  1.
<mgrwt>
<rscale>  0 0.23244854E+04</rscale>
<asrwt>0</asrwt>
<pdfrwt beam="1">  1        2 0.45054869E+00 0.23244854E+04</pdfrwt>
<pdfrwt beam="2">  1       -1 0.70961894E-01 0.23244854E+04</pdfrwt>
<totfact> 0.39854721E+00</totfact>
</mgrwt>
</event>
<event>
12    6  0.1530859E-007  0.2671738E+04  0.7818608E-02  0.8344234E-01
          2   -1    0    0  501    0  0.00000000000E+00  0.00000000000E+00  0.31950667040E+04  0.31950667040E+04  0.00000000000E+00 0. -1.
         -1   -1    0    0    0  501 -0.00000000000E+00 -0.00000000000E+00 -0.55853157645E+03  0.55853157645E+03  0.00000000000E+00 0.  1.
         24    2    1    2    0    0 -0.25973668370E+03  0.45562774023E+03  0.26602610632E+04  0.27126695259E+04  0.80791397043E+02 0.  0.
        254    2    1    2    0    0  0.25973668370E+03 -0.45562774023E+03 -0.23725935655E+02  0.10409287545E+04  0.89883812196E+03 0.  0.
         23    2    4    4    0    0  0.14151011568E+03 -0.64282669480E+03  0.21913137705E+03  0.69982729890E+03  0.92132597319E+02 0.  0.
         23    2    4    4    0    0  0.11822656802E+03  0.18719895457E+03 -0.24285731271E+03  0.34110145565E+03  0.91375919876E+02 0.  0.
          2    1    3    3  502    0 -0.13820184909E+03  0.17862731444E+03  0.10137678818E+04  0.10386206173E+04  0.00000000000E+00 0. -1.
         -1    1    3    3    0  502 -0.12153483461E+03  0.27700042579E+03  0.16464931815E+04  0.16740489087E+04  0.00000000000E+00 0.  1.
         11    1    5    5    0    0 -0.14596304442E+01 -0.18495764873E+03  0.60619587977E+02  0.19464376896E+03  0.00000000000E+00 0. -1.
        -11    1    5    5    0    0  0.14296974612E+03 -0.45786904606E+03  0.15851178908E+03  0.50518352994E+03  0.00000000000E+00 0.  1.
          3    1    6    6  503    0  0.52442689724E+02  0.45949176751E+02 -0.26754465791E+02  0.74681751381E+02  0.00000000000E+00 0. -1.
         -3    1    6    6    0  503  0.65783878297E+02  0.14124977782E+03 -0.21610284692E+03  0.26641970427E+03  0.00000000000E+00 0.  1.
<mgrwt>
<rscale>  0 0.26717377E+04</rscale>
<asrwt>0</asrwt>
<pdfrwt beam="1">  1        2 0.49154871E+00 0.26717377E+04</pdfrwt>
<pdfrwt beam="2">  1       -1 0.85927937E-01 0.26717377E+04</pdfrwt>
<totfact> 0.17460500E+00</totfact>
</mgrwt>
</event>
<event>
12    6  0.1530859E-007  0.1162496E+04  0.7818608E-02  0.9146332E-01
         -1   -1    0    0    0  501 -0.00000000000E+00  0.00000000000E+00  0.36593171590E+03  0.36593171590E+03  0.00000000000E+00 0.  1.
          2   -1    0    0  501    0  0.00000000000E+00 -0.00000000000E+00 -0.92325741120E+03  0.92325741120E+03  0.00000000000E+00 0. -1.
         24    2    1    2    0    0  0.15332614125E+02 -0.20193169673E+03  0.42980249707E+01  0.21787080874E+03  0.80235385471E+02 0.  0.
        254    2    1    2    0    0 -0.15332614125E+02  0.20193169673E+03 -0.56162372027E+03  0.10713183184E+04  0.88954496057E+03 0.  0.
         23    2    4    4    0    0  0.33178359293E+03  0.33614443284E+03 -0.13883478205E+03  0.50087019173E+03  0.92316953987E+02 0.  0.
         23    2    4    4    0    0 -0.34711620705E+03 -0.13421273611E+03 -0.42278893822E+03  0.57044812662E+03  0.90320867717E+02 0.  0.
          2    1    3    3  502    0  0.39504978297E+02 -0.14924067643E+03 -0.18690384996E+02  0.15550804899E+03  0.00000000000E+00 0. -1.
         -1    1    3    3    0  502 -0.24172364172E+02 -0.52691020303E+02  0.22988409966E+02  0.62362759745E+02  0.00000000000E+00 0.  1.
         11    1    5    5    0    0  0.31468833020E+03  0.29451885665E+03 -0.14648960865E+03  0.45522445840E+03  0.00000000000E+00 0.  1.
        -11    1    5    5    0    0  0.17095262732E+02  0.41625576198E+02  0.76548265974E+01  0.45645733338E+02  0.00000000000E+00 0. -1.
          3    1    6    6  503    0 -0.53522031807E+02  0.29401654515E+01 -0.30665863823E+02  0.61754738001E+02  0.00000000000E+00 0. -1.
         -3    1    6    6    0  503 -0.29359417525E+03 -0.13715290157E+03 -0.39212307440E+03  0.50869338862E+03  0.00000000000E+00 0.  1.
<mgrwt>
<rscale>  0 0.11624959E+04</rscale>
<asrwt>0</asrwt>
<pdfrwt beam="1">  1        2 0.14203960E+00 0.11624959E+04</pdfrwt>
<pdfrwt beam="2">  1       -1 0.56297186E-01 0.11624959E+04</pdfrwt>
<totfact> 0.10189876E+02</totfact>
</mgrwt>
</event>
<event>
12    6  0.1530859E-007  0.1472970E+04  0.7818608E-02  0.8902629E-01
         -1   -1    0    0    0  501 -0.00000000000E+00  0.00000000000E+00  0.82731206854E+03  0.82731206854E+03  0.00000000000E+00 0.  1.
          2   -1    0    0  501    0  0.00000000000E+00 -0.00000000000E+00 -0.65562966413E+03  0.65562966413E+03  0.00000000000E+00 0. -1.
         24    2    1    2    0    0  0.13766048426E+03 -0.11891225744E+03 -0.36259169177E+03  0.41339972275E+03  0.79599384012E+02 0.  0.
        254    2    1    2    0    0 -0.13766048426E+03  0.11891225744E+03  0.53427409618E+03  0.10695420099E+04  0.90850468752E+03 0.  0.
         23    2    4    4    0    0  0.25216928842E+03  0.16002258045E+03  0.58545573991E+03  0.66343398995E+03  0.90496736724E+02 0.  0.
         23    2    4    4    0    0 -0.38982977268E+03 -0.41110323009E+02 -0.51181643727E+02  0.40610801997E+03  0.92988455731E+02 0.  0.
          2    1    3    3  502    0  0.65794204007E+02 -0.78312926589E+01 -0.12038629644E+03  0.13741567158E+03  0.00000000000E+00 0. -1.
         -1    1    3    3    0  502  0.71866280254E+02 -0.11108096478E+03 -0.24220539533E+03  0.27598405118E+03  0.00000000000E+00 0.  1.
         11    1    5    5    0    0  0.67136251326E+02  0.38946711609E+02  0.78699156128E+02  0.11053361372E+03  0.00000000000E+00 0. -1.
        -11    1    5    5    0    0  0.18503303710E+03  0.12107586884E+03  0.50675658378E+03  0.55290037623E+03  0.00000000000E+00 0.  1.
          2    1    6    6  503    0 -0.71353591739E+01 -0.88053347540E+01  0.12428824891E+02  0.16820313875E+02  0.00000000000E+00 0. -1.
         -2    1    6    6    0  503 -0.38269441351E+03 -0.32304988255E+02 -0.63610468618E+02  0.38928770609E+03  0.00000000000E+00 0.  1.
<mgrwt>
<rscale>  0 0.14729702E+04</rscale>
<asrwt>0</asrwt>
<pdfrwt beam="1">  1        2 0.10086610E+00 0.14729702E+04</pdfrwt>
<pdfrwt beam="2">  1       -1 0.12727878E+00 0.14729702E+04</pdfrwt>
<totfact> 0.26324224E+01</totfact>
</mgrwt>
</event>
<event>
12    6  0.1530859E-007  0.1698269E+04  0.7818608E-02  0.8762352E-01
          2   -1    0    0  501    0  0.00000000000E+00  0.00000000000E+00  0.13215721595E+04  0.13215721595E+04  0.00000000000E+00 0. -1.
         -1   -1    0    0    0  501 -0.00000000000E+00 -0.00000000000E+00 -0.54558436033E+03  0.54558436033E+03  0.00000000000E+00 0.  1.
         24    2    1    2    0    0  0.47711201208E+03 -0.34332142944E+03  0.10953950977E+03  0.60319149161E+03  0.79596453223E+02 0.  0.
        254    2    1    2    0    0 -0.47711201208E+03  0.34332142944E+03  0.66644828945E+03  0.12639650283E+04  0.89885971886E+03 0.  0.
         23    2    4    4    0    0  0.25254113228E+03  0.25851989285E+02  0.13044852649E+03  0.30000914599E+03  0.92430085847E+02 0.  0.
         23    2    4    4    0    0 -0.72965314436E+03  0.31746944016E+03  0.53599976296E+03  0.96395588228E+03  0.93459299044E+02 0.  0.
          4    1    3    3  502    0  0.93576559082E+02 -0.44233716256E+02  0.43843717353E+02  0.11240758700E+03  0.00000000000E+00 0. -1.
         -3    1    3    3    0  502  0.38353545300E+03 -0.29908771319E+03  0.65695792419E+02  0.49078390461E+03  0.00000000000E+00 0.  1.
         11    1    5    5    0    0  0.15933522180E+03  0.34079747644E+02  0.12663570341E+03  0.20636313499E+03  0.00000000000E+00 0. -1.
        -11    1    5    5    0    0  0.93205910479E+02 -0.82277583590E+01  0.38128230827E+01  0.93646010997E+02  0.00000000000E+00 0.  1.
          2    1    6    6  503    0 -0.10318741179E+03  0.49697559408E+02  0.40309379733E+02  0.12141801949E+03  0.00000000000E+00 0.  1.
         -2    1    6    6    0  503 -0.62646573257E+03  0.26777188075E+03  0.49569038322E+03  0.84253786278E+03  0.00000000000E+00 0. -1.
<mgrwt>
<rscale>  0 0.16982686E+04</rscale>
<asrwt>0</asrwt>
<pdfrwt beam="1">  1        2 0.20331879E+00 0.16982686E+04</pdfrwt>
<pdfrwt beam="2">  1       -1 0.83936056E-01 0.16982686E+04</pdfrwt>
<totfact> 0.24514807E+01</totfact>
</mgrwt>
</event>
<event>
12    6  0.1530859E-007  0.1837984E+04  0.7818608E-02  0.8686357E-01
         -1   -1    0    0    0  501 -0.00000000000E+00  0.00000000000E+00  0.18539277136E+03  0.18539277136E+03  0.00000000000E+00 0.  1.
          2   -1    0    0  501    0  0.00000000000E+00 -0.00000000000E+00 -0.45554418772E+04  0.45554418772E+04  0.00000000000E+00 0. -1.
         24    2    1    2    0    0 -0.36229346877E+03  0.54357103899E+03 -0.10412824411E+04  0.12318179602E+04  0.79876986596E+02 0.  0.
        254    2    1    2    0    0  0.36229346877E+03 -0.54357103899E+03 -0.33287666648E+04  0.35090166884E+04  0.89765504455E+03 0.  0.
         23    2    4    4    0    0 -0.10413796752E+03 -0.61417577498E+03 -0.18449350090E+04  0.19493588419E+04  0.90322247442E+02 0.  0.
         23    2    4    4    0    0  0.46643143629E+03  0.70604735990E+02 -0.14838316558E+04  0.15596578465E+04  0.90735339422E+02 0.  0.
          4    1    3    3  502    0 -0.34827341591E+02  0.33391020200E+02 -0.11588345012E+03  0.12552640345E+03  0.00000000000E+00 0. -1.
         -3    1    3    3    0  502 -0.32746612718E+03  0.51018001879E+03 -0.92539899097E+03  0.11062915567E+04  0.00000000000E+00 0.  1.
         11    1    5    5    0    0 -0.20537543370E+02 -0.15472863095E+03 -0.35110448971E+03  0.38423573834E+03  0.00000000000E+00 0. -1.
        -11    1    5    5    0    0 -0.83600424151E+02 -0.45944714403E+03 -0.14938305192E+04  0.15651231036E+04  0.00000000000E+00 0.  1.
          3    1    6    6  503    0  0.26589437921E+03  0.56868519712E+01 -0.92183594510E+03  0.95943403674E+03  0.00000000000E+00 0. -1.
         -3    1    6    6    0  503  0.20053705708E+03  0.64917884019E+02 -0.56199571069E+03  0.60022380973E+03  0.00000000000E+00 0.  1.
<mgrwt>
<rscale>  0 0.18379837E+04</rscale>
<asrwt>0</asrwt>
<pdfrwt beam="1">  1        2 0.70083727E+00 0.18379837E+04</pdfrwt>
<pdfrwt beam="2">  1       -1 0.28521963E-01 0.18379837E+04</pdfrwt>
<totfact> 0.13245701E+00</totfact>
</mgrwt>
</event>
<event>
12    6  0.1530859E-007  0.1473456E+04  0.7818608E-02  0.8902299E-01
         -1   -1    0    0    0  501 -0.00000000000E+00  0.00000000000E+00  0.66052484583E+03  0.66052484583E+03  0.00000000000E+00 0.  1.
          2   -1    0    0  501    0  0.00000000000E+00 -0.00000000000E+00 -0.82172277073E+03  0.82172277073E+03  0.00000000000E+00 0. -1.
         24    2    1    2    0    0  0.41184600238E+03  0.19886598914E+03 -0.13774010091E+03  0.48411536389E+03  0.78933762430E+02 0.  0.
        254    2    1    2    0    0 -0.41184600238E+03 -0.19886598914E+03 -0.23457823990E+02  0.99813225266E+03  0.88687818385E+03 0.  0.
         23    2    4    4    0    0  0.51169389674E+02  0.13869338791E+03  0.29008071184E+03  0.33821035034E+03  0.91571062083E+02 0.  0.
         23    2    4    4    0    0 -0.46301539205E+03 -0.33755937704E+03 -0.31353853583E+03  0.65992190232E+03  0.94132446092E+02 0.  0.
          2    1    3    3  502    0  0.35614891244E+03  0.19809713154E+03 -0.13064251778E+03  0.42796260212E+03  0.00000000000E+00 0. -1.
         -1    1    3    3    0  502  0.55697089932E+02  0.76885759787E+00 -0.70975831292E+01  0.56152761777E+02  0.00000000000E+00 0.  1.
         11    1    5    5    0    0 -0.48863161916E+01  0.69546079662E+02  0.61713398216E+02  0.93107877226E+02  0.00000000000E+00 0.  1.
        -11    1    5    5    0    0  0.56055705865E+02  0.69147308245E+02  0.22836731362E+03  0.24510247312E+03  0.00000000000E+00 0. -1.
          3    1    6    6  503    0 -0.32497137035E+03 -0.27280593915E+03 -0.19590045317E+03  0.46733976883E+03  0.00000000000E+00 0. -1.
         -3    1    6    6    0  503 -0.13804402170E+03 -0.64753437894E+02 -0.11763808266E+03  0.19258213349E+03  0.00000000000E+00 0.  1.
<mgrwt>
<rscale>  0 0.14734562E+04</rscale>
<asrwt>0</asrwt>
<pdfrwt beam="1">  1        2 0.12641889E+00 0.14734562E+04</pdfrwt>
<pdfrwt beam="2">  1       -1 0.10161921E+00 0.14734562E+04</pdfrwt>
<totfact> 0.33747231E+01</totfact>
</mgrwt>
</event>
<event>
12    6  0.1530859E-007  0.1231300E+04  0.7818608E-02  0.9085893E-01
         -1   -1    0    0    0  501 -0.00000000000E+00  0.00000000000E+00  0.66120956625E+03  0.66120956625E+03  0.00000000000E+00 0.  1.
          2   -1    0    0  501    0  0.00000000000E+00 -0.00000000000E+00 -0.57322934470E+03  0.57322934470E+03  0.00000000000E+00 0. -1.
         24    2    1    2    0    0 -0.15248594263E+03 -0.13053264108E+03 -0.16231639173E+03  0.26862243138E+03  0.74301187947E+02 0.  0.
        254    2    1    2    0    0  0.15248594263E+03  0.13053264108E+03  0.25029661328E+03  0.96581647957E+03  0.91096780651E+03 0.  0.
         23    2    4    4    0    0 -0.26621044448E+03  0.25949049665E+03  0.33740301538E+03  0.51029246050E+03  0.91401760700E+02 0.  0.
         23    2    4    4    0    0  0.41869638711E+03 -0.12895785557E+03 -0.87106402094E+02  0.45552401907E+03  0.89318607048E+02 0.  0.
          2    1    3    3  502    0 -0.15640399559E+03 -0.11840068491E+03 -0.16409493038E+03  0.25575003069E+03  0.00000000000E+00 0. -1.
         -3    1    3    3    0  502  0.39180529611E+01 -0.12131956174E+02  0.17785386583E+01  0.12872400684E+02  0.00000000000E+00 0.  1.
         11    1    5    5    0    0 -0.98678973420E+02  0.15547322799E+03  0.18542515662E+03  0.26132729120E+03  0.00000000000E+00 0.  1.
        -11    1    5    5    0    0 -0.16753147106E+03  0.10401726866E+03  0.15197785875E+03  0.24896516931E+03  0.00000000000E+00 0. -1.
          4    1    6    6  503    0  0.13927000620E+03 -0.12217329045E+02  0.21180716510E+01  0.13982089967E+03  0.00000000000E+00 0. -1.
         -4    1    6    6    0  503  0.27942638092E+03 -0.11674052652E+03 -0.89224473745E+02  0.31570311940E+03  0.00000000000E+00 0.  1.
<mgrwt>
<rscale>  0 0.12312997E+04</rscale>
<asrwt>0</asrwt>
<pdfrwt beam="1">  1        2 0.88189130E-01 0.12312997E+04</pdfrwt>
<pdfrwt beam="2">  1       -1 0.10172455E+00 0.12312997E+04</pdfrwt>
<totfact> 0.54075682E+01</totfact>
</mgrwt>
</event>
<event>
12    6  0.1530859E-007  0.2128725E+04  0.7818608E-02  0.8548694E-01
          2   -1    0    0  501    0  0.00000000000E+00  0.00000000000E+00  0.24372664573E+04  0.24372664573E+04  0.00000000000E+00 0. -1.
         -1   -1    0    0    0  501 -0.00000000000E+00 -0.00000000000E+00 -0.46481050235E+03  0.46481050235E+03  0.00000000000E+00 0.  1.
         24    2    1    2    0    0  0.25411885828E+03  0.33104745906E+03  0.16960432027E+04  0.17484193198E+04  0.78985811203E+02 0.  0.
        254    2    1    2    0    0 -0.25411885828E+03 -0.33104745906E+03  0.27641275225E+03  0.11536576398E+04  0.10394003685E+04 0.  0.
         23    2    4    4    0    0 -0.16950462764E+03 -0.67100669673E+03  0.35482891965E+03  0.78316812565E+03  0.92016003893E+02 0.  0.
         23    2    4    4    0    0 -0.84614230634E+02  0.33995923767E+03 -0.78416167399E+02  0.37048951414E+03  0.91550715317E+02 0.  0.
          2    1    3    3  502    0  0.15095242045E+03  0.24660804574E+03  0.10731738445E+04  0.11114424240E+04  0.00000000000E+00 0. -1.
         -1    1    3    3    0  502  0.10316643783E+03  0.84439413319E+02  0.62286935818E+03  0.63697689579E+03  0.00000000000E+00 0.  1.
         11    1    5    5    0    0 -0.10390282715E+01 -0.15595962823E+03  0.89166710768E+02  0.17965296415E+03  0.00000000000E+00 0. -1.
        -11    1    5    5    0    0 -0.16846559937E+03 -0.51504706849E+03  0.26566220888E+03  0.60351516150E+03  0.00000000000E+00 0.  1.
          2    1    6    6  503    0 -0.10794999111E+02  0.60884088012E+01 -0.20106305895E+02  0.23619150372E+02  0.00000000000E+00 0. -1.
         -2    1    6    6    0  503 -0.73819231523E+02  0.33387082887E+03 -0.58309861504E+02  0.34687036377E+03  0.00000000000E+00 0.  1.
<mgrwt>
<rscale>  0 0.21287245E+04</rscale>
<asrwt>0</asrwt>
<pdfrwt beam="1">  1        2 0.37496406E+00 0.21287245E+04</pdfrwt>
<pdfrwt beam="2">  1       -1 0.71509310E-01 0.21287245E+04</pdfrwt>
<totfact> 0.78192598E+00</totfact>
</mgrwt>
</event>
<event>
12    6  0.1530859E-007  0.1445109E+04  0.7818608E-02  0.8921798E-01
         -1   -1    0    0    0  501 -0.00000000000E+00  0.00000000000E+00  0.28784224440E+03  0.28784224440E+03  0.00000000000E+00 0.  1.
          2   -1    0    0  501    0  0.00000000000E+00 -0.00000000000E+00 -0.18137883933E+04  0.18137883933E+04  0.00000000000E+00 0. -1.
         24    2    1    2    0    0 -0.38031558802E+03 -0.14088600669E+03 -0.75241003886E+03  0.85839210489E+03  0.78913406938E+02 0.  0.
        254    2    1    2    0    0  0.38031558802E+03  0.14088600669E+03 -0.77353611004E+03  0.12432385328E+04  0.88475709806E+03 0.  0.
         23    2    4    4    0    0  0.48085574322E+03  0.22432001092E+03 -0.89511167224E+03  0.10445112789E+04  0.90758982173E+02 0.  0.
         23    2    4    4    0    0 -0.10054015520E+03 -0.83434004226E+02  0.12157556219E+03  0.19872725394E+03  0.87420525434E+02 0.  0.
          2    1    3    3  502    0 -0.19570427374E+01 -0.38628845035E+01  0.82220908450E+00  0.44077115085E+01  0.00000000000E+00 0. -1.
         -1    1    3    3    0  502 -0.37835854528E+03 -0.13702312219E+03 -0.75323224794E+03  0.85398439338E+03  0.00000000000E+00 0.  1.
         11    1    5    5    0    0  0.38110535620E+02  0.20893141573E+02 -0.13332314077E+03  0.14022837143E+03  0.00000000000E+00 0. -1.
        -11    1    5    5    0    0  0.44274520760E+03  0.20342686934E+03 -0.76178853146E+03  0.90428290744E+03  0.00000000000E+00 0.  1.
          1    1    6    6  503    0 -0.44619782636E+01 -0.50083399676E+02  0.17575576260E+02  0.53264970233E+02  0.00000000000E+00 0. -1.
         -1    1    6    6    0  503 -0.96078176932E+02 -0.33350604551E+02  0.10399998593E+03  0.14546228370E+03  0.00000000000E+00 0.  1.
<mgrwt>
<rscale>  0 0.14451089E+04</rscale>
<asrwt>0</asrwt>
<pdfrwt beam="1">  1        2 0.27904437E+00 0.14451089E+04</pdfrwt>
<pdfrwt beam="2">  1       -1 0.44283423E-01 0.14451089E+04</pdfrwt>
<totfact> 0.47287136E+01</totfact>
</mgrwt>
</event>
<event>
12    6  0.1530859E-007  0.1913257E+04  0.7818608E-02  0.8648285E-01
          2   -1    0    0  501    0  0.00000000000E+00  0.00000000000E+00  0.12142156726E+04  0.12142156726E+04  0.00000000000E+00 0. -1.
         -1   -1    0    0    0  501 -0.00000000000E+00 -0.00000000000E+00 -0.75368682301E+03  0.75368682301E+03  0.00000000000E+00 0.  1.
         24    2    1    2    0    0  0.44723711675E+03 -0.25623129893E+03  0.69022740465E+03  0.86489798917E+03  0.77195494539E+02 0.  0.
        254    2    1    2    0    0 -0.44723711675E+03  0.25623129893E+03 -0.22969855503E+03  0.11030045065E+04  0.94772464249E+03 0.  0.
         23    2    4    4    0    0 -0.47248423985E+01  0.45804087709E+02 -0.51742015850E+03  0.52749348700E+03  0.91681076631E+02 0.  0.
         23    2    4    4    0    0 -0.44251227435E+03  0.21042721123E+03  0.28772160347E+03  0.57551101948E+03  0.91282464190E+02 0.  0.
          4    1    3    3  502    0  0.36139839095E+03 -0.16970601462E+03  0.52398001546E+03  0.65875942876E+03  0.00000000000E+00 0. -1.
         -3    1    3    3    0  502  0.85838725798E+02 -0.86525284312E+02  0.16624738920E+03  0.20613856041E+03  0.00000000000E+00 0.  1.
         11    1    5    5    0    0 -0.42200918052E+02  0.67023196881E+01 -0.14530721438E+03  0.15145964850E+03  0.00000000000E+00 0. -1.
        -11    1    5    5    0    0  0.37476075654E+02  0.39101768021E+02 -0.37211294412E+03  0.37603383849E+03  0.00000000000E+00 0.  1.
          3    1    6    6  503    0 -0.17823903601E+03  0.97627655649E+02  0.17014433434E+03  0.26504604810E+03  0.00000000000E+00 0. -1.
         -3    1    6    6    0  503 -0.26427323834E+03  0.11279955558E+03  0.11757726913E+03  0.31046497138E+03  0.00000000000E+00 0.  1.
<mgrwt>
<rscale>  0 0.19132573E+04</rscale>
<asrwt>0</asrwt>
<pdfrwt beam="1">  1        2 0.18680241E+00 0.19132573E+04</pdfrwt>
<pdfrwt beam="2">  1       -1 0.11595182E+00 0.19132573E+04</pdfrwt>
<totfact> 0.13333966E+01</totfact>
</mgrwt>
</event>
<event>
12    6  0.1530859E-007  0.1305243E+04  0.7818608E-02  0.9025418E-01
         -1   -1    0    0    0  501 -0.00000000000E+00  0.00000000000E+00  0.95249986707E+03  0.95249986707E+03  0.00000000000E+00 0.  1.
          2   -1    0    0  501    0  0.00000000000E+00 -0.00000000000E+00 -0.44715488364E+03  0.44715488364E+03  0.00000000000E+00 0. -1.
         24    2    1    2    0    0 -0.15127148163E+03 -0.64096853327E+02  0.36576207672E+03  0.40917342609E+03  0.81544638648E+02 0.  0.
        254    2    1    2    0    0  0.15127148163E+03  0.64096853327E+02  0.13958290671E+03  0.99048132461E+03  0.96673595092E+03 0.  0.
         23    2    4    4    0    0 -0.19518651791E+02  0.41612318760E+03 -0.19390655552E+03  0.46856871546E+03  0.91746410296E+02 0.  0.
         23    2    4    4    0    0  0.17079013342E+03 -0.35202633427E+03  0.33348946223E+03  0.52191260916E+03  0.89920745538E+02 0.  0.
          2    1    3    3  502    0 -0.71507657037E+01  0.13394251184E+02  0.65312246513E+02  0.67053925757E+02  0.00000000000E+00 0. -1.
         -1    1    3    3    0  502 -0.14412071593E+03 -0.77491104511E+02  0.30044983020E+03  0.34211950033E+03  0.00000000000E+00 0.  1.
         11    1    5    5    0    0 -0.22388946617E+01  0.94434930601E+02 -0.38667595122E+01  0.94540576453E+02  0.00000000000E+00 0.  1.
        -11    1    5    5    0    0 -0.17279757129E+02  0.32168825700E+03 -0.19003979601E+03  0.37402813900E+03  0.00000000000E+00 0. -1.
          4    1    6    6  503    0  0.15049133626E+03 -0.34819666186E+03  0.30508414505E+03  0.48679039963E+03  0.00000000000E+00 0. -1.
         -4    1    6    6    0  503  0.20298797167E+02 -0.38296724176E+01  0.28405317189E+02  0.35122209524E+02  0.00000000000E+00 0.  1.
<mgrwt>
<rscale>  0 0.13052432E+04</rscale>
<asrwt>0</asrwt>
<pdfrwt beam="1">  1        2 0.68793059E-01 0.13052432E+04</pdfrwt>
<pdfrwt beam="2">  1       -1 0.14653844E+00 0.13052432E+04</pdfrwt>
<totfact> 0.29173149E+01</totfact>
</mgrwt>
</event>
<event>
12    6  0.1530859E-007  0.1113508E+04  0.7818608E-02  0.9192125E-01
         -1   -1    0    0    0  501 -0.00000000000E+00  0.00000000000E+00  0.20500786371E+03  0.20500786371E+03  0.00000000000E+00 0.  1.
          2   -1    0    0  501    0  0.00000000000E+00 -0.00000000000E+00 -0.15120149316E+04  0.15120149316E+04  0.00000000000E+00 0. -1.
         24    2    1    2    0    0  0.13376874325E+03  0.41444885923E+02 -0.39271876523E+03  0.42449132953E+03  0.79706367667E+02 0.  0.
        254    2    1    2    0    0 -0.13376874325E+03 -0.41444885923E+02 -0.91428830266E+03  0.12925314658E+04  0.90283040178E+03 0.  0.
         23    2    4    4    0    0 -0.36379959160E+03 -0.27915508640E+03 -0.80751056459E+03  0.93332415996E+03  0.93503852952E+02 0.  0.
         23    2    4    4    0    0  0.23003084835E+03  0.23771020047E+03 -0.10677773806E+03  0.35920730581E+03  0.90598413888E+02 0.  0.
          4    1    3    3  502    0 -0.29515751212E+01 -0.11779300902E+02 -0.54249552880E+02  0.55592065199E+02  0.00000000000E+00 0. -1.
         -3    1    3    3    0  502  0.13672031837E+03  0.53224186825E+02 -0.33846921235E+03  0.36889926434E+03  0.00000000000E+00 0.  1.
         11    1    5    5    0    0 -0.36034067484E+03 -0.26182164210E+03 -0.79625500437E+03  0.91236944611E+03  0.00000000000E+00 0.  1.
        -11    1    5    5    0    0 -0.34589167563E+01 -0.17333444295E+02 -0.11255560228E+02  0.20954713845E+02  0.00000000000E+00 0. -1.
          4    1    6    6  503    0  0.18044310287E+03  0.22002819728E+03 -0.11304762273E+03  0.30618929762E+03  0.00000000000E+00 0.  1.
         -4    1    6    6    0  503  0.49587745483E+02  0.17682003192E+02  0.62698846635E+01  0.53018008192E+02  0.00000000000E+00 0. -1.
<mgrwt>
<rscale>  0 0.11135079E+04</rscale>
<asrwt>0</asrwt>
<pdfrwt beam="1">  1        2 0.23261769E+00 0.11135079E+04</pdfrwt>
<pdfrwt beam="2">  1       -1 0.31539670E-01 0.11135079E+04</pdfrwt>
<totfact> 0.13187387E+02</totfact>
</mgrwt>
</event>
<event>
12    6  0.1530859E-007  0.2287500E+04  0.7818608E-02  0.8482866E-01
         -1   -1    0    0    0  501 -0.00000000000E+00  0.00000000000E+00  0.89623071079E+03  0.89623071079E+03  0.00000000000E+00 0.  1.
          2   -1    0    0  501    0  0.00000000000E+00 -0.00000000000E+00 -0.14596283243E+04  0.14596283243E+04  0.00000000000E+00 0. -1.
         24    2    1    2    0    0 -0.12578422274E+03  0.56667350778E+03 -0.10327487235E+04  0.11873449655E+04  0.79231344673E+02 0.  0.
        254    2    1    2    0    0  0.12578422274E+03 -0.56667350778E+03  0.46935110998E+03  0.11685140697E+04  0.89899617988E+03 0.  0.
         23    2    4    4    0    0 -0.63126855317E+02  0.14587397279E+03 -0.12117193777E+03  0.21969491795E+03  0.91208566861E+02 0.  0.
         23    2    4    4    0    0  0.18891107806E+03 -0.71254748056E+03  0.59052304776E+03  0.94881915171E+03  0.90160996307E+02 0.  0.
          2    1    3    3  502    0 -0.86516008805E+02  0.42855714969E+03 -0.70559173287E+03  0.83006381913E+03  0.00000000000E+00 0. -1.
         -1    1    3    3    0  502 -0.39268213936E+02  0.13811635808E+03 -0.32715699067E+03  0.35728114635E+03  0.00000000000E+00 0.  1.
         11    1    5    5    0    0 -0.14029284116E+02  0.13099179232E+03 -0.91903408962E+02  0.16062972031E+03  0.00000000000E+00 0.  1.
        -11    1    5    5    0    0 -0.49097571201E+02  0.14882180471E+02 -0.29268528813E+02  0.59065197641E+02  0.00000000000E+00 0. -1.
          4    1    6    6  503    0  0.95868987558E+02 -0.47825351859E+03  0.34959330384E+03  0.60011063056E+03  0.00000000000E+00 0.  1.
         -4    1    6    6    0  503  0.93042090500E+02 -0.23429396197E+03  0.24092974392E+03  0.34870852115E+03  0.00000000000E+00 0. -1.
<mgrwt>
<rscale>  0 0.22874997E+04</rscale>
<asrwt>0</asrwt>
<pdfrwt beam="1">  1        2 0.22455820E+00 0.22874997E+04</pdfrwt>
<pdfrwt beam="2">  1       -1 0.13788165E+00 0.22874997E+04</pdfrwt>
<totfact> 0.60345205E+00</totfact>
</mgrwt>
</event>
<event>
12    6  0.1530859E-007  0.1630634E+04  0.7818608E-02  0.8801946E-01
          2   -1    0    0  501    0  0.00000000000E+00  0.00000000000E+00  0.21862647501E+04  0.21862647501E+04  0.00000000000E+00 0. -1.
         -1   -1    0    0    0  501 -0.00000000000E+00 -0.00000000000E+00 -0.30405353904E+03  0.30405353904E+03  0.00000000000E+00 0.  1.
         24    2    1    2    0    0 -0.50049966902E+03 -0.88518816835E+02  0.10457364679E+04  0.11655443220E+04  0.81199178908E+02 0.  0.
        254    2    1    2    0    0  0.50049966902E+03  0.88518816835E+02  0.83647474308E+03  0.13247739671E+04  0.89274888314E+03 0.  0.
         23    2    4    4    0    0  0.24658836562E+03 -0.94261173292E+02 -0.12766549249E+03  0.30737829977E+03  0.92151778864E+02 0.  0.
         23    2    4    4    0    0  0.25391130340E+03  0.18277999013E+03  0.96414023557E+03  0.10173956673E+04  0.87453274274E+02 0.  0.
          2    1    3    3  502    0 -0.30711021142E+03 -0.90022448876E+02  0.69107471268E+03  0.76158058127E+03  0.00000000000E+00 0. -1.
         -1    1    3    3    0  502 -0.19338945760E+03  0.15036320411E+01  0.35466175526E+03  0.40396374078E+03  0.00000000000E+00 0.  1.
         11    1    5    5    0    0  0.21879204706E+02  0.14432402117E+02  0.16333998770E+01  0.26261413225E+02  0.00000000000E+00 0.  1.
        -11    1    5    5    0    0  0.22470916092E+03 -0.10869357541E+03 -0.12929889236E+03  0.28111688654E+03  0.00000000000E+00 0. -1.
          4    1    6    6  503    0  0.32840274786E+02  0.43286034419E+02  0.91212478948E+02  0.10616911387E+03  0.00000000000E+00 0.  1.
         -4    1    6    6    0  503  0.22107102861E+03  0.13949395571E+03  0.87292775662E+03  0.91122655342E+03  0.00000000000E+00 0. -1.
<mgrwt>
<rscale>  0 0.16306337E+04</rscale>
<asrwt>0</asrwt>
<pdfrwt beam="1">  1        2 0.33634841E+00 0.16306337E+04</pdfrwt>
<pdfrwt beam="2">  1       -1 0.46777469E-01 0.16306337E+04</pdfrwt>
<totfact> 0.26099155E+01</totfact>
</mgrwt>
</event>
<event>
12    6  0.1530859E-007  0.2919167E+04  0.7818608E-02  0.8267197E-01
         -1   -1    0    0    0  501 -0.00000000000E+00  0.00000000000E+00  0.61989559878E+03  0.61989559878E+03  0.00000000000E+00 0.  1.
          2   -1    0    0  501    0  0.00000000000E+00 -0.00000000000E+00 -0.34366830364E+04  0.34366830364E+04  0.00000000000E+00 0. -1.
         24    2    1    2    0    0  0.37018668678E+03 -0.10411373821E+04 -0.25092014492E+03  0.11356113103E+04  0.75145841644E+02 0.  0.
        254    2    1    2    0    0 -0.37018668678E+03  0.10411373821E+04 -0.25658672927E+04  0.29209673249E+04  0.85285984647E+03 0.  0.
         23    2    4    4    0    0 -0.51216450729E+03  0.66316131065E+03 -0.10329389752E+04  0.13330611273E+04  0.89407137454E+02 0.  0.
         23    2    4    4    0    0  0.14197782051E+03  0.37797607146E+03 -0.15329283175E+04  0.15879061975E+04  0.92483801341E+02 0.  0.
          2    1    3    3  502    0  0.10272974074E+03 -0.34895322714E+03 -0.11243247128E+03  0.38073982582E+03  0.00000000000E+00 0. -1.
         -3    1    3    3    0  502  0.26745694604E+03 -0.69218415496E+03 -0.13848767364E+03  0.75487148451E+03  0.00000000000E+00 0.  1.
         11    1    5    5    0    0 -0.13655021611E+02  0.68742261364E+01 -0.38965212323E+02  0.41856927402E+02  0.00000000000E+00 0. -1.
        -11    1    5    5    0    0 -0.49850948568E+03  0.65628708451E+03 -0.99397376290E+03  0.12912041999E+04  0.00000000000E+00 0.  1.
          1    1    6    6  503    0 -0.10556584946E+02  0.30924544187E+02 -0.81989241405E+02  0.88261002856E+02  0.00000000000E+00 0. -1.
         -1    1    6    6    0  503  0.15253440546E+03  0.34705152727E+03 -0.14509390761E+04  0.14996451947E+04  0.00000000000E+00 0.  1.
<mgrwt>
<rscale>  0 0.29191675E+04</rscale>
<asrwt>0</asrwt>
<pdfrwt beam="1">  1        2 0.52872046E+00 0.29191675E+04</pdfrwt>
<pdfrwt beam="2">  1       -1 0.95368556E-01 0.29191675E+04</pdfrwt>
<totfact> 0.93448168E-01</totfact>
</mgrwt>
</event>
<event>
12    6  0.1530859E-007  0.1916878E+04  0.7818608E-02  0.8646501E-01
          2   -1    0    0  501    0  0.00000000000E+00  0.00000000000E+00  0.13862924477E+04  0.13862924477E+04  0.00000000000E+00 0. -1.
         -1   -1    0    0    0  501 -0.00000000000E+00 -0.00000000000E+00 -0.66263448898E+03  0.66263448898E+03  0.00000000000E+00 0.  1.
         24    2    1    2    0    0  0.50635686438E+03  0.26222068085E+03  0.77252315599E+03  0.96356497364E+03  0.80675103533E+02 0.  0.
        254    2    1    2    0    0 -0.50635686438E+03 -0.26222068085E+03 -0.48865197271E+02  0.10853619630E+04  0.92220703951E+03 0.  0.
         23    2    4    4    0    0 -0.20802362717E+03  0.29410486462E+03 -0.21083870916E+03  0.42725865342E+03  0.91244149314E+02 0.  0.
         23    2    4    4    0    0 -0.29833323720E+03 -0.55632554547E+03  0.16197351189E+03  0.65810330961E+03  0.91453346627E+02 0.  0.
          2    1    3    3  502    0  0.37624714605E+03  0.18089108091E+03  0.61807893899E+03  0.74585861455E+03  0.00000000000E+00 0. -1.
         -1    1    3    3    0  502  0.13010971832E+03  0.81329599940E+02  0.15444421699E+03  0.21770635910E+03  0.00000000000E+00 0.  1.
         11    1    5    5    0    0 -0.74878830754E+02  0.41816887195E+02 -0.59011975291E+02  0.10410525720E+03  0.00000000000E+00 0. -1.
        -11    1    5    5    0    0 -0.13314479642E+03  0.25228797742E+03 -0.15182673387E+03  0.32315339621E+03  0.00000000000E+00 0.  1.
          1    1    6    6  503    0  0.28826816185E+01 -0.32593729016E+02  0.16577503560E+02  0.36680712218E+02  0.00000000000E+00 0. -1.
         -1    1    6    6    0  503 -0.30121591882E+03 -0.52373181645E+03  0.14539600833E+03  0.62142259740E+03  0.00000000000E+00 0.  1.
<mgrwt>
<rscale>  0 0.19168779E+04</rscale>
<asrwt>0</asrwt>
<pdfrwt beam="1">  1        2 0.21327576E+00 0.19168779E+04</pdfrwt>
<pdfrwt beam="2">  1       -1 0.10194377E+00 0.19168779E+04</pdfrwt>
<totfact> 0.14322196E+01</totfact>
</mgrwt>
</event>
<event>
12    6  0.1530859E-007  0.1644243E+04  0.7818608E-02  0.8793820E-01
          2   -1    0    0  501    0  0.00000000000E+00  0.00000000000E+00  0.52667003643E+03  0.52667003643E+03  0.00000000000E+00 0. -1.
         -1   -1    0    0    0  501 -0.00000000000E+00 -0.00000000000E+00 -0.12833149868E+04  0.12833149868E+04  0.00000000000E+00 0.  1.
         24    2    1    2    0    0 -0.52280582540E+03  0.15171397925E+03 -0.42010799901E+03  0.69210591436E+03  0.78592641440E+02 0.  0.
        254    2    1    2    0    0  0.52280582540E+03 -0.15171397925E+03 -0.33653695134E+03  0.11178791089E+04  0.91654433599E+03 0.  0.
         23    2    4    4    0    0  0.31744086880E+03 -0.26058436563E+03  0.24371874045E+03  0.48601771965E+03  0.90230164452E+02 0.  0.
         23    2    4    4    0    0  0.20536495660E+03  0.10887038638E+03 -0.58025569179E+03  0.63186138921E+03  0.92328873542E+02 0.  0.
          4    1    3    3  502    0 -0.10623465699E+03  0.82150245728E+01 -0.55090810411E+02  0.11995118326E+03  0.00000000000E+00 0. -1.
         -3    1    3    3    0  502 -0.41657116841E+03  0.14349895468E+03 -0.36501718860E+03  0.57215473109E+03  0.00000000000E+00 0.  1.
         11    1    5    5    0    0  0.31096518131E+03 -0.26010589277E+03  0.21964549779E+03  0.46108411829E+03  0.00000000000E+00 0. -1.
        -11    1    5    5    0    0  0.64756874901E+01 -0.47847285531E+00  0.24073242658E+02  0.24933601361E+02  0.00000000000E+00 0.  1.
          3    1    6    6  503    0  0.19364808430E+03  0.82568566061E+02 -0.55491574070E+03  0.59350537312E+03  0.00000000000E+00 0. -1.
         -3    1    6    6    0  503  0.11716872295E+02  0.26301820316E+02 -0.25339951090E+02  0.38356016081E+02  0.00000000000E+00 0.  1.
<mgrwt>
<rscale>  0 0.16442427E+04</rscale>
<asrwt>0</asrwt>
<pdfrwt beam="1">  1        2 0.81026160E-01 0.16442427E+04</pdfrwt>
<pdfrwt beam="2">  1       -1 0.19743307E+00 0.16442427E+04</pdfrwt>
<totfact> 0.99213697E+00</totfact>
</mgrwt>
</event>
<event>
12    6  0.1530859E-007  0.1338830E+04  0.7818608E-02  0.8999327E-01
          2   -1    0    0  501    0  0.00000000000E+00  0.00000000000E+00  0.60098193578E+03  0.60098193578E+03  0.00000000000E+00 0. -1.
         -1   -1    0    0    0  501 -0.00000000000E+00 -0.00000000000E+00 -0.74563995071E+03  0.74563995071E+03  0.00000000000E+00 0.  1.
         24    2    1    2    0    0 -0.99464162550E+02 -0.21630030920E+03  0.23791412881E+03  0.34577620339E+03  0.79240814912E+02 0.  0.
        254    2    1    2    0    0  0.99464162550E+02  0.21630030920E+03 -0.38257214374E+03  0.10008456831E+04  0.89367314654E+03 0.  0.
         23    2    4    4    0    0  0.40811596829E+03  0.11237037930E+03  0.65457876772E+02  0.43941602838E+03  0.98061035304E+02 0.  0.
         23    2    4    4    0    0 -0.30865180574E+03  0.10392992991E+03 -0.44803002051E+03  0.56142965473E+03  0.91678734832E+02 0.  0.
          2    1    3    3  502    0 -0.10165668570E+03 -0.22042275815E+03  0.23934719988E+03  0.34089200071E+03  0.00000000000E+00 0. -1.
         -1    1    3    3    0  502  0.21925231473E+01  0.41224489449E+01 -0.14330710757E+01  0.48842026742E+01  0.00000000000E+00 0.  1.
         11    1    5    5    0    0  0.28905999491E+03  0.11061367777E+03  0.14326443778E+02  0.30983271834E+03  0.00000000000E+00 0. -1.
        -11    1    5    5    0    0  0.11905597339E+03  0.17567015271E+01  0.51131432994E+02  0.12958331003E+03  0.00000000000E+00 0.  1.
          2    1    6    6  503    0 -0.35014435101E+02 -0.17152288997E+02 -0.56510907123E+02  0.68656349358E+02  0.00000000000E+00 0. -1.
         -2    1    6    6    0  503 -0.27363737064E+03  0.12108221890E+03 -0.39151911338E+03  0.49277330538E+03  0.00000000000E+00 0.  1.
<mgrwt>
<rscale>  0 0.13388295E+04</rscale>
<asrwt>0</asrwt>
<pdfrwt beam="1">  1        2 0.92458760E-01 0.13388295E+04</pdfrwt>
<pdfrwt beam="2">  1       -1 0.11471384E+00 0.13388295E+04</pdfrwt>
<totfact> 0.38199409E+01</totfact>
</mgrwt>
</event>
<event>
12    6  0.1530859E-007  0.2576399E+04  0.7818608E-02  0.8376262E-01
          2   -1    0    0  501    0  0.00000000000E+00  0.00000000000E+00  0.18861562691E+04  0.18861562691E+04  0.00000000000E+00 0. -1.
         -1   -1    0    0    0  501 -0.00000000000E+00 -0.00000000000E+00 -0.87980935012E+03  0.87980935012E+03  0.00000000000E+00 0.  1.
         24    2    1    2    0    0  0.77100007359E+03  0.18119984585E+03  0.13014467790E+04  0.15255578983E+04  0.79301228329E+02 0.  0.
        254    2    1    2    0    0 -0.77100007359E+03 -0.18119984585E+03 -0.29509985998E+03  0.12404077210E+04  0.90788374219E+03 0.  0.
         23    2    4    4    0    0 -0.11498907168E+03 -0.27776229244E+03  0.23001328816E+03  0.38941757259E+03  0.91463410189E+02 0.  0.
         23    2    4    4    0    0 -0.65601100191E+03  0.96562446593E+02 -0.52511314814E+03  0.85099014840E+03  0.93625176208E+02 0.  0.
          2    1    3    3  502    0  0.65571184958E+03  0.16187468210E+03  0.10530546234E+04  0.12510337654E+04  0.00000000000E+00 0. -1.
         -1    1    3    3    0  502  0.11528822400E+03  0.19325163749E+02  0.24839215565E+03  0.27452413288E+03  0.00000000000E+00 0.  1.
         11    1    5    5    0    0 -0.66404453909E+02 -0.21236327343E+03  0.20902801982E+03  0.30528744565E+03  0.00000000000E+00 0.  1.
        -11    1    5    5    0    0 -0.48584617772E+02 -0.65399019008E+02  0.20985268337E+02  0.84130126936E+02  0.00000000000E+00 0. -1.
          4    1    6    6  503    0  0.13058661287E+01 -0.30611036506E+01 -0.82211772900E+01  0.88692388591E+01  0.00000000000E+00 0. -1.
         -4    1    6    6    0  503 -0.65731686803E+03  0.99623550243E+02 -0.51689197085E+03  0.84212090955E+03  0.00000000000E+00 0.  1.
<mgrwt>
<rscale>  0 0.25763990E+04</rscale>
<asrwt>0</asrwt>
<pdfrwt beam="1">  1        2 0.29017789E+00 0.25763990E+04</pdfrwt>
<pdfrwt beam="2">  1       -1 0.13535528E+00 0.25763990E+04</pdfrwt>
<totfact> 0.35668213E+00</totfact>
</mgrwt>
</event>
<event>
12    6  0.1530859E-007  0.1478054E+04  0.7818608E-02  0.8899179E-01
          2   -1    0    0  501    0  0.00000000000E+00  0.00000000000E+00  0.23140502247E+04  0.23140502247E+04  0.00000000000E+00 0. -1.
         -1   -1    0    0    0  501 -0.00000000000E+00 -0.00000000000E+00 -0.23601956795E+03  0.23601956795E+03  0.00000000000E+00 0.  1.
         24    2    1    2    0    0 -0.22326873947E+03  0.28675886497E+03  0.17448707081E+03  0.41095351505E+03  0.79733788250E+02 0.  0.
        254    2    1    2    0    0  0.22326873947E+03 -0.28675886497E+03  0.19035435860E+04  0.21391162776E+04  0.90568244374E+03 0.  0.
         23    2    4    4    0    0 -0.10103854174E+03  0.10150311883E+03  0.34533500016E+01  0.17053389046E+03  0.92510605455E+02 0.  0.
         23    2    4    4    0    0  0.32430728121E+03 -0.38826198379E+03  0.19000902360E+04  0.19685823872E+04  0.95137424572E+02 0.  0.
          2    1    3    3  502    0 -0.21147974981E+03  0.25361923382E+03  0.17879205453E+03  0.37551697579E+03  0.00000000000E+00 0. -1.
         -1    1    3    3    0  502 -0.11788989655E+02  0.33139631146E+02 -0.43049837187E+01  0.35436539255E+02  0.00000000000E+00 0.  1.
         11    1    5    5    0    0 -0.19242374684E+02 -0.79621049458E+01  0.24628868494E+02  0.32252833394E+02  0.00000000000E+00 0.  1.
        -11    1    5    5    0    0 -0.81796167058E+02  0.10946522377E+03 -0.21175518492E+02  0.13828105707E+03  0.00000000000E+00 0. -1.
          4    1    6    6  503    0  0.16587298623E+03 -0.26616911902E+03  0.10961926654E+04  0.11401746389E+04  0.00000000000E+00 0. -1.
         -4    1    6    6    0  503  0.15843429498E+03 -0.12209286477E+03  0.80389757053E+03  0.82840774824E+03  0.00000000000E+00 0.  1.
<mgrwt>
<rscale>  0 0.14780543E+04</rscale>
<asrwt>0</asrwt>
<pdfrwt beam="1">  1        2 0.35600771E+00 0.14780543E+04</pdfrwt>
<pdfrwt beam="2">  1       -1 0.36310704E-01 0.14780543E+04</pdfrwt>
<totfact> 0.35695235E+01</totfact>
</mgrwt>
</event>
<event>
12    6  0.1530859E-007  0.1332773E+04  0.7818608E-02  0.9003972E-01
          2   -1    0    0  501    0  0.00000000000E+00  0.00000000000E+00  0.15470162508E+04  0.15470162508E+04  0.00000000000E+00 0. -1.
         -1   -1    0    0    0  501 -0.00000000000E+00 -0.00000000000E+00 -0.28704996664E+03  0.28704996664E+03  0.00000000000E+00 0.  1.
         24    2    1    2    0    0 -0.83850534940E+02 -0.68705115687E+02  0.80951077224E+03  0.82049338130E+03  0.78424442955E+02 0.  0.
        254    2    1    2    0    0  0.83850534940E+02  0.68705115687E+02  0.45045551192E+03  0.10135728361E+04  0.90148123709E+03 0.  0.
         23    2    4    4    0    0  0.35597626440E+03  0.65741341747E+02  0.58693993054E+03  0.69520835943E+03  0.88176845761E+02 0.  0.
         23    2    4    4    0    0 -0.27212572946E+03  0.29637739405E+01 -0.13648441862E+03  0.31836447672E+03  0.93095364645E+02 0.  0.
          2    1    3    3  502    0 -0.56785655260E+02 -0.54216974819E+02  0.74417275236E+03  0.74830286406E+03  0.00000000000E+00 0. -1.
         -1    1    3    3    0  502 -0.27064879680E+02 -0.14488140868E+02  0.65338019885E+02  0.72190517247E+02  0.00000000000E+00 0.  1.
         11    1    5    5    0    0  0.36703813263E+02 -0.13462657831E+02  0.10191303446E+03  0.10915438450E+03  0.00000000000E+00 0.  1.
        -11    1    5    5    0    0  0.31927245114E+03  0.79203999578E+02  0.48502689608E+03  0.58605397493E+03  0.00000000000E+00 0. -1.
          3    1    6    6  503    0 -0.22913025142E+03  0.22470498878E+02 -0.77743721626E+02  0.24300140265E+03  0.00000000000E+00 0. -1.
         -3    1    6    6    0  503 -0.42995478038E+02 -0.19506724937E+02 -0.58740696996E+02  0.75363074069E+02  0.00000000000E+00 0.  1.
<mgrwt>
<rscale>  0 0.13327730E+04</rscale>
<asrwt>0</asrwt>
<pdfrwt beam="1">  1        2 0.23800249E+00 0.13327730E+04</pdfrwt>
<pdfrwt beam="2">  1       -1 0.44161535E-01 0.13327730E+04</pdfrwt>
<totfact> 0.67485509E+01</totfact>
</mgrwt>
</event>
<event>
12    6  0.1530859E-007  0.1803937E+04  0.7818608E-02  0.8704209E-01
         -1   -1    0    0    0  501 -0.00000000000E+00  0.00000000000E+00  0.51057243604E+03  0.51057243604E+03  0.00000000000E+00 0.  1.
          2   -1    0    0  501    0  0.00000000000E+00 -0.00000000000E+00 -0.15934013285E+04  0.15934013285E+04  0.00000000000E+00 0. -1.
         24    2    1    2    0    0  0.14221888949E+03 -0.75761542926E+02  0.35383937253E+03  0.39694941908E+03  0.80003223899E+02 0.  0.
        254    2    1    2    0    0 -0.14221888949E+03  0.75761542926E+02 -0.14366682650E+04  0.17070243455E+04  0.90771713021E+03 0.  0.
         23    2    4    4    0    0  0.33474306026E+03  0.96746464597E+02 -0.96293411855E+03  0.10280257391E+04  0.90454457029E+02 0.  0.
         23    2    4    4    0    0 -0.47696194975E+03 -0.20984921671E+02 -0.47373414646E+03  0.67899860637E+03  0.93177236985E+02 0.  0.
          4    1    3    3  502    0 -0.33489567096E+01 -0.18202417925E+02  0.74258087892E+02  0.76529779477E+02  0.00000000000E+00 0. -1.
         -3    1    3    3    0  502  0.14556784620E+03 -0.57559125001E+02  0.27958128464E+03  0.32041963960E+03  0.00000000000E+00 0.  1.
         11    1    5    5    0    0  0.18498483477E+03  0.93034929441E+02 -0.62411290383E+03  0.65756505679E+03  0.00000000000E+00 0. -1.
        -11    1    5    5    0    0  0.14975822549E+03  0.37115351555E+01 -0.33882121473E+03  0.37046068232E+03  0.00000000000E+00 0.  1.
          4    1    6    6  503    0 -0.33461280069E+03 -0.55095675477E+02 -0.31123850880E+03  0.46029411163E+03  0.00000000000E+00 0. -1.
         -4    1    6    6    0  503 -0.14234914905E+03  0.34110753806E+02 -0.16249563766E+03  0.21870449474E+03  0.00000000000E+00 0.  1.
<mgrwt>
<rscale>  0 0.18039366E+04</rscale>
<asrwt>0</asrwt>
<pdfrwt beam="1">  1        2 0.24513866E+00 0.18039366E+04</pdfrwt>
<pdfrwt beam="2">  1       -1 0.78549607E-01 0.18039366E+04</pdfrwt>
<totfact> 0.19612382E+01</totfact>
</mgrwt>
</event>
<event>
12    6  0.1530859E-007  0.1332250E+04  0.7818608E-02  0.9004375E-01
          2   -1    0    0  501    0  0.00000000000E+00  0.00000000000E+00  0.35516327075E+03  0.35516327075E+03  0.00000000000E+00 0. -1.
         -1   -1    0    0    0  501 -0.00000000000E+00 -0.00000000000E+00 -0.12493476470E+04  0.12493476470E+04  0.00000000000E+00 0.  1.
         24    2    1    2    0    0  0.13004938786E+03  0.27476757113E+03 -0.46967057728E+03  0.56492298555E+03  0.78341987609E+02 0.  0.
        254    2    1    2    0    0 -0.13004938786E+03 -0.27476757113E+03 -0.42451379897E+03  0.10395879322E+04  0.89895552828E+03 0.  0.
         23    2    4    4    0    0  0.15302973219E+03 -0.15255905447E+03  0.21842047735E+03  0.32073498097E+03  0.92038356428E+02 0.  0.
         23    2    4    4    0    0 -0.28307912005E+03 -0.12220851666E+03 -0.64293427632E+03  0.71885295123E+03  0.91194144960E+02 0.  0.
          2    1    3    3  502    0  0.13278715016E+03  0.27888153113E+03 -0.46034255159E+03  0.55436684646E+03  0.00000000000E+00 0. -1.
         -1    1    3    3    0  502 -0.27377623052E+01 -0.41139599997E+01 -0.93280256827E+01  0.10556139089E+02  0.00000000000E+00 0.  1.
         11    1    5    5    0    0  0.45721037074E+02 -0.55425150427E+01  0.79059170442E+02  0.91495820315E+02  0.00000000000E+00 0. -1.
        -11    1    5    5    0    0  0.10730869512E+03 -0.14701653942E+03  0.13936130691E+03  0.22923916065E+03  0.00000000000E+00 0.  1.
          1    1    6    6  503    0 -0.26804906955E+03 -0.84678936996E+02 -0.56287112162E+03  0.62916192320E+03  0.00000000000E+00 0. -1.
         -1    1    6    6    0  503 -0.15030050496E+02 -0.37529579664E+02 -0.80063154700E+02  0.89691028025E+02  0.00000000000E+00 0.  1.
<mgrwt>
<rscale>  0 0.13322498E+04</rscale>
<asrwt>0</asrwt>
<pdfrwt beam="1">  1        2 0.54640502E-01 0.13322498E+04</pdfrwt>
<pdfrwt beam="2">  1       -1 0.19220733E+00 0.13322498E+04</pdfrwt>
<totfact> 0.17353639E+01</totfact>
</mgrwt>
</event>
<event>
12    6  0.1530859E-007  0.1413351E+04  0.7818608E-02  0.8944210E-01
         -1   -1    0    0    0  501 -0.00000000000E+00  0.00000000000E+00  0.72968482965E+03  0.72968482965E+03  0.00000000000E+00 0.  1.
          2   -1    0    0  501    0  0.00000000000E+00 -0.00000000000E+00 -0.68439221316E+03  0.68439221316E+03  0.00000000000E+00 0. -1.
         24    2    1    2    0    0  0.38502280441E+02  0.20209567263E+03  0.36928482470E+03  0.42998583991E+03  0.78685794637E+02 0.  0.
        254    2    1    2    0    0 -0.38502280441E+02 -0.20209567263E+03 -0.32399220820E+03  0.98409120290E+03  0.90616745592E+03 0.  0.
         23    2    4    4    0    0 -0.15178160447E+03  0.29425968427E+03 -0.31466838491E+03  0.46630267663E+03  0.93784735044E+02 0.  0.
         23    2    4    4    0    0  0.11327932403E+03 -0.49635535690E+03 -0.93238232946E+01  0.51778852628E+03  0.93899833273E+02 0.  0.
          2    1    3    3  502    0  0.16497185477E+02  0.98088129707E+02  0.25593301639E+03  0.27458176778E+03  0.00000000000E+00 0. -1.
         -1    1    3    3    0  502  0.22005094964E+02  0.10400754292E+03  0.11335180831E+03  0.15540407213E+03  0.00000000000E+00 0.  1.
         11    1    5    5    0    0 -0.16452812316E+03  0.27169087178E+03 -0.28329414104E+03  0.42560662996E+03  0.00000000000E+00 0. -1.
        -11    1    5    5    0    0  0.12746518693E+02  0.22568812495E+02 -0.31374243865E+02  0.40696046667E+02  0.00000000000E+00 0.  1.
          1    1    6    6  503    0  0.19648533978E+02 -0.35941383289E+02 -0.24456086901E+02  0.47706897895E+02  0.00000000000E+00 0. -1.
         -1    1    6    6    0  503  0.93630790049E+02 -0.46041397361E+03  0.15132263607E+02  0.47008162838E+03  0.00000000000E+00 0.  1.
<mgrwt>
<rscale>  0 0.14133515E+04</rscale>
<asrwt>0</asrwt>
<pdfrwt beam="1">  1        2 0.10529111E+00 0.14133515E+04</pdfrwt>
<pdfrwt beam="2">  1       -1 0.11225920E+00 0.14133515E+04</pdfrwt>
<totfact> 0.34064992E+01</totfact>
</mgrwt>
</event>
<event>
12    6  0.1530859E-007  0.1116545E+04  0.7818608E-02  0.9189214E-01
          2   -1    0    0  501    0  0.00000000000E+00  0.00000000000E+00  0.78774775906E+03  0.78774775906E+03  0.00000000000E+00 0. -1.
         -1   -1    0    0    0  501 -0.00000000000E+00 -0.00000000000E+00 -0.39564491868E+03  0.39564491868E+03  0.00000000000E+00 0.  1.
         24    2    1    2    0    0  0.11469626070E+03 -0.63856329069E+02  0.21561838976E+03  0.26340821343E+03  0.75231203074E+02 0.  0.
        254    2    1    2    0    0 -0.11469626070E+03  0.63856329069E+02  0.17648445062E+03  0.91998446432E+03  0.89330386224E+03 0.  0.
         23    2    4    4    0    0  0.80632526171E+02  0.35960806446E+03  0.34912188665E+03  0.51552676593E+03  0.89789700680E+02 0.  0.
         23    2    4    4    0    0 -0.19532878687E+03 -0.29575173539E+03 -0.17263743603E+03  0.40445769839E+03  0.90332283807E+02 0.  0.
          4    1    3    3  502    0  0.10007666821E+03 -0.56565830081E+02  0.11914484498E+03  0.16556124770E+03  0.00000000000E+00 0. -1.
         -3    1    3    3    0  502  0.14619592490E+02 -0.72904989880E+01  0.96473544781E+02  0.97846965731E+02  0.00000000000E+00 0.  1.
         11    1    5    5    0    0  0.86146971255E-01  0.29228283335E+02  0.69055910550E+02  0.74986790502E+02  0.00000000000E+00 0. -1.
        -11    1    5    5    0    0  0.80546379200E+02  0.33037978112E+03  0.28006597610E+03  0.44053997543E+03  0.00000000000E+00 0.  1.
          2    1    6    6  503    0 -0.19890544591E+03 -0.29657686590E+03 -0.16001646040E+03  0.39131378892E+03  0.00000000000E+00 0.  1.
         -2    1    6    6    0  503  0.35766590381E+01  0.82513050659E+00 -0.12620975633E+02  0.13143909470E+02  0.00000000000E+00 0. -1.
<mgrwt>
<rscale>  0 0.11165454E+04</rscale>
<asrwt>0</asrwt>
<pdfrwt beam="1">  1        2 0.12119196E+00 0.11165454E+04</pdfrwt>
<pdfrwt beam="2">  1       -1 0.60868449E-01 0.11165454E+04</pdfrwt>
<totfact> 0.10899082E+02</totfact>
</mgrwt>
</event>
<event>
12    6  0.1530859E-007  0.1867425E+04  0.7818608E-02  0.8671243E-01
         -1   -1    0    0    0  501 -0.00000000000E+00  0.00000000000E+00  0.10431139741E+04  0.10431139741E+04  0.00000000000E+00 0.  1.
          2   -1    0    0  501    0  0.00000000000E+00 -0.00000000000E+00 -0.83578532042E+03  0.83578532042E+03  0.00000000000E+00 0. -1.
         24    2    1    2    0    0  0.32682877117E+03 -0.41198794811E+02  0.72429808069E+03  0.79964175975E+03  0.79403072255E+02 0.  0.
        254    2    1    2    0    0 -0.32682877117E+03  0.41198794811E+02 -0.51696942696E+03  0.10792575348E+04  0.88827082113E+03 0.  0.
         23    2    4    4    0    0  0.18492412287E+03  0.30199003099E+03 -0.20270049465E+03  0.41798394655E+03  0.90709310423E+02 0.  0.
         23    2    4    4    0    0 -0.51175289405E+03 -0.26079123618E+03 -0.31426893231E+03  0.66127358827E+03  0.92815425921E+02 0.  0.
          4    1    3    3  502    0  0.14023143514E+02  0.15426609105E+02  0.49745667351E+02  0.53937558739E+02  0.00000000000E+00 0. -1.
         -3    1    3    3    0  502  0.31280562766E+03 -0.56625403916E+02  0.67455241334E+03  0.74570420101E+03  0.00000000000E+00 0.  1.
         11    1    5    5    0    0  0.14736399238E+03  0.29131202647E+03 -0.17931498723E+03  0.37246839820E+03  0.00000000000E+00 0.  1.
        -11    1    5    5    0    0  0.37560130495E+02  0.10678004524E+02 -0.23385507425E+02  0.45515548343E+02  0.00000000000E+00 0. -1.
          4    1    6    6  503    0 -0.60774899092E+02  0.78726630063E-01 -0.35617572521E+02  0.70442927465E+02  0.00000000000E+00 0. -1.
         -4    1    6    6    0  503 -0.45097799496E+03 -0.26086996281E+03 -0.27865135979E+03  0.59083066080E+03  0.00000000000E+00 0.  1.
<mgrwt>
<rscale>  0 0.18674253E+04</rscale>
<asrwt>0</asrwt>
<pdfrwt beam="1">  1        2 0.12858236E+00 0.18674253E+04</pdfrwt>
<pdfrwt beam="2">  1       -1 0.16047907E+00 0.18674253E+04</pdfrwt>
<totfact> 0.10086883E+01</totfact>
</mgrwt>
</event>
<event>
12    6  0.1530859E-007  0.1305908E+04  0.7818608E-02  0.9024893E-01
         -1   -1    0    0    0  501 -0.00000000000E+00  0.00000000000E+00  0.60928274423E+03  0.60928274423E+03  0.00000000000E+00 0.  1.
          2   -1    0    0  501    0  0.00000000000E+00 -0.00000000000E+00 -0.69975508473E+03  0.69975508473E+03  0.00000000000E+00 0. -1.
         24    2    1    2    0    0 -0.96551038382E+02  0.59155001750E+02  0.28761752644E+03  0.31665247166E+03  0.68727934997E+02 0.  0.
        254    2    1    2    0    0  0.96551038382E+02 -0.59155001750E+02 -0.37808986694E+03  0.99238535730E+03  0.91052475675E+03 0.  0.
         23    2    4    4    0    0 -0.72569106569E+02  0.25480697237E+03  0.17433419704E+03  0.32849314249E+03  0.85571397142E+02 0.  0.
         23    2    4    4    0    0  0.16912014495E+03 -0.31396197412E+03 -0.55242406398E+03  0.66389221481E+03  0.91688504205E+02 0.  0.
          2    1    3    3  502    0 -0.29227893394E+02 -0.39769205608E+01  0.26313689974E+02  0.39528419263E+02  0.00000000000E+00 0. -1.
         -1    1    3    3    0  502 -0.67323144988E+02  0.63131922310E+02  0.26130383646E+03  0.27712405239E+03  0.00000000000E+00 0.  1.
         11    1    5    5    0    0 -0.35929940632E+02  0.18184637965E+03  0.75119829393E+02  0.20000513792E+03  0.00000000000E+00 0. -1.
        -11    1    5    5    0    0 -0.36639165938E+02  0.72960592713E+02  0.99214367648E+02  0.12848800457E+03  0.00000000000E+00 0.  1.
          3    1    6    6  503    0  0.13711154876E+03 -0.27597441995E+03 -0.40891036251E+03  0.51202455199E+03  0.00000000000E+00 0. -1.
         -3    1    6    6    0  503  0.32008596187E+02 -0.37987554166E+02 -0.14351370147E+03  0.15186766282E+03  0.00000000000E+00 0.  1.
<mgrwt>
<rscale>  0 0.13059077E+04</rscale>
<asrwt>0</asrwt>
<pdfrwt beam="1">  1        2 0.10765463E+00 0.13059077E+04</pdfrwt>
<pdfrwt beam="2">  1       -1 0.93735807E-01 0.13059077E+04</pdfrwt>
<totfact> 0.50644989E+01</totfact>
</mgrwt>
</event>
<event>
12    6  0.1530859E-007  0.1670907E+04  0.7818608E-02  0.8778133E-01
          2   -1    0    0  501    0  0.00000000000E+00  0.00000000000E+00  0.16938789910E+04  0.16938789910E+04  0.00000000000E+00 0. -1.
         -1   -1    0    0    0  501 -0.00000000000E+00 -0.00000000000E+00 -0.41206174104E+03  0.41206174104E+03  0.00000000000E+00 0.  1.
         24    2    1    2    0    0  0.23053020137E+03  0.24538889899E+03 -0.15286932218E+03  0.37879037817E+03  0.82178071491E+02 0.  0.
        254    2    1    2    0    0 -0.23053020137E+03 -0.24538889899E+03  0.14346865721E+04  0.17271503539E+04  0.90075684795E+03 0.  0.
         23    2    4    4    0    0  0.24023444253E+03  0.13572420574E+03  0.77110693773E+03  0.82412072334E+03  0.91844487141E+02 0.  0.
         23    2    4    4    0    0 -0.47076464390E+03 -0.38111310473E+03  0.66357963441E+03  0.90302963054E+03  0.90873724961E+02 0.  0.
          4    1    3    3  502    0  0.28628928153E+02  0.39338742134E+02  0.67105415474E+01  0.49113985052E+02  0.00000000000E+00 0. -1.
         -3    1    3    3    0  502  0.20190127322E+03  0.20605015686E+03 -0.15957986373E+03  0.32967639311E+03  0.00000000000E+00 0.  1.
         11    1    5    5    0    0  0.17116030685E+03  0.53506077747E+02  0.54637107130E+03  0.57504790979E+03  0.00000000000E+00 0.  1.
        -11    1    5    5    0    0  0.69074135680E+02  0.82218127988E+02  0.22473586643E+03  0.24907281355E+03  0.00000000000E+00 0. -1.
          1    1    6    6  503    0 -0.16632155785E+03 -0.15724997831E+03  0.31141020312E+03  0.38647992301E+03  0.00000000000E+00 0. -1.
         -1    1    6    6    0  503 -0.30444308605E+03 -0.22386312641E+03  0.35216943129E+03  0.51654970753E+03  0.00000000000E+00 0.  1.
<mgrwt>
<rscale>  0 0.16709072E+04</rscale>
<asrwt>0</asrwt>
<pdfrwt beam="1">  1        2 0.26059676E+00 0.16709072E+04</pdfrwt>
<pdfrwt beam="2">  1       -1 0.63394115E-01 0.16709072E+04</pdfrwt>
<totfact> 0.27100078E+01</totfact>
</mgrwt>
</event>
<event>
12    6  0.1530859E-007  0.1677212E+04  0.7818608E-02  0.8774469E-01
         -1   -1    0    0    0  501 -0.00000000000E+00  0.00000000000E+00  0.44996963765E+03  0.44996963765E+03  0.00000000000E+00 0.  1.
          2   -1    0    0  501    0  0.00000000000E+00 -0.00000000000E+00 -0.15629046407E+04  0.15629046407E+04  0.00000000000E+00 0. -1.
         24    2    1    2    0    0  0.43895729281E+03  0.12922018832E+03  0.55980464384E+02  0.46779189398E+03  0.79461196172E+02 0.  0.
        254    2    1    2    0    0 -0.43895729281E+03 -0.12922018832E+03 -0.11689154675E+04  0.15450823844E+04  0.90085228674E+03 0.  0.
         23    2    4    4    0    0 -0.52637483050E+03  0.14333877784E+03 -0.30804773215E+03  0.63336585575E+03  0.92964695107E+02 0.  0.
         23    2    4    4    0    0  0.87417537681E+02 -0.27255896616E+03 -0.86086773531E+03  0.91171652865E+03  0.90573478379E+02 0.  0.
          2    1    3    3  502    0  0.28841262129E+03  0.45646443217E+02  0.27927793232E+02  0.29333496132E+03  0.00000000000E+00 0. -1.
         -3    1    3    3    0  502  0.15054467153E+03  0.83573745101E+02  0.28052671152E+02  0.17445693266E+03  0.00000000000E+00 0.  1.
         11    1    5    5    0    0 -0.37765292693E+03  0.14354354437E+03 -0.21115163916E+03  0.45586346319E+03  0.00000000000E+00 0. -1.
        -11    1    5    5    0    0 -0.14872190356E+03 -0.20476652767E+00 -0.96896092988E+02  0.17750239256E+03  0.00000000000E+00 0.  1.
          1    1    6    6  503    0 -0.94324399572E+01 -0.10718448157E+03 -0.27504769301E+03  0.29534508197E+03  0.00000000000E+00 0. -1.
         -1    1    6    6    0  503  0.96849977638E+02 -0.16537448458E+03 -0.58582004230E+03  0.61637144668E+03  0.00000000000E+00 0.  1.
<mgrwt>
<rscale>  0 0.16772115E+04</rscale>
<asrwt>0</asrwt>
<pdfrwt beam="1">  1        2 0.24044686E+00 0.16772115E+04</pdfrwt>
<pdfrwt beam="2">  1       -1 0.69226100E-01 0.16772115E+04</pdfrwt>
<totfact> 0.26821392E+01</totfact>
</mgrwt>
</event>
<event>
12    6  0.1530859E-007  0.1680830E+04  0.7818608E-02  0.8772374E-01
          2   -1    0    0  501    0  0.00000000000E+00  0.00000000000E+00  0.10606433073E+04  0.10606433073E+04  0.00000000000E+00 0. -1.
         -1   -1    0    0    0  501 -0.00000000000E+00 -0.00000000000E+00 -0.66591423923E+03  0.66591423923E+03  0.00000000000E+00 0.  1.
         24    2    1    2    0    0 -0.26899505042E+03  0.64870252466E+02  0.68188583814E+03  0.74075668973E+03  0.84768451163E+02 0.  0.
        254    2    1    2    0    0  0.26899505042E+03 -0.64870252466E+02 -0.28715677004E+03  0.98580085683E+03  0.90154191912E+03 0.  0.
         23    2    4    4    0    0 -0.15580759006E+03 -0.12242865823E+03  0.22260368964E+03  0.31364527897E+03  0.97755700114E+02 0.  0.
         23    2    4    4    0    0  0.42480264048E+03  0.57558405760E+02 -0.50976045968E+03  0.67215557786E+03  0.90372236656E+02 0.  0.
          4    1    3    3  502    0 -0.90571504241E+02 -0.11585577303E+02  0.27868260645E+03  0.29325998384E+03  0.00000000000E+00 0. -1.
         -3    1    3    3    0  502 -0.17842354618E+03  0.76455829769E+02  0.40320323169E+03  0.44749670589E+03  0.00000000000E+00 0.  1.
         11    1    5    5    0    0 -0.14624495748E+03 -0.62412491325E+02  0.17499174981E+03  0.23644242251E+03  0.00000000000E+00 0.  1.
        -11    1    5    5    0    0 -0.95626325821E+01 -0.60016166900E+02  0.47611939827E+02  0.77202856458E+02  0.00000000000E+00 0. -1.
          3    1    6    6  503    0  0.64632281347E+02  0.42948564160E+02 -0.93757972325E+02  0.12170648434E+03  0.00000000000E+00 0. -1.
         -3    1    6    6    0  503  0.36017035914E+03  0.14609841600E+02 -0.41600248735E+03  0.55044909352E+03  0.00000000000E+00 0.  1.
<mgrwt>
<rscale>  0 0.16808301E+04</rscale>
<asrwt>0</asrwt>
<pdfrwt beam="1">  1        2 0.16317589E+00 0.16808301E+04</pdfrwt>
<pdfrwt beam="2">  1       -1 0.10244834E+00 0.16808301E+04</pdfrwt>
<totfact> 0.22591990E+01</totfact>
</mgrwt>
</event>
<event>
12    6  0.1530859E-007  0.1227569E+04  0.7818608E-02  0.9089062E-01
         -1   -1    0    0    0  501 -0.00000000000E+00  0.00000000000E+00  0.35313530653E+03  0.35313530653E+03  0.00000000000E+00 0.  1.
          2   -1    0    0  501    0  0.00000000000E+00 -0.00000000000E+00 -0.10668197157E+04  0.10668197157E+04  0.00000000000E+00 0. -1.
         24    2    1    2    0    0 -0.96149934429E+02 -0.16772042862E+03  0.43719519879E+02  0.21453363312E+03  0.82087339175E+02 0.  0.
        254    2    1    2    0    0  0.96149934429E+02  0.16772042862E+03 -0.75740392903E+03  0.12054213891E+04  0.91760833773E+03 0.  0.
         23    2    4    4    0    0 -0.25217397165E+02 -0.35344575107E+03 -0.16703327567E+03  0.40343945153E+03  0.96454444194E+02 0.  0.
         23    2    4    4    0    0  0.12136733159E+03  0.52116617969E+03 -0.59037065336E+03  0.80198193755E+03  0.91067578034E+02 0.  0.
          2    1    3    3  502    0 -0.78179001422E+01 -0.37725943250E+02  0.42498807096E+02  0.57363010393E+02  0.00000000000E+00 0. -1.
         -1    1    3    3    0  502 -0.88332034287E+02 -0.12999448537E+03  0.12207127830E+01  0.15717062273E+03  0.00000000000E+00 0.  1.
         11    1    5    5    0    0  0.14313444366E+02 -0.14308795366E+02 -0.28538924328E+02  0.34986947798E+02  0.00000000000E+00 0. -1.
        -11    1    5    5    0    0 -0.39530841531E+02 -0.33913695570E+03 -0.13849435134E+03  0.36845250374E+03  0.00000000000E+00 0.  1.
          1    1    6    6  503    0  0.41394622641E+02  0.53523559506E+02 -0.87850709288E+02  0.11088748048E+03  0.00000000000E+00 0. -1.
         -1    1    6    6    0  503  0.79972708953E+02  0.46764262019E+03 -0.50251994407E+03  0.69109445706E+03  0.00000000000E+00 0.  1.
<mgrwt>
<rscale>  0 0.12275695E+04</rscale>
<asrwt>0</asrwt>
<pdfrwt beam="1">  1        2 0.16412611E+00 0.12275695E+04</pdfrwt>
<pdfrwt beam="2">  1       -1 0.54328509E-01 0.12275695E+04</pdfrwt>
<totfact> 0.87799855E+01</totfact>
</mgrwt>
</event>
<event>
12    6  0.1530859E-007  0.1869435E+04  0.7818608E-02  0.8670222E-01
          2   -1    0    0  501    0  0.00000000000E+00  0.00000000000E+00  0.11061970626E+04  0.11061970626E+04  0.00000000000E+00 0. -1.
         -1   -1    0    0    0  501 -0.00000000000E+00 -0.00000000000E+00 -0.78982058015E+03  0.78982058015E+03  0.00000000000E+00 0.  1.
         24    2    1    2    0    0  0.40174194630E+03 -0.34964239657E+03  0.59958144298E+03  0.80619000726E+03  0.82450131256E+02 0.  0.
        254    2    1    2    0    0 -0.40174194630E+03  0.34964239657E+03 -0.28320496052E+03  0.10898276355E+04  0.90767440666E+03 0.  0.
         23    2    4    4    0    0 -0.54660854578E+03 -0.10687167090E+03 -0.16814700013E+03  0.58901925903E+03  0.92020744911E+02 0.  0.
         23    2    4    4    0    0  0.14486659948E+03  0.45651406747E+03 -0.11505796040E+03  0.50080837646E+03  0.90439317997E+02 0.  0.
          4    1    3    3  502    0  0.31332173370E+03 -0.30578533974E+03  0.45790817654E+03  0.63352591182E+03  0.00000000000E+00 0. -1.
         -3    1    3    3    0  502  0.88420212603E+02 -0.43857056836E+02  0.14167326643E+03  0.17266409544E+03  0.00000000000E+00 0.  1.
         11    1    5    5    0    0 -0.49367517269E+03 -0.11810814403E+03 -0.13386655702E+03  0.52496186995E+03  0.00000000000E+00 0.  1.
        -11    1    5    5    0    0 -0.52933373094E+02  0.11236473139E+02 -0.34280443107E+02  0.64057389077E+02  0.00000000000E+00 0. -1.
          1    1    6    6  503    0  0.53885598961E+01  0.55111398136E+02  0.13207441928E+02  0.56927491641E+02  0.00000000000E+00 0. -1.
         -1    1    6    6    0  503  0.13947803958E+03  0.40140266933E+03 -0.12826540233E+03  0.44388088482E+03  0.00000000000E+00 0.  1.
<mgrwt>
<rscale>  0 0.18694354E+04</rscale>
<asrwt>0</asrwt>
<pdfrwt beam="1">  1        2 0.17018416E+00 0.18694354E+04</pdfrwt>
<pdfrwt beam="2">  1       -1 0.12151086E+00 0.18694354E+04</pdfrwt>
<totfact> 0.13882828E+01</totfact>
</mgrwt>
</event>
<event>
12    6  0.1530859E-007  0.1220636E+04  0.7818608E-02  0.9094983E-01
          2   -1    0    0  501    0  0.00000000000E+00  0.00000000000E+00  0.14559964848E+04  0.14559964848E+04  0.00000000000E+00 0. -1.
         -1   -1    0    0    0  501 -0.00000000000E+00 -0.00000000000E+00 -0.25583019451E+03  0.25583019451E+03  0.00000000000E+00 0.  1.
         24    2    1    2    0    0  0.24442723833E+03  0.10308963881E+03  0.35142315808E+03  0.44746379181E+03  0.79708597263E+02 0.  0.
        254    2    1    2    0    0 -0.24442723833E+03 -0.10308963881E+03  0.84874313216E+03  0.12643628874E+04  0.89881948037E+03 0.  0.
         23    2    4    4    0    0  0.29377117066E+03  0.74027778719E+02  0.12132183726E+03  0.33781886009E+03  0.87298231938E+02 0.  0.
         23    2    4    4    0    0 -0.53819840899E+03 -0.17711741753E+03  0.72742129490E+03  0.92654402736E+03  0.91181068916E+02 0.  0.
          4    1    3    3  502    0  0.67087039095E+02  0.14712429781E+02  0.14971011438E+03  0.16471261261E+03  0.00000000000E+00 0. -1.
         -3    1    3    3    0  502  0.17734019923E+03  0.88377209032E+02  0.20171304370E+03  0.28275117920E+03  0.00000000000E+00 0.  1.
         11    1    5    5    0    0  0.19392890591E+03  0.65564200473E+02  0.39574280524E+02  0.20850229881E+03  0.00000000000E+00 0.  1.
        -11    1    5    5    0    0  0.99842264752E+02  0.84635782468E+01  0.81747556733E+02  0.12931656127E+03  0.00000000000E+00 0. -1.
          1    1    6    6  503    0 -0.18704147722E+03 -0.84637038802E+02  0.20337635906E+03  0.28898077092E+03  0.00000000000E+00 0. -1.
         -1    1    6    6    0  503 -0.35115693178E+03 -0.92480378731E+02  0.52404493585E+03  0.63756325645E+03  0.00000000000E+00 0.  1.
<mgrwt>
<rscale>  0 0.12206357E+04</rscale>
<asrwt>0</asrwt>
<pdfrwt beam="1">  1        2 0.22399946E+00 0.12206357E+04</pdfrwt>
<pdfrwt beam="2">  1       -1 0.39358492E-01 0.12206357E+04</pdfrwt>
<totfact> 0.94666889E+01</totfact>
</mgrwt>
</event>
<event>
12    6  0.1530859E-007  0.1173414E+04  0.7818608E-02  0.9136450E-01
          2   -1    0    0  501    0  0.00000000000E+00  0.00000000000E+00  0.73003277036E+03  0.73003277036E+03  0.00000000000E+00 0. -1.
         -1   -1    0    0    0  501 -0.00000000000E+00 -0.00000000000E+00 -0.47152039494E+03  0.47152039494E+03  0.00000000000E+00 0.  1.
         24    2    1    2    0    0 -0.98436683403E+02 -0.88104737494E+01 -0.15784462036E+03  0.20313536500E+03  0.81127352054E+02 0.  0.
        254    2    1    2    0    0  0.98436683403E+02  0.88104737494E+01  0.41635699579E+03  0.99841780029E+03  0.90206294177E+03 0.  0.
         23    2    4    4    0    0  0.26223634542E+03 -0.11550040290E+03  0.62385969178E+03  0.69256954062E+03  0.91342266444E+02 0.  0.
         23    2    4    4    0    0 -0.16379966202E+03  0.12431087665E+03 -0.20750269599E+03  0.30584825967E+03  0.90566361134E+02 0.  0.
          4    1    3    3  502    0 -0.21936519023E+01 -0.20624049286E+02 -0.37584876871E+01  0.21078181784E+02  0.00000000000E+00 0. -1.
         -3    1    3    3    0  502 -0.96243031501E+02  0.11813575537E+02 -0.15408613268E+03  0.18205718322E+03  0.00000000000E+00 0.  1.
         11    1    5    5    0    0  0.17984830143E+03 -0.82016974465E+02  0.51727487858E+03  0.55375580867E+03  0.00000000000E+00 0. -1.
        -11    1    5    5    0    0  0.82388043995E+02 -0.33483428436E+02  0.10658481319E+03  0.13881373195E+03  0.00000000000E+00 0.  1.
          4    1    6    6  503    0 -0.83652761064E+02  0.65539894885E+02 -0.16823089318E+03  0.19898466191E+03  0.00000000000E+00 0. -1.
         -4    1    6    6    0  503 -0.80146900954E+02  0.58770981766E+02 -0.39271802811E+02  0.10686359776E+03  0.00000000000E+00 0.  1.
<mgrwt>
<rscale>  0 0.11734144E+04</rscale>
<asrwt>0</asrwt>
<pdfrwt beam="1">  1        2 0.11231273E+00 0.11734144E+04</pdfrwt>
<pdfrwt beam="2">  1       -1 0.72541599E-01 0.11734144E+04</pdfrwt>
<totfact> 0.84041776E+01</totfact>
</mgrwt>
</event>
<event>
12    6  0.1530859E-007  0.1998116E+04  0.7818608E-02  0.8607502E-01
          2   -1    0    0  501    0  0.00000000000E+00  0.00000000000E+00  0.18137953474E+04  0.18137953474E+04  0.00000000000E+00 0. -1.
         -1   -1    0    0    0  501 -0.00000000000E+00 -0.00000000000E+00 -0.55029202824E+03  0.55029202824E+03  0.00000000000E+00 0.  1.
         24    2    1    2    0    0  0.27332282996E+03 -0.47080770668E+01 -0.38132623731E+03  0.47595302295E+03  0.79962775287E+02 0.  0.
        254    2    1    2    0    0 -0.27332282996E+03  0.47080770668E+01  0.16448295565E+04  0.18881343527E+04  0.88592298119E+03 0.  0.
         23    2    4    4    0    0 -0.54199092971E+03  0.83321247966E+01  0.63824445663E+03  0.84230354191E+03  0.91080613256E+02 0.  0.
         23    2    4    4    0    0  0.26866809975E+03 -0.36240477298E+01  0.10065850998E+04  0.10458308108E+04  0.91393872855E+02 0.  0.
          4    1    3    3  502    0  0.20336513594E+02  0.16221517832E+02 -0.67317235594E+02  0.72168702593E+02  0.00000000000E+00 0. -1.
         -3    1    3    3    0  502  0.25298631637E+03 -0.20929594899E+02 -0.31400900171E+03  0.40378432036E+03  0.00000000000E+00 0.  1.
         11    1    5    5    0    0 -0.54046413613E+03  0.14742132323E+02  0.61855473707E+03  0.82154048936E+03  0.00000000000E+00 0. -1.
        -11    1    5    5    0    0 -0.15267935869E+01 -0.64100075267E+01  0.19689719561E+02  0.20763052558E+02  0.00000000000E+00 0.  1.
          2    1    6    6  503    0  0.83115392905E+02  0.35740181349E+02  0.40799757260E+03  0.41790854065E+03  0.00000000000E+00 0.  1.
         -2    1    6    6    0  503  0.18555270685E+03 -0.39364229079E+02  0.59858752725E+03  0.62792227013E+03  0.00000000000E+00 0. -1.
<mgrwt>
<rscale>  0 0.19981162E+04</rscale>
<asrwt>0</asrwt>
<pdfrwt beam="1">  1        2 0.27904544E+00 0.19981162E+04</pdfrwt>
<pdfrwt beam="2">  1       -1 0.84660313E-01 0.19981162E+04</pdfrwt>
<totfact> 0.12388579E+01</totfact>
</mgrwt>
</event>
<event>
12    6  0.1530859E-007  0.2210495E+04  0.7818608E-02  0.8514073E-01
         -1   -1    0    0    0  501 -0.00000000000E+00  0.00000000000E+00  0.36327593455E+03  0.36327593455E+03  0.00000000000E+00 0.  1.
          2   -1    0    0  501    0  0.00000000000E+00 -0.00000000000E+00 -0.33626546844E+04  0.33626546844E+04  0.00000000000E+00 0. -1.
         24    2    1    2    0    0 -0.37849418746E+03  0.81443054561E+03 -0.15862924091E+04  0.18246725298E+04  0.80939917968E+02 0.  0.
        254    2    1    2    0    0  0.37849418746E+03 -0.81443054561E+03 -0.14130863407E+04  0.19012580891E+04  0.90078540811E+03 0.  0.
         23    2    4    4    0    0 -0.19315508119E+03 -0.25633974657E+03 -0.86994316340E+03  0.93107624347E+03  0.84160041307E+02 0.  0.
         23    2    4    4    0    0  0.57164926865E+03 -0.55809079905E+03 -0.54314317731E+03  0.97018184562E+03  0.89443144985E+02 0.  0.
          4    1    3    3  502    0 -0.96168654763E+02  0.29134344843E+03 -0.56924586342E+03  0.64666086021E+03  0.00000000000E+00 0. -1.
         -1    1    3    3    0  502 -0.28232553270E+03  0.52308709718E+03 -0.10170465457E+04  0.11780116696E+04  0.00000000000E+00 0.  1.
         11    1    5    5    0    0 -0.96832307772E+02 -0.18352920403E+03 -0.48181451222E+03  0.52459955084E+03  0.00000000000E+00 0. -1.
        -11    1    5    5    0    0 -0.96322773414E+02 -0.72810542540E+02 -0.38812865118E+03  0.40647669263E+03  0.00000000000E+00 0.  1.
          3    1    6    6  503    0  0.32594353594E+03 -0.32082979372E+03 -0.25708396007E+03  0.52465522745E+03  0.00000000000E+00 0. -1.
         -3    1    6    6    0  503  0.24570573270E+03 -0.23726100532E+03 -0.28605921724E+03  0.44552661817E+03  0.00000000000E+00 0.  1.
<mgrwt>
<rscale>  0 0.22104945E+04</rscale>
<asrwt>0</asrwt>
<pdfrwt beam="1">  1        2 0.51733147E+00 0.22104945E+04</pdfrwt>
<pdfrwt beam="2">  1       -1 0.55888608E-01 0.22104945E+04</pdfrwt>
<totfact> 0.34107996E+00</totfact>
</mgrwt>
</event>
<event>
12    6  0.1530859E-007  0.2109837E+04  0.7818608E-02  0.8556922E-01
          2   -1    0    0  501    0  0.00000000000E+00  0.00000000000E+00  0.15566732260E+04  0.15566732260E+04  0.00000000000E+00 0. -1.
         -1   -1    0    0    0  501 -0.00000000000E+00 -0.00000000000E+00 -0.71489195246E+03  0.71489195246E+03  0.00000000000E+00 0.  1.
         24    2    1    2    0    0 -0.15904159401E+03  0.49083836126E+03 -0.39923069976E+03  0.65733633119E+03  0.80556658078E+02 0.  0.
        254    2    1    2    0    0  0.15904159401E+03 -0.49083836126E+03  0.12410119733E+04  0.16142288472E+04  0.89409592770E+03 0.  0.
         23    2    4    4    0    0 -0.34027696473E+03 -0.31731721035E+03  0.74685297106E+03  0.88483632556E+03  0.93098538900E+02 0.  0.
         23    2    4    4    0    0  0.49931855873E+03 -0.17352115091E+03  0.49415900220E+03  0.72939252167E+03  0.91606322364E+02 0.  0.
          4    1    3    3  502    0 -0.84011274460E+01  0.13795047832E+03 -0.11583860562E+03  0.18033162774E+03  0.00000000000E+00 0. -1.
         -1    1    3    3    0  502 -0.15064046656E+03  0.35288788294E+03 -0.28339209414E+03  0.47700470345E+03  0.00000000000E+00 0.  1.
         11    1    5    5    0    0 -0.20682504645E+03 -0.24745179476E+03  0.47713260506E+03  0.57590321529E+03  0.00000000000E+00 0. -1.
        -11    1    5    5    0    0 -0.13345191828E+03 -0.69865415585E+02  0.26972036600E+03  0.30893311027E+03  0.00000000000E+00 0.  1.
          4    1    6    6  503    0  0.49372006742E+03 -0.18182908458E+03  0.48112659538E+03  0.71295450188E+03  0.00000000000E+00 0. -1.
         -4    1    6    6    0  503  0.55984913150E+01  0.83079336711E+01  0.13032406820E+02  0.16438019783E+02  0.00000000000E+00 0.  1.
<mgrwt>
<rscale>  0 0.21098371E+04</rscale>
<asrwt>0</asrwt>
<pdfrwt beam="1">  1        2 0.23948819E+00 0.21098371E+04</pdfrwt>
<pdfrwt beam="2">  1       -1 0.10998338E+00 0.21098371E+04</pdfrwt>
<totfact> 0.94448532E+00</totfact>
</mgrwt>
</event>
<event>
12    6  0.1530859E-007  0.1325617E+04  0.7818608E-02  0.9009494E-01
         -1   -1    0    0    0  501 -0.00000000000E+00  0.00000000000E+00  0.34312211041E+03  0.34312211041E+03  0.00000000000E+00 0.  1.
          2   -1    0    0  501    0  0.00000000000E+00 -0.00000000000E+00 -0.12803458088E+04  0.12803458088E+04  0.00000000000E+00 0. -1.
         24    2    1    2    0    0 -0.50725540153E+02 -0.23836947711E+03  0.62952818300E+02  0.26411966514E+03  0.80019073598E+02 0.  0.
        254    2    1    2    0    0  0.50725540153E+02  0.23836947711E+03 -0.10001765167E+04  0.13593482541E+04  0.88773955825E+03 0.  0.
         23    2    4    4    0    0  0.70222640726E+02 -0.32517459507E+03 -0.31054644246E+03  0.46394007303E+03  0.90175173318E+02 0.  0.
         23    2    4    4    0    0 -0.19497100573E+02  0.56354407218E+03 -0.68963007423E+03  0.89540818105E+03  0.90576559806E+02 0.  0.
          2    1    3    3  502    0 -0.25635528976E+02 -0.54488068010E+02 -0.16202123072E+02  0.62358950387E+02  0.00000000000E+00 0. -1.
         -1    1    3    3    0  502 -0.25090011178E+02 -0.18388140910E+03  0.79154941372E+02  0.20176071475E+03  0.00000000000E+00 0.  1.
         11    1    5    5    0    0 -0.11387126757E+02 -0.82862003256E+01 -0.20715618096E+01  0.14234435006E+02  0.00000000000E+00 0. -1.
        -11    1    5    5    0    0  0.81609767483E+02 -0.31688839475E+03 -0.30847488065E+03  0.44970563802E+03  0.00000000000E+00 0.  1.
          1    1    6    6  503    0 -0.20073468806E+02  0.25023485644E+02 -0.30583677251E+02  0.44322458166E+02  0.00000000000E+00 0. -1.
         -1    1    6    6    0  503  0.57636823368E+00  0.53852058654E+03 -0.65904639698E+03  0.85108572289E+03  0.00000000000E+00 0.  1.
<mgrwt>
<rscale>  0 0.13256168E+04</rscale>
<asrwt>0</asrwt>
<pdfrwt beam="1">  1        2 0.19697628E+00 0.13256168E+04</pdfrwt>
<pdfrwt beam="2">  1       -1 0.52788016E-01 0.13256168E+04</pdfrwt>
<totfact> 0.68475856E+01</totfact>
</mgrwt>
</event>
<event>
12    6  0.1530859E-007  0.1207771E+04  0.7818608E-02  0.9106081E-01
         -3   -1    0    0    0  501 -0.00000000000E+00  0.00000000000E+00  0.13228289769E+04  0.13228289769E+04  0.00000000000E+00 0.  1.
          4   -1    0    0  501    0  0.00000000000E+00 -0.00000000000E+00 -0.27568032861E+03  0.27568032861E+03  0.00000000000E+00 0. -1.
         24    2    1    2    0    0  0.15498268742E+03  0.86491903834E+02 -0.11853616762E+02  0.19570249795E+03  0.81599489245E+02 0.  0.
        254    2    1    2    0    0 -0.15498268742E+03 -0.86491903834E+02  0.10590022651E+04  0.14028068076E+04  0.90270740505E+03 0.  0.
         23    2    4    4    0    0  0.35668413410E+03 -0.14751440695E+03  0.44245026670E+03  0.59406428681E+03  0.90366291188E+02 0.  0.
         23    2    4    4    0    0 -0.51166682152E+03  0.61022503116E+02  0.61655199837E+03  0.80874252077E+03  0.91659238855E+02 0.  0.
          2    1    3    3  502    0  0.10240239705E+03  0.97505815536E+02 -0.12759901840E+02  0.14197341328E+03  0.00000000000E+00 0. -1.
         -1    1    3    3    0  502  0.52580290371E+02 -0.11013911701E+02  0.90628507782E+00  0.53729084667E+02  0.00000000000E+00 0.  1.
         11    1    5    5    0    0  0.15932953071E+03 -0.37183770584E+02  0.13320444040E+03  0.21097856548E+03  0.00000000000E+00 0.  1.
        -11    1    5    5    0    0  0.19735460339E+03 -0.11033063637E+03  0.30924582630E+03  0.38308572133E+03  0.00000000000E+00 0. -1.
          2    1    6    6  503    0 -0.39050750455E+03  0.76867428670E+01  0.44616781675E+03  0.59297632147E+03  0.00000000000E+00 0. -1.
         -2    1    6    6    0  503 -0.12115931698E+03  0.53335760249E+02  0.17038418162E+03  0.21576619929E+03  0.00000000000E+00 0.  1.
<mgrwt>
<rscale>  0 0.12077714E+04</rscale>
<asrwt>0</asrwt>
<pdfrwt beam="1">  1        4 0.42412359E-01 0.12077714E+04</pdfrwt>
<pdfrwt beam="2">  1       -3 0.20351215E+00 0.12077714E+04</pdfrwt>
<totfact> 0.17036412E+00</totfact>
</mgrwt>
</event>
